                         Program Version 5.0.4 -  RELEASE  -
|  1> ! RIJCOSX nofrozencore ReducedPop verytightscf
|  2> ! M06L ano-rcc-dzp autoaux
|  3> ! moread
|  4> %moinp "start.gbw"
|  5> %maxcore 5000
|  6>
|  7> %basis
|  8> PCDTrimBas overlap
|  9> PCDTrimAuxJ Coulomb
| 10> PCDTrimAuxJK Coulomb
| 11> PCDTrimAuxC Coulomb
| 12> PCDThresh -1
| 13> end
| 14>
| 15> %basis
| 16> newgto Cu "ano-rcc-tzp" end
| 17> newgto S "ano-rcc-tzp" end
| 18> end
| 19>
| 20> %pal
| 21> nprocs 64
| 22> end
| 23>
| 24> % sym SymThresh 1e-2 end
| 25> * xyzfile -2 2 start.xyz
| 26>
| 27> % eprnmr
| 28> gtensor true
| 29> Nuclei = all H {aiso,adip,aorb,fgrad,rho}
| 30> Nuclei = all Cu {aiso,adip,aorb,fgrad,rho}
| 31> end
| 32>
| 33>                          ****END OF INPUT****

CARTESIAN COORDINATES (ANGSTROEM)
---------------------------------
  Cu     0.000000    0.000000    0.000000
  S      1.661931    1.615597   -0.000000
  C      3.151642    0.711747    0.000000
  S     -1.661931    1.615597    0.000000
  C     -3.151642    0.711747   -0.000000
  S      1.661931   -1.615597    0.000000
  C      3.151642   -0.711747   -0.000000
  S     -1.661931   -1.615597   -0.000000
  C     -3.151642   -0.711747    0.000000
  C     -4.385461   -1.378053    0.000000
  C     -4.385461    1.378053    0.000000
  C     -5.596188    0.696420    0.000000
  H     -4.375043    2.463249    0.000000
  C     -5.596188   -0.696420   -0.000000
  H     -4.375043   -2.463249   -0.000000
  H     -6.530201    1.250749    0.000000
  H     -6.530201   -1.250749    0.000000
  C      4.385461    1.378053    0.000000
  C      4.385461   -1.378053    0.000000
  C      5.596188    0.696420   -0.000000
  H      4.375043    2.463249   -0.000000
  C      5.596188   -0.696420    0.000000
  H      4.375043   -2.463249    0.000000
  H      6.530201    1.250749    0.000000
  H      6.530201   -1.250749    0.000000

 Total Charge           Charge          ....   -2
 Multiplicity           Mult            ....    2
 Number of Electrons    NEL             ....  175
 Basis Dimension        Dim             ....  475

ORBITAL ENERGIES
----------------
                 SPIN UP ORBITALS
  NO   OCC          E(Eh)            E(eV)    Irrep
   0   1.0000    -318.181282     -8658.1529    1-Ag
   1   1.0000     -88.014175     -2394.9875    1-B3u
   2   1.0000     -88.014163     -2394.9871    1-B1g
   3   1.0000     -88.014159     -2394.9870    1-B2u
   4   1.0000     -88.014125     -2394.9861    2-Ag
   5   1.0000     -38.026503     -1034.7537    3-Ag
   6   1.0000     -33.529647      -912.3881    2-B2u
   7   1.0000     -33.528800      -912.3650    2-B3u
   8   1.0000     -33.514998      -911.9895    1-B1u
   9   1.0000      -9.832379      -267.5526    3-B3u
  10   1.0000      -9.832373      -267.5525    4-Ag
  11   1.0000      -9.832047      -267.5436    2-B1g
  12   1.0000      -9.832044      -267.5435    3-B2u
  13   1.0000      -9.823588      -267.3134    4-B3u
  14   1.0000      -9.823588      -267.3134    5-Ag
  15   1.0000      -9.823157      -267.3017    3-B1g
  16   1.0000      -9.823157      -267.3017    4-B2u
  17   1.0000      -9.816233      -267.1133    4-B1g
  18   1.0000      -9.816233      -267.1133    5-B2u
  19   1.0000      -9.816229      -267.1132    5-B3u
  20   1.0000      -9.816228      -267.1132    6-Ag
  21   1.0000      -7.582872      -206.3404    5-B1g
  22   1.0000      -7.582872      -206.3404    6-B2u
  23   1.0000      -7.582868      -206.3403    6-B3u
  24   1.0000      -7.582857      -206.3400    7-Ag
  25   1.0000      -5.506077      -149.8280    6-B1g
  26   1.0000      -5.506076      -149.8280    7-B2u
  27   1.0000      -5.506076      -149.8280    7-B3u
  28   1.0000      -5.506076      -149.8279    8-Ag
  29   1.0000      -5.500769      -149.6835    8-B2u
  30   1.0000      -5.500769      -149.6835    7-B1g
  31   1.0000      -5.500769      -149.6835    8-B3u
  32   1.0000      -5.500769      -149.6835    9-Ag
  33   1.0000      -5.498940      -149.6338    1-Au
  34   1.0000      -5.498940      -149.6338    1-B3g
  35   1.0000      -5.498940      -149.6338    1-B2g
  36   1.0000      -5.498940      -149.6338    2-B1u
  37   1.0000      -4.024116      -109.5018   10-Ag
  38   1.0000      -2.545566       -69.2684    9-B2u
  39   1.0000      -2.544030       -69.2266    9-B3u
  40   1.0000      -2.516564       -68.4792    3-B1u
  41   1.0000      -0.589342       -16.0368   11-Ag
  42   1.0000      -0.589225       -16.0336   10-B3u
  43   1.0000      -0.504496       -13.7280   12-Ag
  44   1.0000      -0.503403       -13.6983   11-B3u
  45   1.0000      -0.489908       -13.3311   10-B2u
  46   1.0000      -0.489660       -13.3243    8-B1g
  47   1.0000      -0.409612       -11.1461   11-B2u
  48   1.0000      -0.407031       -11.0759    9-B1g
  49   1.0000      -0.387762       -10.5515   13-Ag
  50   1.0000      -0.381177       -10.3723   12-B3u
  51   1.0000      -0.321924        -8.7600   14-Ag
  52   1.0000      -0.319266        -8.6877   13-B3u
  53   1.0000      -0.299932        -8.1616   12-B2u
  54   1.0000      -0.296446        -8.0667   10-B1g
  55   1.0000      -0.232922        -6.3381   15-Ag
  56   1.0000      -0.227660        -6.1949   14-B3u
  57   1.0000      -0.189907        -5.1676   16-Ag
  58   1.0000      -0.189042        -5.1441   15-B3u
  59   1.0000      -0.177416        -4.8277   13-B2u
  60   1.0000      -0.174474        -4.7477   11-B1g
  61   1.0000      -0.146565        -3.9882   14-B2u
  62   1.0000      -0.143582        -3.9071   12-B1g
  63   1.0000      -0.131020        -3.5652   17-Ag
  64   1.0000      -0.116871        -3.1802    4-B1u
  65   1.0000      -0.116757        -3.1771    2-B2g
  66   1.0000      -0.113560        -3.0901   16-B3u
  67   1.0000      -0.086541        -2.3549   18-Ag
  68   1.0000      -0.069474        -1.8905   15-B2u
  69   1.0000      -0.065244        -1.7754   13-B1g
  70   1.0000      -0.061971        -1.6863   17-B3u
  71   1.0000      -0.038753        -1.0545    3-B2g
  72   1.0000      -0.037231        -1.0131    5-B1u
  73   1.0000      -0.031187        -0.8486   14-B1g
  74   1.0000      -0.029038        -0.7902   19-Ag
  75   1.0000      -0.026190        -0.7127    2-B3g
  76   1.0000      -0.019243        -0.5236    2-Au
  77   1.0000      -0.002753        -0.0749    3-B3g
  78   1.0000      -0.000515        -0.0140   20-Ag
  79   1.0000       0.001479         0.0403    4-B2g
  80   1.0000       0.018575         0.5055   21-Ag
  81   1.0000       0.019174         0.5218   18-B3u
  82   1.0000       0.034860         0.9486   16-B2u
  83   1.0000       0.050311         1.3690    3-Au
  84   1.0000       0.052441         1.4270    4-B3g
  85   1.0000       0.062747         1.7074    6-B1u
  86   1.0000       0.087793         2.3890    5-B2g
  87   1.0000       0.105163         2.8616   15-B1g
  88   0.0000       0.181456         4.9377   22-Ag
  89   0.0000       0.181564         4.9406   19-B3u
  90   0.0000       0.196839         5.3563   16-B1g
  91   0.0000       0.197011         5.3609   17-B2u
  92   0.0000       0.201027         5.4702    7-B1u

                 SPIN DOWN ORBITALS
  NO   OCC          E(Eh)            E(eV)    Irrep
   0   1.0000    -318.181107     -8658.1481    1-Ag
   1   1.0000     -88.013107     -2394.9584    1-B3u
   2   1.0000     -88.013095     -2394.9581    1-B1g
   3   1.0000     -88.013091     -2394.9580    1-B2u
   4   1.0000     -88.013057     -2394.9570    2-Ag
   5   1.0000     -38.010603     -1034.3211    3-Ag
   6   1.0000     -33.514457      -911.9748    2-B2u
   7   1.0000     -33.513643      -911.9526    2-B3u
   8   1.0000     -33.510665      -911.8716    1-B1u
   9   1.0000      -9.832494      -267.5558    3-B3u
  10   1.0000      -9.832488      -267.5556    4-Ag
  11   1.0000      -9.832161      -267.5467    2-B1g
  12   1.0000      -9.832158      -267.5466    3-B2u
  13   1.0000      -9.823566      -267.3128    4-B3u
  14   1.0000      -9.823566      -267.3128    5-Ag
  15   1.0000      -9.823135      -267.3011    3-B1g
  16   1.0000      -9.823135      -267.3011    4-B2u
  17   1.0000      -9.816175      -267.1117    4-B1g
  18   1.0000      -9.816174      -267.1117    5-B2u
  19   1.0000      -9.816170      -267.1116    5-B3u
  20   1.0000      -9.816170      -267.1116    6-Ag
  21   1.0000      -7.582139      -206.3205    5-B1g
  22   1.0000      -7.582139      -206.3205    6-B2u
  23   1.0000      -7.582136      -206.3204    6-B3u
  24   1.0000      -7.582124      -206.3201    7-Ag
  25   1.0000      -5.505148      -149.8027    6-B1g
  26   1.0000      -5.505148      -149.8027    7-B2u
  27   1.0000      -5.505147      -149.8027    7-B3u
  28   1.0000      -5.505147      -149.8027    8-Ag
  29   1.0000      -5.498525      -149.6225    7-B1g
  30   1.0000      -5.498525      -149.6225    8-B2u
  31   1.0000      -5.498525      -149.6225    8-B3u
  32   1.0000      -5.498525      -149.6225    9-Ag
  33   1.0000      -5.498126      -149.6116    1-Au
  34   1.0000      -5.498126      -149.6116    1-B3g
  35   1.0000      -5.498126      -149.6116    1-B2g
  36   1.0000      -5.498125      -149.6116    2-B1u
  37   1.0000      -3.990307      -108.5818   10-Ag
  38   1.0000      -2.504836       -68.1601    3-B1u
  39   1.0000      -2.503414       -68.1213    9-B2u
  40   1.0000      -2.501854       -68.0789    9-B3u
  41   1.0000      -0.588978       -16.0269   11-Ag
  42   1.0000      -0.588871       -16.0240   10-B3u
  43   1.0000      -0.503178       -13.6922   12-Ag
  44   1.0000      -0.502157       -13.6644   11-B3u
  45   1.0000      -0.488865       -13.3027   10-B2u
  46   1.0000      -0.488641       -13.2966    8-B1g
  47   1.0000      -0.405657       -11.0385   11-B2u
  48   1.0000      -0.402982       -10.9657    9-B1g
  49   1.0000      -0.384569       -10.4647   13-Ag
  50   1.0000      -0.378049       -10.2872   12-B3u
  51   1.0000      -0.320713        -8.7270   14-Ag
  52   1.0000      -0.317741        -8.6462   13-B3u
  53   1.0000      -0.298133        -8.1126   12-B2u
  54   1.0000      -0.294218        -8.0061   10-B1g
  55   1.0000      -0.232344        -6.3224   15-Ag
  56   1.0000      -0.226953        -6.1757   14-B3u
  57   1.0000      -0.188921        -5.1408   16-Ag
  58   1.0000      -0.188141        -5.1196   15-B3u
  59   1.0000      -0.176893        -4.8135   13-B2u
  60   1.0000      -0.173612        -4.7242   11-B1g
  61   1.0000      -0.145878        -3.9696   14-B2u
  62   1.0000      -0.142053        -3.8654   12-B1g
  63   1.0000      -0.129763        -3.5310   17-Ag
  64   1.0000      -0.116700        -3.1756    4-B1u
  65   1.0000      -0.116566        -3.1719    2-B2g
  66   1.0000      -0.112666        -3.0658   16-B3u
  67   1.0000      -0.085125        -2.3164   18-Ag
  68   1.0000      -0.067996        -1.8503   15-B2u
  69   1.0000      -0.060269        -1.6400   17-B3u
  70   1.0000      -0.050640        -1.3780   13-B1g
  71   1.0000      -0.036757        -1.0002    3-B2g
  72   1.0000      -0.036338        -0.9888    5-B1u
  73   1.0000      -0.023077        -0.6280    2-B3g
  74   1.0000      -0.022162        -0.6031   19-Ag
  75   1.0000      -0.018439        -0.5018    2-Au
  76   1.0000      -0.002381        -0.0648   14-B1g
  77   1.0000       0.006943         0.1889    3-B3g
  78   1.0000       0.010356         0.2818   20-Ag
  79   1.0000       0.013770         0.3747    4-B2g
  80   1.0000       0.025985         0.7071   18-B3u
  81   1.0000       0.034355         0.9348   21-Ag
  82   1.0000       0.043170         1.1747   16-B2u
  83   1.0000       0.053145         1.4461    3-Au
  84   1.0000       0.058049         1.5796    4-B3g
  85   1.0000       0.064585         1.7575    6-B1u
  86   1.0000       0.091953         2.5022    5-B2g
  87   0.0000       0.138278         3.7627   15-B1g
  88   0.0000       0.182629         4.9696   22-Ag
  89   0.0000       0.182716         4.9720   19-B3u
  90   0.0000       0.198797         5.4095   16-B1g
  91   0.0000       0.199006         5.4152   17-B2u

MULLIKEN ATOMIC CHARGES AND SPIN POPULATIONS
--------------------------------------------
   0 Cu:    0.140742    0.376134
   1 S :   -0.424277    0.162807
   2 C :    0.023116   -0.007494
   3 S :   -0.424277    0.162807
   4 C :    0.023116   -0.007494
   5 S :   -0.424277    0.162807
   6 C :    0.023116   -0.007494
   7 S :   -0.424277    0.162807
   8 C :    0.023116   -0.007494
   9 C :   -0.091827   -0.001596
  10 C :   -0.091827   -0.001596
  11 C :   -0.138137   -0.000885
  12 H :    0.064638    0.002032
  13 C :   -0.138137   -0.000885
  14 H :    0.064638    0.002032
  15 H :    0.031302    0.001103
  16 H :    0.031302    0.001103
  17 C :   -0.091827   -0.001596
  18 C :   -0.091827   -0.001596
  19 C :   -0.138137   -0.000885
  20 H :    0.064638    0.002032
  21 C :   -0.138137   -0.000885
  22 H :    0.064638    0.002032
  23 H :    0.031302    0.001103
  24 H :    0.031302    0.001103
Sum of atomic charges         :   -2.0000000

LOEWDIN ATOMIC CHARGES AND SPIN POPULATIONS
-------------------------------------------
   0 Cu:   -0.893829    0.442815
   1 S :    0.009130    0.123904
   2 C :   -0.038294    0.005147
   3 S :    0.009130    0.123904
   4 C :   -0.038294    0.005147
   5 S :    0.009130    0.123904
   6 C :   -0.038294    0.005147
   7 S :    0.009130    0.123904
   8 C :   -0.038294    0.005147
   9 C :    0.306526    0.003889
  10 C :    0.306526    0.003889
  11 C :    0.311804   -0.000128
  12 H :   -0.447293    0.006278
  13 C :    0.311804   -0.000128
  14 H :   -0.447293    0.006278
  15 H :   -0.418416    0.000206
  16 H :   -0.418416    0.000206
  17 C :    0.306526    0.003889
  18 C :    0.306526    0.003889
  19 C :    0.311804   -0.000128
  20 H :   -0.447293    0.006278
  21 C :    0.311804   -0.000128
  22 H :   -0.447293    0.006278
  23 H :   -0.418416    0.000206
  24 H :   -0.418416    0.000206

  Mayer bond orders larger than 0.100000
B(  0-Cu,  1-S ) :   0.7014 B(  0-Cu,  3-S ) :   0.7014 B(  0-Cu,  5-S ) :   0.7014
B(  0-Cu,  7-S ) :   0.7014 B(  1-S ,  2-C ) :   1.1853 B(  2-C ,  6-C ) :   1.2440
B(  2-C , 17-C ) :   1.3181 B(  3-S ,  4-C ) :   1.1853 B(  4-C ,  8-C ) :   1.2440
B(  4-C , 10-C ) :   1.3181 B(  5-S ,  6-C ) :   1.1853 B(  6-C , 18-C ) :   1.3181
B(  7-S ,  8-C ) :   1.1853 B(  8-C ,  9-C ) :   1.3181 B(  9-C , 13-C ) :   1.3625
B(  9-C , 14-H ) :   0.9698 B( 10-C , 11-C ) :   1.3625 B( 10-C , 12-H ) :   0.9698
B( 11-C , 13-C ) :   1.3392 B( 11-C , 15-H ) :   0.9883 B( 13-C , 16-H ) :   0.9883
B( 17-C , 19-C ) :   1.3625 B( 17-C , 20-H ) :   0.9698 B( 18-C , 21-C ) :   1.3625
B( 18-C , 22-H ) :   0.9698 B( 19-C , 21-C ) :   1.3392 B( 19-C , 23-H ) :   0.9883
B( 21-C , 24-H ) :   0.9883

FINAL SINGLE POINT ENERGY     -3686.928856676866

DIPOLE MOMENT
-------------
                                X             Y             Z
Electronic contribution:     -0.00000      -0.00000       0.00000
Nuclear contribution   :      0.00000       0.00000       0.00000
                        -----------------------------------------
Total Dipole Moment    :     -0.00000      -0.00000       0.00000
                        -----------------------------------------
Magnitude (a.u.)       :      0.00000
Magnitude (Debye)      :      0.00000

Rotational constants in cm-1:     0.033423     0.004804     0.004200
Rotational constants in MHz :  1001.991351   144.018293   125.919607

                             ****ORCA TERMINATED NORMALLY****
TOTAL RUN TIME: 0 days 3 hours 10 minutes 7 seconds 487 msec
