                         Program Version 5.0.4 -  RELEASE  -
|  1> ! RIJCOSX nofrozencore ReducedPop verytightscf
|  2> ! M06L ano-rcc-dzp autoaux
|  3> ! moread
|  4> %moinp "start.gbw"
|  5> %maxcore 7500
|  6>
|  7> %basis
|  8> PCDTrimBas overlap
|  9> PCDTrimAuxJ Coulomb
| 10> PCDTrimAuxJK Coulomb
| 11> PCDTrimAuxC Coulomb
| 12> PCDThresh -1
| 13> end
| 14>
| 15> %basis
| 16> newgto Cu "ano-rcc-tzp" end
| 17> newgto Se "ano-rcc-tzp" end
| 18> end
| 19>
| 20> %pal
| 21> nprocs 64
| 22> end
| 23>
| 24> % sym SymThresh 1e-2 end
| 25> * xyzfile -2 2 start.xyz
| 26>
| 27> % eprnmr
| 28> gtensor true
| 29> Nuclei = all H {aiso,adip,aorb,fgrad,rho}
| 30> Nuclei = all Cu {aiso,adip,aorb,fgrad,rho}
| 31> end
| 32>
| 33>                          ****END OF INPUT****

CARTESIAN COORDINATES (ANGSTROEM)
---------------------------------
  Cu     0.000000    0.000000    0.000000
  Se     1.755969    1.588883    0.000000
  C      3.126639    0.693488   -0.000000
  Se    -1.755969    1.588883   -0.000000
  C     -3.126639    0.693488    0.000000
  Se     1.755969   -1.588883   -0.000000
  C      3.126639   -0.693488    0.000000
  Se    -1.755969   -1.588883    0.000000
  C     -3.126639   -0.693488   -0.000000
  C     -4.368893   -1.318862    0.000000
  C     -4.368893    1.318862    0.000000
  C     -5.597896    0.694220    0.000000
  H     -4.360734    2.398899    0.000000
  C     -5.597896   -0.694220   -0.000000
  H     -4.360734   -2.398899    0.000000
  H     -6.512078    1.278516   -0.000000
  H     -6.512078   -1.278516    0.000000
  C      4.368893    1.318862    0.000000
  C      4.368893   -1.318862    0.000000
  C      5.597896    0.694220   -0.000000
  H      4.360734    2.398899    0.000000
  C      5.597896   -0.694220    0.000000
  H      4.360734   -2.398899    0.000000
  H      6.512078    1.278516    0.000000
  H      6.512078   -1.278516   -0.000000

 Total Charge           Charge          ....   -2
 Multiplicity           Mult            ....    2
 Number of Electrons    NEL             ....  247
 Basis Dimension        Dim             ....  575

ORBITAL ENERGIES
----------------
                 SPIN UP ORBITALS
  NO   OCC          E(Eh)            E(eV)    Irrep
   0   1.0000    -443.561452    -12069.9207    1-B2u
   1   1.0000    -443.560363    -12069.8911    1-B1g
   2   1.0000    -443.546600    -12069.5166    1-Ag
   3   1.0000    -443.546539    -12069.5149    1-B3u
   4   1.0000    -318.186693     -8658.3001    2-Ag
   5   1.0000     -56.369931     -1533.9038    2-B2u
   6   1.0000     -56.369638     -1533.8958    2-B1g
   7   1.0000     -56.356834     -1533.5474    3-Ag
   8   1.0000     -56.356566     -1533.5401    2-B3u
   9   1.0000     -51.285907     -1395.5605    3-B1g
  10   1.0000     -51.285842     -1395.5587    3-B3u
  11   1.0000     -51.285838     -1395.5586    3-B2u
  12   1.0000     -51.285808     -1395.5578    4-Ag
  13   1.0000     -51.284543     -1395.5234    4-B1g
  14   1.0000     -51.284536     -1395.5232    4-B2u
  15   1.0000     -51.284498     -1395.5221    4-B3u
  16   1.0000     -51.284464     -1395.5212    5-Ag
  17   1.0000     -51.284107     -1395.5115    1-Au
  18   1.0000     -51.284077     -1395.5107    1-B3g
  19   1.0000     -51.284061     -1395.5102    1-B2g
  20   1.0000     -51.284026     -1395.5093    1-B1u
  21   1.0000     -38.027260     -1034.7744    6-Ag
  22   1.0000     -33.529326      -912.3794    5-B2u
  23   1.0000     -33.528535      -912.3578    5-B3u
  24   1.0000     -33.517309      -912.0524    2-B1u
  25   1.0000      -9.815673      -267.0981    6-B3u
  26   1.0000      -9.815673      -267.0980    7-Ag
  27   1.0000      -9.815225      -267.0858    5-B1g
  28   1.0000      -9.815225      -267.0858    6-B2u
  29   1.0000      -9.808212      -266.8950    7-B3u
  30   1.0000      -9.808205      -266.8948    8-Ag
  31   1.0000      -9.807759      -266.8827    6-B1g
  32   1.0000      -9.807756      -266.8826    7-B2u
  33   1.0000      -9.806179      -266.8397    8-B3u
  34   1.0000      -9.806179      -266.8397    9-Ag
  35   1.0000      -9.806177      -266.8397    7-B1g
  36   1.0000      -9.806176      -266.8396    8-B2u
  37   1.0000      -7.340851      -199.7547    9-B2u
  38   1.0000      -7.340806      -199.7535    8-B1g
  39   1.0000      -7.333495      -199.5546   10-Ag
  40   1.0000      -7.333380      -199.5514    9-B3u
  41   1.0000      -5.403669      -147.0413    9-B1g
  42   1.0000      -5.403641      -147.0406   10-B3u
  43   1.0000      -5.403628      -147.0402   10-B2u
  44   1.0000      -5.403619      -147.0399   11-Ag
  45   1.0000      -5.398350      -146.8966   10-B1g
  46   1.0000      -5.398346      -146.8965   11-B2u
  47   1.0000      -5.398331      -146.8961   11-B3u
  48   1.0000      -5.398313      -146.8956   12-Ag
  49   1.0000      -5.397991      -146.8868    2-Au
  50   1.0000      -5.397974      -146.8863    2-B3g
  51   1.0000      -5.397966      -146.8861    2-B2g
  52   1.0000      -5.397947      -146.8856    3-B1u
  53   1.0000      -4.021568      -109.4324   13-Ag
  54   1.0000      -2.541156       -69.1484   12-B2u
  55   1.0000      -2.540202       -69.1224   12-B3u
  56   1.0000      -2.516604       -68.4803    4-B1u
  57   1.0000      -1.742710       -47.4216   14-Ag
  58   1.0000      -1.742696       -47.4212   13-B3u
  59   1.0000      -1.742680       -47.4207   13-B2u
  60   1.0000      -1.742668       -47.4204   11-B1g
  61   1.0000      -1.739963       -47.3468   15-Ag
  62   1.0000      -1.739944       -47.3463   14-B3u
  63   1.0000      -1.739877       -47.3445   14-B2u
  64   1.0000      -1.739865       -47.3441   12-B1g
  65   1.0000      -1.739229       -47.3268    5-B1u
  66   1.0000      -1.739227       -47.3268    3-B2g
  67   1.0000      -1.739223       -47.3267    3-B3g
  68   1.0000      -1.739220       -47.3266    3-Au
  69   1.0000      -1.734872       -47.2083   16-Ag
  70   1.0000      -1.734864       -47.2080   15-B3u
  71   1.0000      -1.734849       -47.2076    6-B1u
  72   1.0000      -1.734847       -47.2076    4-B2g
  73   1.0000      -1.734825       -47.2070    4-Au
  74   1.0000      -1.734824       -47.2070    4-B3g
  75   1.0000      -1.734804       -47.2064   13-B1g
  76   1.0000      -1.734800       -47.2063   15-B2u
  77   1.0000      -0.602458       -16.3937   17-Ag
  78   1.0000      -0.602255       -16.3882   16-B3u
  79   1.0000      -0.521445       -14.1892   18-Ag
  80   1.0000      -0.520707       -14.1692   17-B3u
  81   1.0000      -0.499154       -13.5827   16-B2u
  82   1.0000      -0.498917       -13.5762   14-B1g
  83   1.0000      -0.412943       -11.2368   17-B2u
  84   1.0000      -0.411805       -11.2058   15-B1g
  85   1.0000      -0.383316       -10.4306   19-Ag
  86   1.0000      -0.378795       -10.3075   18-B3u
  87   1.0000      -0.320670        -8.7259   20-Ag
  88   1.0000      -0.318382        -8.6636   19-B3u
  89   1.0000      -0.287441        -7.8217   18-B2u
  90   1.0000      -0.284234        -7.7344   16-B1g
  91   1.0000      -0.230028        -6.2594   21-Ag
  92   1.0000      -0.223371        -6.0782   20-B3u
  93   1.0000      -0.200276        -5.4498   22-Ag
  94   1.0000      -0.199283        -5.4228   21-B3u
  95   1.0000      -0.170389        -4.6365   19-B2u
  96   1.0000      -0.165525        -4.5042   17-B1g
  97   1.0000      -0.138616        -3.7719   20-B2u
  98   1.0000      -0.136976        -3.7273   18-B1g
  99   1.0000      -0.136716        -3.7202   23-Ag
 100   1.0000      -0.130316        -3.5461    7-B1u
 101   1.0000      -0.130110        -3.5405    5-B2g
 102   1.0000      -0.110498        -3.0068   22-B3u
 103   1.0000      -0.082093        -2.2339   24-Ag
 104   1.0000      -0.071528        -1.9464   21-B2u
 105   1.0000      -0.065648        -1.7864   19-B1g
 106   1.0000      -0.062438        -1.6990   23-B3u
 107   1.0000      -0.048452        -1.3184    6-B2g
 108   1.0000      -0.047642        -1.2964    8-B1u
 109   1.0000      -0.033107        -0.9009    5-B3g
 110   1.0000      -0.029639        -0.8065   20-B1g
 111   1.0000      -0.029164        -0.7936   25-Ag
 112   1.0000      -0.026849        -0.7306    5-Au
 113   1.0000      -0.001569        -0.0427    6-B3g
 114   1.0000      -0.000761        -0.0207    7-B2g
 115   1.0000       0.000915         0.0249   26-Ag
 116   1.0000       0.019601         0.5334   27-Ag
 117   1.0000       0.021359         0.5812   24-B3u
 118   1.0000       0.041156         1.1199   22-B2u
 119   1.0000       0.055248         1.5034    6-Au
 120   1.0000       0.056294         1.5318    7-B3g
 121   1.0000       0.070724         1.9245    9-B1u
 122   1.0000       0.099626         2.7109    8-B2g
 123   1.0000       0.116562         3.1718   21-B1g
 124   0.0000       0.182211         4.9582   25-B3u
 125   0.0000       0.182347         4.9619   28-Ag
 126   0.0000       0.196228         5.3396   22-B1g
 127   0.0000       0.196658         5.3513   23-B2u
 128   0.0000       0.202124         5.5001   10-B1u

                 SPIN DOWN ORBITALS
  NO   OCC          E(Eh)            E(eV)    Irrep
   0   1.0000    -443.560999    -12069.9084    1-B2u
   1   1.0000    -443.559910    -12069.8788    1-B1g
   2   1.0000    -443.546147    -12069.5043    1-Ag
   3   1.0000    -443.546086    -12069.5026    1-B3u
   4   1.0000    -318.186569     -8658.2967    2-Ag
   5   1.0000     -56.369748     -1533.8988    2-B2u
   6   1.0000     -56.369454     -1533.8908    2-B1g
   7   1.0000     -56.356653     -1533.5425    3-Ag
   8   1.0000     -56.356385     -1533.5352    2-B3u
   9   1.0000     -51.285586     -1395.5517    3-B1g
  10   1.0000     -51.285515     -1395.5498    3-B2u
  11   1.0000     -51.285512     -1395.5497    3-B3u
  12   1.0000     -51.285478     -1395.5488    4-Ag
  13   1.0000     -51.283856     -1395.5047    1-Au
  14   1.0000     -51.283826     -1395.5039    1-B3g
  15   1.0000     -51.283810     -1395.5034    1-B2g
  16   1.0000     -51.283806     -1395.5033    4-B1g
  17   1.0000     -51.283800     -1395.5031    4-B2u
  18   1.0000     -51.283775     -1395.5025    1-B1u
  19   1.0000     -51.283770     -1395.5023    4-B3u
  20   1.0000     -51.283736     -1395.5014    5-Ag
  21   1.0000     -38.013326     -1034.3952    6-Ag
  22   1.0000     -33.516086      -912.0191    5-B2u
  23   1.0000     -33.515295      -911.9975    5-B3u
  24   1.0000     -33.513417      -911.9464    2-B1u
  25   1.0000      -9.815623      -267.0967    6-B3u
  26   1.0000      -9.815623      -267.0967    7-Ag
  27   1.0000      -9.815175      -267.0845    5-B1g
  28   1.0000      -9.815175      -267.0845    6-B2u
  29   1.0000      -9.808230      -266.8955    7-B3u
  30   1.0000      -9.808224      -266.8953    8-Ag
  31   1.0000      -9.807775      -266.8831    6-B1g
  32   1.0000      -9.807773      -266.8831    7-B2u
  33   1.0000      -9.806061      -266.8365    8-B3u
  34   1.0000      -9.806060      -266.8365    9-Ag
  35   1.0000      -9.806060      -266.8365    7-B1g
  36   1.0000      -9.806059      -266.8364    8-B2u
  37   1.0000      -7.340450      -199.7438    9-B2u
  38   1.0000      -7.340408      -199.7427    8-B1g
  39   1.0000      -7.333088      -199.5435   10-Ag
  40   1.0000      -7.332972      -199.5403    9-B3u
  41   1.0000      -5.403305      -147.0314    9-B1g
  42   1.0000      -5.403277      -147.0306   10-B3u
  43   1.0000      -5.403264      -147.0303   10-B2u
  44   1.0000      -5.403254      -147.0300   11-Ag
  45   1.0000      -5.397678      -146.8783    2-Au
  46   1.0000      -5.397661      -146.8778    2-B3g
  47   1.0000      -5.397653      -146.8776    2-B2g
  48   1.0000      -5.397633      -146.8771    3-B1u
  49   1.0000      -5.397523      -146.8741   10-B1g
  50   1.0000      -5.397519      -146.8740   11-B2u
  51   1.0000      -5.397506      -146.8736   11-B3u
  52   1.0000      -5.397487      -146.8731   12-Ag
  53   1.0000      -3.993234      -108.6614   13-Ag
  54   1.0000      -2.506250       -68.1985    4-B1u
  55   1.0000      -2.505782       -68.1858   12-B2u
  56   1.0000      -2.504759       -68.1580   12-B3u
  57   1.0000      -1.742260       -47.4093   14-Ag
  58   1.0000      -1.742247       -47.4089   13-B3u
  59   1.0000      -1.742229       -47.4085   13-B2u
  60   1.0000      -1.742218       -47.4082   11-B1g
  61   1.0000      -1.739070       -47.3225   15-Ag
  62   1.0000      -1.739052       -47.3220   14-B3u
  63   1.0000      -1.738982       -47.3201   14-B2u
  64   1.0000      -1.738970       -47.3198   12-B1g
  65   1.0000      -1.738916       -47.3183    5-B1u
  66   1.0000      -1.738914       -47.3183    3-B2g
  67   1.0000      -1.738909       -47.3181    3-B3g
  68   1.0000      -1.738906       -47.3180    3-Au
  69   1.0000      -1.734082       -47.1868    6-B1u
  70   1.0000      -1.734080       -47.1867    4-B2g
  71   1.0000      -1.734064       -47.1863   16-Ag
  72   1.0000      -1.734059       -47.1862    4-Au
  73   1.0000      -1.734058       -47.1861    4-B3g
  74   1.0000      -1.734054       -47.1860   15-B3u
  75   1.0000      -1.734001       -47.1846   13-B1g
  76   1.0000      -1.733997       -47.1845   15-B2u
  77   1.0000      -0.601650       -16.3717   17-Ag
  78   1.0000      -0.601461       -16.3666   16-B3u
  79   1.0000      -0.520304       -14.1582   18-Ag
  80   1.0000      -0.519601       -14.1391   17-B3u
  81   1.0000      -0.497459       -13.5365   16-B2u
  82   1.0000      -0.497238       -13.5305   14-B1g
  83   1.0000      -0.410268       -11.1640   17-B2u
  84   1.0000      -0.409109       -11.1324   15-B1g
  85   1.0000      -0.380827       -10.3628   19-Ag
  86   1.0000      -0.376493       -10.2449   18-B3u
  87   1.0000      -0.318922        -8.6783   20-Ag
  88   1.0000      -0.316478        -8.6118   19-B3u
  89   1.0000      -0.285053        -7.7567   18-B2u
  90   1.0000      -0.281594        -7.6625   16-B1g
  91   1.0000      -0.228894        -6.2285   21-Ag
  92   1.0000      -0.222298        -6.0490   20-B3u
  93   1.0000      -0.198978        -5.4145   22-Ag
  94   1.0000      -0.198060        -5.3895   21-B3u
  95   1.0000      -0.168958        -4.5976   19-B2u
  96   1.0000      -0.163461        -4.4480   17-B1g
  97   1.0000      -0.137733        -3.7479   20-B2u
  98   1.0000      -0.135297        -3.6816   18-B1g
  99   1.0000      -0.134743        -3.6666   23-Ag
 100   1.0000      -0.129945        -3.5360    7-B1u
 101   1.0000      -0.129712        -3.5296    5-B2g
 102   1.0000      -0.108758        -2.9595   22-B3u
 103   1.0000      -0.080723        -2.1966   24-Ag
 104   1.0000      -0.070065        -1.9066   21-B2u
 105   1.0000      -0.060237        -1.6391   23-B3u
 106   1.0000      -0.054039        -1.4705   19-B1g
 107   1.0000      -0.047298        -1.2870    6-B2g
 108   1.0000      -0.047085        -1.2812    8-B1u
 109   1.0000      -0.030712        -0.8357    5-B3g
 110   1.0000      -0.025882        -0.7043    5-Au
 111   1.0000      -0.022728        -0.6185   25-Ag
 112   1.0000      -0.001776        -0.0483   20-B1g
 113   1.0000       0.008088         0.2201    6-B3g
 114   1.0000       0.010464         0.2847    7-B2g
 115   1.0000       0.011320         0.3080   26-Ag
 116   1.0000       0.029518         0.8032   24-B3u
 117   1.0000       0.032483         0.8839   27-Ag
 118   1.0000       0.052403         1.4260   22-B2u
 119   1.0000       0.057104         1.5539    6-Au
 120   1.0000       0.059922         1.6306    7-B3g
 121   1.0000       0.072446         1.9714    9-B1u
 122   1.0000       0.102877         2.7994    8-B2g
 123   0.0000       0.146446         3.9850   21-B1g
 124   0.0000       0.184163         5.0113   25-B3u
 125   0.0000       0.184319         5.0156   28-Ag
 126   0.0000       0.199555         5.4302   22-B1g
 127   0.0000       0.200082         5.4445   23-B2u

MULLIKEN ATOMIC CHARGES AND SPIN POPULATIONS
--------------------------------------------
   0 Cu:    0.637404    0.311138
   1 Se:   -0.733606    0.173191
   2 C :    0.221789   -0.003176
   3 Se:   -0.733606    0.173191
   4 C :    0.221789   -0.003176
   5 Se:   -0.733606    0.173191
   6 C :    0.221789   -0.003176
   7 Se:   -0.733606    0.173191
   8 C :    0.221789   -0.003176
   9 C :   -0.103712   -0.001525
  10 C :   -0.103712   -0.001525
  11 C :   -0.156619   -0.000698
  12 H :    0.091927    0.002810
  13 C :   -0.156619   -0.000698
  14 H :    0.091927    0.002810
  15 H :    0.020871    0.001613
  16 H :    0.020871    0.001613
  17 C :   -0.103712   -0.001525
  18 C :   -0.103712   -0.001525
  19 C :   -0.156619   -0.000698
  20 H :    0.091927    0.002810
  21 C :   -0.156619   -0.000698
  22 H :    0.091927    0.002810
  23 H :    0.020871    0.001613
  24 H :    0.020871    0.001613
Sum of atomic charges         :   -2.0000000

LOEWDIN ATOMIC CHARGES AND SPIN POPULATIONS
-------------------------------------------
   0 Cu:   -0.615641    0.391341
   1 Se:   -0.202535    0.123226
   2 C :    0.038337    0.011773
   3 Se:   -0.202535    0.123226
   4 C :    0.038337    0.011773
   5 Se:   -0.202535    0.123226
   6 C :    0.038337    0.011773
   7 Se:   -0.202535    0.123226
   8 C :    0.038337    0.011773
   9 C :    0.370970    0.006905
  10 C :    0.370970    0.006905
  11 C :    0.319629    0.000436
  12 H :   -0.460146    0.009433
  13 C :    0.319629    0.000436
  14 H :   -0.460146    0.009433
  15 H :   -0.412344    0.000392
  16 H :   -0.412344    0.000392
  17 C :    0.370970    0.006905
  18 C :    0.370970    0.006905
  19 C :    0.319629    0.000436
  20 H :   -0.460146    0.009433
  21 C :    0.319629    0.000436
  22 H :   -0.460146    0.009433
  23 H :   -0.412344    0.000392
  24 H :   -0.412344    0.000392

  Mayer bond orders larger than 0.100000
B(  0-Cu,  1-Se) :   0.5512 B(  0-Cu,  3-Se) :   0.5512 B(  0-Cu,  5-Se) :   0.5512
B(  0-Cu,  7-Se) :   0.5512 B(  1-Se,  2-C ) :   1.0385 B(  2-C ,  6-C ) :   1.1333
B(  2-C , 17-C ) :   1.2575 B(  3-Se,  4-C ) :   1.0385 B(  4-C ,  8-C ) :   1.1333
B(  4-C , 10-C ) :   1.2575 B(  5-Se,  6-C ) :   1.0385 B(  6-C , 18-C ) :   1.2575
B(  7-Se,  8-C ) :   1.0385 B(  8-C ,  9-C ) :   1.2575 B(  9-C , 13-C ) :   1.3790
B(  9-C , 14-H ) :   0.9600 B( 10-C , 11-C ) :   1.3790 B( 10-C , 12-H ) :   0.9600
B( 11-C , 13-C ) :   1.3127 B( 11-C , 15-H ) :   0.9955 B( 13-C , 16-H ) :   0.9955
B( 17-C , 19-C ) :   1.3790 B( 17-C , 20-H ) :   0.9600 B( 18-C , 21-C ) :   1.3790
B( 18-C , 22-H ) :   0.9600 B( 19-C , 21-C ) :   1.3127 B( 19-C , 23-H ) :   0.9955
B( 21-C , 24-H ) :   0.9955

FINAL SINGLE POINT ENERGY    -11627.147465598371

DIPOLE MOMENT
-------------
                                X             Y             Z
Electronic contribution:     -0.00000      -0.00000       0.00000
Nuclear contribution   :      0.00000      -0.00000       0.00000
                        -----------------------------------------
Total Dipole Moment    :     -0.00000      -0.00000       0.00000
                        -----------------------------------------
Magnitude (a.u.)       :      0.00000
Magnitude (Debye)      :      0.00000

Rotational constants in cm-1:     0.017616     0.004098     0.003325
Rotational constants in MHz :   528.100978   122.851164    99.666036

                             ****ORCA TERMINATED NORMALLY****
TOTAL RUN TIME: 0 days 4 hours 58 minutes 6 seconds 874 msec
