                         Program Version 5.0.4 -  RELEASE  -
|  1> ! nofrozencore ReducedPop printbasis
|  2> ! B3LYP TZVP
|  3> ! moread
|  4> %moinp "start.gbw"
|  5>
|  6> %basis
|  7> newgto V "CP(PPP)" end
|  8> end
|  9>
| 10> %pal
| 11> nprocs 16
| 12> end
| 13>
| 14> % sym SymThresh 1e-2 end
| 15> * xyzfile -2 2 relax.xyz
| 16>
| 17> % eprnmr
| 18>
| 19> gtensor true
| 20>
| 21> Nuclei = all H {aiso,adip,aorb,fgrad,rho}
| 22> Nuclei = all V {aiso,adip,aorb,fgrad,rho}
| 23>
| 24> end
| 25>
| 26>                          ****END OF INPUT****

CARTESIAN COORDINATES (ANGSTROEM)
---------------------------------
  V     -0.102276   -0.162535    0.454322
  S      1.699153    1.541563    0.964256
  S     -1.317148    1.851044   -0.224365
  S      1.635004   -1.636632   -0.531538
  S     -1.554651   -1.536260   -1.026703
  O     -0.523731   -0.604842    1.935854
  C     -3.007273    1.338166   -0.797213
  C     -3.312635   -1.203341   -0.543448
  C     -3.624003    0.190410    0.011447
  H     -3.625085   -1.953287    0.192603
  H     -3.916517   -1.368114   -1.445388
  H     -3.268796    0.262890    1.042560
  H     -4.723222    0.301253    0.040878
  H     -2.961929    1.054712   -1.854024
  H     -3.639176    2.230264   -0.716401
  C      2.827729    1.347619   -0.487980
  C      3.235099   -1.094569    0.222969
  C      3.829326    0.192932   -0.356686
  H      3.953832   -1.913539    0.097493
  H      3.068791   -0.952101    1.290662
  H      4.258337   -0.014332   -1.349672
  H      4.661701    0.507672    0.293521
  H      3.372846    2.288270   -0.629029
  H      2.211645    1.192488   -1.374099

 Total Charge           Charge          ....   -2
 Multiplicity           Mult            ....    2
 Number of Electrons    NEL             ....  145
 Basis Dimension        Dim             ....  353

ORBITAL ENERGIES
----------------
                 SPIN UP ORBITALS
  NO   OCC          E(Eh)            E(eV)
   0   1.0000    -196.606703     -5349.9404
   1   1.0000     -88.561221     -2409.8733
   2   1.0000     -88.560564     -2409.8554
   3   1.0000     -88.558665     -2409.8038
   4   1.0000     -88.557028     -2409.7592
   5   1.0000     -21.982069      -598.1625
   6   1.0000     -18.824516      -512.2411
   7   1.0000     -18.489860      -503.1347
   8   1.0000     -18.482680      -502.9393
   9   1.0000     -18.482591      -502.9369
  10   1.0000      -9.942371      -270.5457
  11   1.0000      -9.934931      -270.3432
  12   1.0000      -9.933980      -270.3173
  13   1.0000      -9.933820      -270.3130
  14   1.0000      -9.931624      -270.2532
  15   1.0000      -9.928722      -270.1743
  16   1.0000      -7.615382      -207.2251
  17   1.0000      -7.614377      -207.1977
  18   1.0000      -7.612998      -207.1602
  19   1.0000      -7.611392      -207.1165
  20   1.0000      -5.580578      -151.8553
  21   1.0000      -5.579791      -151.8338
  22   1.0000      -5.578428      -151.7967
  23   1.0000      -5.576615      -151.7474
  24   1.0000      -5.574380      -151.6866
  25   1.0000      -5.573214      -151.6549
  26   1.0000      -5.572630      -151.6390
  27   1.0000      -5.572026      -151.6225
  28   1.0000      -5.571557      -151.6098
  29   1.0000      -5.570607      -151.5839
  30   1.0000      -5.569922      -151.5653
  31   1.0000      -5.568441      -151.5250
  32   1.0000      -2.374709       -64.6191
  33   1.0000      -1.417402       -38.5695
  34   1.0000      -1.402808       -38.1723
  35   1.0000      -1.402328       -38.1593
  36   1.0000      -0.587058       -15.9747
  37   1.0000      -0.551284       -15.0012
  38   1.0000      -0.550561       -14.9815
  39   1.0000      -0.469122       -12.7655
  40   1.0000      -0.465544       -12.6681
  41   1.0000      -0.403893       -10.9905
  42   1.0000      -0.396522       -10.7899
  43   1.0000      -0.337522        -9.1844
  44   1.0000      -0.327418        -8.9095
  45   1.0000      -0.304631        -8.2894
  46   1.0000      -0.285519        -7.7694
  47   1.0000      -0.213903        -5.8206
  48   1.0000      -0.207281        -5.6404
  49   1.0000      -0.202655        -5.5145
  50   1.0000      -0.197948        -5.3864
  51   1.0000      -0.160712        -4.3732
  52   1.0000      -0.133597        -3.6354
  53   1.0000      -0.131292        -3.5726
  54   1.0000      -0.112035        -3.0486
  55   1.0000      -0.107672        -2.9299
  56   1.0000      -0.105854        -2.8804
  57   1.0000      -0.081761        -2.2248
  58   1.0000      -0.069183        -1.8826
  59   1.0000      -0.063342        -1.7236
  60   1.0000      -0.055601        -1.5130
  61   1.0000      -0.045877        -1.2484
  62   1.0000      -0.041006        -1.1158
  63   1.0000      -0.035834        -0.9751
  64   1.0000      -0.000349        -0.0095
  65   1.0000       0.027691         0.7535
  66   1.0000       0.030681         0.8349
  67   1.0000       0.037412         1.0180
  68   1.0000       0.045819         1.2468
  69   1.0000       0.053828         1.4647
  70   1.0000       0.064527         1.7559
  71   1.0000       0.072907         1.9839
  72   1.0000       0.081306         2.2125
  73   0.0000       0.234936         6.3929
  74   0.0000       0.246760         6.7147
  75   0.0000       0.250318         6.8115
  76   0.0000       0.251995         6.8571
  77   0.0000       0.258863         7.0440

                 SPIN DOWN ORBITALS
  NO   OCC          E(Eh)            E(eV)
   0   1.0000    -196.606845     -5349.9442
   1   1.0000     -88.561381     -2409.8777
   2   1.0000     -88.560739     -2409.8602
   3   1.0000     -88.558768     -2409.8066
   4   1.0000     -88.557001     -2409.7585
   5   1.0000     -21.967023      -597.7531
   6   1.0000     -18.827993      -512.3357
   7   1.0000     -18.484661      -502.9932
   8   1.0000     -18.466620      -502.5023
   9   1.0000     -18.466133      -502.4890
  10   1.0000      -9.942191      -270.5408
  11   1.0000      -9.934800      -270.3397
  12   1.0000      -9.933804      -270.3126
  13   1.0000      -9.933763      -270.3114
  14   1.0000      -9.931583      -270.2521
  15   1.0000      -9.928741      -270.1748
  16   1.0000      -7.615534      -207.2292
  17   1.0000      -7.614548      -207.2024
  18   1.0000      -7.613096      -207.1629
  19   1.0000      -7.611368      -207.1159
  20   1.0000      -5.580731      -151.8594
  21   1.0000      -5.579956      -151.8383
  22   1.0000      -5.578550      -151.8001
  23   1.0000      -5.576631      -151.7479
  24   1.0000      -5.574801      -151.6980
  25   1.0000      -5.573667      -151.6672
  26   1.0000      -5.572749      -151.6422
  27   1.0000      -5.572430      -151.6335
  28   1.0000      -5.571690      -151.6134
  29   1.0000      -5.570943      -151.5931
  30   1.0000      -5.569847      -151.5633
  31   1.0000      -5.567975      -151.5123
  32   1.0000      -2.329798       -63.3970
  33   1.0000      -1.398416       -38.0528
  34   1.0000      -1.341211       -36.4962
  35   1.0000      -1.339401       -36.4470
  36   1.0000      -0.594500       -16.1772
  37   1.0000      -0.551187       -14.9986
  38   1.0000      -0.550406       -14.9773
  39   1.0000      -0.469066       -12.7639
  40   1.0000      -0.465419       -12.6647
  41   1.0000      -0.403941       -10.9918
  42   1.0000      -0.396663       -10.7937
  43   1.0000      -0.337671        -9.1885
  44   1.0000      -0.327820        -8.9204
  45   1.0000      -0.304599        -8.2886
  46   1.0000      -0.285528        -7.7696
  47   1.0000      -0.213841        -5.8189
  48   1.0000      -0.207219        -5.6387
  49   1.0000      -0.202524        -5.5110
  50   1.0000      -0.197795        -5.3823
  51   1.0000      -0.160585        -4.3697
  52   1.0000      -0.133434        -3.6309
  53   1.0000      -0.131023        -3.5653
  54   1.0000      -0.112024        -3.0483
  55   1.0000      -0.107608        -2.9282
  56   1.0000      -0.105690        -2.8760
  57   1.0000      -0.080585        -2.1928
  58   1.0000      -0.067022        -1.8238
  59   1.0000      -0.062431        -1.6988
  60   1.0000      -0.055608        -1.5132
  61   1.0000      -0.046871        -1.2754
  62   1.0000      -0.041829        -1.1382
  63   1.0000      -0.036965        -1.0059
  64   1.0000       0.004291         0.1168
  65   1.0000       0.028748         0.7823
  66   1.0000       0.033627         0.9150
  67   1.0000       0.045678         1.2430
  68   1.0000       0.046887         1.2759
  69   1.0000       0.061825         1.6823
  70   1.0000       0.068680         1.8689
  71   1.0000       0.074287         2.0215
  72   0.0000       0.233774         6.3613
  73   0.0000       0.251055         6.8316
  74   0.0000       0.255596         6.9551
  75   0.0000       0.261309         7.1106
  76   0.0000       0.265360         7.2208

MULLIKEN ATOMIC CHARGES AND SPIN POPULATIONS
--------------------------------------------
   0 V :    0.527819    1.191823
   1 S :   -0.427984   -0.001538
   2 S :   -0.352885   -0.033077
   3 S :   -0.410262   -0.029309
   4 S :   -0.384262   -0.021691
   5 O :   -0.547956   -0.134099
   6 C :   -0.246153    0.005644
   7 C :   -0.235341    0.006554
   8 C :   -0.158486    0.003082
   9 H :    0.075068   -0.000937
  10 H :    0.051338    0.002152
  11 H :    0.138600    0.000618
  12 H :    0.005316   -0.000050
  13 H :    0.094727   -0.000130
  14 H :    0.048940   -0.000053
  15 C :   -0.256125   -0.002228
  16 C :   -0.251704    0.003543
  17 C :   -0.069570    0.008401
  18 H :    0.047305   -0.000071
  19 H :    0.130910   -0.000224
  20 H :    0.015244    0.001614
  21 H :    0.012679    0.000083
  22 H :    0.052297   -0.000574
  23 H :    0.140486    0.000467
Sum of atomic charges         :   -2.0000000

LOEWDIN ATOMIC CHARGES AND SPIN POPULATIONS
-------------------------------------------
   0 V :   -0.208840    1.148457
   1 S :   -0.072311    0.003840
   2 S :   -0.037953   -0.022660
   3 S :   -0.060740   -0.020440
   4 S :   -0.062702   -0.012596
   5 O :   -0.377323   -0.120867
   6 C :   -0.326496    0.005149
   7 C :   -0.314225    0.006993
   8 C :   -0.187463    0.000485
   9 H :    0.036107   -0.000004
  10 H :    0.029095    0.000633
  11 H :    0.070074    0.000326
  12 H :    0.031386    0.000147
  13 H :    0.045082   -0.000069
  14 H :    0.027576   -0.000534
  15 C :   -0.317631    0.002690
  16 C :   -0.324964    0.007356
  17 C :   -0.188766    0.001148
  18 H :    0.028252   -0.000201
  19 H :    0.054032   -0.000613
  20 H :    0.036084    0.000618
  21 H :    0.035058    0.000393
  22 H :    0.030341   -0.000595
  23 H :    0.056327    0.000345

  Mayer bond orders larger than 0.100000
B(  0-V ,  1-S ) :   0.7095 B(  0-V ,  2-S ) :   0.8578 B(  0-V ,  3-S ) :   0.7707
B(  0-V ,  4-S ) :   0.7764 B(  0-V ,  5-O ) :   2.0711 B(  1-S , 15-C ) :   1.0249
B(  2-S ,  6-C ) :   1.0107 B(  3-S , 16-C ) :   1.0241 B(  4-S ,  7-C ) :   1.0706
B(  6-C ,  8-C ) :   0.9011 B(  6-C , 13-H ) :   0.9742 B(  6-C , 14-H ) :   0.9682
B(  7-C ,  8-C ) :   0.9196 B(  7-C ,  9-H ) :   0.9766 B(  7-C , 10-H ) :   0.9690
B(  8-C , 11-H ) :   0.9881 B(  8-C , 12-H ) :   0.9450 B( 15-C , 17-C ) :   0.8960
B( 15-C , 22-H ) :   0.9684 B( 15-C , 23-H ) :   0.9796 B( 16-C , 17-C ) :   0.9029
B( 16-C , 18-H ) :   0.9635 B( 16-C , 19-H ) :   0.9761 B( 17-C , 20-H ) :   0.9580
B( 17-C , 21-H ) :   0.9595

FINAL SINGLE POINT ENERGY     -2847.718094078653

DIPOLE MOMENT
-------------
                                X             Y             Z
Electronic contribution:     -0.09671      -2.12614       5.81421
Nuclear contribution   :     -0.11826       2.27120      -6.18645
                        -----------------------------------------
Total Dipole Moment    :     -0.21497       0.14506      -0.37225
                        -----------------------------------------
Magnitude (a.u.)       :      0.45367
Magnitude (Debye)      :      1.15315

Rotational constants in cm-1:     0.027197     0.011724     0.009601
Rotational constants in MHz :   815.354558   351.481100   287.832846

                             ****ORCA TERMINATED NORMALLY****
TOTAL RUN TIME: 0 days 0 hours 13 minutes 40 seconds 629 msec
