                         Program Version 5.0.4 -  RELEASE  -
|  1> ! nofrozencore ReducedPop printbasis
|  2> ! B3LYP TZVP
|  3> ! moread
|  4> %moinp "start.gbw"
|  5>
|  6> %basis
|  7> newgto V "CP(PPP)" end
|  8> end
|  9>
| 10> %pal
| 11> nprocs 16
| 12> end
| 13>
| 14> % sym SymThresh 1e-2 end
| 15> * xyzfile -2 2 relax.xyz
| 16>
| 17> % eprnmr
| 18>
| 19> gtensor true
| 20>
| 21> Nuclei = all H {aiso,adip,aorb,fgrad,rho}
| 22> Nuclei = all V {aiso,adip,aorb,fgrad,rho}
| 23>
| 24> end
| 25>
| 26>                          ****END OF INPUT****

CARTESIAN COORDINATES (ANGSTROEM)
---------------------------------
  V     -0.037385   -0.021585    1.117832
  S      1.647382    1.632585    0.461871
  S     -1.687682    1.611218    0.338401
  S      1.662261   -1.626723    0.387617
  S     -1.675851   -1.648779    0.296423
  O     -0.085540   -0.049108    2.713522
  C     -3.158621    0.658166    0.104903
  C     -3.153211   -0.700798    0.086020
  C      3.138036    0.691866    0.327324
  C      3.144563   -0.666994    0.296430
  S     -4.659195    1.630167   -0.136856
  S     -4.645718   -1.676603   -0.188791
  S      4.659926   -1.630383    0.121078
  S      4.644773    1.676379    0.197078
  C     -5.077433   -1.288079   -1.942089
  C      5.208108   -1.227017   -1.595371
  C     -5.090200    1.296334   -1.901294
  C      5.197222    1.357817   -1.535461
  C     -5.859387    0.004303   -2.173641
  H     -4.159319    1.327079   -2.471457
  H     -5.698362    2.153658   -2.206425
  H     -6.181888    0.019379   -3.227403
  H     -6.768194   -0.009797   -1.562429
  H     -5.675985   -2.140947   -2.277207
  H     -4.145093   -1.290147   -2.510713
  C      5.992629    0.073327   -1.763677
  H      5.819223    2.221227   -1.791709
  H      4.307453    1.388121   -2.167970
  H      6.857489    0.061275   -1.091595
  H      6.386607    0.098966   -2.792585
  H      4.317662   -1.234285   -2.227603
  H      5.836566   -2.072350   -1.892775

 Total Charge           Charge          ....   -2
 Multiplicity           Mult            ....    2
 Number of Electrons    NEL             ....  233
 Basis Dimension        Dim             ....  517

ORBITAL ENERGIES
----------------
                 SPIN UP ORBITALS
  NO   OCC          E(Eh)            E(eV)
   0   1.0000    -196.639845     -5350.8422
   1   1.0000     -88.676401     -2413.0075
   2   1.0000     -88.676344     -2413.0060
   3   1.0000     -88.676306     -2413.0050
   4   1.0000     -88.676296     -2413.0047
   5   1.0000     -88.611782     -2411.2492
   6   1.0000     -88.611770     -2411.2488
   7   1.0000     -88.611767     -2411.2488
   8   1.0000     -88.611659     -2411.2458
   9   1.0000     -22.015669      -599.0768
  10   1.0000     -18.856911      -513.1226
  11   1.0000     -18.522498      -504.0228
  12   1.0000     -18.516714      -503.8654
  13   1.0000     -18.516679      -503.8644
  14   1.0000     -10.015281      -272.5297
  15   1.0000     -10.015257      -272.5290
  16   1.0000     -10.015174      -272.5267
  17   1.0000     -10.015153      -272.5262
  18   1.0000     -10.004568      -272.2381
  19   1.0000     -10.004476      -272.2356
  20   1.0000      -9.991653      -271.8867
  21   1.0000      -9.991624      -271.8859
  22   1.0000      -9.990930      -271.8670
  23   1.0000      -9.990909      -271.8664
  24   1.0000      -7.730045      -210.3452
  25   1.0000      -7.729988      -210.3437
  26   1.0000      -7.729959      -210.3429
  27   1.0000      -7.729947      -210.3425
  28   1.0000      -7.666226      -208.6086
  29   1.0000      -7.666214      -208.6083
  30   1.0000      -7.666200      -208.6079
  31   1.0000      -7.666129      -208.6060
  32   1.0000      -5.695288      -154.9767
  33   1.0000      -5.695233      -154.9752
  34   1.0000      -5.695200      -154.9743
  35   1.0000      -5.695194      -154.9741
  36   1.0000      -5.691402      -154.8709
  37   1.0000      -5.691346      -154.8694
  38   1.0000      -5.691313      -154.8685
  39   1.0000      -5.691304      -154.8682
  40   1.0000      -5.684794      -154.6911
  41   1.0000      -5.684737      -154.6896
  42   1.0000      -5.684705      -154.6887
  43   1.0000      -5.684698      -154.6885
  44   1.0000      -5.631061      -153.2289
  45   1.0000      -5.631049      -153.2286
  46   1.0000      -5.631041      -153.2284
  47   1.0000      -5.630961      -153.2262
  48   1.0000      -5.624661      -153.0548
  49   1.0000      -5.624644      -153.0543
  50   1.0000      -5.624640      -153.0542
  51   1.0000      -5.624551      -153.0518
  52   1.0000      -5.624206      -153.0424
  53   1.0000      -5.624197      -153.0422
  54   1.0000      -5.624188      -153.0419
  55   1.0000      -5.624112      -153.0399
  56   1.0000      -2.409363       -65.5621
  57   1.0000      -1.450732       -39.4764
  58   1.0000      -1.439144       -39.1611
  59   1.0000      -1.438060       -39.1316
  60   1.0000      -0.643715       -17.5164
  61   1.0000      -0.643650       -17.5146
  62   1.0000      -0.617984       -16.8162
  63   1.0000      -0.593720       -16.1559
  64   1.0000      -0.593272       -16.1437
  65   1.0000      -0.575749       -15.6669
  66   1.0000      -0.575671       -15.6648
  67   1.0000      -0.491407       -13.3719
  68   1.0000      -0.489533       -13.3209
  69   1.0000      -0.487434       -13.2637
  70   1.0000      -0.486259       -13.2318
  71   1.0000      -0.422930       -11.5085
  72   1.0000      -0.420070       -11.4307
  73   1.0000      -0.412506       -11.2249
  74   1.0000      -0.407389       -11.0856
  75   1.0000      -0.376276       -10.2390
  76   1.0000      -0.373078       -10.1520
  77   1.0000      -0.292812        -7.9678
  78   1.0000      -0.292611        -7.9623
  79   1.0000      -0.277681        -7.5561
  80   1.0000      -0.277414        -7.5488
  81   1.0000      -0.260540        -7.0896
  82   1.0000      -0.255855        -6.9622
  83   1.0000      -0.242140        -6.5890
  84   1.0000      -0.239181        -6.5084
  85   1.0000      -0.195305        -5.3145
  86   1.0000      -0.192607        -5.2411
  87   1.0000      -0.192079        -5.2267
  88   1.0000      -0.191532        -5.2119
  89   1.0000      -0.184615        -5.0236
  90   1.0000      -0.184379        -5.0172
  91   1.0000      -0.180848        -4.9211
  92   1.0000      -0.150521        -4.0959
  93   1.0000      -0.149843        -4.0774
  94   1.0000      -0.143431        -3.9030
  95   1.0000      -0.143369        -3.9013
  96   1.0000      -0.141888        -3.8610
  97   1.0000      -0.097170        -2.6441
  98   1.0000      -0.096288        -2.6201
  99   1.0000      -0.089322        -2.4306
 100   1.0000      -0.083188        -2.2637
 101   1.0000      -0.081367        -2.2141
 102   1.0000      -0.079990        -2.1766
 103   1.0000      -0.069545        -1.8924
 104   1.0000      -0.049901        -1.3579
 105   1.0000      -0.037937        -1.0323
 106   1.0000      -0.037901        -1.0313
 107   1.0000      -0.035572        -0.9680
 108   1.0000      -0.031877        -0.8674
 109   1.0000      -0.012918        -0.3515
 110   1.0000      -0.004092        -0.1113
 111   1.0000      -0.003115        -0.0848
 112   1.0000       0.006436         0.1751
 113   1.0000       0.010849         0.2952
 114   1.0000       0.016503         0.4491
 115   1.0000       0.033768         0.9189
 116   1.0000       0.059976         1.6320
 117   0.0000       0.188432         5.1275
 118   0.0000       0.195918         5.3312
 119   0.0000       0.196452         5.3457
 120   0.0000       0.196748         5.3538
 121   0.0000       0.211736         5.7616

                 SPIN DOWN ORBITALS
  NO   OCC          E(Eh)            E(eV)
   0   1.0000    -196.639987     -5350.8461
   1   1.0000     -88.676414     -2413.0079
   2   1.0000     -88.676357     -2413.0064
   3   1.0000     -88.676320     -2413.0053
   4   1.0000     -88.676310     -2413.0051
   5   1.0000     -88.611942     -2411.2535
   6   1.0000     -88.611929     -2411.2532
   7   1.0000     -88.611927     -2411.2531
   8   1.0000     -88.611819     -2411.2502
   9   1.0000     -22.000998      -598.6776
  10   1.0000     -18.860501      -513.2203
  11   1.0000     -18.517365      -503.8831
  12   1.0000     -18.501223      -503.4439
  13   1.0000     -18.500543      -503.4254
  14   1.0000     -10.015277      -272.5296
  15   1.0000     -10.015253      -272.5289
  16   1.0000     -10.015170      -272.5266
  17   1.0000     -10.015149      -272.5261
  18   1.0000     -10.004568      -272.2381
  19   1.0000     -10.004476      -272.2356
  20   1.0000      -9.991398      -271.8798
  21   1.0000      -9.991369      -271.8790
  22   1.0000      -9.990677      -271.8601
  23   1.0000      -9.990656      -271.8596
  24   1.0000      -7.730059      -210.3456
  25   1.0000      -7.730002      -210.3440
  26   1.0000      -7.729973      -210.3432
  27   1.0000      -7.729961      -210.3429
  28   1.0000      -7.666374      -208.6127
  29   1.0000      -7.666363      -208.6123
  30   1.0000      -7.666348      -208.6119
  31   1.0000      -7.666277      -208.6100
  32   1.0000      -5.695305      -154.9771
  33   1.0000      -5.695250      -154.9756
  34   1.0000      -5.695217      -154.9747
  35   1.0000      -5.695211      -154.9746
  36   1.0000      -5.691422      -154.8715
  37   1.0000      -5.691366      -154.8700
  38   1.0000      -5.691333      -154.8691
  39   1.0000      -5.691324      -154.8688
  40   1.0000      -5.684811      -154.6916
  41   1.0000      -5.684754      -154.6900
  42   1.0000      -5.684722      -154.6891
  43   1.0000      -5.684715      -154.6889
  44   1.0000      -5.631232      -153.2336
  45   1.0000      -5.631221      -153.2333
  46   1.0000      -5.631213      -153.2331
  47   1.0000      -5.631132      -153.2309
  48   1.0000      -5.625051      -153.0654
  49   1.0000      -5.625035      -153.0650
  50   1.0000      -5.625031      -153.0649
  51   1.0000      -5.624943      -153.0625
  52   1.0000      -5.624341      -153.0461
  53   1.0000      -5.624331      -153.0458
  54   1.0000      -5.624322      -153.0456
  55   1.0000      -5.624246      -153.0435
  56   1.0000      -2.365176       -64.3597
  57   1.0000      -1.431895       -38.9638
  58   1.0000      -1.377726       -37.4898
  59   1.0000      -1.377079       -37.4722
  60   1.0000      -0.643667       -17.5151
  61   1.0000      -0.643599       -17.5132
  62   1.0000      -0.625674       -17.0255
  63   1.0000      -0.593533       -16.1509
  64   1.0000      -0.593063       -16.1381
  65   1.0000      -0.575743       -15.6668
  66   1.0000      -0.575666       -15.6647
  67   1.0000      -0.491431       -13.3725
  68   1.0000      -0.489569       -13.3218
  69   1.0000      -0.487435       -13.2638
  70   1.0000      -0.486278       -13.2323
  71   1.0000      -0.423172       -11.5151
  72   1.0000      -0.420382       -11.4392
  73   1.0000      -0.412517       -11.2252
  74   1.0000      -0.407485       -11.0882
  75   1.0000      -0.376229       -10.2377
  76   1.0000      -0.373105       -10.1527
  77   1.0000      -0.292787        -7.9671
  78   1.0000      -0.292601        -7.9621
  79   1.0000      -0.277656        -7.5554
  80   1.0000      -0.277401        -7.5485
  81   1.0000      -0.260343        -7.0843
  82   1.0000      -0.255821        -6.9612
  83   1.0000      -0.242033        -6.5860
  84   1.0000      -0.239106        -6.5064
  85   1.0000      -0.194863        -5.3025
  86   1.0000      -0.192559        -5.2398
  87   1.0000      -0.192024        -5.2252
  88   1.0000      -0.191509        -5.2112
  89   1.0000      -0.184557        -5.0221
  90   1.0000      -0.184328        -5.0158
  91   1.0000      -0.178723        -4.8633
  92   1.0000      -0.149844        -4.0775
  93   1.0000      -0.149540        -4.0692
  94   1.0000      -0.143226        -3.8974
  95   1.0000      -0.143045        -3.8924
  96   1.0000      -0.141825        -3.8593
  97   1.0000      -0.095801        -2.6069
  98   1.0000      -0.095629        -2.6022
  99   1.0000      -0.089467        -2.4345
 100   1.0000      -0.083178        -2.2634
 101   1.0000      -0.081884        -2.2282
 102   1.0000      -0.080915        -2.2018
 103   1.0000      -0.070861        -1.9282
 104   1.0000      -0.045757        -1.2451
 105   1.0000      -0.038190        -1.0392
 106   1.0000      -0.037090        -1.0093
 107   1.0000      -0.034520        -0.9393
 108   1.0000      -0.031850        -0.8667
 109   1.0000      -0.012009        -0.3268
 110   1.0000      -0.005446        -0.1482
 111   1.0000      -0.002098        -0.0571
 112   1.0000       0.007286         0.1983
 113   1.0000       0.011747         0.3196
 114   1.0000       0.034022         0.9258
 115   1.0000       0.059185         1.6105
 116   0.0000       0.185550         5.0491
 117   0.0000       0.189660         5.1609
 118   0.0000       0.196484         5.3466
 119   0.0000       0.196498         5.3470
 120   0.0000       0.197067         5.3625

MULLIKEN ATOMIC CHARGES AND SPIN POPULATIONS
--------------------------------------------
   0 V :    0.447381    1.199365
   1 S :   -0.253815   -0.024194
   2 S :   -0.253893   -0.024053
   3 S :   -0.254013   -0.024133
   4 S :   -0.254213   -0.023973
   5 O :   -0.506880   -0.138965
   6 C :   -0.116974    0.008854
   7 C :   -0.115318    0.008858
   8 C :   -0.115772    0.008920
   9 C :   -0.116356    0.008864
  10 S :   -0.044899   -0.000161
  11 S :   -0.044789   -0.000196
  12 S :   -0.044875   -0.000193
  13 S :   -0.045001   -0.000223
  14 C :   -0.339371    0.000288
  15 C :   -0.338555    0.000300
  16 C :   -0.338444    0.000272
  17 C :   -0.338072    0.000321
  18 C :   -0.083062    0.000133
  19 H :    0.146839   -0.000102
  20 H :    0.101771    0.000021
  21 H :    0.044468    0.000039
  22 H :    0.078339    0.000018
  23 H :    0.101765    0.000021
  24 H :    0.147279   -0.000103
  25 C :   -0.083073    0.000134
  26 H :    0.101532    0.000029
  27 H :    0.146872   -0.000110
  28 H :    0.078143    0.000012
  29 H :    0.044293    0.000035
  30 H :    0.147115   -0.000106
  31 H :    0.101576    0.000027
Sum of atomic charges         :   -2.0000000

LOEWDIN ATOMIC CHARGES AND SPIN POPULATIONS
-------------------------------------------
   0 V :   -0.243198    1.153338
   1 S :    0.088042   -0.016392
   2 S :    0.087974   -0.016284
   3 S :    0.087813   -0.016329
   4 S :    0.087707   -0.016253
   5 O :   -0.351153   -0.124394
   6 C :   -0.553320    0.010003
   7 C :   -0.552754    0.009957
   8 C :   -0.552667    0.009963
   9 C :   -0.553046    0.009985
  10 S :    0.336697   -0.001023
  11 S :    0.336554   -0.001043
  12 S :    0.336606   -0.001042
  13 S :    0.336568   -0.001056
  14 C :   -0.293708    0.000164
  15 C :   -0.293729    0.000168
  16 C :   -0.293786    0.000156
  17 C :   -0.293785    0.000179
  18 C :   -0.184872   -0.000036
  19 H :    0.065866   -0.000027
  20 H :    0.047261    0.000004
  21 H :    0.046747    0.000017
  22 H :    0.053372    0.000013
  23 H :    0.047273    0.000005
  24 H :    0.066011   -0.000027
  25 C :   -0.184850   -0.000039
  26 H :    0.047220    0.000010
  27 H :    0.065893   -0.000028
  28 H :    0.053367    0.000011
  29 H :    0.046716    0.000018
  30 H :    0.065962   -0.000027
  31 H :    0.047217    0.000008

  Mayer bond orders larger than 0.100000
B(  0-V ,  1-S ) :   0.7885 B(  0-V ,  2-S ) :   0.7905 B(  0-V ,  3-S ) :   0.7906
B(  0-V ,  4-S ) :   0.7879 B(  0-V ,  5-O ) :   2.1077 B(  1-S ,  8-C ) :   1.1380
B(  2-S ,  6-C ) :   1.1368 B(  3-S ,  9-C ) :   1.1370 B(  4-S ,  7-C ) :   1.1380
B(  6-C ,  7-C ) :   1.5178 B(  6-C , 10-S ) :   0.9535 B(  7-C , 11-S ) :   0.9533
B(  8-C ,  9-C ) :   1.5180 B(  8-C , 13-S ) :   0.9533 B(  9-C , 12-S ) :   0.9536
B( 10-S , 16-C ) :   1.0055 B( 11-S , 14-C ) :   1.0053 B( 12-S , 15-C ) :   1.0055
B( 13-S , 17-C ) :   1.0057 B( 14-C , 18-C ) :   0.8780 B( 14-C , 23-H ) :   0.9700
B( 14-C , 24-H ) :   0.9752 B( 15-C , 25-C ) :   0.8780 B( 15-C , 30-H ) :   0.9751
B( 15-C , 31-H ) :   0.9700 B( 16-C , 18-C ) :   0.8782 B( 16-C , 19-H ) :   0.9751
B( 16-C , 20-H ) :   0.9700 B( 17-C , 25-C ) :   0.8782 B( 17-C , 26-H ) :   0.9701
B( 17-C , 27-H ) :   0.9750 B( 18-C , 21-H ) :   0.9527 B( 18-C , 22-H ) :   0.9736
B( 25-C , 28-H ) :   0.9738 B( 25-C , 29-H ) :   0.9527

FINAL SINGLE POINT ENERGY     -4592.724365797125

DIPOLE MOMENT
-------------
                                X             Y             Z
Electronic contribution:     -0.91082      -0.53003      26.69597
Nuclear contribution   :      1.01391       0.58990     -29.76983
                        -----------------------------------------
Total Dipole Moment    :      0.10309       0.05987      -3.07386
                        -----------------------------------------
Magnitude (a.u.)       :      3.07617
Magnitude (Debye)      :      7.81901

Rotational constants in cm-1:     0.012759     0.002550     0.002433
Rotational constants in MHz :   382.499766    76.436407    72.932806

                             ****ORCA TERMINATED NORMALLY****
TOTAL RUN TIME: 0 days 0 hours 31 minutes 24 seconds 906 msec
