                         Program Version 5.0.3 -  RELEASE  -
|  1> ! nofrozencore ReducedPop printbasis
|  2> ! B3LYP TZVP
|  3> ! moread
|  4> %moinp "start.gbw"
|  5>
|  6> %basis
|  7> newgto V "CP(PPP)" end
|  8> end
|  9>
| 10> %pal
| 11> nprocs 4
| 12> end
| 13>
| 14> % sym SymThresh 1e-2 end
| 15> * xyz -2 2
| 16> V 0.2756038667951198 -0.0013549185673533174 1.077508911736479
| 17> S 1.7094091909991276 1.814332460410787 0.21504853685854997
| 18> S -1.5913109823788143 1.594216959612071 0.7765223020578331
| 19> S 1.8931919664967551 -1.5513054170122655 0.033176864595399154
| 20> S -1.3642783778246879 -1.7433187086350868 0.481124257660012
| 21> O 0.5003202943011336 -0.07781047834829224 2.6476603014787856
| 22> C -2.9498813981957768 0.4821340251566776 0.9006107017235886
| 23> C -2.8682770940009332 -0.8566576592884648 0.7823062452027398
| 24> C 3.1069385262578795 0.9067882000083671 -0.3479458301281177
| 25> C 3.173684457089563 -0.43640308449729814 -0.4330005310996948
| 26> S -4.603454913700354 1.146967743792028 1.1356476488488731
| 27> S -4.3911119577313364 -1.7750997194547358 0.8550551940630294
| 28> S 4.696674375793125 -1.1205193166698484 -1.1019737598671728
| 29> S 4.54052506420893 1.8170339843522185 -0.9247860191443549
| 30> C -5.4640963902770485 -0.3966965494841472 1.0592285976972065
| 31> C 5.488191797613512 0.41448175865857534 -1.4401765605119468
| 32> C -6.830621395320255 -0.5118185258718211 1.1770791443284396
| 33> C 6.717464171713415 0.5055452400870183 -2.051994104840013
| 34> S -7.873194457539244 0.9154890311347418 1.4429511423042793
| 35> S -7.65863193917121 -2.082116695015204 1.0978953976556387
| 36> S 7.480508529618681 2.0842569331968126 -2.3779217436327014
| 37> S 7.619506359148208 -0.9311095234205452 -2.5845111068450626
| 38> C 7.636671598310315 -0.5780052435320734 -4.394609371065754
| 39> C 7.5245113266662065 1.9798132010587113 -4.221749903401755
| 40> C 8.277547112659056 0.7656946754532501 -4.755958781300996
| 41> H 6.606774677664026 -0.6353004814965324 -4.763142994362532
| 42> H 8.19899732570801 -1.3938188748426408 -4.838886293034571
| 43> H 8.32421664695784 0.8394777322323476 -5.8538788344647985
| 44> H 9.303441375154136 0.7756761102357325 -4.391745620887768
| 45> H 8.023787075146993 2.9032164278945642 -4.5570200751102945
| 46> H 6.499111382220399 1.9931652156275383 -4.581316776284537
| 47> C -8.365830660056188 -2.0968186728779274 2.808010607320052
| 48> C -8.545568700725747 0.43782383622938953 3.1028840302542826
| 49> C -9.26516351653015 -0.9063445913631457 3.112024582518532
| 50> H -7.720588663681938 0.44576419793928435 3.822994960603545
| 51> H -9.247628616559068 1.2399249544876878 3.3722179015594285
| 52> H -10.100474473625763 -0.8837881808646971 2.3928951395669826
| 53> H -9.703637546159547 -1.060960769966976 4.116813005807612
| 54> H -8.936780540979884 -3.032394304640451 2.864123497450345
| 55> H -7.5457056609595945 -2.162950861078337 3.525427579707084
| 56> *
| 57>
| 58> % eprnmr
| 59> gtensor true
| 60> Nuclei = all H {aiso,adip,aorb,fgrad,rho}
| 61> Nuclei = all V {aiso,adip,aorb,fgrad,rho}
| 62> end
| 63>
| 64>                          ****END OF INPUT****

CARTESIAN COORDINATES (ANGSTROEM)
---------------------------------
  V      0.272480   -0.000770    1.075482
  S      1.706285    1.814918    0.213022
  S     -1.594435    1.594802    0.774496
  S      1.890068   -1.550720    0.031150
  S     -1.367402   -1.742733    0.479098
  O      0.497196   -0.077225    2.645634
  C     -2.953005    0.482719    0.898584
  C     -2.871401   -0.856072    0.780280
  C      3.103815    0.907373   -0.349972
  C      3.170561   -0.435818   -0.435027
  S     -4.606579    1.147553    1.133621
  S     -4.394236   -1.774514    0.853029
  S      4.693551   -1.119934   -1.104000
  S      4.537401    1.817619   -0.926813
  C     -5.467220   -0.396111    1.057202
  C      5.485068    0.415067   -1.442203
  C     -6.833745   -0.511233    1.175053
  C      6.714340    0.506130   -2.054021
  S     -7.876318    0.916074    1.440925
  S     -7.661756   -2.081531    1.095869
  S      7.477385    2.084842   -2.379948
  S      7.616383   -0.930524   -2.586538
  C      7.633548   -0.577420   -4.396636
  C      7.521388    1.980398   -4.223776
  C      8.274423    0.766280   -4.757985
  H      6.603651   -0.634715   -4.765169
  H      8.195874   -1.393234   -4.840913
  H      8.321093    0.840063   -5.855905
  H      9.300318    0.776261   -4.393772
  H      8.020663    2.903802   -4.559047
  H      6.495988    1.993750   -4.583343
  C     -8.368954   -2.096233    2.805984
  C     -8.548693    0.438409    3.100858
  C     -9.268287   -0.905759    3.109998
  H     -7.723712    0.446349    3.820968
  H     -9.250752    1.240510    3.370191
  H    -10.103598   -0.883203    2.390869
  H     -9.706761   -1.060376    4.114787
  H     -8.939904   -3.031809    2.862097
  H     -7.548829   -2.162366    3.523401

 Total Charge           Charge          ....   -2
 Multiplicity           Mult            ....    2
 Number of Electrons    NEL             ....  321
 Basis Dimension        Dim             ....  681

ORBITAL ENERGIES
----------------
                 SPIN UP ORBITALS
  NO   OCC          E(Eh)            E(eV)
   0   1.0000    -196.673978     -5351.7710
   1   1.0000     -88.733159     -2414.5520
   2   1.0000     -88.732877     -2414.5443
   3   1.0000     -88.732755     -2414.5410
   4   1.0000     -88.732389     -2414.5311
   5   1.0000     -88.730806     -2414.4880
   6   1.0000     -88.730675     -2414.4844
   7   1.0000     -88.730549     -2414.4810
   8   1.0000     -88.730071     -2414.4680
   9   1.0000     -88.639693     -2412.0087
  10   1.0000     -88.639386     -2412.0003
  11   1.0000     -88.639351     -2411.9994
  12   1.0000     -88.639261     -2411.9969
  13   1.0000     -22.049437      -599.9957
  14   1.0000     -18.889549      -514.0108
  15   1.0000     -18.555889      -504.9314
  16   1.0000     -18.550704      -504.7903
  17   1.0000     -18.550606      -504.7877
  18   1.0000     -10.076185      -274.1869
  19   1.0000     -10.076042      -274.1830
  20   1.0000     -10.063620      -273.8450
  21   1.0000     -10.062755      -273.8215
  22   1.0000     -10.062480      -273.8140
  23   1.0000     -10.061860      -273.7971
  24   1.0000     -10.051876      -273.5254
  25   1.0000     -10.050028      -273.4752
  26   1.0000     -10.048117      -273.4232
  27   1.0000     -10.048100      -273.4227
  28   1.0000     -10.018590      -272.6197
  29   1.0000     -10.018308      -272.6120
  30   1.0000     -10.017499      -272.5900
  31   1.0000     -10.016948      -272.5750
  32   1.0000      -7.786650      -211.8855
  33   1.0000      -7.786372      -211.8780
  34   1.0000      -7.786184      -211.8728
  35   1.0000      -7.785901      -211.8651
  36   1.0000      -7.784428      -211.8251
  37   1.0000      -7.783907      -211.8109
  38   1.0000      -7.783746      -211.8065
  39   1.0000      -7.783457      -211.7986
  40   1.0000      -7.693990      -209.3641
  41   1.0000      -7.693625      -209.3542
  42   1.0000      -7.693583      -209.3530
  43   1.0000      -7.693337      -209.3463
  44   1.0000      -5.751632      -156.5099
  45   1.0000      -5.751358      -156.5024
  46   1.0000      -5.751167      -156.4972
  47   1.0000      -5.750877      -156.4893
  48   1.0000      -5.749328      -156.4472
  49   1.0000      -5.748863      -156.4345
  50   1.0000      -5.748675      -156.4294
  51   1.0000      -5.748358      -156.4208
  52   1.0000      -5.748206      -156.4166
  53   1.0000      -5.747902      -156.4084
  54   1.0000      -5.747794      -156.4054
  55   1.0000      -5.747469      -156.3966
  56   1.0000      -5.744861      -156.3256
  57   1.0000      -5.744424      -156.3137
  58   1.0000      -5.744272      -156.3096
  59   1.0000      -5.743967      -156.3013
  60   1.0000      -5.741470      -156.2333
  61   1.0000      -5.741184      -156.2256
  62   1.0000      -5.740976      -156.2199
  63   1.0000      -5.740704      -156.2125
  64   1.0000      -5.740307      -156.2017
  65   1.0000      -5.739722      -156.1858
  66   1.0000      -5.739590      -156.1822
  67   1.0000      -5.739310      -156.1746
  68   1.0000      -5.659320      -153.9979
  69   1.0000      -5.658953      -153.9879
  70   1.0000      -5.658947      -153.9878
  71   1.0000      -5.658733      -153.9819
  72   1.0000      -5.652641      -153.8162
  73   1.0000      -5.652299      -153.8069
  74   1.0000      -5.652228      -153.8049
  75   1.0000      -5.651951      -153.7974
  76   1.0000      -5.651319      -153.7802
  77   1.0000      -5.650943      -153.7700
  78   1.0000      -5.650863      -153.7678
  79   1.0000      -5.650624      -153.7613
  80   1.0000      -2.443161       -66.4818
  81   1.0000      -1.484574       -40.3973
  82   1.0000      -1.472810       -40.0772
  83   1.0000      -1.471971       -40.0544
  84   1.0000      -0.709709       -19.3122
  85   1.0000      -0.709536       -19.3075
  86   1.0000      -0.686884       -18.6911
  87   1.0000      -0.686021       -18.6676
  88   1.0000      -0.649233       -17.6665
  89   1.0000      -0.630659       -17.1611
  90   1.0000      -0.630328       -17.1521
  91   1.0000      -0.617790       -16.8109
  92   1.0000      -0.616589       -16.7782
  93   1.0000      -0.575904       -15.6711
  94   1.0000      -0.575141       -15.6504
  95   1.0000      -0.572899       -15.5894
  96   1.0000      -0.571931       -15.5630
  97   1.0000      -0.495915       -13.4945
  98   1.0000      -0.495180       -13.4745
  99   1.0000      -0.494964       -13.4686
 100   1.0000      -0.493567       -13.4306
 101   1.0000      -0.479265       -13.0415
 102   1.0000      -0.476308       -12.9610
 103   1.0000      -0.446551       -12.1513
 104   1.0000      -0.444030       -12.0827
 105   1.0000      -0.415763       -11.3135
 106   1.0000      -0.410531       -11.1711
 107   1.0000      -0.355524        -9.6743
 108   1.0000      -0.355420        -9.6715
 109   1.0000      -0.326563        -8.8862
 110   1.0000      -0.326234        -8.8773
 111   1.0000      -0.319575        -8.6961
 112   1.0000      -0.314844        -8.5673
 113   1.0000      -0.303740        -8.2652
 114   1.0000      -0.302895        -8.2422
 115   1.0000      -0.292635        -7.9630
 116   1.0000      -0.292080        -7.9479
 117   1.0000      -0.257829        -7.0159
 118   1.0000      -0.257137        -6.9970
 119   1.0000      -0.255882        -6.9629
 120   1.0000      -0.254708        -6.9310
 121   1.0000      -0.234940        -6.3930
 122   1.0000      -0.234129        -6.3710
 123   1.0000      -0.229873        -6.2552
 124   1.0000      -0.228554        -6.2193
 125   1.0000      -0.219806        -5.9812
 126   1.0000      -0.217839        -5.9277
 127   1.0000      -0.214029        -5.8240
 128   1.0000      -0.211679        -5.7601
 129   1.0000      -0.192791        -5.2461
 130   1.0000      -0.187394        -5.0993
 131   1.0000      -0.186049        -5.0627
 132   1.0000      -0.184527        -5.0212
 133   1.0000      -0.179246        -4.8775
 134   1.0000      -0.158716        -4.3189
 135   1.0000      -0.151632        -4.1261
 136   1.0000      -0.147139        -4.0038
 137   1.0000      -0.134879        -3.6702
 138   1.0000      -0.133821        -3.6415
 139   1.0000      -0.133612        -3.6358
 140   1.0000      -0.124606        -3.3907
 141   1.0000      -0.121107        -3.2955
 142   1.0000      -0.113175        -3.0796
 143   1.0000      -0.109404        -2.9770
 144   1.0000      -0.100099        -2.7238
 145   1.0000      -0.098427        -2.6783
 146   1.0000      -0.097143        -2.6434
 147   1.0000      -0.094399        -2.5687
 148   1.0000      -0.074337        -2.0228
 149   1.0000      -0.067439        -1.8351
 150   1.0000      -0.066894        -1.8203
 151   1.0000      -0.051957        -1.4138
 152   1.0000      -0.045278        -1.2321
 153   1.0000      -0.036745        -0.9999
 154   1.0000      -0.036511        -0.9935
 155   1.0000      -0.030213        -0.8221
 156   1.0000      -0.024465        -0.6657
 157   1.0000      -0.018440        -0.5018
 158   1.0000      -0.014617        -0.3977
 159   1.0000       0.020394         0.5549
 160   1.0000       0.041239         1.1222
 161   0.0000       0.136338         3.7100
 162   0.0000       0.137280         3.7356
 163   0.0000       0.161651         4.3987
 164   0.0000       0.162223         4.4143
 165   0.0000       0.171189         4.6583

                 SPIN DOWN ORBITALS
  NO   OCC          E(Eh)            E(eV)
   0   1.0000    -196.674125     -5351.7750
   1   1.0000     -88.733160     -2414.5520
   2   1.0000     -88.732878     -2414.5444
   3   1.0000     -88.732755     -2414.5410
   4   1.0000     -88.732390     -2414.5311
   5   1.0000     -88.730814     -2414.4882
   6   1.0000     -88.730683     -2414.4846
   7   1.0000     -88.730557     -2414.4812
   8   1.0000     -88.730078     -2414.4682
   9   1.0000     -88.639830     -2412.0124
  10   1.0000     -88.639524     -2412.0041
  11   1.0000     -88.639492     -2412.0032
  12   1.0000     -88.639402     -2412.0007
  13   1.0000     -22.034526      -599.5899
  14   1.0000     -18.893339      -514.1139
  15   1.0000     -18.550630      -504.7883
  16   1.0000     -18.534692      -504.3546
  17   1.0000     -18.534513      -504.3497
  18   1.0000     -10.076184      -274.1869
  19   1.0000     -10.076036      -274.1829
  20   1.0000     -10.063619      -273.8450
  21   1.0000     -10.062754      -273.8215
  22   1.0000     -10.062481      -273.8140
  23   1.0000     -10.061860      -273.7971
  24   1.0000     -10.051876      -273.5254
  25   1.0000     -10.050028      -273.4752
  26   1.0000     -10.048112      -273.4230
  27   1.0000     -10.048089      -273.4224
  28   1.0000     -10.018348      -272.6131
  29   1.0000     -10.018090      -272.6061
  30   1.0000     -10.017279      -272.5840
  31   1.0000     -10.016723      -272.5689
  32   1.0000      -7.786650      -211.8855
  33   1.0000      -7.786372      -211.8780
  34   1.0000      -7.786184      -211.8728
  35   1.0000      -7.785901      -211.8651
  36   1.0000      -7.784437      -211.8253
  37   1.0000      -7.783916      -211.8111
  38   1.0000      -7.783755      -211.8068
  39   1.0000      -7.783466      -211.7989
  40   1.0000      -7.694117      -209.3676
  41   1.0000      -7.693754      -209.3577
  42   1.0000      -7.693714      -209.3566
  43   1.0000      -7.693468      -209.3499
  44   1.0000      -5.751633      -156.5099
  45   1.0000      -5.751359      -156.5024
  46   1.0000      -5.751168      -156.4972
  47   1.0000      -5.750878      -156.4893
  48   1.0000      -5.749338      -156.4474
  49   1.0000      -5.748873      -156.4348
  50   1.0000      -5.748686      -156.4297
  51   1.0000      -5.748368      -156.4211
  52   1.0000      -5.748207      -156.4167
  53   1.0000      -5.747903      -156.4084
  54   1.0000      -5.747796      -156.4055
  55   1.0000      -5.747470      -156.3966
  56   1.0000      -5.744874      -156.3260
  57   1.0000      -5.744438      -156.3141
  58   1.0000      -5.744287      -156.3100
  59   1.0000      -5.743981      -156.3017
  60   1.0000      -5.741470      -156.2333
  61   1.0000      -5.741184      -156.2256
  62   1.0000      -5.740977      -156.2199
  63   1.0000      -5.740705      -156.2125
  64   1.0000      -5.740316      -156.2019
  65   1.0000      -5.739728      -156.1859
  66   1.0000      -5.739598      -156.1824
  67   1.0000      -5.739316      -156.1747
  68   1.0000      -5.659463      -154.0018
  69   1.0000      -5.659095      -153.9918
  70   1.0000      -5.659089      -153.9916
  71   1.0000      -5.658874      -153.9858
  72   1.0000      -5.652991      -153.8257
  73   1.0000      -5.652659      -153.8167
  74   1.0000      -5.652609      -153.8153
  75   1.0000      -5.652340      -153.8080
  76   1.0000      -5.651426      -153.7831
  77   1.0000      -5.651048      -153.7728
  78   1.0000      -5.650957      -153.7704
  79   1.0000      -5.650710      -153.7636
  80   1.0000      -2.398333       -65.2620
  81   1.0000      -1.465310       -39.8731
  82   1.0000      -1.410510       -38.3819
  83   1.0000      -1.410317       -38.3767
  84   1.0000      -0.709680       -19.3114
  85   1.0000      -0.709519       -19.3070
  86   1.0000      -0.686827       -18.6895
  87   1.0000      -0.685975       -18.6663
  88   1.0000      -0.657353       -17.8875
  89   1.0000      -0.630588       -17.1592
  90   1.0000      -0.630264       -17.1504
  91   1.0000      -0.617792       -16.8110
  92   1.0000      -0.616589       -16.7782
  93   1.0000      -0.575866       -15.6701
  94   1.0000      -0.575107       -15.6495
  95   1.0000      -0.572825       -15.5874
  96   1.0000      -0.571851       -15.5609
  97   1.0000      -0.495939       -13.4952
  98   1.0000      -0.495214       -13.4754
  99   1.0000      -0.495001       -13.4697
 100   1.0000      -0.493594       -13.4314
 101   1.0000      -0.479451       -13.0465
 102   1.0000      -0.476562       -12.9679
 103   1.0000      -0.446571       -12.1518
 104   1.0000      -0.444077       -12.0839
 105   1.0000      -0.415755       -11.3133
 106   1.0000      -0.410636       -11.1740
 107   1.0000      -0.355513        -9.6740
 108   1.0000      -0.355414        -9.6713
 109   1.0000      -0.326545        -8.8857
 110   1.0000      -0.326225        -8.8770
 111   1.0000      -0.319491        -8.6938
 112   1.0000      -0.314867        -8.5680
 113   1.0000      -0.303684        -8.2637
 114   1.0000      -0.302869        -8.2415
 115   1.0000      -0.292629        -7.9628
 116   1.0000      -0.292076        -7.9478
 117   1.0000      -0.257751        -7.0138
 118   1.0000      -0.256965        -6.9924
 119   1.0000      -0.255844        -6.9619
 120   1.0000      -0.254677        -6.9301
 121   1.0000      -0.234891        -6.3917
 122   1.0000      -0.234117        -6.3707
 123   1.0000      -0.229826        -6.2539
 124   1.0000      -0.228525        -6.2185
 125   1.0000      -0.219458        -5.9717
 126   1.0000      -0.217698        -5.9239
 127   1.0000      -0.213858        -5.8194
 128   1.0000      -0.211540        -5.7563
 129   1.0000      -0.191101        -5.2001
 130   1.0000      -0.187327        -5.0974
 131   1.0000      -0.185593        -5.0502
 132   1.0000      -0.184301        -5.0151
 133   1.0000      -0.179130        -4.8744
 134   1.0000      -0.158081        -4.3016
 135   1.0000      -0.151462        -4.1215
 136   1.0000      -0.147068        -4.0019
 137   1.0000      -0.134134        -3.6500
 138   1.0000      -0.133653        -3.6369
 139   1.0000      -0.133281        -3.6268
 140   1.0000      -0.124034        -3.3751
 141   1.0000      -0.120749        -3.2858
 142   1.0000      -0.114957        -3.1281
 143   1.0000      -0.110966        -3.0195
 144   1.0000      -0.100092        -2.7237
 145   1.0000      -0.098762        -2.6874
 146   1.0000      -0.097129        -2.6430
 147   1.0000      -0.094737        -2.5779
 148   1.0000      -0.070529        -1.9192
 149   1.0000      -0.067428        -1.8348
 150   1.0000      -0.066890        -1.8202
 151   1.0000      -0.049346        -1.3428
 152   1.0000      -0.044331        -1.2063
 153   1.0000      -0.036573        -0.9952
 154   1.0000      -0.036177        -0.9844
 155   1.0000      -0.030240        -0.8229
 156   1.0000      -0.025518        -0.6944
 157   1.0000      -0.014907        -0.4056
 158   1.0000       0.020677         0.5627
 159   1.0000       0.040173         1.0932
 160   0.0000       0.136345         3.7101
 161   0.0000       0.137272         3.7354
 162   0.0000       0.156049         4.2463
 163   0.0000       0.161891         4.4053
 164   0.0000       0.163339         4.4447

MULLIKEN ATOMIC CHARGES AND SPIN POPULATIONS
--------------------------------------------
   0 V :    0.471431    1.209737
   1 S :   -0.290536   -0.022678
   2 S :   -0.288130   -0.025115
   3 S :   -0.288703   -0.023416
   4 S :   -0.290152   -0.025858
   5 O :   -0.467743   -0.146499
   6 C :   -0.075503    0.009748
   7 C :   -0.090247    0.008336
   8 C :   -0.085063    0.008023
   9 C :   -0.085701    0.007672
  10 S :    0.099696   -0.000625
  11 S :    0.111208   -0.000587
  12 S :    0.102347   -0.000366
  13 S :    0.101601   -0.000313
  14 C :   -0.208724    0.001537
  15 C :   -0.204901    0.001042
  16 C :   -0.201402   -0.000047
  17 C :   -0.202669   -0.000394
  18 S :    0.007790   -0.000113
  19 S :    0.010860   -0.000108
  20 S :    0.007695   -0.000063
  21 S :    0.011193   -0.000064
  22 C :   -0.302111   -0.000002
  23 C :   -0.298765   -0.000003
  24 C :   -0.156237   -0.000009
  25 H :    0.142386   -0.000001
  26 H :    0.114300   -0.000004
  27 H :    0.082501   -0.000001
  28 H :    0.092822   -0.000001
  29 H :    0.110131   -0.000005
  30 H :    0.144363   -0.000001
  31 C :   -0.298396    0.000185
  32 C :   -0.298592    0.000178
  33 C :   -0.153888   -0.000221
  34 H :    0.141634   -0.000017
  35 H :    0.111223    0.000019
  36 H :    0.090692    0.000021
  37 H :    0.080933    0.000012
  38 H :    0.110686    0.000019
  39 H :    0.141972   -0.000016
Sum of atomic charges         :   -2.0000000

LOEWDIN ATOMIC CHARGES AND SPIN POPULATIONS
-------------------------------------------
   0 V :   -0.160310    1.162879
   1 S :    0.080927   -0.014521
   2 S :    0.079948   -0.016008
   3 S :    0.080728   -0.015198
   4 S :    0.075958   -0.016422
   5 O :   -0.318738   -0.131393
   6 C :   -0.547196    0.009021
   7 C :   -0.553990    0.008252
   8 C :   -0.553017    0.008354
   9 C :   -0.549552    0.007959
  10 S :    0.471383   -0.000922
  11 S :    0.484840   -0.000903
  12 S :    0.474370   -0.000791
  13 S :    0.472557   -0.000794
  14 C :   -0.466787    0.000193
  15 C :   -0.466597   -0.000046
  16 C :   -0.624858    0.000471
  17 C :   -0.624581    0.000101
  18 S :    0.355609   -0.000090
  19 S :    0.362000   -0.000081
  20 S :    0.358622   -0.000068
  21 S :    0.362379   -0.000069
  22 C :   -0.284961   -0.000007
  23 C :   -0.284919   -0.000009
  24 C :   -0.175888   -0.000002
  25 H :    0.062762   -0.000001
  26 H :    0.051943   -0.000002
  27 H :    0.058284   -0.000002
  28 H :    0.059243   -0.000001
  29 H :    0.054791   -0.000002
  30 H :    0.061431   -0.000001
  31 C :   -0.285230    0.000043
  32 C :   -0.284965    0.000035
  33 C :   -0.178545    0.000006
  34 H :    0.062671   -0.000001
  35 H :    0.054142    0.000008
  36 H :    0.061295    0.000004
  37 H :    0.058824    0.000002
  38 H :    0.053565    0.000008
  39 H :    0.061863   -0.000000

  Mayer bond orders larger than 0.100000
B(  0-V ,  1-S ) :   0.7730 B(  0-V ,  2-S ) :   0.7682 B(  0-V ,  3-S ) :   0.7663
B(  0-V ,  4-S ) :   0.7804 B(  0-V ,  5-O ) :   2.1483 B(  1-S ,  8-C ) :   1.1013
B(  2-S ,  6-C ) :   1.1047 B(  3-S ,  9-C ) :   1.1043 B(  4-S ,  7-C ) :   1.0906
B(  6-C ,  7-C ) :   1.6869 B(  6-C , 10-S ) :   0.9353 B(  7-C , 11-S ) :   0.9525
B(  8-C ,  9-C ) :   1.6979 B(  8-C , 13-S ) :   0.9366 B(  9-C , 12-S ) :   0.9349
B( 10-S , 14-C ) :   1.2476 B( 11-S , 14-C ) :   1.2517 B( 12-S , 15-C ) :   1.2504
B( 13-S , 15-C ) :   1.2438 B( 14-C , 16-C ) :   1.4435 B( 15-C , 17-C ) :   1.4463
B( 16-C , 18-S ) :   1.0845 B( 16-C , 19-S ) :   1.0947 B( 17-C , 20-S ) :   1.0872
B( 17-C , 21-S ) :   1.0951 B( 18-S , 32-C ) :   0.9928 B( 19-S , 31-C ) :   0.9917
B( 20-S , 23-C ) :   0.9926 B( 21-S , 22-C ) :   0.9917 B( 22-C , 24-C ) :   0.9113
B( 22-C , 25-H ) :   0.9653 B( 22-C , 26-H ) :   0.9660 B( 23-C , 24-C ) :   0.9138
B( 23-C , 29-H ) :   0.9654 B( 23-C , 30-H ) :   0.9660 B( 24-C , 27-H ) :   0.9622
B( 24-C , 28-H ) :   0.9728 B( 31-C , 33-C ) :   0.9154 B( 31-C , 38-H ) :   0.9663
B( 31-C , 39-H ) :   0.9643 B( 32-C , 33-C ) :   0.9140 B( 32-C , 34-H ) :   0.9649
B( 32-C , 35-H ) :   0.9656 B( 33-C , 36-H ) :   0.9707 B( 33-C , 37-H ) :   0.9620

FINAL SINGLE POINT ENERGY     -6337.706169063186

DIPOLE MOMENT
-------------
                                X             Y             Z
Electronic contribution:      6.51998       0.80595      11.91342
Nuclear contribution   :     -7.20890      -0.90798     -13.26978
                        -----------------------------------------
Total Dipole Moment    :     -0.68892      -0.10203      -1.35637
                        -----------------------------------------
Magnitude (a.u.)       :      1.52471
Magnitude (Debye)      :      3.87552

Rotational constants in cm-1:     0.010766     0.000805     0.000784
Rotational constants in MHz :   322.770559    24.127811    23.498571

                             ****ORCA TERMINATED NORMALLY****
TOTAL RUN TIME: 0 days 1 hours 32 minutes 46 seconds 964 msec
