                         Program Version 5.0.4 -  RELEASE  -
|  1> ! nofrozencore ReducedPop printbasis
|  2> ! B3LYP TZVP
|  3>
|  4> %basis
|  5> newgto V "CP(PPP)" end
|  6> end
|  7>
|  8> %pal
|  9> nprocs 4
| 10> end
| 11>
| 12> % sym SymThresh 1e-2 end
| 13> * xyz -2 2
| 14> V 0.13543175483872943 0.03712352961016583 -0.4714837968112854
| 15> S 0.593530949908079 2.3932795950860246 0.33270825498488493
| 16> S 1.9507684773712122 -0.46845716492356676 1.0903503650669253
| 17> S -2.2975048644048837 0.505769511081169 -0.31606780106586824
| 18> S -0.6955402665326273 -2.2983228448307242 -0.2589650913712645
| 19> O 0.6887704199723254 0.12048664602175656 -1.9731396887606751
| 20> C 2.2593814221298487 -2.298567177086175 1.041363174959915
| 21> C 0.7130480240556821 -3.4281180626339642 -0.6759840903838201
| 22> C 2.122774238624798 -2.9224876621697637 -0.3527735253011735
| 23> H 0.6637519700379673 -3.675717263474527 -1.7428738436120519
| 24> H 0.5355391050304157 -4.3593869008503665 -0.12217291817116573
| 25> H 2.426023151096597 -2.179917895837307 -1.0962202406148083
| 26> H 2.816069132497768 -3.777778090908527 -0.4503550066156693
| 27> H 1.5738020872149716 -2.801152380697408 1.7332896276286438
| 28> H 3.2801632868210855 -2.4453681514126675 1.4154320895615893
| 29> C -0.7808902463154205 2.715294494220248 1.5109000449737395
| 30> C -2.458499797333555 2.346074848793575 -0.40803943320600117
| 31> C -2.1068567411148384 3.104463432774255 0.8753408998644178
| 32> H -3.490019875375583 2.5744819752893426 -0.6943505794212923
| 33> H -1.7836670025322179 2.706820241045708 -1.228639595105493
| 34> H -2.9472839818519065 2.968167635227562 1.630230405567199
| 35> H -2.0581490648749066 4.136127080652414 0.6509141802006551
| 36> H -0.5149231482299922 3.3347419598737322 2.1656013691525535
| 37> H -1.0306291205174019 1.1965148781057693 2.379623711047413
| 38> *
| 39>
| 40> % eprnmr
| 41> gtensor true
| 42> Nuclei = all H {aiso,adip,aorb,fgrad,rho}
| 43> Nuclei = all V {aiso,adip,aorb,fgrad,rho}
| 44> end
| 45>
| 46>                          ****END OF INPUT****

CARTESIAN COORDINATES (ANGSTROEM)
---------------------------------
  V      0.135493    0.037436   -0.472168
  S      0.593592    2.393592    0.332024
  S      1.950830   -0.468145    1.089666
  S     -2.297444    0.506082   -0.316752
  S     -0.695479   -2.298011   -0.259650
  O      0.688832    0.120799   -1.973824
  C      2.259443   -2.298255    1.040679
  C      0.713109   -3.427806   -0.676669
  C      2.122835   -2.922176   -0.353458
  H      0.663813   -3.675405   -1.743558
  H      0.535600   -4.359075   -0.122858
  H      2.426084   -2.179606   -1.096905
  H      2.816130   -3.777466   -0.451040
  H      1.573863   -2.800840    1.732605
  H      3.280224   -2.445056    1.414747
  C     -0.780829    2.715607    1.510215
  C     -2.458439    2.346387   -0.408724
  C     -2.106796    3.104775    0.874656
  H     -3.489959    2.574794   -0.695035
  H     -1.783606    2.707132   -1.229324
  H     -2.947223    2.968480    1.629546
  H     -2.058088    4.136439    0.650230
  H     -0.514862    3.335054    2.164917
  H     -1.030568    1.196827    2.378939

 Total Charge           Charge          ....   -2
 Multiplicity           Mult            ....    2
 Number of Electrons    NEL             ....  145
 Basis Dimension        Dim             ....  353

ORBITAL ENERGIES
----------------
                 SPIN UP ORBITALS
  NO   OCC          E(Eh)            E(eV)
   0   1.0000    -196.610093     -5350.0326
   1   1.0000     -88.568308     -2410.0662
   2   1.0000     -88.561611     -2409.8840
   3   1.0000     -88.560657     -2409.8580
   4   1.0000     -88.559982     -2409.8396
   5   1.0000     -21.985395      -598.2530
   6   1.0000     -18.827285      -512.3165
   7   1.0000     -18.493150      -503.2242
   8   1.0000     -18.486070      -503.0315
   9   1.0000     -18.485895      -503.0268
  10   1.0000      -9.959051      -270.9996
  11   1.0000      -9.943163      -270.5672
  12   1.0000      -9.938973      -270.4532
  13   1.0000      -9.936601      -270.3887
  14   1.0000      -9.936512      -270.3862
  15   1.0000      -9.929743      -270.2020
  16   1.0000      -7.622263      -207.4123
  17   1.0000      -7.615499      -207.2283
  18   1.0000      -7.614806      -207.2094
  19   1.0000      -7.614195      -207.1928
  20   1.0000      -5.587448      -152.0422
  21   1.0000      -5.581611      -151.8833
  22   1.0000      -5.580898      -151.8639
  23   1.0000      -5.580042      -151.8407
  24   1.0000      -5.579635      -151.8296
  25   1.0000      -5.579334      -151.8214
  26   1.0000      -5.574359      -151.6860
  27   1.0000      -5.573828      -151.6716
  28   1.0000      -5.573273      -151.6565
  29   1.0000      -5.572629      -151.6389
  30   1.0000      -5.571938      -151.6201
  31   1.0000      -5.571106      -151.5975
  32   1.0000      -2.377956       -64.7075
  33   1.0000      -1.420393       -38.6509
  34   1.0000      -1.406301       -38.2674
  35   1.0000      -1.405489       -38.2453
  36   1.0000      -0.589756       -16.0481
  37   1.0000      -0.555397       -15.1131
  38   1.0000      -0.552143       -15.0246
  39   1.0000      -0.470441       -12.8014
  40   1.0000      -0.469174       -12.7669
  41   1.0000      -0.408058       -11.1038
  42   1.0000      -0.398456       -10.8425
  43   1.0000      -0.340841        -9.2747
  44   1.0000      -0.328787        -8.9467
  45   1.0000      -0.305753        -8.3200
  46   1.0000      -0.290711        -7.9106
  47   1.0000      -0.211753        -5.7621
  48   1.0000      -0.208180        -5.6649
  49   1.0000      -0.206165        -5.6100
  50   1.0000      -0.198739        -5.4080
  51   1.0000      -0.161310        -4.3895
  52   1.0000      -0.132463        -3.6045
  53   1.0000      -0.122730        -3.3397
  54   1.0000      -0.112853        -3.0709
  55   1.0000      -0.106833        -2.9071
  56   1.0000      -0.089256        -2.4288
  57   1.0000      -0.078994        -2.1495
  58   1.0000      -0.072828        -1.9817
  59   1.0000      -0.065510        -1.7826
  60   1.0000      -0.048200        -1.3116
  61   1.0000      -0.044325        -1.2061
  62   1.0000      -0.041682        -1.1342
  63   1.0000      -0.036339        -0.9888
  64   1.0000       0.000327         0.0089
  65   1.0000       0.026294         0.7155
  66   1.0000       0.029831         0.8117
  67   1.0000       0.034658         0.9431
  68   1.0000       0.044486         1.2105
  69   1.0000       0.057339         1.5603
  70   1.0000       0.064556         1.7566
  71   1.0000       0.069201         1.8831
  72   1.0000       0.079391         2.1603
  73   0.0000       0.219875         5.9831
  74   0.0000       0.236132         6.4255
  75   0.0000       0.244264         6.6468
  76   0.0000       0.249562         6.7909
  77   0.0000       0.251380         6.8404

                 SPIN DOWN ORBITALS
  NO   OCC          E(Eh)            E(eV)
   0   1.0000    -196.610235     -5350.0365
   1   1.0000     -88.568299     -2410.0659
   2   1.0000     -88.561792     -2409.8889
   3   1.0000     -88.560824     -2409.8625
   4   1.0000     -88.560089     -2409.8425
   5   1.0000     -21.970331      -597.8431
   6   1.0000     -18.830793      -512.4119
   7   1.0000     -18.487933      -503.0822
   8   1.0000     -18.469952      -502.5930
   9   1.0000     -18.469469      -502.5798
  10   1.0000      -9.959024      -270.9988
  11   1.0000      -9.942983      -270.5623
  12   1.0000      -9.938796      -270.4484
  13   1.0000      -9.936575      -270.3880
  14   1.0000      -9.936362      -270.3821
  15   1.0000      -9.929764      -270.2026
  16   1.0000      -7.622257      -207.4122
  17   1.0000      -7.615673      -207.2330
  18   1.0000      -7.614965      -207.2137
  19   1.0000      -7.614295      -207.1955
  20   1.0000      -5.587470      -152.0428
  21   1.0000      -5.581913      -151.8916
  22   1.0000      -5.581069      -151.8686
  23   1.0000      -5.580199      -151.8449
  24   1.0000      -5.579759      -151.8330
  25   1.0000      -5.578970      -151.8115
  26   1.0000      -5.574820      -151.6986
  27   1.0000      -5.574264      -151.6834
  28   1.0000      -5.573694      -151.6679
  29   1.0000      -5.572769      -151.6428
  30   1.0000      -5.572070      -151.6237
  31   1.0000      -5.571027      -151.5954
  32   1.0000      -2.332970       -63.4834
  33   1.0000      -1.401347       -38.1326
  34   1.0000      -1.344487       -36.5854
  35   1.0000      -1.342610       -36.5343
  36   1.0000      -0.597280       -16.2528
  37   1.0000      -0.555275       -15.1098
  38   1.0000      -0.552037       -15.0217
  39   1.0000      -0.470362       -12.7992
  40   1.0000      -0.469095       -12.7647
  41   1.0000      -0.408091       -11.1047
  42   1.0000      -0.398644       -10.8476
  43   1.0000      -0.341048        -9.2804
  44   1.0000      -0.329225        -8.9587
  45   1.0000      -0.305718        -8.3190
  46   1.0000      -0.290808        -7.9133
  47   1.0000      -0.211600        -5.7579
  48   1.0000      -0.208106        -5.6629
  49   1.0000      -0.206093        -5.6081
  50   1.0000      -0.198580        -5.4036
  51   1.0000      -0.161188        -4.3861
  52   1.0000      -0.132282        -3.5996
  53   1.0000      -0.122652        -3.3375
  54   1.0000      -0.112841        -3.0706
  55   1.0000      -0.106640        -2.9018
  56   1.0000      -0.088568        -2.4101
  57   1.0000      -0.077751        -2.1157
  58   1.0000      -0.071087        -1.9344
  59   1.0000      -0.064496        -1.7550
  60   1.0000      -0.049279        -1.3410
  61   1.0000      -0.047063        -1.2806
  62   1.0000      -0.041367        -1.1257
  63   1.0000      -0.035743        -0.9726
  64   1.0000       0.005179         0.1409
  65   1.0000       0.027555         0.7498
  66   1.0000       0.032827         0.8933
  67   1.0000       0.043332         1.1791
  68   1.0000       0.048296         1.3142
  69   1.0000       0.060069         1.6346
  70   1.0000       0.067395         1.8339
  71   1.0000       0.074487         2.0269
  72   0.0000       0.220536         6.0011
  73   0.0000       0.233158         6.3446
  74   0.0000       0.251713         6.8495
  75   0.0000       0.255644         6.9564
  76   0.0000       0.260114         7.0781

MULLIKEN ATOMIC CHARGES AND SPIN POPULATIONS
--------------------------------------------
   0 V :    0.526581    1.193173
   1 S :   -0.391982   -0.004284
   2 S :   -0.342569   -0.033660
   3 S :   -0.384697   -0.030460
   4 S :   -0.376481   -0.022299
   5 O :   -0.545331   -0.135371
   6 C :   -0.247611    0.006582
   7 C :   -0.237531    0.006686
   8 C :   -0.158507    0.002910
   9 H :    0.075319   -0.000922
  10 H :    0.052390    0.002147
  11 H :    0.138051    0.000670
  12 H :    0.005924   -0.000077
  13 H :    0.097651   -0.000178
  14 H :    0.049850   -0.000004
  15 C :   -0.254559   -0.004175
  16 C :   -0.250574    0.003932
  17 C :   -0.061891    0.007666
  18 H :    0.051844    0.000071
  19 H :    0.121234   -0.000456
  20 H :    0.017390    0.002061
  21 H :    0.032657   -0.000454
  22 H :    0.121275   -0.000132
  23 H :   -0.038433    0.006570
Sum of atomic charges         :   -2.0000000

LOEWDIN ATOMIC CHARGES AND SPIN POPULATIONS
-------------------------------------------
   0 V :   -0.212137    1.150726
   1 S :   -0.040064    0.001440
   2 S :   -0.029925   -0.023252
   3 S :   -0.050688   -0.021613
   4 S :   -0.056205   -0.013122
   5 O :   -0.376134   -0.122005
   6 C :   -0.324376    0.005945
   7 C :   -0.314407    0.006966
   8 C :   -0.187633    0.000431
   9 H :    0.036100   -0.000008
  10 H :    0.029567    0.000640
  11 H :    0.069924    0.000343
  12 H :    0.031686    0.000161
  13 H :    0.046311   -0.000079
  14 H :    0.028213   -0.000500
  15 C :   -0.284225    0.001390
  16 C :   -0.328278    0.007264
  17 C :   -0.190732    0.000752
  18 H :    0.028832   -0.000190
  19 H :    0.057591   -0.000676
  20 H :    0.046104    0.000786
  21 H :    0.035371    0.000108
  22 H :   -0.003613   -0.000364
  23 H :   -0.011283    0.004860

  Mayer bond orders larger than 0.100000
B(  0-V ,  1-S ) :   0.6660 B(  0-V ,  2-S ) :   0.8607 B(  0-V ,  3-S ) :   0.7748
B(  0-V ,  4-S ) :   0.7839 B(  0-V ,  5-O ) :   2.0723 B(  1-S , 15-C ) :   1.0658
B(  2-S ,  6-C ) :   1.0155 B(  3-S , 16-C ) :   1.0423 B(  4-S ,  7-C ) :   1.0703
B(  6-C ,  8-C ) :   0.9013 B(  6-C , 13-H ) :   0.9740 B(  6-C , 14-H ) :   0.9680
B(  7-C ,  8-C ) :   0.9199 B(  7-C ,  9-H ) :   0.9761 B(  7-C , 10-H ) :   0.9690
B(  8-C , 11-H ) :   0.9879 B(  8-C , 12-H ) :   0.9448 B( 15-C , 17-C ) :   0.8997
B( 15-C , 22-H ) :   0.9642 B( 15-C , 23-H ) :   0.8730 B( 16-C , 17-C ) :   0.9038
B( 16-C , 18-H ) :   0.9634 B( 16-C , 19-H ) :   0.9737 B( 17-C , 20-H ) :   0.9473
B( 17-C , 21-H ) :   0.9530

FINAL SINGLE POINT ENERGY     -2847.610713201037

DIPOLE MOMENT
-------------
                                X             Y             Z
Electronic contribution:      1.31129       2.28672      -6.46603
Nuclear contribution   :     -1.09920      -2.35053       6.47531
                        -----------------------------------------
Total Dipole Moment    :      0.21209      -0.06381       0.00928
                        -----------------------------------------
Magnitude (a.u.)       :      0.22168
Magnitude (Debye)      :      0.56347

Rotational constants in cm-1:     0.027164     0.011710     0.009596
Rotational constants in MHz :   814.354043   351.058312   287.694503

                             ****ORCA TERMINATED NORMALLY****
TOTAL RUN TIME: 0 days 0 hours 14 minutes 37 seconds 265 msec
