                         Program Version 5.0.4 -  RELEASE  -
|  1> ! nofrozencore ReducedPop printbasis
|  2> ! B3LYP TZVP
|  3>
|  4> %basis
|  5> newgto V "CP(PPP)" end
|  6> end
|  7>
|  8> %pal
|  9> nprocs 8
| 10> end
| 11>
| 12> % sym SymThresh 1e-2 end
| 13> * xyz -2 2
| 14> V 0.4458356113790178 -0.20640560206320788 -0.030255856759017135
| 15> S -0.833168875777086 -2.0322113771753534 1.1693212883482453
| 16> S -1.09640154096257 -0.8023150445813532 -1.8352179295406101
| 17> S 0.3529728726563651 1.1573543860867892 2.042169952758189
| 18> S 0.7491163794235146 2.0481779406437046 -1.0367470172028077
| 19> O 1.8632922725180459 -0.9215583723362112 -0.2390392709840183
| 20> C -0.7029069274728135 0.28927004709447723 -3.2973813976708377
| 21> C 1.3164812897578702 1.801802243775931 -2.7891791944388364
| 22> C 0.7175971065841368 0.49365224442942846 -3.524230579151549
| 23> H 2.4110548967952665 1.9043469357825016 -2.731095347041982
| 24> H 0.8986860191608718 2.6146357091382746 -3.413476664266182
| 25> H 1.6587914810343625 -0.08475380570465313 -3.0641330475459783
| 26> H 1.1743106698635164 0.7810921816469117 -4.536164609560678
| 27> H -1.3265966598925536 1.183064929707445 -3.1643484713139984
| 28> H -1.0102540704348482 -0.26236091715791454 -4.197035738899763
| 29> C -1.970233385913998 -1.0530608460071735 2.249794311532617
| 30> C 0.09234497364354989 -0.04929666218689904 3.4213445319374083
| 31> C -1.339128108821428 -0.5810625239194098 3.563461721492705
| 32> H 0.39518383920035133 0.44811365721678226 4.3507955761387676
| 33> H 0.7635576263277085 -0.8918338891080755 3.255021590433028
| 34> H -1.9728728388304337 0.20434610942422848 4.004684837882917
| 35> H -1.3117659419875731 -1.4136158553133813 4.28535471996544
| 36> H -2.8499359427217623 -1.6679046399854711 2.4736670111818926
| 37> H -2.3129662934946946 -0.18924098534489905 1.6796528410564808
| 38> *
| 39>
| 40> % eprnmr
| 41> gtensor true
| 42> Nuclei = all H {aiso,adip,aorb,fgrad,rho}
| 43> Nuclei = all V {aiso,adip,aorb,fgrad,rho}
| 44> end
| 45>
| 46>                          ****END OF INPUT****

CARTESIAN COORDINATES (ANGSTROEM)
---------------------------------
  V      0.446440   -0.206794   -0.030025
  S     -0.832564   -2.032600    1.169552
  S     -1.095797   -0.802704   -1.834987
  S      0.353578    1.156966    2.042400
  S      0.749721    2.047789   -1.036517
  O      1.863897   -0.921947   -0.238809
  C     -0.702302    0.288881   -3.297151
  C      1.317086    1.801413   -2.788949
  C      0.718202    0.493263   -3.524000
  H      2.411660    1.903958   -2.730865
  H      0.899291    2.614247   -3.413246
  H      1.659396   -0.085143   -3.063903
  H      1.174915    0.780703   -4.535934
  H     -1.325992    1.182676   -3.164118
  H     -1.009649   -0.262750   -4.196805
  C     -1.969629   -1.053450    2.250025
  C      0.092950   -0.049685    3.421575
  C     -1.338523   -0.581451    3.563692
  H      0.395789    0.447725    4.351026
  H      0.764162   -0.892223    3.255252
  H     -1.972268    0.203957    4.004915
  H     -1.311161   -1.414005    4.285585
  H     -2.849331   -1.668293    2.473897
  H     -2.312362   -0.189630    1.679883

 Total Charge           Charge          ....   -2
 Multiplicity           Mult            ....    2
 Number of Electrons    NEL             ....  145
 Basis Dimension        Dim             ....  353

ORBITAL ENERGIES
----------------
                 SPIN UP ORBITALS
  NO   OCC          E(Eh)            E(eV)
   0   1.0000    -196.606896     -5349.9456
   1   1.0000     -88.562861     -2409.9180
   2   1.0000     -88.561161     -2409.8717
   3   1.0000     -88.558027     -2409.7864
   4   1.0000     -88.557379     -2409.7688
   5   1.0000     -21.982301      -598.1688
   6   1.0000     -18.825035      -512.2552
   7   1.0000     -18.490094      -503.1410
   8   1.0000     -18.482894      -502.9451
   9   1.0000     -18.482843      -502.9437
  10   1.0000      -9.945702      -270.6363
  11   1.0000      -9.944525      -270.6043
  12   1.0000      -9.942036      -270.5366
  13   1.0000      -9.934517      -270.3319
  14   1.0000      -9.934138      -270.3216
  15   1.0000      -9.932123      -270.2668
  16   1.0000      -7.616614      -207.2586
  17   1.0000      -7.615349      -207.2242
  18   1.0000      -7.612325      -207.1419
  19   1.0000      -7.611669      -207.1240
  20   1.0000      -5.582333      -151.9030
  21   1.0000      -5.580527      -151.8539
  22   1.0000      -5.577558      -151.7731
  23   1.0000      -5.576961      -151.7568
  24   1.0000      -5.575348      -151.7129
  25   1.0000      -5.574344      -151.6856
  26   1.0000      -5.573550      -151.6640
  27   1.0000      -5.572584      -151.6377
  28   1.0000      -5.571552      -151.6096
  29   1.0000      -5.570845      -151.5904
  30   1.0000      -5.569406      -151.5512
  31   1.0000      -5.568630      -151.5301
  32   1.0000      -2.374986       -64.6267
  33   1.0000      -1.417827       -38.5810
  34   1.0000      -1.403056       -38.1791
  35   1.0000      -1.402581       -38.1662
  36   1.0000      -0.587626       -15.9901
  37   1.0000      -0.554440       -15.0871
  38   1.0000      -0.551064       -14.9952
  39   1.0000      -0.472569       -12.8592
  40   1.0000      -0.466066       -12.6823
  41   1.0000      -0.403721       -10.9858
  42   1.0000      -0.394734       -10.7413
  43   1.0000      -0.339016        -9.2251
  44   1.0000      -0.331040        -9.0081
  45   1.0000      -0.296099        -8.0573
  46   1.0000      -0.284939        -7.7536
  47   1.0000      -0.214234        -5.8296
  48   1.0000      -0.209693        -5.7060
  49   1.0000      -0.203065        -5.5257
  50   1.0000      -0.193039        -5.2529
  51   1.0000      -0.185315        -5.0427
  52   1.0000      -0.134798        -3.6680
  53   1.0000      -0.131929        -3.5900
  54   1.0000      -0.118173        -3.2157
  55   1.0000      -0.108136        -2.9425
  56   1.0000      -0.086581        -2.3560
  57   1.0000      -0.073275        -1.9939
  58   1.0000      -0.064755        -1.7621
  59   1.0000      -0.059990        -1.6324
  60   1.0000      -0.052025        -1.4157
  61   1.0000      -0.044769        -1.2182
  62   1.0000      -0.039456        -1.0737
  63   1.0000      -0.035089        -0.9548
  64   1.0000      -0.000564        -0.0153
  65   1.0000       0.026897         0.7319
  66   1.0000       0.032094         0.8733
  67   1.0000       0.036236         0.9860
  68   1.0000       0.047434         1.2907
  69   1.0000       0.053463         1.4548
  70   1.0000       0.063732         1.7342
  71   1.0000       0.072945         1.9849
  72   1.0000       0.081125         2.2075
  73   0.0000       0.234354         6.3771
  74   0.0000       0.246605         6.7105
  75   0.0000       0.248339         6.7577
  76   0.0000       0.250178         6.8077
  77   0.0000       0.258505         7.0343

                 SPIN DOWN ORBITALS
  NO   OCC          E(Eh)            E(eV)
   0   1.0000    -196.607038     -5349.9495
   1   1.0000     -88.563038     -2409.9228
   2   1.0000     -88.561322     -2409.8761
   3   1.0000     -88.557999     -2409.7857
   4   1.0000     -88.557484     -2409.7717
   5   1.0000     -21.967262      -597.7596
   6   1.0000     -18.828500      -512.3495
   7   1.0000     -18.484899      -502.9997
   8   1.0000     -18.466842      -502.5083
   9   1.0000     -18.466390      -502.4960
  10   1.0000      -9.945517      -270.6313
  11   1.0000      -9.944544      -270.6048
  12   1.0000      -9.941906      -270.5330
  13   1.0000      -9.934460      -270.3304
  14   1.0000      -9.933964      -270.3169
  15   1.0000      -9.932082      -270.2657
  16   1.0000      -7.616786      -207.2633
  17   1.0000      -7.615502      -207.2284
  18   1.0000      -7.612300      -207.1412
  19   1.0000      -7.611768      -207.1267
  20   1.0000      -5.582498      -151.9075
  21   1.0000      -5.580681      -151.8580
  22   1.0000      -5.577574      -151.7735
  23   1.0000      -5.577086      -151.7602
  24   1.0000      -5.575804      -151.7253
  25   1.0000      -5.574766      -151.6971
  26   1.0000      -5.573682      -151.6676
  27   1.0000      -5.572704      -151.6410
  28   1.0000      -5.571886      -151.6187
  29   1.0000      -5.571252      -151.6015
  30   1.0000      -5.568934      -151.5384
  31   1.0000      -5.568555      -151.5281
  32   1.0000      -2.330095       -63.4051
  33   1.0000      -1.398867       -38.0651
  34   1.0000      -1.341484       -36.5036
  35   1.0000      -1.339669       -36.4543
  36   1.0000      -0.595029       -16.1916
  37   1.0000      -0.554348       -15.0846
  38   1.0000      -0.550908       -14.9910
  39   1.0000      -0.472485       -12.8570
  40   1.0000      -0.465936       -12.6788
  41   1.0000      -0.403744       -10.9864
  42   1.0000      -0.394918       -10.7463
  43   1.0000      -0.339224        -9.2308
  44   1.0000      -0.331395        -9.0177
  45   1.0000      -0.296025        -8.0552
  46   1.0000      -0.284981        -7.7547
  47   1.0000      -0.214171        -5.8279
  48   1.0000      -0.209631        -5.7044
  49   1.0000      -0.202950        -5.5226
  50   1.0000      -0.192850        -5.2477
  51   1.0000      -0.185268        -5.0414
  52   1.0000      -0.134554        -3.6614
  53   1.0000      -0.131711        -3.5840
  54   1.0000      -0.117863        -3.2072
  55   1.0000      -0.108072        -2.9408
  56   1.0000      -0.086008        -2.3404
  57   1.0000      -0.071107        -1.9349
  58   1.0000      -0.063640        -1.7317
  59   1.0000      -0.060252        -1.6395
  60   1.0000      -0.052198        -1.4204
  61   1.0000      -0.045556        -1.2397
  62   1.0000      -0.040433        -1.1002
  63   1.0000      -0.035413        -0.9636
  64   1.0000       0.003992         0.1086
  65   1.0000       0.027907         0.7594
  66   1.0000       0.034805         0.9471
  67   1.0000       0.045445         1.2366
  68   1.0000       0.048067         1.3080
  69   1.0000       0.061016         1.6603
  70   1.0000       0.067584         1.8391
  71   1.0000       0.074884         2.0377
  72   0.0000       0.232460         6.3256
  73   0.0000       0.250279         6.8104
  74   0.0000       0.253249         6.8913
  75   0.0000       0.260913         7.0998
  76   0.0000       0.264815         7.2060

MULLIKEN ATOMIC CHARGES AND SPIN POPULATIONS
--------------------------------------------
   0 V :    0.532361    1.191003
   1 S :   -0.427326   -0.001161
   2 S :   -0.348727   -0.032946
   3 S :   -0.408980   -0.029358
   4 S :   -0.390267   -0.022256
   5 O :   -0.549039   -0.133629
   6 C :   -0.239828    0.004863
   7 C :   -0.273888    0.006536
   8 C :   -0.134773    0.004742
   9 H :    0.087849   -0.000969
  10 H :    0.041017    0.002415
  11 H :    0.127247    0.000269
  12 H :    0.000282   -0.000090
  13 H :    0.110951   -0.000149
  14 H :    0.051961   -0.000244
  15 C :   -0.256070   -0.002295
  16 C :   -0.254523    0.003403
  17 C :   -0.069030    0.008492
  18 H :    0.047985   -0.000044
  19 H :    0.131276   -0.000203
  20 H :    0.015727    0.001618
  21 H :    0.012726    0.000082
  22 H :    0.052237   -0.000568
  23 H :    0.140832    0.000489
Sum of atomic charges         :   -2.0000000

LOEWDIN ATOMIC CHARGES AND SPIN POPULATIONS
-------------------------------------------
   0 V :   -0.211113    1.147772
   1 S :   -0.071388    0.004169
   2 S :   -0.033781   -0.022710
   3 S :   -0.060685   -0.020519
   4 S :   -0.071701   -0.012758
   5 O :   -0.376250   -0.120438
   6 C :   -0.326586    0.005188
   7 C :   -0.327888    0.007171
   8 C :   -0.209243    0.000577
   9 H :    0.037085   -0.000006
  10 H :    0.020880    0.000650
  11 H :    0.095949    0.000365
  12 H :    0.033137    0.000138
  13 H :    0.055709   -0.000132
  14 H :    0.036780   -0.000602
  15 C :   -0.317629    0.002694
  16 C :   -0.325280    0.007332
  17 C :   -0.188666    0.001152
  18 H :    0.028313   -0.000201
  19 H :    0.053893   -0.000615
  20 H :    0.036283    0.000623
  21 H :    0.035139    0.000385
  22 H :    0.030468   -0.000592
  23 H :    0.056573    0.000357

  Mayer bond orders larger than 0.100000
B(  0-V ,  1-S ) :   0.7072 B(  0-V ,  2-S ) :   0.8504 B(  0-V ,  3-S ) :   0.7730
B(  0-V ,  4-S ) :   0.7783 B(  0-V ,  5-O ) :   2.0670 B(  1-S , 15-C ) :   1.0248
B(  2-S ,  6-C ) :   0.9736 B(  3-S , 16-C ) :   1.0235 B(  4-S ,  7-C ) :   1.0566
B(  6-C ,  8-C ) :   0.9767 B(  6-C , 13-H ) :   0.9802 B(  6-C , 14-H ) :   0.9617
B(  7-C ,  8-C ) :   0.8357 B(  7-C ,  9-H ) :   0.9837 B(  7-C , 10-H ) :   0.9604
B(  8-C , 11-H ) :   0.9597 B(  8-C , 12-H ) :   0.9546 B( 15-C , 17-C ) :   0.8978
B( 15-C , 22-H ) :   0.9683 B( 15-C , 23-H ) :   0.9794 B( 16-C , 17-C ) :   0.9018
B( 16-C , 18-H ) :   0.9637 B( 16-C , 19-H ) :   0.9761 B( 17-C , 20-H ) :   0.9579
B( 17-C , 21-H ) :   0.9597

FINAL SINGLE POINT ENERGY     -2847.669961725583

DIPOLE MOMENT
-------------
                                X             Y             Z
Electronic contribution:      4.94155      -3.16719       0.67483
Nuclear contribution   :     -5.27337       3.39096      -0.86369
                        -----------------------------------------
Total Dipole Moment    :     -0.33182       0.22378      -0.18887
                        -----------------------------------------
Magnitude (a.u.)       :      0.44255
Magnitude (Debye)      :      1.12487

Rotational constants in cm-1:     0.027193     0.011720     0.009599
Rotational constants in MHz :   815.235908   351.347740   287.782313

                             ****ORCA TERMINATED NORMALLY****
TOTAL RUN TIME: 0 days 0 hours 9 minutes 37 seconds 286 msec
