                         Program Version 5.0.4 -  RELEASE  -
|  1> ! nofrozencore ReducedPop printbasis
|  2> ! B3LYP TZVP
|  3>
|  4> %basis
|  5> newgto V "CP(PPP)" end
|  6> end
|  7>
|  8> %pal
|  9> nprocs 4
| 10> end
| 11>
| 12> % sym SymThresh 1e-2 end
| 13> * xyz -2 2
| 14> V -0.039684473044299756 -0.2700417215880309 0.16993317122318596
| 15> S -1.7233860880934548 -0.8087444287412277 -1.6145320128024605
| 16> S 1.5257318804145097 -0.49047510605227695 -1.6281270843284354
| 17> S -1.59936287575675 1.2374293137976955 1.2459662765036073
| 18> S 1.6003831744355794 0.8978843036014278 1.573933549216001
| 19> O -0.11524214018283954 -2.301037510682688 1.2348940465445999
| 20> C 3.2498484006562607 -0.2782814210302827 -0.9648994750808549
| 21> C 3.1893923580389894 -0.09851183430945684 1.6045621447648828
| 22> C 3.4748189614882645 -0.9326404098045094 0.4105632974576482
| 23> H 3.2570022467398303 -0.7090431030760644 2.5116673489110704
| 24> H 3.9358099108768014 0.7081074775030594 1.663533194820951
| 25> H 2.8577551987301795 -1.830858451057392 0.4858683090615812
| 26> H 4.531903707644961 -1.240319865186102 0.49787069863829814
| 27> H 3.35311261533938 0.8128821646233937 -0.8871304190219662
| 28> H 3.965433032667264 -0.6434891272635523 -1.7117756268640745
| 29> C -2.4002044586600997 0.9109120591032754 -1.8282249354831612
| 30> C -3.2739072266349702 0.8413713173954329 0.5881181281261377
| 31> C -3.5545768296228197 1.21914952468229 -0.8701457824465579
| 32> H -4.026334490986934 1.2424912755493631 1.2788786137529642
| 33> H -3.244737944410652 -0.25119960874630504 0.7015235088772436
| 34> H -3.5847381591934675 2.3295916143772932 -0.8733417630980574
| 35> H -4.536455351364626 0.8689316627198125 -1.2434407768873565
| 36> H -2.8325362806215986 0.9290609795256607 -2.8388206901486717
| 37> H -1.6566582328869757 1.718691991843701 -1.7849531511726393
| 38> *
| 39>
| 40> % eprnmr
| 41> gtensor true
| 42> Nuclei = all H {aiso,adip,aorb,fgrad,rho}
| 43> Nuclei = all V {aiso,adip,aorb,fgrad,rho}
| 44> end
| 45>
| 46>                          ****END OF INPUT****

CARTESIAN COORDINATES (ANGSTROEM)
---------------------------------
  V     -0.040037   -0.270627    0.170255
  S     -1.723738   -0.809330   -1.614210
  S      1.525380   -0.491061   -1.627805
  S     -1.599715    1.236844    1.246288
  S      1.600031    0.897299    1.574255
  O     -0.115594   -2.301623    1.235216
  C      3.249496   -0.278867   -0.964578
  C      3.189040   -0.099097    1.604884
  C      3.474467   -0.933226    0.410885
  H      3.256650   -0.709629    2.511989
  H      3.935458    0.707522    1.663855
  H      2.857403   -1.831444    0.486190
  H      4.531552   -1.240905    0.498193
  H      3.352761    0.812297   -0.886809
  H      3.965081   -0.644075   -1.711454
  C     -2.400556    0.910327   -1.827903
  C     -3.274259    0.840786    0.588440
  C     -3.554929    1.218564   -0.869824
  H     -4.026687    1.241906    1.279200
  H     -3.245090   -0.251785    0.701845
  H     -3.585090    2.329006   -0.873020
  H     -4.536807    0.868346   -1.243119
  H     -2.832888    0.928475   -2.838499
  H     -1.657010    1.718107   -1.784631

 Total Charge           Charge          ....   -2
 Multiplicity           Mult            ....    2
 Number of Electrons    NEL             ....  145
 Basis Dimension        Dim             ....  353

ORBITAL ENERGIES
----------------
                 SPIN UP ORBITALS
  NO   OCC          E(Eh)            E(eV)
   0   1.0000    -196.604877     -5349.8907
   1   1.0000     -88.574180     -2410.2260
   2   1.0000     -88.573691     -2410.2127
   3   1.0000     -88.561484     -2409.8805
   4   1.0000     -88.558901     -2409.8102
   5   1.0000     -21.974951      -597.9688
   6   1.0000     -18.802987      -511.6553
   7   1.0000     -18.481248      -502.9003
   8   1.0000     -18.478680      -502.8305
   9   1.0000     -18.471959      -502.6476
  10   1.0000      -9.944102      -270.5928
  11   1.0000      -9.943809      -270.5848
  12   1.0000      -9.941312      -270.5169
  13   1.0000      -9.940696      -270.5001
  14   1.0000      -9.939576      -270.4696
  15   1.0000      -9.929937      -270.2073
  16   1.0000      -7.628734      -207.5884
  17   1.0000      -7.627692      -207.5601
  18   1.0000      -7.615785      -207.2360
  19   1.0000      -7.613209      -207.1659
  20   1.0000      -5.593702      -152.2124
  21   1.0000      -5.592887      -152.1902
  22   1.0000      -5.587324      -152.0388
  23   1.0000      -5.586290      -152.0107
  24   1.0000      -5.586020      -152.0033
  25   1.0000      -5.585350      -151.9851
  26   1.0000      -5.581215      -151.8726
  27   1.0000      -5.578606      -151.8016
  28   1.0000      -5.574362      -151.6861
  29   1.0000      -5.573178      -151.6539
  30   1.0000      -5.572114      -151.6249
  31   1.0000      -5.570363      -151.5773
  32   1.0000      -2.383856       -64.8680
  33   1.0000      -1.418002       -38.5858
  34   1.0000      -1.414652       -38.4946
  35   1.0000      -1.412658       -38.4404
  36   1.0000      -0.560930       -15.2637
  37   1.0000      -0.557272       -15.1641
  38   1.0000      -0.503056       -13.6888
  39   1.0000      -0.476376       -12.9628
  40   1.0000      -0.473221       -12.8770
  41   1.0000      -0.410368       -11.1667
  42   1.0000      -0.402167       -10.9435
  43   1.0000      -0.343764        -9.3543
  44   1.0000      -0.335795        -9.1374
  45   1.0000      -0.307445        -8.3660
  46   1.0000      -0.290359        -7.9011
  47   1.0000      -0.221131        -6.0173
  48   1.0000      -0.215567        -5.8659
  49   1.0000      -0.208182        -5.6649
  50   1.0000      -0.205071        -5.5803
  51   1.0000      -0.168124        -4.5749
  52   1.0000      -0.141770        -3.8578
  53   1.0000      -0.136597        -3.7170
  54   1.0000      -0.125522        -3.4156
  55   1.0000      -0.111355        -3.0301
  56   1.0000      -0.108240        -2.9454
  57   1.0000      -0.086357        -2.3499
  58   1.0000      -0.075518        -2.0549
  59   1.0000      -0.055080        -1.4988
  60   1.0000      -0.044554        -1.2124
  61   1.0000      -0.012548        -0.3414
  62   1.0000       0.012712         0.3459
  63   1.0000       0.016273         0.4428
  64   1.0000       0.021364         0.5813
  65   1.0000       0.022815         0.6208
  66   1.0000       0.033275         0.9055
  67   1.0000       0.039253         1.0681
  68   1.0000       0.044852         1.2205
  69   1.0000       0.047926         1.3041
  70   1.0000       0.062126         1.6905
  71   1.0000       0.068766         1.8712
  72   1.0000       0.085867         2.3366
  73   0.0000       0.185374         5.0443
  74   0.0000       0.195002         5.3063
  75   0.0000       0.200888         5.4665
  76   0.0000       0.249962         6.8018
  77   0.0000       0.252583         6.8731

                 SPIN DOWN ORBITALS
  NO   OCC          E(Eh)            E(eV)
   0   1.0000    -196.604996     -5349.8939
   1   1.0000     -88.574606     -2410.2376
   2   1.0000     -88.574128     -2410.2246
   3   1.0000     -88.561623     -2409.8843
   4   1.0000     -88.558945     -2409.8114
   5   1.0000     -21.947627      -597.2253
   6   1.0000     -18.829758      -512.3838
   7   1.0000     -18.461734      -502.3693
   8   1.0000     -18.458433      -502.2795
   9   1.0000     -18.443169      -501.8641
  10   1.0000      -9.943919      -270.5878
  11   1.0000      -9.943505      -270.5765
  12   1.0000      -9.941086      -270.5107
  13   1.0000      -9.940438      -270.4931
  14   1.0000      -9.939560      -270.4692
  15   1.0000      -9.929944      -270.2075
  16   1.0000      -7.629140      -207.5994
  17   1.0000      -7.628115      -207.5716
  18   1.0000      -7.615913      -207.2395
  19   1.0000      -7.613258      -207.1673
  20   1.0000      -5.594056      -152.2220
  21   1.0000      -5.593244      -152.1999
  22   1.0000      -5.588187      -152.0623
  23   1.0000      -5.586918      -152.0278
  24   1.0000      -5.586906      -152.0275
  25   1.0000      -5.585963      -152.0018
  26   1.0000      -5.581409      -151.8779
  27   1.0000      -5.578718      -151.8046
  28   1.0000      -5.575054      -151.7049
  29   1.0000      -5.572905      -151.6464
  30   1.0000      -5.572678      -151.6403
  31   1.0000      -5.569870      -151.5639
  32   1.0000      -2.301412       -62.6246
  33   1.0000      -1.343222       -36.5509
  34   1.0000      -1.337419       -36.3930
  35   1.0000      -1.301898       -35.4265
  36   1.0000      -0.583469       -15.8770
  37   1.0000      -0.560705       -15.2576
  38   1.0000      -0.557112       -15.1598
  39   1.0000      -0.476492       -12.9660
  40   1.0000      -0.473267       -12.8782
  41   1.0000      -0.410681       -11.1752
  42   1.0000      -0.402543       -10.9537
  43   1.0000      -0.344454        -9.3731
  44   1.0000      -0.336701        -9.1621
  45   1.0000      -0.307440        -8.3659
  46   1.0000      -0.290586        -7.9073
  47   1.0000      -0.221083        -6.0160
  48   1.0000      -0.215463        -5.8631
  49   1.0000      -0.207995        -5.6598
  50   1.0000      -0.204973        -5.5776
  51   1.0000      -0.167994        -4.5714
  52   1.0000      -0.141466        -3.8495
  53   1.0000      -0.136323        -3.7095
  54   1.0000      -0.125512        -3.4154
  55   1.0000      -0.111287        -3.0283
  56   1.0000      -0.107934        -2.9370
  57   1.0000      -0.083938        -2.2841
  58   1.0000      -0.072912        -1.9840
  59   1.0000      -0.055016        -1.4971
  60   1.0000      -0.044438        -1.2092
  61   1.0000      -0.041221        -1.1217
  62   1.0000      -0.014768        -0.4019
  63   1.0000      -0.000391        -0.0106
  64   1.0000       0.011487         0.3126
  65   1.0000       0.019831         0.5396
  66   1.0000       0.025569         0.6958
  67   1.0000       0.033983         0.9247
  68   1.0000       0.044979         1.2239
  69   1.0000       0.049482         1.3465
  70   1.0000       0.061900         1.6844
  71   1.0000       0.065155         1.7730
  72   0.0000       0.231732         6.3058
  73   0.0000       0.234693         6.3863
  74   0.0000       0.237692         6.4679
  75   0.0000       0.248763         6.7692
  76   0.0000       0.255321         6.9476

MULLIKEN ATOMIC CHARGES AND SPIN POPULATIONS
--------------------------------------------
   0 V :    0.485696    2.202759
   1 S :   -0.435624   -0.007529
   2 S :   -0.322633   -0.081266
   3 S :   -0.377777   -0.071998
   4 S :   -0.408131   -0.032869
   5 O :   -0.585247   -1.059260
   6 C :   -0.264787    0.009688
   7 C :   -0.233037    0.022124
   8 C :   -0.146635   -0.007543
   9 H :    0.080739    0.000926
  10 H :    0.052704    0.001798
  11 H :    0.149040    0.004236
  12 H :    0.006202    0.001525
  13 H :    0.105439    0.000654
  14 H :    0.058041   -0.001144
  15 C :   -0.252564    0.002185
  16 C :   -0.269948    0.003880
  17 C :   -0.076918    0.008312
  18 H :    0.057727   -0.000710
  19 H :    0.153583    0.000141
  20 H :    0.009569    0.001346
  21 H :    0.032845    0.000070
  22 H :    0.048507    0.002157
  23 H :    0.133208    0.000519
Sum of atomic charges         :   -2.0000000

LOEWDIN ATOMIC CHARGES AND SPIN POPULATIONS
-------------------------------------------
   0 V :   -0.159942    2.126961
   1 S :   -0.085973   -0.000654
   2 S :    0.006015   -0.060410
   3 S :   -0.011222   -0.056679
   4 S :   -0.074820   -0.015853
   5 O :   -0.538319   -1.037503
   6 C :   -0.323886    0.007268
   7 C :   -0.305052    0.013750
   8 C :   -0.189484    0.001312
   9 H :    0.040830    0.001088
  10 H :    0.030774    0.000311
  11 H :    0.074126    0.001254
  12 H :    0.034394    0.000539
  13 H :    0.051057   -0.000246
  14 H :    0.031131   -0.001253
  15 C :   -0.317895    0.009235
  16 C :   -0.329436    0.010515
  17 C :   -0.189726    0.000408
  18 H :    0.031266   -0.000862
  19 H :    0.061649   -0.000953
  20 H :    0.039211    0.000545
  21 H :    0.039429    0.000550
  22 H :    0.031940   -0.000101
  23 H :    0.053931    0.000779

  Mayer bond orders larger than 0.100000
B(  0-V ,  1-S ) :   0.6888 B(  0-V ,  2-S ) :   0.9748 B(  0-V ,  3-S ) :   0.9018
B(  0-V ,  4-S ) :   0.7897 B(  0-V ,  5-O ) :   0.9104 B(  1-S , 15-C ) :   1.0341
B(  1-S , 17-C ) :  -0.1113 B(  2-S ,  6-C ) :   0.9787 B(  3-S , 16-C ) :   0.9638
B(  4-S ,  7-C ) :   1.0617 B(  4-S ,  8-C ) :  -0.1017 B(  6-C ,  8-C ) :   0.8903
B(  6-C , 13-H ) :   0.9842 B(  6-C , 14-H ) :   0.9611 B(  7-C ,  8-C ) :   0.9266
B(  7-C ,  9-H ) :   0.9692 B(  7-C , 10-H ) :   0.9803 B(  8-C , 11-H ) :   0.9820
B(  8-C , 12-H ) :   0.9462 B( 15-C , 17-C ) :   0.9001 B( 15-C , 22-H ) :   0.9722
B( 15-C , 23-H ) :   0.9721 B( 16-C , 17-C ) :   0.9084 B( 16-C , 18-H ) :   0.9559
B( 16-C , 19-H ) :   0.9821 B( 17-C , 20-H ) :   0.9709 B( 17-C , 21-H ) :   0.9497

FINAL SINGLE POINT ENERGY     -2847.593807958087

DIPOLE MOMENT
-------------
                                X             Y             Z
Electronic contribution:     -1.68963      -3.83514       2.22607
Nuclear contribution   :      2.07987       4.87807      -2.81719
                        -----------------------------------------
Total Dipole Moment    :      0.39024       1.04293      -0.59112
                        -----------------------------------------
Magnitude (a.u.)       :      1.26072
Magnitude (Debye)      :      3.20450

Rotational constants in cm-1:     0.025892     0.011456     0.009583
Rotational constants in MHz :   776.228379   343.438060   287.289731

                             ****ORCA TERMINATED NORMALLY****
TOTAL RUN TIME: 0 days 0 hours 18 minutes 51 seconds 638 msec
