                         Program Version 5.0.4 -  RELEASE  -
|  1> ! nofrozencore ReducedPop printbasis
|  2> ! B3LYP TZVP
|  3>
|  4> %basis
|  5> newgto V "CP(PPP)" end
|  6> end
|  7>
|  8> %pal
|  9> nprocs 8
| 10> end
| 11>
| 12> % sym SymThresh 1e-2 end
| 13> * xyz -2 2
| 14> V -0.3334450701062609 0.35797075176739374 0.05375636738952606
| 15> S -0.9979614828441074 -0.5421747688306239 -2.2040770638414733
| 16> S -1.0757435327869305 -1.8639096616995172 0.763830328694983
| 17> S 1.70874446980216 1.3395360082245698 -0.9894406266584773
| 18> S 1.0871832705382443 0.530917910776853 2.090766545607641
| 19> O -1.4902950909626171 1.4432025771779227 0.2918059511400122
| 20> C -0.8830388188920927 -1.9742576171989354 2.6064677108089485
| 21> C -0.009685838152691709 0.250270453265225 3.5567258075156287
| 22> C -1.2129159474454028 -0.6763874129025065 3.3528957615706867
| 23> H -0.3717139409774759 1.2208708380264783 3.915472575758068
| 24> H 0.6286019097568116 -0.16583981368301184 4.347241963347298
| 25> H -1.9937577765164982 -0.1470165338933051 2.800876595893505
| 26> H -1.6264716459897253 -0.9116783022840029 4.350376251154609
| 27> H 0.1416755429747216 -2.278405904411545 2.844990763658193
| 28> H -1.5551775794689746 -2.7748273657996547 2.936859926663914
| 29> C 0.6699676282472191 -1.003098598674655 -2.9991579515510254
| 30> C 1.2829529668369255 1.4788349216238659 -2.7273853965281596
| 31> C 1.3593206061295964 0.20410333285907603 -3.6006032156432184
| 32> H 2.1582072091553677 2.067571856190737 -3.1075101645838243
| 33> H 0.368078625881876 2.0936611855155025 -2.8937734584109607
| 34> H 2.457593894133667 -0.02395156798339206 -3.5619210221627675
| 35> H 1.1209383650902185 0.44210801598255867 -4.669006313441205
| 36> H 0.6426104545766068 -1.9330441858070742 -3.620491403771084
| 37> H 1.3065707137438087 -1.210785794747636 -2.107475740797348
| 38> *
| 39>
| 40> % eprnmr
| 41> gtensor true
| 42> Nuclei = all H {aiso,adip,aorb,fgrad,rho}
| 43> Nuclei = all V {aiso,adip,aorb,fgrad,rho}
| 44> end
| 45>
| 46>                          ****END OF INPUT****

CARTESIAN COORDINATES (ANGSTROEM)
---------------------------------
  V     -0.333880    0.358555    0.053556
  S     -0.998396   -0.541591   -2.204278
  S     -1.076178   -1.863326    0.763630
  S      1.708310    1.340120   -0.989641
  S      1.086749    0.531502    2.090566
  O     -1.490730    1.443787    0.291605
  C     -0.883473   -1.973674    2.606267
  C     -0.010120    0.250854    3.556525
  C     -1.213351   -0.675803    3.352695
  H     -0.372149    1.221455    3.915272
  H      0.628167   -0.165256    4.347041
  H     -1.994192   -0.146433    2.800676
  H     -1.626906   -0.911094    4.350176
  H      0.141241   -2.277822    2.844790
  H     -1.555612   -2.774243    2.936659
  C      0.669533   -1.002515   -2.999359
  C      1.282518    1.479419   -2.727586
  C      1.358886    0.204687   -3.600804
  H      2.157773    2.068156   -3.107711
  H      0.367644    2.094245   -2.893974
  H      2.457159   -0.023368   -3.562122
  H      1.120504    0.442692   -4.669207
  H      0.642176   -1.932460   -3.620692
  H      1.306136   -1.210202   -2.107676

 Total Charge           Charge          ....   -2
 Multiplicity           Mult            ....    2
 Number of Electrons    NEL             ....  145
 Basis Dimension        Dim             ....  353

ORBITAL ENERGIES
----------------
                 SPIN UP ORBITALS
  NO   OCC          E(Eh)            E(eV)
   0   1.0000    -196.607097     -5349.9511
   1   1.0000     -88.562848     -2409.9176
   2   1.0000     -88.560658     -2409.8580
   3   1.0000     -88.559335     -2409.8220
   4   1.0000     -88.558246     -2409.7924
   5   1.0000     -21.982398      -598.1714
   6   1.0000     -18.824880      -512.2510
   7   1.0000     -18.490237      -503.1449
   8   1.0000     -18.482996      -502.9479
   9   1.0000     -18.482885      -502.9449
  10   1.0000      -9.942658      -270.5535
  11   1.0000      -9.939797      -270.4756
  12   1.0000      -9.939316      -270.4625
  13   1.0000      -9.937484      -270.4127
  14   1.0000      -9.934812      -270.3400
  15   1.0000      -9.928850      -270.1778
  16   1.0000      -7.617996      -207.2962
  17   1.0000      -7.614491      -207.2008
  18   1.0000      -7.613631      -207.1774
  19   1.0000      -7.611757      -207.1264
  20   1.0000      -5.583020      -151.9217
  21   1.0000      -5.579893      -151.8366
  22   1.0000      -5.579063      -151.8140
  23   1.0000      -5.577217      -151.7638
  24   1.0000      -5.576888      -151.7548
  25   1.0000      -5.575264      -151.7106
  26   1.0000      -5.573311      -151.6575
  27   1.0000      -5.572670      -151.6401
  28   1.0000      -5.571676      -151.6130
  29   1.0000      -5.570897      -151.5918
  30   1.0000      -5.570580      -151.5832
  31   1.0000      -5.568831      -151.5356
  32   1.0000      -2.375065       -64.6288
  33   1.0000      -1.417666       -38.5766
  34   1.0000      -1.403157       -38.1819
  35   1.0000      -1.402726       -38.1701
  36   1.0000      -0.587411       -15.9843
  37   1.0000      -0.552373       -15.0308
  38   1.0000      -0.551455       -15.0059
  39   1.0000      -0.469469       -12.7749
  40   1.0000      -0.466463       -12.6931
  41   1.0000      -0.403154       -10.9704
  42   1.0000      -0.396155       -10.7799
  43   1.0000      -0.336668        -9.1612
  44   1.0000      -0.327255        -8.9051
  45   1.0000      -0.304591        -8.2883
  46   1.0000      -0.280452        -7.6315
  47   1.0000      -0.214203        -5.8288
  48   1.0000      -0.207460        -5.6453
  49   1.0000      -0.201676        -5.4879
  50   1.0000      -0.198187        -5.3929
  51   1.0000      -0.160762        -4.3746
  52   1.0000      -0.130904        -3.5621
  53   1.0000      -0.127505        -3.4696
  54   1.0000      -0.112125        -3.0511
  55   1.0000      -0.106671        -2.9027
  56   1.0000      -0.105854        -2.8804
  57   1.0000      -0.084020        -2.2863
  58   1.0000      -0.067489        -1.8365
  59   1.0000      -0.063628        -1.7314
  60   1.0000      -0.054284        -1.4772
  61   1.0000      -0.046440        -1.2637
  62   1.0000      -0.043962        -1.1963
  63   1.0000      -0.033099        -0.9007
  64   1.0000       0.000674         0.0183
  65   1.0000       0.028215         0.7678
  66   1.0000       0.030788         0.8378
  67   1.0000       0.036658         0.9975
  68   1.0000       0.045606         1.2410
  69   1.0000       0.052881         1.4390
  70   1.0000       0.062734         1.7071
  71   1.0000       0.072507         1.9730
  72   1.0000       0.081526         2.2184
  73   0.0000       0.234648         6.3851
  74   0.0000       0.246148         6.6980
  75   0.0000       0.248934         6.7738
  76   0.0000       0.251820         6.8524
  77   0.0000       0.257361         7.0031

                 SPIN DOWN ORBITALS
  NO   OCC          E(Eh)            E(eV)
   0   1.0000    -196.607239     -5349.9550
   1   1.0000     -88.563008     -2409.9220
   2   1.0000     -88.560835     -2409.8628
   3   1.0000     -88.559441     -2409.8249
   4   1.0000     -88.558203     -2409.7912
   5   1.0000     -21.967325      -597.7613
   6   1.0000     -18.828353      -512.3455
   7   1.0000     -18.485025      -503.0031
   8   1.0000     -18.466915      -502.5103
   9   1.0000     -18.466396      -502.4962
  10   1.0000      -9.942481      -270.5487
  11   1.0000      -9.939727      -270.4737
  12   1.0000      -9.939166      -270.4585
  13   1.0000      -9.937444      -270.4116
  14   1.0000      -9.934689      -270.3366
  15   1.0000      -9.928870      -270.1783
  16   1.0000      -7.618149      -207.3004
  17   1.0000      -7.614664      -207.2055
  18   1.0000      -7.613731      -207.1802
  19   1.0000      -7.611718      -207.1254
  20   1.0000      -5.583158      -151.9255
  21   1.0000      -5.580058      -151.8411
  22   1.0000      -5.579186      -151.8174
  23   1.0000      -5.577327      -151.7668
  24   1.0000      -5.577229      -151.7641
  25   1.0000      -5.575381      -151.7138
  26   1.0000      -5.573768      -151.6699
  27   1.0000      -5.573081      -151.6512
  28   1.0000      -5.571812      -151.6167
  29   1.0000      -5.571218      -151.6005
  30   1.0000      -5.570509      -151.5813
  31   1.0000      -5.568319      -151.5217
  32   1.0000      -2.330083       -63.4048
  33   1.0000      -1.398632       -38.0587
  34   1.0000      -1.341470       -36.5032
  35   1.0000      -1.339724       -36.4557
  36   1.0000      -0.594854       -16.1868
  37   1.0000      -0.552242       -15.0273
  38   1.0000      -0.551362       -15.0033
  39   1.0000      -0.469430       -12.7738
  40   1.0000      -0.466391       -12.6912
  41   1.0000      -0.403208       -10.9718
  42   1.0000      -0.396260       -10.7828
  43   1.0000      -0.336761        -9.1637
  44   1.0000      -0.327626        -8.9152
  45   1.0000      -0.304579        -8.2880
  46   1.0000      -0.280467        -7.6319
  47   1.0000      -0.214178        -5.8281
  48   1.0000      -0.207406        -5.6438
  49   1.0000      -0.201507        -5.4833
  50   1.0000      -0.198053        -5.3893
  51   1.0000      -0.160644        -4.3713
  52   1.0000      -0.130747        -3.5578
  53   1.0000      -0.127220        -3.4618
  54   1.0000      -0.112120        -3.0509
  55   1.0000      -0.106608        -2.9010
  56   1.0000      -0.105724        -2.8769
  57   1.0000      -0.082787        -2.2527
  58   1.0000      -0.065261        -1.7758
  59   1.0000      -0.062591        -1.7032
  60   1.0000      -0.054739        -1.4895
  61   1.0000      -0.047101        -1.2817
  62   1.0000      -0.045342        -1.2338
  63   1.0000      -0.033862        -0.9214
  64   1.0000       0.005140         0.1399
  65   1.0000       0.029304         0.7974
  66   1.0000       0.033661         0.9160
  67   1.0000       0.044753         1.2178
  68   1.0000       0.046228         1.2579
  69   1.0000       0.061238         1.6664
  70   1.0000       0.068605         1.8668
  71   1.0000       0.073120         1.9897
  72   0.0000       0.234285         6.3752
  73   0.0000       0.250522         6.8171
  74   0.0000       0.255457         6.9513
  75   0.0000       0.259000         7.0478
  76   0.0000       0.264874         7.2076

MULLIKEN ATOMIC CHARGES AND SPIN POPULATIONS
--------------------------------------------
   0 V :    0.519020    1.192691
   1 S :   -0.422271    0.001145
   2 S :   -0.348083   -0.033382
   3 S :   -0.402438   -0.029409
   4 S :   -0.385942   -0.022011
   5 O :   -0.546468   -0.134124
   6 C :   -0.246922    0.005226
   7 C :   -0.234757    0.006421
   8 C :   -0.158627    0.003045
   9 H :    0.075153   -0.000915
  10 H :    0.051243    0.002119
  11 H :    0.139152    0.000554
  12 H :    0.005651   -0.000053
  13 H :    0.094945   -0.000117
  14 H :    0.048969   -0.000102
  15 C :   -0.277895   -0.001617
  16 C :   -0.227334    0.002211
  17 C :   -0.069524    0.007731
  18 H :    0.033584   -0.000556
  19 H :    0.118695   -0.000123
  20 H :    0.016747    0.001732
  21 H :    0.013772    0.000019
  22 H :    0.060359   -0.000640
  23 H :    0.142971    0.000154
Sum of atomic charges         :   -2.0000000

LOEWDIN ATOMIC CHARGES AND SPIN POPULATIONS
-------------------------------------------
   0 V :   -0.210085    1.148913
   1 S :   -0.084291    0.006121
   2 S :   -0.035622   -0.022924
   3 S :   -0.038805   -0.020602
   4 S :   -0.063887   -0.012961
   5 O :   -0.378445   -0.120809
   6 C :   -0.327195    0.004805
   7 C :   -0.314477    0.006854
   8 C :   -0.187412    0.000455
   9 H :    0.036236    0.000004
  10 H :    0.029016    0.000623
  11 H :    0.070101    0.000300
  12 H :    0.031491    0.000138
  13 H :    0.045074   -0.000075
  14 H :    0.027570   -0.000571
  15 C :   -0.315536    0.003146
  16 C :   -0.344083    0.005933
  17 C :   -0.194609    0.001133
  18 H :    0.027825   -0.000514
  19 H :    0.051512   -0.000480
  20 H :    0.040297    0.000789
  21 H :    0.034210    0.000299
  22 H :    0.036671   -0.000583
  23 H :    0.064440    0.000007

  Mayer bond orders larger than 0.100000
B(  0-V ,  1-S ) :   0.7209 B(  0-V ,  2-S ) :   0.8655 B(  0-V ,  3-S ) :   0.7616
B(  0-V ,  4-S ) :   0.7764 B(  0-V ,  5-O ) :   2.0702 B(  1-S , 15-C ) :   1.0313
B(  2-S ,  6-C ) :   1.0098 B(  3-S , 16-C ) :   1.0439 B(  4-S ,  7-C ) :   1.0697
B(  6-C ,  8-C ) :   0.9009 B(  6-C , 13-H ) :   0.9744 B(  6-C , 14-H ) :   0.9680
B(  7-C ,  8-C ) :   0.9202 B(  7-C ,  9-H ) :   0.9772 B(  7-C , 10-H ) :   0.9685
B(  8-C , 11-H ) :   0.9882 B(  8-C , 12-H ) :   0.9454 B( 15-C , 17-C ) :   0.9078
B( 15-C , 22-H ) :   0.9619 B( 15-C , 23-H ) :   0.9793 B( 16-C , 17-C ) :   0.8772
B( 16-C , 18-H ) :   0.9712 B( 16-C , 19-H ) :   0.9625 B( 17-C , 20-H ) :   0.9855
B( 17-C , 21-H ) :   0.9323

FINAL SINGLE POINT ENERGY     -2847.702047794981

DIPOLE MOMENT
-------------
                                X             Y             Z
Electronic contribution:     -4.33900       4.69870      -0.61954
Nuclear contribution   :      4.57046      -5.01188       0.92352
                        -----------------------------------------
Total Dipole Moment    :      0.23146      -0.31318       0.30398
                        -----------------------------------------
Magnitude (a.u.)       :      0.49402
Magnitude (Debye)      :      1.25571

Rotational constants in cm-1:     0.027152     0.011722     0.009606
Rotational constants in MHz :   814.009608   351.430255   287.975009

                             ****ORCA TERMINATED NORMALLY****
TOTAL RUN TIME: 0 days 0 hours 9 minutes 34 seconds 787 msec
