                         Program Version 5.0.4 -  RELEASE  -
|  1> ! nofrozencore ReducedPop printbasis
|  2> ! B3LYP TZVP
|  3>
|  4> %basis
|  5> newgto V "CP(PPP)" end
|  6> end
|  7>
|  8> %pal
|  9> nprocs 4
| 10> end
| 11>
| 12> % sym SymThresh 1e-2 end
| 13> * xyz -2 2
| 14> V -0.42771227430769604 -0.24366421122996976 0.00020676850542094844
| 15> S -0.8228308378221751 1.3983606098416492 1.8860838254908365
| 16> S -0.4128449469011272 1.819311252745676 -1.3165390294025334
| 17> S 1.1689924024054203 -1.463468914684792 1.4592018033687875
| 18> S 0.916983800323492 -1.3753465615133547 -1.7610312633748666
| 19> O -1.8589266394783488 -0.955919222450265 -0.08242437271713841
| 20> C -0.14809043912606012 1.3641439559397388 -3.0960889925778186
| 21> C 0.0007077955579611343 -1.188438465177103 -3.3648869564432533
| 22> C -0.8513149739396512 0.07189805512952539 -3.5257459850397224
| 23> H -0.6307995729871693 -2.074289344881273 -3.4982153467678665
| 24> H 0.7749683106368745 -1.2209989208872642 -4.142471760895271
| 25> H -1.775722455239164 -0.016038890397231345 -2.948877547829889
| 26> H -1.1418217147545524 0.1264607989920089 -4.591162922761431
| 27> H 0.9251559352054125 1.27172032412529 -3.293026728287802
| 28> H -0.5272172214803572 2.2080986789998467 -3.68410211004563
| 29> C 0.8970969219448837 1.4866669230898057 2.6675148505846606
| 30> C 0.6775102660707258 -0.98934898748173 3.2322186382154983
| 31> C 1.158047364547095 0.3732567114756586 3.648045682512474
| 32> H 1.1771835696292159 -1.8324198232691944 3.7472266878259597
| 33> H -0.40922582750756453 -1.2787391088876865 3.0298157786782802
| 34> H 2.2494462429786717 0.6648020307382083 3.823877541737116
| 35> H 0.6741605625667308 0.27678364409321776 4.687323905203606
| 36> H 0.8421353985599783 2.4861886726131726 3.1293855365606804
| 37> H 1.4225681299150772 1.598288862570632 1.6727132153820017
| 38> *
| 39>
| 40> % eprnmr
| 41> gtensor true
| 42> Nuclei = all H {aiso,adip,aorb,fgrad,rho}
| 43> Nuclei = all V {aiso,adip,aorb,fgrad,rho}
| 44> end
| 45>
| 46>                          ****END OF INPUT****

CARTESIAN COORDINATES (ANGSTROEM)
---------------------------------
  V     -0.428314   -0.244015    0.000498
  S     -0.823432    1.398009    1.886375
  S     -0.413446    1.818960   -1.316248
  S      1.168391   -1.463820    1.459493
  S      0.916382   -1.375698   -1.760740
  O     -1.859528   -0.956270   -0.082133
  C     -0.148692    1.363793   -3.095798
  C      0.000106   -1.188790   -3.364595
  C     -0.851917    0.071547   -3.525455
  H     -0.631401   -2.074641   -3.497924
  H      0.774367   -1.221350   -4.142180
  H     -1.776324   -0.016390   -2.948586
  H     -1.142423    0.126110   -4.590871
  H      0.924554    1.271369   -3.292735
  H     -0.527819    2.207747   -3.683811
  C      0.896495    1.486316    2.667806
  C      0.676909   -0.989700    3.232510
  C      1.157446    0.372906    3.648337
  H      1.176582   -1.832771    3.747518
  H     -0.409827   -1.279090    3.030107
  H      2.248845    0.664451    3.824169
  H      0.673559    0.276432    4.687615
  H      0.841534    2.485837    3.129677
  H      1.421967    1.597938    1.673005

 Total Charge           Charge          ....   -2
 Multiplicity           Mult            ....    2
 Number of Electrons    NEL             ....  145
 Basis Dimension        Dim             ....  353

ORBITAL ENERGIES
----------------
                 SPIN UP ORBITALS
  NO   OCC          E(Eh)            E(eV)
   0   1.0000    -196.603591     -5349.8557
   1   1.0000     -88.559843     -2409.8359
   2   1.0000     -88.556211     -2409.7370
   3   1.0000     -88.556126     -2409.7347
   4   1.0000     -88.552500     -2409.6360
   5   1.0000     -21.979159      -598.0833
   6   1.0000     -18.822483      -512.1858
   7   1.0000     -18.486973      -503.0561
   8   1.0000     -18.479737      -502.8592
   9   1.0000     -18.479670      -502.8574
  10   1.0000      -9.954536      -270.8767
  11   1.0000      -9.946946      -270.6702
  12   1.0000      -9.944850      -270.6131
  13   1.0000      -9.940900      -270.5057
  14   1.0000      -9.934040      -270.3190
  15   1.0000      -9.927970      -270.1538
  16   1.0000      -7.613728      -207.1801
  17   1.0000      -7.610487      -207.0919
  18   1.0000      -7.610405      -207.0897
  19   1.0000      -7.606921      -206.9948
  20   1.0000      -5.579131      -151.8159
  21   1.0000      -5.575945      -151.7292
  22   1.0000      -5.575416      -151.7148
  23   1.0000      -5.572498      -151.6354
  24   1.0000      -5.572024      -151.6225
  25   1.0000      -5.570950      -151.5933
  26   1.0000      -5.569520      -151.5543
  27   1.0000      -5.569391      -151.5508
  28   1.0000      -5.567768      -151.5067
  29   1.0000      -5.567424      -151.4973
  30   1.0000      -5.566114      -151.4617
  31   1.0000      -5.564092      -151.4066
  32   1.0000      -2.371925       -64.5434
  33   1.0000      -1.414958       -38.5030
  34   1.0000      -1.399901       -38.0933
  35   1.0000      -1.399504       -38.0824
  36   1.0000      -0.585352       -15.9282
  37   1.0000      -0.558848       -15.2070
  38   1.0000      -0.550406       -14.9773
  39   1.0000      -0.469082       -12.7644
  40   1.0000      -0.467637       -12.7251
  41   1.0000      -0.406153       -11.0520
  42   1.0000      -0.396456       -10.7881
  43   1.0000      -0.334801        -9.1104
  44   1.0000      -0.325463        -8.8563
  45   1.0000      -0.303301        -8.2532
  46   1.0000      -0.280464        -7.6318
  47   1.0000      -0.208683        -5.6786
  48   1.0000      -0.206816        -5.6278
  49   1.0000      -0.200739        -5.4624
  50   1.0000      -0.196548        -5.3483
  51   1.0000      -0.186007        -5.0615
  52   1.0000      -0.160888        -4.3780
  53   1.0000      -0.144251        -3.9253
  54   1.0000      -0.112235        -3.0541
  55   1.0000      -0.104788        -2.8514
  56   1.0000      -0.101182        -2.7533
  57   1.0000      -0.074351        -2.0232
  58   1.0000      -0.064455        -1.7539
  59   1.0000      -0.061497        -1.6734
  60   1.0000      -0.045167        -1.2291
  61   1.0000      -0.044045        -1.1985
  62   1.0000      -0.026879        -0.7314
  63   1.0000      -0.022845        -0.6216
  64   1.0000       0.002153         0.0586
  65   1.0000       0.030415         0.8276
  66   1.0000       0.034417         0.9365
  67   1.0000       0.040566         1.1039
  68   1.0000       0.049841         1.3562
  69   1.0000       0.055725         1.5164
  70   1.0000       0.066362         1.8058
  71   1.0000       0.075030         2.0417
  72   1.0000       0.083995         2.2856
  73   0.0000       0.237284         6.4568
  74   0.0000       0.249278         6.7832
  75   0.0000       0.252466         6.8699
  76   0.0000       0.253034         6.8854
  77   0.0000       0.256689         6.9849

                 SPIN DOWN ORBITALS
  NO   OCC          E(Eh)            E(eV)
   0   1.0000    -196.603732     -5349.8595
   1   1.0000     -88.560015     -2409.8405
   2   1.0000     -88.556314     -2409.7398
   3   1.0000     -88.556301     -2409.7395
   4   1.0000     -88.552474     -2409.6353
   5   1.0000     -21.964140      -597.6746
   6   1.0000     -18.825915      -512.2792
   7   1.0000     -18.481797      -502.9153
   8   1.0000     -18.463722      -502.4234
   9   1.0000     -18.463211      -502.4095
  10   1.0000      -9.954512      -270.8760
  11   1.0000      -9.946745      -270.6647
  12   1.0000      -9.944785      -270.6113
  13   1.0000      -9.940721      -270.5008
  14   1.0000      -9.933912      -270.3155
  15   1.0000      -9.927989      -270.1543
  16   1.0000      -7.613896      -207.1846
  17   1.0000      -7.610584      -207.0945
  18   1.0000      -7.610572      -207.0942
  19   1.0000      -7.606898      -206.9942
  20   1.0000      -5.579292      -151.8203
  21   1.0000      -5.576068      -151.7325
  22   1.0000      -5.575598      -151.7197
  23   1.0000      -5.572939      -151.6474
  24   1.0000      -5.572046      -151.6231
  25   1.0000      -5.571079      -151.5968
  26   1.0000      -5.569921      -151.5652
  27   1.0000      -5.569833      -151.5629
  28   1.0000      -5.567903      -151.5103
  29   1.0000      -5.567348      -151.4952
  30   1.0000      -5.566462      -151.4711
  31   1.0000      -5.563613      -151.3936
  32   1.0000      -2.327100       -63.3236
  33   1.0000      -1.396075       -37.9891
  34   1.0000      -1.338412       -36.4200
  35   1.0000      -1.336637       -36.3718
  36   1.0000      -0.592660       -16.1271
  37   1.0000      -0.558670       -15.2022
  38   1.0000      -0.550309       -14.9747
  39   1.0000      -0.468935       -12.7604
  40   1.0000      -0.467552       -12.7227
  41   1.0000      -0.406157       -11.0521
  42   1.0000      -0.396625       -10.7927
  43   1.0000      -0.334968        -9.1149
  44   1.0000      -0.325838        -8.8665
  45   1.0000      -0.303269        -8.2524
  46   1.0000      -0.280494        -7.6326
  47   1.0000      -0.208531        -5.6744
  48   1.0000      -0.206755        -5.6261
  49   1.0000      -0.200687        -5.4610
  50   1.0000      -0.196378        -5.3437
  51   1.0000      -0.185857        -5.0574
  52   1.0000      -0.160784        -4.3751
  53   1.0000      -0.144154        -3.9226
  54   1.0000      -0.112217        -3.0536
  55   1.0000      -0.104612        -2.8466
  56   1.0000      -0.101012        -2.7487
  57   1.0000      -0.073392        -1.9971
  58   1.0000      -0.061536        -1.6745
  59   1.0000      -0.060636        -1.6500
  60   1.0000      -0.047157        -1.2832
  61   1.0000      -0.045409        -1.2356
  62   1.0000      -0.027117        -0.7379
  63   1.0000      -0.022123        -0.6020
  64   1.0000       0.006969         0.1896
  65   1.0000       0.031563         0.8589
  66   1.0000       0.037077         1.0089
  67   1.0000       0.048321         1.3149
  68   1.0000       0.050425         1.3721
  69   1.0000       0.063493         1.7277
  70   1.0000       0.071167         1.9366
  71   1.0000       0.076563         2.0834
  72   0.0000       0.235348         6.4041
  73   0.0000       0.251520         6.8442
  74   0.0000       0.256665         6.9842
  75   0.0000       0.260586         7.0909
  76   0.0000       0.266648         7.2559

MULLIKEN ATOMIC CHARGES AND SPIN POPULATIONS
--------------------------------------------
   0 V :    0.515862    1.191139
   1 S :   -0.456485   -0.002364
   2 S :   -0.359403   -0.032418
   3 S :   -0.455442   -0.032249
   4 S :   -0.386797   -0.021433
   5 O :   -0.549003   -0.132494
   6 C :   -0.245711    0.005538
   7 C :   -0.237735    0.006320
   8 C :   -0.153271    0.003288
   9 H :    0.075340   -0.000918
  10 H :    0.052403    0.002185
  11 H :    0.137233    0.000638
  12 H :    0.004073   -0.000054
  13 H :    0.094531   -0.000127
  14 H :    0.048496   -0.000066
  15 C :   -0.269607   -0.000899
  16 C :   -0.270815    0.005423
  17 C :   -0.022512    0.007349
  18 H :    0.057721    0.000180
  19 H :    0.170285   -0.001019
  20 H :    0.014187    0.002095
  21 H :    0.006689    0.000393
  22 H :    0.062410   -0.000220
  23 H :    0.167550   -0.000289
Sum of atomic charges         :   -2.0000000

LOEWDIN ATOMIC CHARGES AND SPIN POPULATIONS
-------------------------------------------
   0 V :   -0.226062    1.146497
   1 S :   -0.103652    0.003501
   2 S :   -0.041290   -0.022001
   3 S :   -0.096889   -0.023007
   4 S :   -0.066333   -0.012470
   5 O :   -0.379594   -0.119133
   6 C :   -0.326831    0.005047
   7 C :   -0.314263    0.006998
   8 C :   -0.187392    0.000551
   9 H :    0.036450    0.000010
  10 H :    0.029451    0.000632
  11 H :    0.070383    0.000328
  12 H :    0.031257    0.000145
  13 H :    0.044984   -0.000071
  14 H :    0.027509   -0.000522
  15 C :   -0.321347    0.003272
  16 C :   -0.330985    0.009053
  17 C :   -0.193598    0.000827
  18 H :    0.036716   -0.000176
  19 H :    0.086849   -0.000506
  20 H :    0.052682    0.000693
  21 H :    0.051742    0.000375
  22 H :    0.038381   -0.000377
  23 H :    0.081831    0.000333

  Mayer bond orders larger than 0.100000
B(  0-V ,  1-S ) :   0.7259 B(  0-V ,  2-S ) :   0.8471 B(  0-V ,  3-S ) :   0.7901
B(  0-V ,  4-S ) :   0.7781 B(  0-V ,  5-O ) :   2.0668 B(  1-S , 15-C ) :   1.0023
B(  2-S ,  6-C ) :   1.0104 B(  3-S , 16-C ) :   0.9829 B(  4-S ,  7-C ) :   1.0685
B(  6-C ,  8-C ) :   0.9004 B(  6-C , 13-H ) :   0.9750 B(  6-C , 14-H ) :   0.9674
B(  7-C ,  8-C ) :   0.9229 B(  7-C ,  9-H ) :   0.9759 B(  7-C , 10-H ) :   0.9698
B(  8-C , 11-H ) :   0.9872 B(  8-C , 12-H ) :   0.9442 B( 15-C , 17-C ) :   0.9360
B( 15-C , 22-H ) :   0.9677 B( 15-C , 23-H ) :   0.9583 B( 16-C , 17-C ) :   0.9411
B( 16-C , 18-H ) :   0.9636 B( 16-C , 19-H ) :   0.9612 B( 17-C , 20-H ) :   0.9471
B( 17-C , 21-H ) :   0.9488

FINAL SINGLE POINT ENERGY     -2847.661264840213

DIPOLE MOMENT
-------------
                                X             Y             Z
Electronic contribution:     -4.96401      -2.96108       1.77158
Nuclear contribution   :      5.28096       3.17243      -1.94771
                        -----------------------------------------
Total Dipole Moment    :      0.31695       0.21135      -0.17614
                        -----------------------------------------
Magnitude (a.u.)       :      0.41970
Magnitude (Debye)      :      1.06680

Rotational constants in cm-1:     0.027205     0.011714     0.009603
Rotational constants in MHz :   815.595001   351.180504   287.894923

                             ****ORCA TERMINATED NORMALLY****
TOTAL RUN TIME: 0 days 0 hours 14 minutes 27 seconds 196 msec
