                         Program Version 5.0.4 -  RELEASE  -
|  1> ! nofrozencore ReducedPop printbasis
|  2> ! B3LYP TZVP
|  3>
|  4> %basis
|  5> newgto V "CP(PPP)" end
|  6> end
|  7>
|  8> %pal
|  9> nprocs 4
| 10> end
| 11>
| 12> % sym SymThresh 1e-2 end
| 13> * xyz -2 2
| 14> V 0.10124757357609845 0.38325810321987364 -0.283974117865092
| 15> S -0.1342438162385905 -1.4330134469671745 -2.0284487420878934
| 16> S -2.280708633936975 -0.08227258241935617 0.005643863781773621
| 17> S 2.24538145370157 -0.6385587815248333 0.43057480823144356
| 18> S 0.21049066932627378 1.3003957753898623 2.0178175426429856
| 19> O 0.31091742734423694 1.683292548347729 -1.228073536091243
| 20> C -2.9527418403702472 1.0229833963655952 1.3725429615721465
| 21> C -1.056827881396483 2.611859125141331 2.25649716631796
| 22> C -2.3164025899083263 2.45569955325392 1.1991740019002657
| 23> H -0.38227646655402664 3.433570952934018 1.8701877292592182
| 24> H -1.5004526441923702 2.9354556556338487 3.265676499301696
| 25> H -2.253466194573967 2.9154062964849143 0.18006907409779935
| 26> H -3.1152235582169086 3.0111165857771427 1.823246668656819
| 27> H -2.845869531929109 0.7910953226224728 2.471514161835905
| 28> H -4.0265807831036735 1.0701212861642653 1.1391786779414133
| 29> C 0.5930453911921126 -2.8934553189957444 -1.1647386484855866
| 30> C 2.831532054552419 -1.6268583906346397 -1.0256378068157523
| 31> C 2.124070446500653 -2.9696034632213717 -1.2169387699363308
| 32> H 3.903551964551485 -1.8043289600856287 -0.8766433624853132
| 33> H 2.707879138662841 -1.0402600223035148 -1.9366058822439018
| 34> H 2.483900223265755 -3.7134528986781734 -0.4886531190947291
| 35> H 2.4120685592654025 -3.334398141479079 -2.2175511247595154
| 36> H 0.16411112448831913 -3.8167867414657293 -1.5731011549927743
| 37> H 0.2726122793862367 -2.820328025220862 -0.1248012785937429
| 38> *
| 39>
| 40> % eprnmr
| 41> gtensor true
| 42> Nuclei = all H {aiso,adip,aorb,fgrad,rho}
| 43> Nuclei = all V {aiso,adip,aorb,fgrad,rho}
| 44> end
| 45>
| 46>                          ****END OF INPUT****

CARTESIAN COORDINATES (ANGSTROEM)
---------------------------------
  V      0.101569    0.383641   -0.284540
  S     -0.133922   -1.432630   -2.029014
  S     -2.280387   -0.081889    0.005078
  S      2.245703   -0.638175    0.430009
  S      0.210812    1.300779    2.017252
  O      0.311239    1.683676   -1.228639
  C     -2.952420    1.023367    1.371978
  C     -1.056506    2.612242    2.255932
  C     -2.316081    2.456083    1.198609
  H     -0.381955    3.433954    1.869622
  H     -1.500131    2.935839    3.265111
  H     -2.253145    2.915790    0.179504
  H     -3.114902    3.011500    1.822681
  H     -2.845548    0.791479    2.470949
  H     -4.026259    1.070505    1.138613
  C      0.593367   -2.893072   -1.165304
  C      2.831854   -1.626475   -1.026203
  C      2.124392   -2.969220   -1.217504
  H      3.903874   -1.803946   -0.877209
  H      2.708201   -1.039877   -1.937171
  H      2.484222   -3.713070   -0.489219
  H      2.412390   -3.334015   -2.218117
  H      0.164433   -3.816403   -1.573667
  H      0.272934   -2.819945   -0.125367

 Total Charge           Charge          ....   -2
 Multiplicity           Mult            ....    2
 Number of Electrons    NEL             ....  145
 Basis Dimension        Dim             ....  353

ORBITAL ENERGIES
----------------
                 SPIN UP ORBITALS
  NO   OCC          E(Eh)            E(eV)
   0   1.0000    -196.610896     -5350.0545
   1   1.0000     -88.564473     -2409.9618
   2   1.0000     -88.563126     -2409.9252
   3   1.0000     -88.560610     -2409.8567
   4   1.0000     -88.558912     -2409.8105
   5   1.0000     -21.986081      -598.2717
   6   1.0000     -18.823686      -512.2185
   7   1.0000     -18.493803      -503.2420
   8   1.0000     -18.486744      -503.0499
   9   1.0000     -18.486669      -503.0478
  10   1.0000      -9.959025      -270.9989
  11   1.0000      -9.946913      -270.6693
  12   1.0000      -9.946401      -270.6553
  13   1.0000      -9.936211      -270.3780
  14   1.0000      -9.934827      -270.3404
  15   1.0000      -9.932924      -270.2886
  16   1.0000      -7.617766      -207.2900
  17   1.0000      -7.617263      -207.2763
  18   1.0000      -7.615134      -207.2183
  19   1.0000      -7.613277      -207.1678
  20   1.0000      -5.583347      -151.9306
  21   1.0000      -5.582446      -151.9061
  22   1.0000      -5.580665      -151.8576
  23   1.0000      -5.578493      -151.7985
  24   1.0000      -5.576488      -151.7440
  25   1.0000      -5.576264      -151.7379
  26   1.0000      -5.574949      -151.7021
  27   1.0000      -5.574492      -151.6896
  28   1.0000      -5.574179      -151.6811
  29   1.0000      -5.572506      -151.6356
  30   1.0000      -5.571872      -151.6184
  31   1.0000      -5.570340      -151.5766
  32   1.0000      -2.377790       -64.7030
  33   1.0000      -1.418521       -38.5999
  34   1.0000      -1.406423       -38.2707
  35   1.0000      -1.405622       -38.2489
  36   1.0000      -0.585256       -15.9256
  37   1.0000      -0.552400       -15.0316
  38   1.0000      -0.535430       -14.5698
  39   1.0000      -0.467339       -12.7169
  40   1.0000      -0.464356       -12.6358
  41   1.0000      -0.404191       -10.9986
  42   1.0000      -0.391955       -10.6656
  43   1.0000      -0.338724        -9.2171
  44   1.0000      -0.325231        -8.8500
  45   1.0000      -0.302599        -8.2341
  46   1.0000      -0.286780        -7.8037
  47   1.0000      -0.215368        -5.8604
  48   1.0000      -0.205678        -5.5968
  49   1.0000      -0.203818        -5.5462
  50   1.0000      -0.180613        -4.9147
  51   1.0000      -0.142158        -3.8683
  52   1.0000      -0.134493        -3.6597
  53   1.0000      -0.132183        -3.5969
  54   1.0000      -0.124147        -3.3782
  55   1.0000      -0.109257        -2.9730
  56   1.0000      -0.098930        -2.6920
  57   1.0000      -0.084343        -2.2951
  58   1.0000      -0.068652        -1.8681
  59   1.0000      -0.060753        -1.6532
  60   1.0000      -0.054391        -1.4801
  61   1.0000      -0.043746        -1.1904
  62   1.0000      -0.040613        -1.1051
  63   1.0000      -0.032333        -0.8798
  64   1.0000       0.000955         0.0260
  65   1.0000       0.026736         0.7275
  66   1.0000       0.029763         0.8099
  67   1.0000       0.038654         1.0518
  68   1.0000       0.043752         1.1906
  69   1.0000       0.050994         1.3876
  70   1.0000       0.063327         1.7232
  71   1.0000       0.074231         2.0199
  72   1.0000       0.080433         2.1887
  73   0.0000       0.229829         6.2540
  74   0.0000       0.242020         6.5857
  75   0.0000       0.245370         6.6769
  76   0.0000       0.247454         6.7336
  77   0.0000       0.257588         7.0093

                 SPIN DOWN ORBITALS
  NO   OCC          E(Eh)            E(eV)
   0   1.0000    -196.611036     -5350.0583
   1   1.0000     -88.564660     -2409.9669
   2   1.0000     -88.563288     -2409.9296
   3   1.0000     -88.560724     -2409.8598
   4   1.0000     -88.558890     -2409.8099
   5   1.0000     -21.970964      -597.8603
   6   1.0000     -18.827294      -512.3167
   7   1.0000     -18.488492      -503.0974
   8   1.0000     -18.470534      -502.6088
   9   1.0000     -18.470297      -502.6023
  10   1.0000      -9.958823      -270.9934
  11   1.0000      -9.946784      -270.6658
  12   1.0000      -9.946414      -270.6557
  13   1.0000      -9.936016      -270.3727
  14   1.0000      -9.934764      -270.3387
  15   1.0000      -9.932881      -270.2874
  16   1.0000      -7.617948      -207.2949
  17   1.0000      -7.617416      -207.2804
  18   1.0000      -7.615240      -207.2212
  19   1.0000      -7.613257      -207.1672
  20   1.0000      -5.583521      -151.9353
  21   1.0000      -5.582603      -151.9104
  22   1.0000      -5.580803      -151.8614
  23   1.0000      -5.578513      -151.7991
  24   1.0000      -5.576962      -151.7569
  25   1.0000      -5.576695      -151.7496
  26   1.0000      -5.575099      -151.7062
  27   1.0000      -5.574608      -151.6928
  28   1.0000      -5.574551      -151.6912
  29   1.0000      -5.572856      -151.6451
  30   1.0000      -5.571860      -151.6180
  31   1.0000      -5.569875      -151.5640
  32   1.0000      -2.332608       -63.4735
  33   1.0000      -1.399014       -38.0691
  34   1.0000      -1.344364       -36.5820
  35   1.0000      -1.342868       -36.5413
  36   1.0000      -0.593199       -16.1418
  37   1.0000      -0.552227       -15.0269
  38   1.0000      -0.535347       -14.5675
  39   1.0000      -0.467189       -12.7129
  40   1.0000      -0.464300       -12.6342
  41   1.0000      -0.404199       -10.9988
  42   1.0000      -0.392228       -10.6731
  43   1.0000      -0.338854        -9.2207
  44   1.0000      -0.325648        -8.8613
  45   1.0000      -0.302535        -8.2324
  46   1.0000      -0.286783        -7.8038
  47   1.0000      -0.215282        -5.8581
  48   1.0000      -0.205619        -5.5952
  49   1.0000      -0.203730        -5.5438
  50   1.0000      -0.180337        -4.9072
  51   1.0000      -0.141819        -3.8591
  52   1.0000      -0.134358        -3.6561
  53   1.0000      -0.131892        -3.5890
  54   1.0000      -0.124069        -3.3761
  55   1.0000      -0.109188        -2.9712
  56   1.0000      -0.098832        -2.6893
  57   1.0000      -0.083181        -2.2635
  58   1.0000      -0.066628        -1.8130
  59   1.0000      -0.060289        -1.6405
  60   1.0000      -0.053728        -1.4620
  61   1.0000      -0.044274        -1.2048
  62   1.0000      -0.042466        -1.1556
  63   1.0000      -0.033342        -0.9073
  64   1.0000       0.006443         0.1753
  65   1.0000       0.027683         0.7533
  66   1.0000       0.032674         0.8891
  67   1.0000       0.043669         1.1883
  68   1.0000       0.047724         1.2986
  69   1.0000       0.057946         1.5768
  70   1.0000       0.069102         1.8804
  71   1.0000       0.076659         2.0860
  72   0.0000       0.227142         6.1809
  73   0.0000       0.247913         6.7461
  74   0.0000       0.252348         6.8667
  75   0.0000       0.258886         7.0447
  76   0.0000       0.261157         7.1065

MULLIKEN ATOMIC CHARGES AND SPIN POPULATIONS
--------------------------------------------
   0 V :    0.513339    1.198888
   1 S :   -0.422379   -0.002231
   2 S :   -0.341429   -0.034605
   3 S :   -0.406960   -0.029893
   4 S :   -0.373868   -0.022491
   5 O :   -0.550624   -0.139896
   6 C :   -0.242650    0.005254
   7 C :   -0.233041    0.006465
   8 C :   -0.136650    0.004273
   9 H :    0.083635   -0.000365
  10 H :    0.041531    0.002532
  11 H :    0.130989    0.000140
  12 H :   -0.023055   -0.000427
  13 H :    0.078712   -0.000076
  14 H :    0.055567    0.000063
  15 C :   -0.260188   -0.001982
  16 C :   -0.246021    0.004090
  17 C :   -0.071522    0.008659
  18 H :    0.047947   -0.000018
  19 H :    0.129540   -0.000133
  20 H :    0.018962    0.001774
  21 H :    0.010913    0.000190
  22 H :    0.053736   -0.000625
  23 H :    0.143516    0.000413
Sum of atomic charges         :   -2.0000000

LOEWDIN ATOMIC CHARGES AND SPIN POPULATIONS
-------------------------------------------
   0 V :   -0.208526    1.154765
   1 S :   -0.067779    0.003279
   2 S :   -0.034809   -0.024264
   3 S :   -0.058502   -0.020778
   4 S :   -0.054640   -0.013641
   5 O :   -0.390567   -0.126299
   6 C :   -0.326956    0.005441
   7 C :   -0.342486    0.007499
   8 C :   -0.189114    0.000832
   9 H :    0.048535    0.000052
  10 H :    0.033286    0.000952
  11 H :    0.072802    0.000112
  12 H :    0.028806    0.000009
  13 H :    0.049686    0.000087
  14 H :    0.026497   -0.000504
  15 C :   -0.318881    0.002979
  16 C :   -0.321980    0.008143
  17 C :   -0.188727    0.001205
  18 H :    0.029052   -0.000167
  19 H :    0.054484   -0.000603
  20 H :    0.036492    0.000652
  21 H :    0.035547    0.000477
  22 H :    0.030744   -0.000630
  23 H :    0.057035    0.000403

  Mayer bond orders larger than 0.100000
B(  0-V ,  1-S ) :   0.7163 B(  0-V ,  2-S ) :   0.8677 B(  0-V ,  3-S ) :   0.7762
B(  0-V ,  4-S ) :   0.7765 B(  0-V ,  5-O ) :   2.0643 B(  1-S , 15-C ) :   1.0201
B(  2-S ,  6-C ) :   0.9941 B(  3-S , 16-C ) :   1.0236 B(  4-S ,  7-C ) :   1.0250
B(  6-C ,  8-C ) :   0.9172 B(  6-C , 13-H ) :   0.9400 B(  6-C , 14-H ) :   0.9838
B(  7-C ,  8-C ) :   0.9194 B(  7-C ,  9-H ) :   1.0029 B(  7-C , 10-H ) :   0.9198
B(  8-C , 11-H ) :   0.9566 B(  8-C , 12-H ) :   0.9706 B( 15-C , 17-C ) :   0.8955
B( 15-C , 22-H ) :   0.9661 B( 15-C , 23-H ) :   0.9817 B( 16-C , 17-C ) :   0.9057
B( 16-C , 18-H ) :   0.9649 B( 16-C , 19-H ) :   0.9733 B( 17-C , 20-H ) :   0.9547
B( 17-C , 21-H ) :   0.9628

FINAL SINGLE POINT ENERGY     -2847.672480257741

DIPOLE MOMENT
-------------
                                X             Y             Z
Electronic contribution:      2.30228       3.73953      -4.33669
Nuclear contribution   :     -2.50759      -3.94600       4.59291
                        -----------------------------------------
Total Dipole Moment    :     -0.20531      -0.20646       0.25622
                        -----------------------------------------
Magnitude (a.u.)       :      0.38785
Magnitude (Debye)      :      0.98584

Rotational constants in cm-1:     0.027013     0.011703     0.009582
Rotational constants in MHz :   809.815716   350.860096   287.249877

                             ****ORCA TERMINATED NORMALLY****
TOTAL RUN TIME: 0 days 0 hours 14 minutes 32 seconds 914 msec
