                         Program Version 5.0.4 -  RELEASE  -
|  1> ! nofrozencore ReducedPop printbasis
|  2> ! B3LYP TZVP
|  3>
|  4> %basis
|  5> newgto V "CP(PPP)" end
|  6> end
|  7>
|  8> %pal
|  9> nprocs 8
| 10> end
| 11>
| 12> % sym SymThresh 1e-2 end
| 13> * xyz -2 2
| 14> V -0.33947019053389726 0.34628112322857396 -0.09442384407784238
| 15> S 1.4592199930059189 1.7278392312039081 1.0386214893162447
| 16> S 1.422825943045172 0.12463269199777902 -1.7937144109754493
| 17> S -0.8475158410166136 -0.6993582080273106 2.1051304550121666
| 18> S -1.399006829526193 -1.781588742479655 -0.8553616238836242
| 19> O -1.3884744537014424 1.4928421704037536 -0.4862391899473873
| 20> C 0.6581406424850688 -0.8782237076734156 -3.1595538451037193
| 21> C -1.6747012271177377 -1.5266320163646776 -2.7257673386213033
| 22> C -0.7883589075110379 -0.593164412353154 -3.5933742542750453
| 23> H -2.740915388662727 -1.2788195603539727 -2.8575331593255258
| 24> H -1.5247503695859757 -2.535478133067666 -3.147063891395936
| 25> H -1.061007730265172 0.4781912134004618 -3.539765865315267
| 26> H -0.9235290526841532 -0.9327659918421725 -4.6531554880145585
| 27> H 0.6583229056803042 -1.9332143871196596 -2.8127076582331125
| 28> H 1.3637759219417682 -0.8088327861171389 -4.0189236848587795
| 29> C 2.1104261682540604 0.5470530216186931 2.302824576465247
| 30> C -0.2312679030575643 0.49248416661097494 3.377395893507134
| 31> C 1.2853507081789908 0.4936675597731459 3.594733704714773
| 32> H -0.7315613370275422 0.2551310796127919 4.324297348688696
| 33> H -0.540589031241918 1.4927307125859108 3.074157245419577
| 34> H 1.5765412742091536 -0.4051136108518926 4.160968844509115
| 35> H 1.5388468515021247 1.3642191796109522 4.221368062871161
| 36> H 3.1420545943029485 0.8314192659661933 2.5414366860439332
| 37> H 2.1422299686401995 -0.4454408382378565 1.8523720952221678
| 38> *
| 39>
| 40> % eprnmr
| 41> gtensor true
| 42> Nuclei = all H {aiso,adip,aorb,fgrad,rho}
| 43> Nuclei = all V {aiso,adip,aorb,fgrad,rho}
| 44> end
| 45>
| 46>                          ****END OF INPUT****

CARTESIAN COORDINATES (ANGSTROEM)
---------------------------------
  V     -0.339902    0.346885   -0.094286
  S      1.458788    1.728443    1.038759
  S      1.422394    0.125236   -1.793577
  S     -0.847948   -0.698755    2.105268
  S     -1.399439   -1.780985   -0.855224
  O     -1.388907    1.493446   -0.486101
  C      0.657709   -0.877620   -3.159416
  C     -1.675133   -1.526029   -2.725630
  C     -0.788791   -0.592561   -3.593236
  H     -2.741347   -1.278216   -2.857395
  H     -1.525182   -2.534875   -3.146926
  H     -1.061440    0.478795   -3.539628
  H     -0.923961   -0.932162   -4.653018
  H      0.657891   -1.932611   -2.812570
  H      1.363344   -0.808229   -4.018786
  C      2.109994    0.547657    2.302962
  C     -0.231700    0.493088    3.377534
  C      1.284919    0.494271    3.594872
  H     -0.731993    0.255735    4.324435
  H     -0.541021    1.493334    3.074295
  H      1.576109   -0.404510    4.161107
  H      1.538415    1.364823    4.221506
  H      3.141622    0.832023    2.541575
  H      2.141798   -0.444837    1.852510

 Total Charge           Charge          ....   -2
 Multiplicity           Mult            ....    2
 Number of Electrons    NEL             ....  145
 Basis Dimension        Dim             ....  353

ORBITAL ENERGIES
----------------
                 SPIN UP ORBITALS
  NO   OCC          E(Eh)            E(eV)
   0   1.0000    -196.607429     -5349.9601
   1   1.0000     -88.563949     -2409.9476
   2   1.0000     -88.562495     -2409.9080
   3   1.0000     -88.561314     -2409.8759
   4   1.0000     -88.557332     -2409.7675
   5   1.0000     -21.982703      -598.1798
   6   1.0000     -18.824980      -512.2538
   7   1.0000     -18.490514      -503.1525
   8   1.0000     -18.483311      -502.9565
   9   1.0000     -18.483215      -502.9539
  10   1.0000      -9.946829      -270.6670
  11   1.0000      -9.939931      -270.4793
  12   1.0000      -9.937064      -270.4013
  13   1.0000      -9.933883      -270.3147
  14   1.0000      -9.933842      -270.3136
  15   1.0000      -9.931540      -270.2509
  16   1.0000      -7.617121      -207.2724
  17   1.0000      -7.616021      -207.2425
  18   1.0000      -7.615469      -207.2274
  19   1.0000      -7.611637      -207.1232
  20   1.0000      -5.582863      -151.9174
  21   1.0000      -5.581472      -151.8796
  22   1.0000      -5.580666      -151.8576
  23   1.0000      -5.576881      -151.7546
  24   1.0000      -5.576165      -151.7352
  25   1.0000      -5.574932      -151.7016
  26   1.0000      -5.574485      -151.6894
  27   1.0000      -5.573943      -151.6747
  28   1.0000      -5.573138      -151.6528
  29   1.0000      -5.572694      -151.6407
  30   1.0000      -5.570895      -151.5918
  31   1.0000      -5.568668      -151.5312
  32   1.0000      -2.375316       -64.6356
  33   1.0000      -1.417933       -38.5839
  34   1.0000      -1.403308       -38.1860
  35   1.0000      -1.403001       -38.1776
  36   1.0000      -0.587348       -15.9826
  37   1.0000      -0.550724       -14.9860
  38   1.0000      -0.549995       -14.9661
  39   1.0000      -0.465985       -12.6801
  40   1.0000      -0.459383       -12.5004
  41   1.0000      -0.404860       -11.0168
  42   1.0000      -0.397728       -10.8227
  43   1.0000      -0.337469        -9.1830
  44   1.0000      -0.325881        -8.8677
  45   1.0000      -0.303773        -8.2661
  46   1.0000      -0.285257        -7.7622
  47   1.0000      -0.213929        -5.8213
  48   1.0000      -0.209345        -5.6966
  49   1.0000      -0.202633        -5.5139
  50   1.0000      -0.198371        -5.3979
  51   1.0000      -0.148959        -4.0534
  52   1.0000      -0.133638        -3.6365
  53   1.0000      -0.131243        -3.5713
  54   1.0000      -0.115971        -3.1557
  55   1.0000      -0.107755        -2.9322
  56   1.0000      -0.101034        -2.7493
  57   1.0000      -0.079193        -2.1550
  58   1.0000      -0.068888        -1.8745
  59   1.0000      -0.063918        -1.7393
  60   1.0000      -0.055489        -1.5099
  61   1.0000      -0.046148        -1.2558
  62   1.0000      -0.039011        -1.0615
  63   1.0000      -0.036248        -0.9864
  64   1.0000      -0.001923        -0.0523
  65   1.0000       0.028203         0.7674
  66   1.0000       0.029306         0.7975
  67   1.0000       0.035655         0.9702
  68   1.0000       0.043536         1.1847
  69   1.0000       0.054728         1.4892
  70   1.0000       0.064156         1.7458
  71   1.0000       0.071052         1.9334
  72   1.0000       0.080457         2.1893
  73   0.0000       0.234694         6.3864
  74   0.0000       0.246178         6.6988
  75   0.0000       0.249670         6.7939
  76   0.0000       0.249811         6.7977
  77   0.0000       0.258379         7.0309

                 SPIN DOWN ORBITALS
  NO   OCC          E(Eh)            E(eV)
   0   1.0000    -196.607571     -5349.9640
   1   1.0000     -88.564063     -2409.9507
   2   1.0000     -88.562672     -2409.9128
   3   1.0000     -88.561477     -2409.8803
   4   1.0000     -88.557316     -2409.7671
   5   1.0000     -21.967579      -597.7682
   6   1.0000     -18.828498      -512.3495
   7   1.0000     -18.485279      -503.0100
   8   1.0000     -18.467267      -502.5199
   9   1.0000     -18.466582      -502.5013
  10   1.0000      -9.946618      -270.6612
  11   1.0000      -9.939953      -270.4799
  12   1.0000      -9.936930      -270.3976
  13   1.0000      -9.933830      -270.3133
  14   1.0000      -9.933678      -270.3091
  15   1.0000      -9.931500      -270.2498
  16   1.0000      -7.617228      -207.2753
  17   1.0000      -7.616193      -207.2472
  18   1.0000      -7.615625      -207.2317
  19   1.0000      -7.611624      -207.1228
  20   1.0000      -5.582992      -151.9209
  21   1.0000      -5.581630      -151.8839
  22   1.0000      -5.580819      -151.8618
  23   1.0000      -5.576904      -151.7553
  24   1.0000      -5.576589      -151.7467
  25   1.0000      -5.575403      -151.7144
  26   1.0000      -5.574916      -151.7012
  27   1.0000      -5.573886      -151.6731
  28   1.0000      -5.573264      -151.6562
  29   1.0000      -5.572816      -151.6440
  30   1.0000      -5.571245      -151.6013
  31   1.0000      -5.568227      -151.5192
  32   1.0000      -2.330180       -63.4074
  33   1.0000      -1.398828       -38.0640
  34   1.0000      -1.341657       -36.5083
  35   1.0000      -1.339538       -36.4507
  36   1.0000      -0.594892       -16.1878
  37   1.0000      -0.550591       -14.9823
  38   1.0000      -0.549877       -14.9629
  39   1.0000      -0.465889       -12.6775
  40   1.0000      -0.459334       -12.4991
  41   1.0000      -0.404963       -11.0196
  42   1.0000      -0.397858       -10.8263
  43   1.0000      -0.337643        -9.1877
  44   1.0000      -0.326296        -8.8790
  45   1.0000      -0.303762        -8.2658
  46   1.0000      -0.285298        -7.7633
  47   1.0000      -0.213879        -5.8199
  48   1.0000      -0.209290        -5.6951
  49   1.0000      -0.202511        -5.5106
  50   1.0000      -0.198218        -5.3938
  51   1.0000      -0.148837        -4.0501
  52   1.0000      -0.133492        -3.6325
  53   1.0000      -0.130990        -3.5644
  54   1.0000      -0.115844        -3.1523
  55   1.0000      -0.107700        -2.9307
  56   1.0000      -0.100996        -2.7482
  57   1.0000      -0.078049        -2.1238
  58   1.0000      -0.066798        -1.8177
  59   1.0000      -0.062898        -1.7116
  60   1.0000      -0.055456        -1.5090
  61   1.0000      -0.047426        -1.2905
  62   1.0000      -0.039906        -1.0859
  63   1.0000      -0.037170        -1.0115
  64   1.0000       0.001665         0.0453
  65   1.0000       0.029280         0.7968
  66   1.0000       0.032268         0.8781
  67   1.0000       0.044004         1.1974
  68   1.0000       0.045433         1.2363
  69   1.0000       0.062834         1.7098
  70   1.0000       0.067587         1.8391
  71   1.0000       0.072362         1.9691
  72   0.0000       0.233946         6.3660
  73   0.0000       0.250602         6.8192
  74   0.0000       0.253697         6.9035
  75   0.0000       0.260826         7.0974
  76   0.0000       0.265029         7.2118

MULLIKEN ATOMIC CHARGES AND SPIN POPULATIONS
--------------------------------------------
   0 V :    0.548371    1.197241
   1 S :   -0.427814   -0.002852
   2 S :   -0.352691   -0.033520
   3 S :   -0.412257   -0.029718
   4 S :   -0.387681   -0.024347
   5 O :   -0.549110   -0.135546
   6 C :   -0.277037    0.007845
   7 C :   -0.269300    0.008271
   8 C :   -0.101748   -0.000824
   9 H :    0.074491   -0.001071
  10 H :    0.057380    0.002791
  11 H :    0.114177    0.001082
  12 H :    0.011926    0.000285
  13 H :    0.109415   -0.000089
  14 H :    0.041643    0.000483
  15 C :   -0.257024   -0.002444
  16 C :   -0.252178    0.002999
  17 C :   -0.068694    0.008327
  18 H :    0.047242   -0.000129
  19 H :    0.131055   -0.000176
  20 H :    0.014722    0.001533
  21 H :    0.012542    0.000024
  22 H :    0.052259   -0.000586
  23 H :    0.140308    0.000421
Sum of atomic charges         :   -2.0000000

LOEWDIN ATOMIC CHARGES AND SPIN POPULATIONS
-------------------------------------------
   0 V :   -0.194478    1.153446
   1 S :   -0.072223    0.002432
   2 S :   -0.041612   -0.022888
   3 S :   -0.062474   -0.021073
   4 S :   -0.081154   -0.014733
   5 O :   -0.376704   -0.122251
   6 C :   -0.336088    0.005510
   7 C :   -0.311958    0.008319
   8 C :   -0.178585    0.000226
   9 H :    0.034538   -0.000116
  10 H :    0.032578    0.001029
  11 H :    0.066266    0.000259
  12 H :    0.037366    0.000237
  13 H :    0.052261   -0.000149
  14 H :    0.025340   -0.000380
  15 C :   -0.318163    0.002470
  16 C :   -0.325676    0.006844
  17 C :   -0.188988    0.001097
  18 H :    0.028215   -0.000247
  19 H :    0.054049   -0.000613
  20 H :    0.035877    0.000582
  21 H :    0.035059    0.000353
  22 H :    0.030325   -0.000617
  23 H :    0.056230    0.000262

  Mayer bond orders larger than 0.100000
B(  0-V ,  1-S ) :   0.7073 B(  0-V ,  2-S ) :   0.8482 B(  0-V ,  3-S ) :   0.7660
B(  0-V ,  4-S ) :   0.7608 B(  0-V ,  5-O ) :   2.0727 B(  1-S , 15-C ) :   1.0267
B(  2-S ,  6-C ) :   1.0219 B(  3-S , 16-C ) :   1.0263 B(  4-S ,  7-C ) :   1.0525
B(  6-C ,  8-C ) :   0.8952 B(  6-C , 13-H ) :   0.9841 B(  6-C , 14-H ) :   0.9616
B(  7-C ,  8-C ) :   0.9230 B(  7-C ,  9-H ) :   0.9781 B(  7-C , 10-H ) :   0.9719
B(  8-C , 11-H ) :   0.9638 B(  8-C , 12-H ) :   0.9590 B( 15-C , 17-C ) :   0.8956
B( 15-C , 22-H ) :   0.9685 B( 15-C , 23-H ) :   0.9795 B( 16-C , 17-C ) :   0.9031
B( 16-C , 18-H ) :   0.9635 B( 16-C , 19-H ) :   0.9760 B( 17-C , 20-H ) :   0.9575
B( 17-C , 21-H ) :   0.9597

FINAL SINGLE POINT ENERGY     -2847.708822729221

DIPOLE MOMENT
-------------
                                X             Y             Z
Electronic contribution:     -4.04013       4.89182       0.18353
Nuclear contribution   :      4.24797      -5.23258      -0.38576
                        -----------------------------------------
Total Dipole Moment    :      0.20784      -0.34076      -0.20223
                        -----------------------------------------
Magnitude (a.u.)       :      0.44745
Magnitude (Debye)      :      1.13733

Rotational constants in cm-1:     0.027062     0.011680     0.009567
Rotational constants in MHz :   811.285211   350.169790   286.819024

                             ****ORCA TERMINATED NORMALLY****
TOTAL RUN TIME: 0 days 0 hours 9 minutes 33 seconds 127 msec
