                         Program Version 5.0.4 -  RELEASE  -
|  1> ! nofrozencore ReducedPop printbasis
|  2> ! B3LYP TZVP
|  3>
|  4> %basis
|  5> newgto V "CP(PPP)" end
|  6> end
|  7>
|  8> %pal
|  9> nprocs 4
| 10> end
| 11>
| 12> % sym SymThresh 1e-2 end
| 13> * xyz -2 2
| 14> V 0.36238938407164756 0.1028313985432269 -0.31983583478218325
| 15> S 1.3818932162459756 -1.8040541031343704 1.0384076418778885
| 16> S -1.1610483844974167 -1.6639862626389583 -1.046916325133853
| 17> S 0.6587781086265538 1.4993571335324896 1.7403688942142863
| 18> S -1.3726187222946387 1.8102480055949615 -0.8213410807330286
| 19> O 1.503105558890178 0.3652044933749236 -1.4157216784588034
| 20> C -2.3888476257747233 -0.9134180196104823 -2.2227641479098343
| 21> C -1.8762123347632735 1.5819516835145013 -2.58933060732823
| 22> C -1.797871332491463 0.15791780893649285 -3.148003683072348
| 23> H -1.264041848702697 2.240157012510623 -3.216869076978071
| 24> H -2.9119768544922824 1.9379403545048763 -2.6658512118347386
| 25> H -0.7549483081038575 -0.09831014812240611 -3.3511907680202677
| 26> H -2.3266092331285333 0.1480758135146697 -4.11842433421752
| 27> H -3.2224204455362018 -0.4855672991686552 -1.6558105364015308
| 28> H -2.7815976966402927 -1.7434824227713916 -2.8213920218985193
| 29> C 0.676762857344908 -1.5991764434396545 2.64903124179162
| 30> C 2.013005459203636 0.8210264400062471 2.6705289440633346
| 31> C 1.4970159381178603 -0.47854714944905535 3.3224260061413387
| 32> H 2.2021478721660044 1.5225681940520681 3.5383404320139635
| 33> H 2.9660189633294456 0.7274629993746394 2.087165870264502
| 34> H 0.9212913489689477 -0.12232888567567664 4.194199310892405
| 35> H 2.3772029052779713 -1.0052775150303381 3.731117767201057
| 36> H 0.8915831860465064 -2.5255950074433464 3.250765392989535
| 37> H -0.4289974005126668 -1.4544275994797733 2.6400337964304317
| 38> *
| 39>
| 40> % eprnmr
| 41> gtensor true
| 42> Nuclei = all H {aiso,adip,aorb,fgrad,rho}
| 43> Nuclei = all V {aiso,adip,aorb,fgrad,rho}
| 44> end
| 45>
| 46>                          ****END OF INPUT****

CARTESIAN COORDINATES (ANGSTROEM)
---------------------------------
  V      0.363100    0.102945   -0.320064
  S      1.382604   -1.803941    1.038179
  S     -1.160338   -1.663873   -1.047145
  S      0.659489    1.499470    1.740140
  S     -1.371908    1.810361   -0.821570
  O      1.503816    0.365318   -1.415950
  C     -2.388137   -0.913305   -2.222993
  C     -1.875502    1.582065   -2.589559
  C     -1.797161    0.158031   -3.148232
  H     -1.263331    2.240270   -3.217098
  H     -2.911266    1.938054   -2.666080
  H     -0.754238   -0.098197   -3.351419
  H     -2.325898    0.148189   -4.118653
  H     -3.221710   -0.485454   -1.656039
  H     -2.780887   -1.743369   -2.821620
  C      0.677474   -1.599063    2.648803
  C      2.013716    0.821140    2.670301
  C      1.497727   -0.478434    3.322198
  H      2.202859    1.522681    3.538112
  H      2.966730    0.727576    2.086937
  H      0.922002   -0.122216    4.193971
  H      2.377914   -1.005164    3.730889
  H      0.892294   -2.525482    3.250537
  H     -0.428287   -1.454314    2.639805

 Total Charge           Charge          ....   -2
 Multiplicity           Mult            ....    2
 Number of Electrons    NEL             ....  145
 Basis Dimension        Dim             ....  353

ORBITAL ENERGIES
----------------
                 SPIN UP ORBITALS
  NO   OCC          E(Eh)            E(eV)
   0   1.0000    -196.608337     -5349.9848
   1   1.0000     -88.561783     -2409.8886
   2   1.0000     -88.559882     -2409.8369
   3   1.0000     -88.556704     -2409.7504
   4   1.0000     -88.552570     -2409.6379
   5   1.0000     -21.983429      -598.1995
   6   1.0000     -18.826009      -512.2817
   7   1.0000     -18.491325      -503.1745
   8   1.0000     -18.484009      -502.9755
   9   1.0000     -18.483914      -502.9729
  10   1.0000      -9.943508      -270.5766
  11   1.0000      -9.942192      -270.5408
  12   1.0000      -9.938963      -270.4529
  13   1.0000      -9.936190      -270.3775
  14   1.0000      -9.929673      -270.2001
  15   1.0000      -9.927021      -270.1280
  16   1.0000      -7.615603      -207.2311
  17   1.0000      -7.614219      -207.1934
  18   1.0000      -7.612495      -207.1465
  19   1.0000      -7.608648      -207.0418
  20   1.0000      -5.581041      -151.8679
  21   1.0000      -5.579654      -151.8301
  22   1.0000      -5.577404      -151.7689
  23   1.0000      -5.574410      -151.6874
  24   1.0000      -5.573586      -151.6650
  25   1.0000      -5.573250      -151.6559
  26   1.0000      -5.572780      -151.6431
  27   1.0000      -5.571451      -151.6069
  28   1.0000      -5.571135      -151.5983
  29   1.0000      -5.569735      -151.5602
  30   1.0000      -5.567835      -151.5085
  31   1.0000      -5.565709      -151.4506
  32   1.0000      -2.375935       -64.6525
  33   1.0000      -1.418685       -38.6044
  34   1.0000      -1.403854       -38.2008
  35   1.0000      -1.403501       -38.1912
  36   1.0000      -0.588397       -16.0111
  37   1.0000      -0.553329       -15.0569
  38   1.0000      -0.552226       -15.0268
  39   1.0000      -0.481710       -13.1080
  40   1.0000      -0.470079       -12.7915
  41   1.0000      -0.402701       -10.9580
  42   1.0000      -0.396402       -10.7866
  43   1.0000      -0.333655        -9.0792
  44   1.0000      -0.326503        -8.8846
  45   1.0000      -0.305290        -8.3074
  46   1.0000      -0.281698        -7.6654
  47   1.0000      -0.215018        -5.8509
  48   1.0000      -0.208224        -5.6661
  49   1.0000      -0.199397        -5.4259
  50   1.0000      -0.188785        -5.1371
  51   1.0000      -0.161918        -4.4060
  52   1.0000      -0.140194        -3.8149
  53   1.0000      -0.128629        -3.5002
  54   1.0000      -0.113225        -3.0810
  55   1.0000      -0.110939        -3.0188
  56   1.0000      -0.106534        -2.8990
  57   1.0000      -0.081694        -2.2230
  58   1.0000      -0.066312        -1.8044
  59   1.0000      -0.063679        -1.7328
  60   1.0000      -0.060598        -1.6489
  61   1.0000      -0.047562        -1.2942
  62   1.0000      -0.042494        -1.1563
  63   1.0000      -0.036406        -0.9907
  64   1.0000      -0.000035        -0.0010
  65   1.0000       0.027840         0.7576
  66   1.0000       0.031115         0.8467
  67   1.0000       0.036867         1.0032
  68   1.0000       0.046305         1.2600
  69   1.0000       0.057048         1.5523
  70   1.0000       0.065841         1.7916
  71   1.0000       0.074624         2.0306
  72   1.0000       0.082569         2.2468
  73   0.0000       0.233931         6.3656
  74   0.0000       0.244767         6.6604
  75   0.0000       0.248987         6.7753
  76   0.0000       0.251242         6.8366
  77   0.0000       0.259085         7.0501

                 SPIN DOWN ORBITALS
  NO   OCC          E(Eh)            E(eV)
   0   1.0000    -196.608479     -5349.9887
   1   1.0000     -88.561961     -2409.8935
   2   1.0000     -88.559990     -2409.8398
   3   1.0000     -88.556854     -2409.7545
   4   1.0000     -88.552525     -2409.6367
   5   1.0000     -21.968344      -597.7890
   6   1.0000     -18.829508      -512.3770
   7   1.0000     -18.486105      -503.0325
   8   1.0000     -18.467880      -502.5366
   9   1.0000     -18.467448      -502.5248
  10   1.0000      -9.943319      -270.5715
  11   1.0000      -9.942047      -270.5369
  12   1.0000      -9.938929      -270.4520
  13   1.0000      -9.936052      -270.3737
  14   1.0000      -9.929692      -270.2007
  15   1.0000      -9.926980      -270.1269
  16   1.0000      -7.615776      -207.2358
  17   1.0000      -7.614321      -207.1962
  18   1.0000      -7.612638      -207.1504
  19   1.0000      -7.608607      -207.0407
  20   1.0000      -5.581209      -151.8724
  21   1.0000      -5.579780      -151.8335
  22   1.0000      -5.577543      -151.7727
  23   1.0000      -5.574864      -151.6998
  24   1.0000      -5.573658      -151.6670
  25   1.0000      -5.573593      -151.6652
  26   1.0000      -5.572918      -151.6468
  27   1.0000      -5.571867      -151.6182
  28   1.0000      -5.571072      -151.5966
  29   1.0000      -5.569828      -151.5627
  30   1.0000      -5.568163      -151.5174
  31   1.0000      -5.565181      -151.4363
  32   1.0000      -2.330936       -63.4280
  33   1.0000      -1.399639       -38.0861
  34   1.0000      -1.342147       -36.5217
  35   1.0000      -1.340460       -36.4758
  36   1.0000      -0.595900       -16.2153
  37   1.0000      -0.553216       -15.0538
  38   1.0000      -0.552117       -15.0239
  39   1.0000      -0.481617       -13.1055
  40   1.0000      -0.470018       -12.7898
  41   1.0000      -0.402800       -10.9607
  42   1.0000      -0.396493       -10.7891
  43   1.0000      -0.333899        -9.0858
  44   1.0000      -0.326772        -8.8919
  45   1.0000      -0.305270        -8.3068
  46   1.0000      -0.281715        -7.6659
  47   1.0000      -0.214974        -5.8497
  48   1.0000      -0.208157        -5.6642
  49   1.0000      -0.199186        -5.4201
  50   1.0000      -0.188708        -5.1350
  51   1.0000      -0.161781        -4.4023
  52   1.0000      -0.139952        -3.8083
  53   1.0000      -0.128417        -3.4944
  54   1.0000      -0.113205        -3.0805
  55   1.0000      -0.110822        -3.0156
  56   1.0000      -0.106390        -2.8950
  57   1.0000      -0.080809        -2.1989
  58   1.0000      -0.064661        -1.7595
  59   1.0000      -0.062916        -1.7120
  60   1.0000      -0.059907        -1.6302
  61   1.0000      -0.048277        -1.3137
  62   1.0000      -0.044415        -1.2086
  63   1.0000      -0.037321        -1.0156
  64   1.0000       0.004984         0.1356
  65   1.0000       0.028671         0.7802
  66   1.0000       0.034259         0.9322
  67   1.0000       0.044816         1.2195
  68   1.0000       0.050654         1.3784
  69   1.0000       0.064182         1.7465
  70   1.0000       0.071262         1.9392
  71   1.0000       0.074758         2.0343
  72   0.0000       0.233688         6.3590
  73   0.0000       0.250419         6.8143
  74   0.0000       0.254944         6.9374
  75   0.0000       0.260857         7.0983
  76   0.0000       0.263498         7.1701

MULLIKEN ATOMIC CHARGES AND SPIN POPULATIONS
--------------------------------------------
   0 V :    0.519625    1.191426
   1 S :   -0.428666   -0.000388
   2 S :   -0.352005   -0.033293
   3 S :   -0.408141   -0.026396
   4 S :   -0.381590   -0.022252
   5 O :   -0.550897   -0.134758
   6 C :   -0.245693    0.006057
   7 C :   -0.235482    0.006687
   8 C :   -0.161054    0.003288
   9 H :    0.076223   -0.001007
  10 H :    0.051615    0.002170
  11 H :    0.139514    0.000490
  12 H :    0.006107   -0.000048
  13 H :    0.094558   -0.000168
  14 H :    0.049691   -0.000005
  15 C :   -0.189781   -0.002380
  16 C :   -0.184763    0.001972
  17 C :   -0.100850    0.006914
  18 H :    0.036634   -0.001134
  19 H :    0.104505   -0.000213
  20 H :    0.000033    0.002933
  21 H :   -0.001230   -0.000018
  22 H :    0.040198   -0.000979
  23 H :    0.121447    0.001100
Sum of atomic charges         :   -2.0000000

LOEWDIN ATOMIC CHARGES AND SPIN POPULATIONS
-------------------------------------------
   0 V :   -0.197218    1.148805
   1 S :   -0.043833    0.005265
   2 S :   -0.035774   -0.022822
   3 S :   -0.037259   -0.018866
   4 S :   -0.059523   -0.013010
   5 O :   -0.377903   -0.121670
   6 C :   -0.325536    0.005489
   7 C :   -0.313844    0.007272
   8 C :   -0.187747    0.000504
   9 H :    0.036574   -0.000014
  10 H :    0.029201    0.000633
  11 H :    0.070208    0.000337
  12 H :    0.031651    0.000156
  13 H :    0.045148   -0.000079
  14 H :    0.027853   -0.000508
  15 C :   -0.336040    0.001913
  16 C :   -0.340229    0.005702
  17 C :   -0.211382    0.001164
  18 H :    0.032871   -0.000840
  19 H :    0.047821   -0.000506
  20 H :    0.030723    0.001001
  21 H :    0.029982    0.000371
  22 H :    0.032996   -0.000910
  23 H :    0.051260    0.000615

  Mayer bond orders larger than 0.100000
B(  0-V ,  1-S ) :   0.7097 B(  0-V ,  2-S ) :   0.8607 B(  0-V ,  3-S ) :   0.7717
B(  0-V ,  4-S ) :   0.7823 B(  0-V ,  5-O ) :   2.0697 B(  1-S , 15-C ) :   1.0287
B(  2-S ,  6-C ) :   1.0097 B(  3-S , 16-C ) :   1.0432 B(  4-S ,  7-C ) :   1.0736
B(  6-C ,  8-C ) :   0.9017 B(  6-C , 13-H ) :   0.9735 B(  6-C , 14-H ) :   0.9685
B(  7-C ,  8-C ) :   0.9191 B(  7-C ,  9-H ) :   0.9771 B(  7-C , 10-H ) :   0.9680
B(  8-C , 11-H ) :   0.9884 B(  8-C , 12-H ) :   0.9446 B( 15-C , 17-C ) :   0.8962
B( 15-C , 22-H ) :   0.9588 B( 15-C , 23-H ) :   0.9680 B( 16-C , 17-C ) :   0.9044
B( 16-C , 18-H ) :   0.9579 B( 16-C , 19-H ) :   0.9616 B( 17-C , 20-H ) :   0.9496
B( 17-C , 21-H ) :   0.9517

FINAL SINGLE POINT ENERGY     -2847.695327585095

DIPOLE MOMENT
-------------
                                X             Y             Z
Electronic contribution:      5.20303       1.21877      -3.07260
Nuclear contribution   :     -5.69888      -1.27041       2.94241
                        -----------------------------------------
Total Dipole Moment    :     -0.49586      -0.05164      -0.13019
                        -----------------------------------------
Magnitude (a.u.)       :      0.51526
Magnitude (Debye)      :      1.30968

Rotational constants in cm-1:     0.027216     0.011796     0.009647
Rotational constants in MHz :   815.917238   353.636644   289.205000

                             ****ORCA TERMINATED NORMALLY****
TOTAL RUN TIME: 0 days 0 hours 14 minutes 36 seconds 309 msec
