                         Program Version 5.0.4 -  RELEASE  -
|  1> ! nofrozencore ReducedPop printbasis
|  2> ! B3LYP TZVP
|  3>
|  4> %basis
|  5> newgto V "CP(PPP)" end
|  6> end
|  7>
|  8> %pal
|  9> nprocs 8
| 10> end
| 11>
| 12> % sym SymThresh 1e-2 end
| 13> * xyz -2 2
| 14> V 0.09367218427379427 0.4025689232862104 0.2339108475072448
| 15> S 0.5358298221341415 1.1217736069618782 -2.1468828274427163
| 16> S -2.1847100801757375 0.15135334022541413 -0.6314707491310511
| 17> S 2.2008583444520653 -0.9055991444445549 0.19049567184585633
| 18> S -0.4698139320178415 -1.214335199958418 2.036006660287211
| 19> O 0.23857393188032838 1.7914186452360894 1.0249433288083074
| 20> C -3.253944146687835 -0.3176362500195778 0.81459281414611
| 21> C -1.8394067115959414 -0.3609078891271519 2.9720135036104045
| 22> C -2.865494478953234 0.40054430065444224 2.1169322057021054
| 23> H -1.3992149858161835 0.3404955969440401 3.7080897326221947
| 24> H -2.362633945785178 -1.1534704734528471 3.546107575082717
| 25> H -2.4667846657022348 1.3868541183709278 1.8588842562093293
| 26> H -3.763045665649205 0.5682800057049461 2.740314044195067
| 27> H -3.2096246119090583 -1.4023499422888106 0.9667738638291782
| 28> H -4.281094191123983 -0.055383284704222296 0.5344306203670037
| 29> C 1.2373740863614573 -0.43555412902605123 -2.858593877488635
| 30> C 3.206330879508376 -0.22542187587746312 -1.207378746332703
| 31> C 2.7410470115616543 -0.6219981054248358 -2.6123904102577855
| 32> H 4.241183549811659 -0.5597730932919216 -1.0622732207155396
| 33> H 3.1892707263954962 0.8621264617633357 -1.1305907730523792
| 34> H 3.0003401003283403 -1.6755654569839427 -2.803515688694629
| 35> H 3.3052429763450255 -0.015722328943063718 -3.3404795919928154
| 36> H 1.0416954700376506 -0.44122974627187844 -3.9373409027450106
| 37> H 0.6920406877096272 -1.2757444892694714 -2.427348832263909
| 38> *
| 39>
| 40> % eprnmr
| 41> gtensor true
| 42> Nuclei = all H {aiso,adip,aorb,fgrad,rho}
| 43> Nuclei = all V {aiso,adip,aorb,fgrad,rho}
| 44> end
| 45>
| 46>                          ****END OF INPUT****

CARTESIAN COORDINATES (ANGSTROEM)
---------------------------------
  V      0.094043    0.403208    0.234065
  S      0.536201    1.122413   -2.146729
  S     -2.184339    0.151993   -0.631317
  S      2.201229   -0.904960    0.190650
  S     -0.469443   -1.213696    2.036161
  O      0.238945    1.792058    1.025097
  C     -3.253573   -0.316997    0.814747
  C     -1.839036   -0.360269    2.972167
  C     -2.865124    0.401184    2.117086
  H     -1.398844    0.341135    3.708244
  H     -2.362263   -1.152831    3.546262
  H     -2.466414    1.387493    1.859038
  H     -3.762675    0.568919    2.740468
  H     -3.209254   -1.401711    0.966928
  H     -4.280723   -0.054744    0.534585
  C      1.237745   -0.434915   -2.858440
  C      3.206702   -0.224783   -1.207225
  C      2.741418   -0.621359   -2.612236
  H      4.241554   -0.559134   -1.062119
  H      3.189642    0.862766   -1.130437
  H      3.000711   -1.674926   -2.803362
  H      3.305614   -0.015083   -3.340326
  H      1.042066   -0.440590   -3.937187
  H      0.692411   -1.275105   -2.427195

 Total Charge           Charge          ....   -2
 Multiplicity           Mult            ....    2
 Number of Electrons    NEL             ....  145
 Basis Dimension        Dim             ....  353

ORBITAL ENERGIES
----------------
                 SPIN UP ORBITALS
  NO   OCC          E(Eh)            E(eV)
   0   1.0000    -196.606347     -5349.9307
   1   1.0000     -88.561596     -2409.8836
   2   1.0000     -88.560095     -2409.8427
   3   1.0000     -88.559391     -2409.8235
   4   1.0000     -88.557760     -2409.7792
   5   1.0000     -21.981633      -598.1506
   6   1.0000     -18.824813      -512.2492
   7   1.0000     -18.489517      -503.1253
   8   1.0000     -18.482206      -502.9264
   9   1.0000     -18.482087      -502.9232
  10   1.0000      -9.944300      -270.5982
  11   1.0000      -9.934571      -270.3334
  12   1.0000      -9.934170      -270.3225
  13   1.0000      -9.933631      -270.3078
  14   1.0000      -9.932243      -270.2701
  15   1.0000      -9.927280      -270.1350
  16   1.0000      -7.615727      -207.2345
  17   1.0000      -7.613910      -207.1850
  18   1.0000      -7.613525      -207.1745
  19   1.0000      -7.612097      -207.1357
  20   1.0000      -5.580919      -151.8645
  21   1.0000      -5.579318      -151.8210
  22   1.0000      -5.578999      -151.8123
  23   1.0000      -5.577351      -151.7674
  24   1.0000      -5.574653      -151.6940
  25   1.0000      -5.573011      -151.6493
  26   1.0000      -5.572757      -151.6424
  27   1.0000      -5.572558      -151.6370
  28   1.0000      -5.571303      -151.6029
  29   1.0000      -5.571093      -151.5971
  30   1.0000      -5.570455      -151.5798
  31   1.0000      -5.569173      -151.5449
  32   1.0000      -2.374379       -64.6101
  33   1.0000      -1.417143       -38.5624
  34   1.0000      -1.402316       -38.1590
  35   1.0000      -1.402022       -38.1509
  36   1.0000      -0.587390       -15.9837
  37   1.0000      -0.550663       -14.9843
  38   1.0000      -0.547782       -14.9059
  39   1.0000      -0.466397       -12.6913
  40   1.0000      -0.464951       -12.6520
  41   1.0000      -0.403691       -10.9850
  42   1.0000      -0.395284       -10.7562
  43   1.0000      -0.337484        -9.1834
  44   1.0000      -0.327016        -8.8986
  45   1.0000      -0.301591        -8.2067
  46   1.0000      -0.285750        -7.7757
  47   1.0000      -0.214179        -5.8281
  48   1.0000      -0.203606        -5.5404
  49   1.0000      -0.202703        -5.5158
  50   1.0000      -0.197893        -5.3849
  51   1.0000      -0.156907        -4.2696
  52   1.0000      -0.133905        -3.6437
  53   1.0000      -0.131483        -3.5778
  54   1.0000      -0.109579        -2.9818
  55   1.0000      -0.107933        -2.9370
  56   1.0000      -0.103632        -2.8200
  57   1.0000      -0.079262        -2.1568
  58   1.0000      -0.068012        -1.8507
  59   1.0000      -0.063057        -1.7159
  60   1.0000      -0.055784        -1.5179
  61   1.0000      -0.045302        -1.2327
  62   1.0000      -0.040497        -1.1020
  63   1.0000      -0.036586        -0.9956
  64   1.0000      -0.000909        -0.0247
  65   1.0000       0.026957         0.7335
  66   1.0000       0.029812         0.8112
  67   1.0000       0.036367         0.9896
  68   1.0000       0.045488         1.2378
  69   1.0000       0.055006         1.4968
  70   1.0000       0.064643         1.7590
  71   1.0000       0.071944         1.9577
  72   1.0000       0.082406         2.2424
  73   0.0000       0.234427         6.3791
  74   0.0000       0.246347         6.7034
  75   0.0000       0.250763         6.8236
  76   0.0000       0.253736         6.9045
  77   0.0000       0.258219         7.0265

                 SPIN DOWN ORBITALS
  NO   OCC          E(Eh)            E(eV)
   0   1.0000    -196.606487     -5349.9345
   1   1.0000     -88.561758     -2409.8880
   2   1.0000     -88.560271     -2409.8475
   3   1.0000     -88.559470     -2409.8257
   4   1.0000     -88.557724     -2409.7782
   5   1.0000     -21.966563      -597.7406
   6   1.0000     -18.828283      -512.3436
   7   1.0000     -18.484310      -502.9836
   8   1.0000     -18.466158      -502.4897
   9   1.0000     -18.465564      -502.4735
  10   1.0000      -9.944145      -270.5939
  11   1.0000      -9.934521      -270.3321
  12   1.0000      -9.934000      -270.3179
  13   1.0000      -9.933512      -270.3046
  14   1.0000      -9.932206      -270.2691
  15   1.0000      -9.927295      -270.1354
  16   1.0000      -7.615881      -207.2387
  17   1.0000      -7.614081      -207.1897
  18   1.0000      -7.613600      -207.1766
  19   1.0000      -7.612066      -207.1348
  20   1.0000      -5.581075      -151.8688
  21   1.0000      -5.579479      -151.8253
  22   1.0000      -5.579098      -151.8150
  23   1.0000      -5.577361      -151.7677
  24   1.0000      -5.575067      -151.7053
  25   1.0000      -5.573221      -151.6550
  26   1.0000      -5.573140      -151.6529
  27   1.0000      -5.572965      -151.6481
  28   1.0000      -5.571632      -151.6118
  29   1.0000      -5.571218      -151.6006
  30   1.0000      -5.570295      -151.5754
  31   1.0000      -5.568682      -151.5315
  32   1.0000      -2.329436       -63.3872
  33   1.0000      -1.398123       -38.0449
  34   1.0000      -1.340798       -36.4850
  35   1.0000      -1.338970       -36.4352
  36   1.0000      -0.594826       -16.1860
  37   1.0000      -0.550520       -14.9804
  38   1.0000      -0.547697       -14.9036
  39   1.0000      -0.466298       -12.6886
  40   1.0000      -0.464890       -12.6503
  41   1.0000      -0.403709       -10.9855
  42   1.0000      -0.395427       -10.7601
  43   1.0000      -0.337613        -9.1869
  44   1.0000      -0.327403        -8.9091
  45   1.0000      -0.301540        -8.2053
  46   1.0000      -0.285753        -7.7757
  47   1.0000      -0.214125        -5.8266
  48   1.0000      -0.203530        -5.5383
  49   1.0000      -0.202587        -5.5127
  50   1.0000      -0.197752        -5.3811
  51   1.0000      -0.156787        -4.2664
  52   1.0000      -0.133758        -3.6398
  53   1.0000      -0.131223        -3.5708
  54   1.0000      -0.109562        -2.9813
  55   1.0000      -0.107874        -2.9354
  56   1.0000      -0.103458        -2.8152
  57   1.0000      -0.078100        -2.1252
  58   1.0000      -0.066053        -1.7974
  59   1.0000      -0.062263        -1.6943
  60   1.0000      -0.055602        -1.5130
  61   1.0000      -0.046312        -1.2602
  62   1.0000      -0.041100        -1.1184
  63   1.0000      -0.038165        -1.0385
  64   1.0000       0.003647         0.0992
  65   1.0000       0.028263         0.7691
  66   1.0000       0.032904         0.8954
  67   1.0000       0.045457         1.2370
  68   1.0000       0.046999         1.2789
  69   1.0000       0.063671         1.7326
  70   1.0000       0.066878         1.8199
  71   1.0000       0.073564         2.0018
  72   0.0000       0.235869         6.4183
  73   0.0000       0.250410         6.8140
  74   0.0000       0.256993         6.9931
  75   0.0000       0.261238         7.1087
  76   0.0000       0.265261         7.2181

MULLIKEN ATOMIC CHARGES AND SPIN POPULATIONS
--------------------------------------------
   0 V :    0.523766    1.189494
   1 S :   -0.428418   -0.000224
   2 S :   -0.353727   -0.033281
   3 S :   -0.407695   -0.029529
   4 S :   -0.382901   -0.018676
   5 O :   -0.551123   -0.133736
   6 C :   -0.243439    0.005828
   7 C :   -0.230503    0.006164
   8 C :   -0.165265    0.002117
   9 H :    0.077870   -0.000689
  10 H :    0.046743    0.002273
  11 H :    0.142254    0.000607
  12 H :    0.006511   -0.000166
  13 H :    0.097219    0.000031
  14 H :    0.047391   -0.000377
  15 C :   -0.257148   -0.002559
  16 C :   -0.250058    0.003353
  17 C :   -0.071116    0.008357
  18 H :    0.046806   -0.000197
  19 H :    0.126917   -0.000030
  20 H :    0.016411    0.001437
  21 H :    0.013020   -0.000156
  22 H :    0.053387   -0.000523
  23 H :    0.143099    0.000480
Sum of atomic charges         :   -2.0000000

LOEWDIN ATOMIC CHARGES AND SPIN POPULATIONS
-------------------------------------------
   0 V :   -0.211404    1.146335
   1 S :   -0.071675    0.005105
   2 S :   -0.039912   -0.022922
   3 S :   -0.060467   -0.020659
   4 S :   -0.063701   -0.009524
   5 O :   -0.379115   -0.120512
   6 C :   -0.326911    0.004775
   7 C :   -0.311015    0.006040
   8 C :   -0.190582    0.000509
   9 H :    0.041601    0.000170
  10 H :    0.029444    0.000690
  11 H :    0.071159    0.000203
  12 H :    0.031226    0.000086
  13 H :    0.045140   -0.000039
  14 H :    0.026892   -0.000595
  15 C :   -0.316556    0.002344
  16 C :   -0.326380    0.007102
  17 C :   -0.188256    0.001080
  18 H :    0.028036   -0.000246
  19 H :    0.052964   -0.000619
  20 H :    0.036685    0.000556
  21 H :    0.035133    0.000310
  22 H :    0.030955   -0.000564
  23 H :    0.056740    0.000374

  Mayer bond orders larger than 0.100000
B(  0-V ,  1-S ) :   0.7110 B(  0-V ,  2-S ) :   0.8626 B(  0-V ,  3-S ) :   0.7775
B(  0-V ,  4-S ) :   0.7777 B(  0-V ,  5-O ) :   2.0646 B(  1-S , 15-C ) :   1.0220
B(  2-S ,  6-C ) :   1.0060 B(  3-S , 16-C ) :   1.0219 B(  4-S ,  7-C ) :   1.0691
B(  6-C ,  8-C ) :   0.9033 B(  6-C , 13-H ) :   0.9722 B(  6-C , 14-H ) :   0.9659
B(  7-C ,  8-C ) :   0.9172 B(  7-C ,  9-H ) :   0.9767 B(  7-C , 10-H ) :   0.9663
B(  8-C , 11-H ) :   0.9887 B(  8-C , 12-H ) :   0.9438 B( 15-C , 17-C ) :   0.8956
B( 15-C , 22-H ) :   0.9691 B( 15-C , 23-H ) :   0.9804 B( 16-C , 17-C ) :   0.9031
B( 16-C , 18-H ) :   0.9623 B( 16-C , 19-H ) :   0.9751 B( 17-C , 20-H ) :   0.9583
B( 17-C , 21-H ) :   0.9599

FINAL SINGLE POINT ENERGY     -2847.717367395296

DIPOLE MOMENT
-------------
                                X             Y             Z
Electronic contribution:      2.05265       4.74933       2.25866
Nuclear contribution   :     -2.31772      -5.01606      -2.31303
                        -----------------------------------------
Total Dipole Moment    :     -0.26508      -0.26673      -0.05437
                        -----------------------------------------
Magnitude (a.u.)       :      0.37996
Magnitude (Debye)      :      0.96578

Rotational constants in cm-1:     0.027280     0.011816     0.009702
Rotational constants in MHz :   817.834209   354.241222   290.869018

                             ****ORCA TERMINATED NORMALLY****
TOTAL RUN TIME: 0 days 0 hours 9 minutes 37 seconds 65 msec
