                         Program Version 5.0.4 -  RELEASE  -
|  1> ! nofrozencore ReducedPop printbasis
|  2> ! B3LYP TZVP
|  3>
|  4> %basis
|  5> newgto V "CP(PPP)" end
|  6> end
|  7>
|  8> %pal
|  9> nprocs 4
| 10> end
| 11>
| 12> % sym SymThresh 1e-2 end
| 13> * xyz -2 2
| 14> V 0.3971888440245276 0.2914819215859927 0.30089018604134754
| 15> S -0.12734440053813376 -0.8094890028140234 2.2893425247576524
| 16> S 0.3414707992066258 -2.2236492707514164 -0.7004844364087497
| 17> S -1.0877976413311043 1.97077188918922 0.5226322926523385
| 18> S -0.044736344428197315 0.929698827967125 -2.291524610570167
| 19> O 2.053782029529578 0.4569360111847144 0.13267220385963016
| 20> C 0.6131520002918046 -2.309503490363232 -2.5156751922263747
| 21> C 1.1996743358497135 -0.019379991367334717 -3.343720440734864
| 22> C 1.756644671240942 -1.360012852852146 -2.8609148360716317
| 23> H 2.040361699304783 0.6556047091802925 -3.5572902593951654
| 24> H 0.6843269971231577 -0.20357314720490954 -4.3001464401990415
| 25> H 2.3768539054824442 -1.215035245396287 -1.9645441782860569
| 26> H 2.41436737839374 -1.7612404081081667 -3.666012824877883
| 27> H -0.29305553184943967 -2.014182552792459 -3.065328273568411
| 28> H 0.8386725564249158 -3.3573154354716066 -2.764242179054107
| 29> C -1.9211293425867966 -0.49293527007060217 2.5076466863251388
| 30> C -1.218904564872849 1.9882894813768246 2.3692664108764574
| 31> C -2.1154733266713737 0.9268981445990822 3.033446815446042
| 32> H -1.5765296015153745 2.9795180559268664 2.6758065948783667
| 33> H -0.20907432804661427 1.869714207147774 2.757046700728812
| 34> H -3.1791993729519477 1.220270603924148 2.946953778524791
| 35> H -1.8660658578665925 0.9352219470066319 4.110673062207544
| 36> H -2.3133920881475145 -1.2225855126490648 3.228823677773394
| 37> H -2.4437365797539803 -0.6458507746762108 1.558838863351648
| 38> *
| 39>
| 40> % eprnmr
| 41> gtensor true
| 42> Nuclei = all H {aiso,adip,aorb,fgrad,rho}
| 43> Nuclei = all V {aiso,adip,aorb,fgrad,rho}
| 44> end
| 45>
| 46>                          ****END OF INPUT****

CARTESIAN COORDINATES (ANGSTROEM)
---------------------------------
  V      0.397756    0.291804    0.301270
  S     -0.126777   -0.809167    2.289722
  S      0.342038   -2.223327   -0.700105
  S     -1.087230    1.971094    0.523012
  S     -0.044169    0.930021   -2.291145
  O      2.054350    0.457258    0.133052
  C      0.613720   -2.309182   -2.515296
  C      1.200242   -0.019058   -3.343341
  C      1.757212   -1.359691   -2.860535
  H      2.040929    0.655927   -3.556911
  H      0.684895   -0.203251   -4.299767
  H      2.377422   -1.214713   -1.964165
  H      2.414935   -1.760919   -3.665633
  H     -0.292488   -2.013861   -3.064949
  H      0.839240   -3.356994   -2.763863
  C     -1.920562   -0.492613    2.508026
  C     -1.218337    1.988611    2.369646
  C     -2.114906    0.927220    3.033826
  H     -1.575962    2.979840    2.676186
  H     -0.208507    1.870036    2.757426
  H     -3.178632    1.220592    2.947333
  H     -1.865498    0.935544    4.111052
  H     -2.312824   -1.222264    3.229203
  H     -2.443169   -0.645529    1.559218

 Total Charge           Charge          ....   -2
 Multiplicity           Mult            ....    2
 Number of Electrons    NEL             ....  145
 Basis Dimension        Dim             ....  353

ORBITAL ENERGIES
----------------
                 SPIN UP ORBITALS
  NO   OCC          E(Eh)            E(eV)
   0   1.0000    -196.610129     -5350.0336
   1   1.0000     -88.578490     -2410.3432
   2   1.0000     -88.570302     -2410.1204
   3   1.0000     -88.548914     -2409.5385
   4   1.0000     -88.542681     -2409.3689
   5   1.0000     -21.985147      -598.2463
   6   1.0000     -18.816724      -512.0291
   7   1.0000     -18.492969      -503.2193
   8   1.0000     -18.485806      -503.0243
   9   1.0000     -18.485541      -503.0171
  10   1.0000      -9.950388      -270.7638
  11   1.0000      -9.946892      -270.6687
  12   1.0000      -9.946314      -270.6530
  13   1.0000      -9.930623      -270.2260
  14   1.0000      -9.923029      -270.0193
  15   1.0000      -9.913303      -269.7547
  16   1.0000      -7.634569      -207.7472
  17   1.0000      -7.626606      -207.5305
  18   1.0000      -7.601735      -206.8537
  19   1.0000      -7.596274      -206.7051
  20   1.0000      -5.599613      -152.3732
  21   1.0000      -5.592954      -152.1920
  22   1.0000      -5.592032      -152.1669
  23   1.0000      -5.591764      -152.1596
  24   1.0000      -5.585297      -151.9837
  25   1.0000      -5.583947      -151.9469
  26   1.0000      -5.567304      -151.4940
  27   1.0000      -5.561642      -151.3400
  28   1.0000      -5.561168      -151.3271
  29   1.0000      -5.558395      -151.2516
  30   1.0000      -5.555609      -151.1758
  31   1.0000      -5.553079      -151.1070
  32   1.0000      -2.378076       -64.7107
  33   1.0000      -1.415267       -38.5114
  34   1.0000      -1.407889       -38.3106
  35   1.0000      -1.406975       -38.2857
  36   1.0000      -0.575002       -15.6466
  37   1.0000      -0.567438       -15.4408
  38   1.0000      -0.538636       -14.6570
  39   1.0000      -0.484242       -13.1769
  40   1.0000      -0.451903       -12.2969
  41   1.0000      -0.420983       -11.4555
  42   1.0000      -0.378031       -10.2868
  43   1.0000      -0.356414        -9.6985
  44   1.0000      -0.309011        -8.4086
  45   1.0000      -0.304859        -8.2956
  46   1.0000      -0.290396        -7.9021
  47   1.0000      -0.228982        -6.2309
  48   1.0000      -0.217409        -5.9160
  49   1.0000      -0.197582        -5.3765
  50   1.0000      -0.177116        -4.8196
  51   1.0000      -0.152463        -4.1487
  52   1.0000      -0.148612        -4.0439
  53   1.0000      -0.144520        -3.9326
  54   1.0000      -0.122510        -3.3337
  55   1.0000      -0.096413        -2.6235
  56   1.0000      -0.090896        -2.4734
  57   1.0000      -0.086135        -2.3439
  58   1.0000      -0.077734        -2.1152
  59   1.0000      -0.053146        -1.4462
  60   1.0000      -0.050436        -1.3724
  61   1.0000      -0.034972        -0.9516
  62   1.0000      -0.028936        -0.7874
  63   1.0000      -0.024574        -0.6687
  64   1.0000      -0.001168        -0.0318
  65   1.0000       0.013439         0.3657
  66   1.0000       0.019745         0.5373
  67   1.0000       0.033671         0.9162
  68   1.0000       0.040656         1.1063
  69   1.0000       0.061479         1.6729
  70   1.0000       0.080528         2.1913
  71   1.0000       0.085541         2.3277
  72   1.0000       0.087139         2.3712
  73   0.0000       0.213567         5.8115
  74   0.0000       0.225392         6.1332
  75   0.0000       0.237611         6.4657
  76   0.0000       0.247710         6.7405
  77   0.0000       0.260395         7.0857

                 SPIN DOWN ORBITALS
  NO   OCC          E(Eh)            E(eV)
   0   1.0000    -196.610234     -5350.0365
   1   1.0000     -88.578677     -2410.3483
   2   1.0000     -88.570160     -2410.1166
   3   1.0000     -88.549120     -2409.5441
   4   1.0000     -88.542846     -2409.3733
   5   1.0000     -21.969558      -597.8221
   6   1.0000     -18.821077      -512.1476
   7   1.0000     -18.487139      -503.0606
   8   1.0000     -18.469304      -502.5753
   9   1.0000     -18.468754      -502.5604
  10   1.0000      -9.950293      -270.7612
  11   1.0000      -9.946521      -270.6586
  12   1.0000      -9.946237      -270.6509
  13   1.0000      -9.930581      -270.2248
  14   1.0000      -9.923027      -270.0193
  15   1.0000      -9.913333      -269.7555
  16   1.0000      -7.634739      -207.7518
  17   1.0000      -7.626467      -207.5267
  18   1.0000      -7.601935      -206.8592
  19   1.0000      -7.596435      -206.7095
  20   1.0000      -5.599810      -152.3786
  21   1.0000      -5.593405      -152.2043
  22   1.0000      -5.592205      -152.1716
  23   1.0000      -5.591726      -152.1586
  24   1.0000      -5.585529      -151.9900
  25   1.0000      -5.583152      -151.9253
  26   1.0000      -5.567467      -151.4985
  27   1.0000      -5.561867      -151.3461
  28   1.0000      -5.561761      -151.3432
  29   1.0000      -5.558420      -151.2523
  30   1.0000      -5.556092      -151.1889
  31   1.0000      -5.553183      -151.1098
  32   1.0000      -2.331539       -63.4444
  33   1.0000      -1.393739       -37.9256
  34   1.0000      -1.345430       -36.6110
  35   1.0000      -1.342606       -36.5342
  36   1.0000      -0.585015       -15.9191
  37   1.0000      -0.567242       -15.4354
  38   1.0000      -0.538780       -14.6610
  39   1.0000      -0.483629       -13.1602
  40   1.0000      -0.452244       -12.3062
  41   1.0000      -0.420504       -11.4425
  42   1.0000      -0.378686       -10.3046
  43   1.0000      -0.356093        -9.6898
  44   1.0000      -0.309791        -8.4298
  45   1.0000      -0.304528        -8.2866
  46   1.0000      -0.290797        -7.9130
  47   1.0000      -0.228674        -6.2225
  48   1.0000      -0.217041        -5.9060
  49   1.0000      -0.197676        -5.3790
  50   1.0000      -0.177147        -4.8204
  51   1.0000      -0.151966        -4.1352
  52   1.0000      -0.148142        -4.0312
  53   1.0000      -0.144317        -3.9271
  54   1.0000      -0.122225        -3.3259
  55   1.0000      -0.096552        -2.6273
  56   1.0000      -0.090625        -2.4660
  57   1.0000      -0.083964        -2.2848
  58   1.0000      -0.076258        -2.0751
  59   1.0000      -0.053083        -1.4445
  60   1.0000      -0.050380        -1.3709
  61   1.0000      -0.035651        -0.9701
  62   1.0000      -0.030309        -0.8247
  63   1.0000      -0.026302        -0.7157
  64   1.0000      -0.000935        -0.0254
  65   1.0000       0.015349         0.4177
  66   1.0000       0.031059         0.8452
  67   1.0000       0.039406         1.0723
  68   1.0000       0.045964         1.2507
  69   1.0000       0.066752         1.8164
  70   1.0000       0.081004         2.2042
  71   1.0000       0.086734         2.3601
  72   0.0000       0.228747         6.2245
  73   0.0000       0.239847         6.5266
  74   0.0000       0.245783         6.6881
  75   0.0000       0.250186         6.8079
  76   0.0000       0.251470         6.8429

MULLIKEN ATOMIC CHARGES AND SPIN POPULATIONS
--------------------------------------------
   0 V :    0.516682    1.226295
   1 S :   -0.365859    0.015363
   2 S :   -0.427347   -0.030387
   3 S :   -0.332550   -0.037411
   4 S :   -0.459222   -0.037889
   5 O :   -0.567844   -0.166607
   6 C :   -0.243060   -0.000040
   7 C :   -0.234827    0.004437
   8 C :   -0.140231   -0.003358
   9 H :    0.066683   -0.000134
  10 H :    0.046102   -0.000349
  11 H :    0.166248    0.000437
  12 H :   -0.011213   -0.000111
  13 H :    0.092256    0.000283
  14 H :    0.043663   -0.001309
  15 C :   -0.227019   -0.001583
  16 C :   -0.280286    0.012151
  17 C :   -0.096072    0.008794
  18 H :    0.052360    0.003166
  19 H :    0.147966   -0.000575
  20 H :    0.020292    0.005717
  21 H :    0.026789    0.001693
  22 H :    0.063773   -0.000347
  23 H :    0.142716    0.001763
Sum of atomic charges         :   -2.0000000

LOEWDIN ATOMIC CHARGES AND SPIN POPULATIONS
-------------------------------------------
   0 V :   -0.200688    1.177978
   1 S :    0.022128    0.024769
   2 S :   -0.122891   -0.024825
   3 S :    0.046732   -0.021007
   4 S :   -0.150999   -0.030988
   5 O :   -0.425225   -0.153408
   6 C :   -0.332091   -0.000480
   7 C :   -0.311053    0.001327
   8 C :   -0.193228   -0.001082
   9 H :    0.032164   -0.000004
  10 H :    0.028068   -0.000480
  11 H :    0.075206   -0.000080
  12 H :    0.026474    0.000048
  13 H :    0.042776    0.000029
  14 H :    0.025298   -0.001218
  15 C :   -0.305290    0.005233
  16 C :   -0.328758    0.016140
  17 C :   -0.187855    0.001863
  18 H :    0.029397    0.002126
  19 H :    0.054569   -0.000425
  20 H :    0.036044    0.002013
  21 H :    0.042787    0.001074
  22 H :    0.036687   -0.000355
  23 H :    0.059748    0.001750

  Mayer bond orders larger than 0.100000
B(  0-V ,  1-S ) :   0.8627 B(  0-V ,  2-S ) :   0.7230 B(  0-V ,  3-S ) :   0.9190
B(  0-V ,  4-S ) :   0.6503 B(  0-V ,  5-O ) :   2.0278 B(  1-S , 15-C ) :   0.9580
B(  2-S ,  6-C ) :   1.0675 B(  3-S , 16-C ) :   0.9827 B(  4-S ,  7-C ) :   1.0563
B(  6-C ,  8-C ) :   0.8846 B(  6-C , 13-H ) :   0.9734 B(  6-C , 14-H ) :   0.9656
B(  7-C ,  8-C ) :   0.9132 B(  7-C ,  9-H ) :   0.9772 B(  7-C , 10-H ) :   0.9766
B(  8-C , 11-H ) :   0.9845 B(  8-C , 12-H ) :   0.9336 B( 15-C , 17-C ) :   0.9083
B( 15-C , 22-H ) :   0.9665 B( 15-C , 23-H ) :   0.9714 B( 16-C , 17-C ) :   0.8987
B( 16-C , 18-H ) :   0.9490 B( 16-C , 19-H ) :   0.9821 B( 17-C , 20-H ) :   0.9480
B( 17-C , 21-H ) :   0.9696

FINAL SINGLE POINT ENERGY     -2847.672715958435

DIPOLE MOMENT
-------------
                                X             Y             Z
Electronic contribution:      4.30766       4.23482       4.19775
Nuclear contribution   :     -5.08420      -3.92383      -3.29486
                        -----------------------------------------
Total Dipole Moment    :     -0.77654       0.31098       0.90288
                        -----------------------------------------
Magnitude (a.u.)       :      1.23082
Magnitude (Debye)      :      3.12850

Rotational constants in cm-1:     0.027215     0.011688     0.009604
Rotational constants in MHz :   815.888002   350.396413   287.920702

                             ****ORCA TERMINATED NORMALLY****
TOTAL RUN TIME: 0 days 0 hours 15 minutes 9 seconds 647 msec
