                         Program Version 5.0.4 -  RELEASE  -
|  1> ! nofrozencore ReducedPop printbasis
|  2> ! B3LYP TZVP
|  3>
|  4> %basis
|  5> newgto V "CP(PPP)" end
|  6> end
|  7>
|  8> %pal
|  9> nprocs 8
| 10> end
| 11>
| 12> % sym SymThresh 1e-2 end
| 13> * xyz -2 2
| 14> V 0.15933639000419347 0.2115249615434856 -0.4145697731521903
| 15> S -0.743140987093729 2.228030299948214 0.8215043688691066
| 16> S 1.7568246776390677 0.2345352754354811 1.439568942510149
| 17> S -2.174250457372465 -0.5558767908458113 -0.7735223281041014
| 18> S 0.5983950189299132 -2.212814585514396 -0.7605668165832781
| 19> O 0.7885246242667808 0.912117727569663 -1.7112356498846344
| 20> C 2.948722967287937 -1.166948938165024 1.1899780430432936
| 21> C 2.425203326760312 -2.4174000359408825 -0.9960922784374624
| 22> C 3.331059491334563 -1.4143150515862435 -0.27437997851797225
| 23> H 2.6490459065301257 -2.3856467150306364 -2.0683152238514118
| 24> H 2.6693283099953784 -3.4290587861825363 -0.6474452175277596
| 25> H 3.314318037102434 -0.45824100280231617 -0.8031101092927396
| 26> H 4.366410662842466 -1.796243005218684 -0.33204280831629085
| 27> H 2.525205405253236 -2.083774571052834 1.614870391641206
| 28> H 3.84373963713352 -0.9117983963210907 1.7691361791574898
| 29> C -2.2194653079106295 1.5205849876539548 1.6806923222578836
| 30> C -3.1987789966175577 0.9908308247926909 -0.641606038036588
| 31> C -3.477340510634713 1.4452446925915061 0.8068003095505077
| 32> H -4.272216124298077 0.7267727011590575 -1.157009938584577
| 33> H -2.968832195481307 1.3987978795702978 -0.92084451396763
| 34> H -4.225241684493923 0.7541632483925171 1.3135629181877826
| 35> H -3.9348732719472723 2.4172155835963287 0.7550379727311919
| 36> H -2.4263409008792145 2.123943526822098 2.561240239729602
| 37> H -1.9528928529449605 0.5013103427407188 2.033339127066284
| 38> *
| 39>
| 40> % eprnmr
| 41> gtensor true
| 42> Nuclei = all H {aiso,adip,aorb,fgrad,rho}
| 43> Nuclei = all V {aiso,adip,aorb,fgrad,rho}
| 44> end
| 45>
| 46>                          ****END OF INPUT****

CARTESIAN COORDINATES (ANGSTROEM)
---------------------------------
  V      0.159322    0.211989   -0.415165
  S     -0.743155    2.228494    0.820909
  S      1.756810    0.234999    1.438973
  S     -2.174265   -0.555413   -0.774118
  S      0.598381   -2.212351   -0.761162
  O      0.788510    0.912581   -1.711831
  C      2.948708   -1.166485    1.189382
  C      2.425189   -2.416936   -0.996688
  C      3.331045   -1.413851   -0.274976
  H      2.649031   -2.385183   -2.068911
  H      2.669314   -3.428595   -0.648041
  H      3.314304   -0.457777   -0.803706
  H      4.366396   -1.795779   -0.332638
  H      2.525191   -2.083311    1.614275
  H      3.843725   -0.911335    1.768541
  C     -2.219480    1.521049    1.680097
  C     -3.198793    0.991295   -0.642202
  C     -3.477355    1.445708    0.806205
  H     -4.272231    0.727236   -1.157605
  H     -2.968847    1.399262   -0.921440
  H     -4.225256    0.754627    1.312967
  H     -3.934888    2.417679    0.754442
  H     -2.426355    2.124407    2.560645
  H     -1.952907    0.501774    2.032744

 Total Charge           Charge          ....   -2
 Multiplicity           Mult            ....    2
 Number of Electrons    NEL             ....  145
 Basis Dimension        Dim             ....  353

ORBITAL ENERGIES
----------------
                 SPIN UP ORBITALS
  NO   OCC          E(Eh)            E(eV)
   0   1.0000    -196.607082     -5349.9507
   1   1.0000     -88.562917     -2409.9195
   2   1.0000     -88.560944     -2409.8658
   3   1.0000     -88.559041     -2409.8140
   4   1.0000     -88.558251     -2409.7925
   5   1.0000     -21.982429      -598.1723
   6   1.0000     -18.824818      -512.2493
   7   1.0000     -18.490229      -503.1447
   8   1.0000     -18.483039      -502.9491
   9   1.0000     -18.482945      -502.9465
  10   1.0000      -9.943185      -270.5678
  11   1.0000      -9.942615      -270.5523
  12   1.0000      -9.935364      -270.3550
  13   1.0000      -9.935342      -270.3544
  14   1.0000      -9.934015      -270.3183
  15   1.0000      -9.928983      -270.1814
  16   1.0000      -7.616725      -207.2616
  17   1.0000      -7.614759      -207.2081
  18   1.0000      -7.613361      -207.1701
  19   1.0000      -7.612548      -207.1480
  20   1.0000      -5.582060      -151.8956
  21   1.0000      -5.580180      -151.8444
  22   1.0000      -5.578797      -151.8068
  23   1.0000      -5.577796      -151.7796
  24   1.0000      -5.575711      -151.7228
  25   1.0000      -5.573896      -151.6734
  26   1.0000      -5.573592      -151.6651
  27   1.0000      -5.572395      -151.6326
  28   1.0000      -5.571949      -151.6204
  29   1.0000      -5.571726      -151.6144
  30   1.0000      -5.570283      -151.5751
  31   1.0000      -5.569654      -151.5580
  32   1.0000      -2.375065       -64.6288
  33   1.0000      -1.417756       -38.5791
  34   1.0000      -1.403143       -38.1815
  35   1.0000      -1.402709       -38.1696
  36   1.0000      -0.587280       -15.9807
  37   1.0000      -0.572605       -15.5814
  38   1.0000      -0.551565       -15.0088
  39   1.0000      -0.491951       -13.3867
  40   1.0000      -0.469357       -12.7719
  41   1.0000      -0.405523       -11.0348
  42   1.0000      -0.397932       -10.8283
  43   1.0000      -0.364530        -9.9194
  44   1.0000      -0.329786        -8.9739
  45   1.0000      -0.310252        -8.4424
  46   1.0000      -0.302755        -8.2384
  47   1.0000      -0.221301        -6.0219
  48   1.0000      -0.207625        -5.6498
  49   1.0000      -0.198960        -5.4140
  50   1.0000      -0.198455        -5.4002
  51   1.0000      -0.162264        -4.4154
  52   1.0000      -0.159077        -4.3287
  53   1.0000      -0.131829        -3.5872
  54   1.0000      -0.112330        -3.0567
  55   1.0000      -0.106296        -2.8925
  56   1.0000      -0.102851        -2.7987
  57   1.0000      -0.082456        -2.2437
  58   1.0000      -0.069776        -1.8987
  59   1.0000      -0.063772        -1.7353
  60   1.0000      -0.057501        -1.5647
  61   1.0000      -0.046501        -1.2654
  62   1.0000      -0.041784        -1.1370
  63   1.0000      -0.036388        -0.9902
  64   1.0000      -0.001637        -0.0445
  65   1.0000       0.025914         0.7052
  66   1.0000       0.029275         0.7966
  67   1.0000       0.037132         1.0104
  68   1.0000       0.044526         1.2116
  69   1.0000       0.053228         1.4484
  70   1.0000       0.063753         1.7348
  71   1.0000       0.072924         1.9844
  72   1.0000       0.080031         2.1777
  73   0.0000       0.234385         6.3780
  74   0.0000       0.246396         6.7048
  75   0.0000       0.250536         6.8174
  76   0.0000       0.251763         6.8508
  77   0.0000       0.254826         6.9342

                 SPIN DOWN ORBITALS
  NO   OCC          E(Eh)            E(eV)
   0   1.0000    -196.607225     -5349.9546
   1   1.0000     -88.563077     -2409.9238
   2   1.0000     -88.561120     -2409.8706
   3   1.0000     -88.559146     -2409.8169
   4   1.0000     -88.558222     -2409.7917
   5   1.0000     -21.967377      -597.7627
   6   1.0000     -18.828309      -512.3443
   7   1.0000     -18.485022      -503.0030
   8   1.0000     -18.466995      -502.5125
   9   1.0000     -18.466465      -502.4981
  10   1.0000      -9.943001      -270.5628
  11   1.0000      -9.942434      -270.5474
  12   1.0000      -9.935309      -270.3535
  13   1.0000      -9.935210      -270.3508
  14   1.0000      -9.933976      -270.3172
  15   1.0000      -9.929002      -270.1819
  16   1.0000      -7.616877      -207.2657
  17   1.0000      -7.614930      -207.2128
  18   1.0000      -7.613460      -207.1728
  19   1.0000      -7.612523      -207.1473
  20   1.0000      -5.582215      -151.8998
  21   1.0000      -5.580346      -151.8489
  22   1.0000      -5.578920      -151.8101
  23   1.0000      -5.577812      -151.7800
  24   1.0000      -5.576135      -151.7343
  25   1.0000      -5.574045      -151.6775
  26   1.0000      -5.574011      -151.6766
  27   1.0000      -5.572802      -151.6436
  28   1.0000      -5.572083      -151.6241
  29   1.0000      -5.572059      -151.6234
  30   1.0000      -5.570211      -151.5732
  31   1.0000      -5.569181      -151.5451
  32   1.0000      -2.330131       -63.4061
  33   1.0000      -1.398741       -38.0617
  34   1.0000      -1.341581       -36.5063
  35   1.0000      -1.339714       -36.4555
  36   1.0000      -0.594746       -16.1839
  37   1.0000      -0.572435       -15.5768
  38   1.0000      -0.551468       -15.0062
  39   1.0000      -0.491776       -13.3819
  40   1.0000      -0.469306       -12.7705
  41   1.0000      -0.405457       -11.0330
  42   1.0000      -0.398068       -10.8320
  43   1.0000      -0.364931        -9.9303
  44   1.0000      -0.330206        -8.9854
  45   1.0000      -0.310116        -8.4387
  46   1.0000      -0.302779        -8.2390
  47   1.0000      -0.221221        -6.0197
  48   1.0000      -0.207565        -5.6481
  49   1.0000      -0.198814        -5.4100
  50   1.0000      -0.198330        -5.3968
  51   1.0000      -0.162047        -4.4095
  52   1.0000      -0.158970        -4.3258
  53   1.0000      -0.131538        -3.5793
  54   1.0000      -0.112319        -3.0564
  55   1.0000      -0.106128        -2.8879
  56   1.0000      -0.102781        -2.7968
  57   1.0000      -0.081336        -2.2133
  58   1.0000      -0.067636        -1.8405
  59   1.0000      -0.062793        -1.7087
  60   1.0000      -0.057329        -1.5600
  61   1.0000      -0.047372        -1.2891
  62   1.0000      -0.042798        -1.1646
  63   1.0000      -0.037642        -1.0243
  64   1.0000       0.002922         0.0795
  65   1.0000       0.026906         0.7321
  66   1.0000       0.032343         0.8801
  67   1.0000       0.044453         1.2096
  68   1.0000       0.046577         1.2674
  69   1.0000       0.061953         1.6858
  70   1.0000       0.066585         1.8119
  71   1.0000       0.073902         2.0110
  72   0.0000       0.233149         6.3443
  73   0.0000       0.249204         6.7812
  74   0.0000       0.255294         6.9469
  75   0.0000       0.259301         7.0559
  76   0.0000       0.264844         7.2068

MULLIKEN ATOMIC CHARGES AND SPIN POPULATIONS
--------------------------------------------
   0 V :    0.529499    1.191786
   1 S :   -0.427590   -0.001212
   2 S :   -0.353178   -0.033033
   3 S :   -0.423294   -0.029740
   4 S :   -0.384713   -0.021744
   5 O :   -0.546232   -0.134608
   6 C :   -0.246169    0.005663
   7 C :   -0.235581    0.006470
   8 C :   -0.158356    0.003145
   9 H :    0.075481   -0.000927
  10 H :    0.051378    0.002150
  11 H :    0.138437    0.000564
  12 H :    0.005641   -0.000058
  13 H :    0.094671   -0.000133
  14 H :    0.048974   -0.000047
  15 C :   -0.278585   -0.001750
  16 C :   -0.190705    0.000379
  17 C :   -0.074095    0.008931
  18 H :   -0.016076   -0.000675
  19 H :    0.171882    0.003418
  20 H :    0.008339    0.001539
  21 H :    0.017046   -0.000100
  22 H :    0.056650   -0.000572
  23 H :    0.136580    0.000555
Sum of atomic charges         :   -2.0000000

LOEWDIN ATOMIC CHARGES AND SPIN POPULATIONS
-------------------------------------------
   0 V :   -0.204774    1.148581
   1 S :   -0.068885    0.004233
   2 S :   -0.038299   -0.022636
   3 S :   -0.046492   -0.020585
   4 S :   -0.063010   -0.012718
   5 O :   -0.375967   -0.121361
   6 C :   -0.326429    0.005184
   7 C :   -0.313986    0.007009
   8 C :   -0.187390    0.000476
   9 H :    0.036151   -0.000004
  10 H :    0.029116    0.000626
  11 H :    0.070059    0.000316
  12 H :    0.031515    0.000145
  13 H :    0.045181   -0.000069
  14 H :    0.027613   -0.000535
  15 C :   -0.319305    0.002651
  16 C :   -0.108139    0.006664
  17 C :   -0.159357    0.001078
  18 H :    0.050462   -0.000499
  19 H :   -0.239992    0.000677
  20 H :    0.040247    0.000619
  21 H :    0.032775    0.000337
  22 H :    0.029163   -0.000584
  23 H :    0.059743    0.000395

  Mayer bond orders larger than 0.100000
B(  0-V ,  1-S ) :   0.7171 B(  0-V ,  2-S ) :   0.8584 B(  0-V ,  3-S ) :   0.7690
B(  0-V ,  4-S ) :   0.7759 B(  0-V ,  5-O ) :   2.0726 B(  1-S , 15-C ) :   1.0297
B(  2-S ,  6-C ) :   1.0111 B(  3-S , 16-C ) :   0.9761 B(  4-S ,  7-C ) :   1.0707
B(  6-C ,  8-C ) :   0.9013 B(  6-C , 13-H ) :   0.9742 B(  6-C , 14-H ) :   0.9682
B(  7-C ,  8-C ) :   0.9198 B(  7-C ,  9-H ) :   0.9768 B(  7-C , 10-H ) :   0.9689
B(  8-C , 11-H ) :   0.9881 B(  8-C , 12-H ) :   0.9452 B( 15-C , 17-C ) :   0.8997
B( 15-C , 22-H ) :   0.9681 B( 15-C , 23-H ) :   0.9788 B( 16-C , 17-C ) :   0.9104
B( 16-C , 18-H ) :   0.9749 B( 16-C , 19-H ) :   1.0311 B( 17-C , 20-H ) :   0.9542
B( 17-C , 21-H ) :   0.9668

FINAL SINGLE POINT ENERGY     -2847.036025576462

DIPOLE MOMENT
-------------
                                X             Y             Z
Electronic contribution:      1.29529       3.62200      -5.38631
Nuclear contribution   :     -1.09571      -3.90089       5.73034
                        -----------------------------------------
Total Dipole Moment    :      0.19958      -0.27889       0.34403
                        -----------------------------------------
Magnitude (a.u.)       :      0.48576
Magnitude (Debye)      :      1.23471

Rotational constants in cm-1:     0.027231     0.011728     0.009599
Rotational constants in MHz :   816.370177   351.602296   287.778243

                             ****ORCA TERMINATED NORMALLY****
TOTAL RUN TIME: 0 days 0 hours 9 minutes 33 seconds 652 msec
