                         Program Version 5.0.4 -  RELEASE  -
|  1> ! nofrozencore ReducedPop printbasis
|  2> ! B3LYP TZVP
|  3>
|  4> %basis
|  5> newgto V "CP(PPP)" end
|  6> end
|  7>
|  8> %pal
|  9> nprocs 8
| 10> end
| 11>
| 12> % sym SymThresh 1e-2 end
| 13> * xyz -2 2
| 14> V 0.045077623043438514 0.33942280577185074 -0.30447606518857634
| 15> S -1.0241563878714102 1.5437077817609253 1.6492239043950183
| 16> S 1.9265206727526052 0.21836634477552108 1.2630242428691651
| 17> S -2.120139033187953 -0.8012826282037835 -0.7303626814218335
| 18> S 0.907502260570847 -1.6742921977295953 -1.4808473136828133
| 19> O 0.28153533991042756 1.5403314961794918 -1.338261528717376
| 20> C 3.3366667238836563 -0.6298098228750946 0.39921050402958236
| 21> C 2.650592658125722 -1.297151935005661 -1.9899876947866006
| 22> C 3.435353063363505 -0.32377290121585706 -1.102337472356922
| 23> H 2.6401702801233644 -0.9074502954062269 -3.016121228470345
| 24> H 3.181187695248164 -2.2587736150455373 -2.0156725730288607
| 25> H 3.0814980236965104 0.6970217538189188 -1.2767802791352538
| 26> H 4.494815224973896 -0.35657854680464995 -1.421039926439628
| 27> H 3.2507001219697185 -1.7142231199773272 0.5457890403070189
| 28> H 4.252520619195104 -0.2964442922690715 0.9063254868575512
| 29> C -2.2498418561908466 0.3015087449892974 2.272999929484315
| 30> C -3.404110231089528 0.3355133137251907 -0.03031675745754832
| 31> C -3.5728846481899263 0.2708074817862298 1.4922382051925716
| 32> H -4.361678890962376 0.0949633478642864 -0.5115254617872148
| 33> H -3.132985943460137 1.354725813182544 -0.3116657851675265
| 34> H -4.120351776116227 -0.6482047344800331 1.7655600169429317
| 35> H -4.200440980266487 1.1235100596011292 1.8033226972175511
| 36> H -2.454338634585802 0.5217478622590238 3.327726133563524
| 37> H -1.7842543520586391 -0.6851476986026707 2.2308336961881023
| 38> *
| 39>
| 40> % eprnmr
| 41> gtensor true
| 42> Nuclei = all H {aiso,adip,aorb,fgrad,rho}
| 43> Nuclei = all V {aiso,adip,aorb,fgrad,rho}
| 44> end
| 45>
| 46>                          ****END OF INPUT****

CARTESIAN COORDINATES (ANGSTROEM)
---------------------------------
  V      0.044869    0.340031   -0.304872
  S     -1.024365    1.544316    1.648828
  S      1.926312    0.218975    1.262629
  S     -2.120348   -0.800674   -0.730758
  S      0.907294   -1.673684   -1.481243
  O      0.281327    1.540940   -1.338657
  C      3.336458   -0.629201    0.398815
  C      2.650384   -1.296544   -1.990383
  C      3.435144   -0.323164   -1.102733
  H      2.639962   -0.906842   -3.016517
  H      3.180979   -2.258165   -2.016068
  H      3.081289    0.697630   -1.277176
  H      4.494607   -0.355970   -1.421436
  H      3.250491   -1.713615    0.545393
  H      4.252312   -0.295836    0.905930
  C     -2.250050    0.302117    2.272604
  C     -3.404319    0.336122   -0.030712
  C     -3.573093    0.271416    1.491843
  H     -4.361888    0.095572   -0.511921
  H     -3.133195    1.355334   -0.312061
  H     -4.120560   -0.647596    1.765164
  H     -4.200650    1.124118    1.802927
  H     -2.454547    0.522356    3.327330
  H     -1.784463   -0.684539    2.230438

 Total Charge           Charge          ....   -2
 Multiplicity           Mult            ....    2
 Number of Electrons    NEL             ....  145
 Basis Dimension        Dim             ....  353

ORBITAL ENERGIES
----------------
                 SPIN UP ORBITALS
  NO   OCC          E(Eh)            E(eV)
   0   1.0000    -196.607116     -5349.9516
   1   1.0000     -88.561289     -2409.8752
   2   1.0000     -88.560006     -2409.8403
   3   1.0000     -88.559149     -2409.8169
   4   1.0000     -88.557824     -2409.7809
   5   1.0000     -21.982426      -598.1722
   6   1.0000     -18.825002      -512.2543
   7   1.0000     -18.490232      -503.1448
   8   1.0000     -18.483030      -502.9488
   9   1.0000     -18.482944      -502.9465
  10   1.0000      -9.942941      -270.5612
  11   1.0000      -9.935915      -270.3700
  12   1.0000      -9.934921      -270.3429
  13   1.0000      -9.934761      -270.3386
  14   1.0000      -9.932775      -270.2845
  15   1.0000      -9.929124      -270.1852
  16   1.0000      -7.615420      -207.2261
  17   1.0000      -7.613803      -207.1821
  18   1.0000      -7.613446      -207.1724
  19   1.0000      -7.612034      -207.1340
  20   1.0000      -5.580642      -151.8570
  21   1.0000      -5.579231      -151.8186
  22   1.0000      -5.578881      -151.8091
  23   1.0000      -5.577294      -151.7659
  24   1.0000      -5.574439      -151.6882
  25   1.0000      -5.572651      -151.6396
  26   1.0000      -5.572622      -151.6388
  27   1.0000      -5.572492      -151.6352
  28   1.0000      -5.571245      -151.6013
  29   1.0000      -5.570972      -151.5939
  30   1.0000      -5.570376      -151.5776
  31   1.0000      -5.569093      -151.5427
  32   1.0000      -2.375063       -64.6287
  33   1.0000      -1.417867       -38.5821
  34   1.0000      -1.403070       -38.1795
  35   1.0000      -1.402682       -38.1689
  36   1.0000      -0.587551       -15.9881
  37   1.0000      -0.550529       -14.9807
  38   1.0000      -0.550037       -14.9673
  39   1.0000      -0.468586       -12.7509
  40   1.0000      -0.465096       -12.6559
  41   1.0000      -0.403584       -10.9821
  42   1.0000      -0.396263       -10.7829
  43   1.0000      -0.337530        -9.1847
  44   1.0000      -0.327024        -8.8988
  45   1.0000      -0.304749        -8.2927
  46   1.0000      -0.285877        -7.7791
  47   1.0000      -0.213532        -5.8105
  48   1.0000      -0.206814        -5.6277
  49   1.0000      -0.202502        -5.5104
  50   1.0000      -0.196937        -5.3589
  51   1.0000      -0.160639        -4.3712
  52   1.0000      -0.133660        -3.6371
  53   1.0000      -0.131560        -3.5799
  54   1.0000      -0.111627        -3.0375
  55   1.0000      -0.107523        -2.9259
  56   1.0000      -0.105726        -2.8770
  57   1.0000      -0.081438        -2.2160
  58   1.0000      -0.069915        -1.9025
  59   1.0000      -0.063686        -1.7330
  60   1.0000      -0.055206        -1.5022
  61   1.0000      -0.045880        -1.2485
  62   1.0000      -0.041355        -1.1253
  63   1.0000      -0.036770        -1.0006
  64   1.0000      -0.000595        -0.0162
  65   1.0000       0.027639         0.7521
  66   1.0000       0.030204         0.8219
  67   1.0000       0.037024         1.0075
  68   1.0000       0.045159         1.2288
  69   1.0000       0.054347         1.4789
  70   1.0000       0.064807         1.7635
  71   1.0000       0.073667         2.0046
  72   1.0000       0.080533         2.1914
  73   0.0000       0.235328         6.4036
  74   0.0000       0.245530         6.6812
  75   0.0000       0.251176         6.8349
  76   0.0000       0.251802         6.8519
  77   0.0000       0.258567         7.0360

                 SPIN DOWN ORBITALS
  NO   OCC          E(Eh)            E(eV)
   0   1.0000    -196.607258     -5349.9555
   1   1.0000     -88.561447     -2409.8795
   2   1.0000     -88.560180     -2409.8450
   3   1.0000     -88.559250     -2409.8197
   4   1.0000     -88.557817     -2409.7807
   5   1.0000     -21.967369      -597.7625
   6   1.0000     -18.828478      -512.3489
   7   1.0000     -18.485026      -503.0031
   8   1.0000     -18.466984      -502.5122
   9   1.0000     -18.466454      -502.4977
  10   1.0000      -9.942766      -270.5564
  11   1.0000      -9.935780      -270.3663
  12   1.0000      -9.934852      -270.3411
  13   1.0000      -9.934586      -270.3338
  14   1.0000      -9.932733      -270.2834
  15   1.0000      -9.929143      -270.1857
  16   1.0000      -7.615571      -207.2302
  17   1.0000      -7.613972      -207.1867
  18   1.0000      -7.613542      -207.1750
  19   1.0000      -7.612030      -207.1339
  20   1.0000      -5.580793      -151.8611
  21   1.0000      -5.579396      -151.8231
  22   1.0000      -5.579001      -151.8123
  23   1.0000      -5.577326      -151.7668
  24   1.0000      -5.574861      -151.6997
  25   1.0000      -5.573104      -151.6519
  26   1.0000      -5.572901      -151.6463
  27   1.0000      -5.572734      -151.6418
  28   1.0000      -5.571592      -151.6107
  29   1.0000      -5.571095      -151.5972
  30   1.0000      -5.570290      -151.5753
  31   1.0000      -5.568687      -151.5317
  32   1.0000      -2.330116       -63.4057
  33   1.0000      -1.398849       -38.0646
  34   1.0000      -1.341508       -36.5043
  35   1.0000      -1.339638       -36.4534
  36   1.0000      -0.594986       -16.1904
  37   1.0000      -0.550428       -14.9779
  38   1.0000      -0.549886       -14.9631
  39   1.0000      -0.468527       -12.7493
  40   1.0000      -0.464975       -12.6526
  41   1.0000      -0.403643       -10.9837
  42   1.0000      -0.396411       -10.7869
  43   1.0000      -0.337700        -9.1893
  44   1.0000      -0.327431        -8.9099
  45   1.0000      -0.304712        -8.2916
  46   1.0000      -0.285905        -7.7799
  47   1.0000      -0.213468        -5.8088
  48   1.0000      -0.206750        -5.6260
  49   1.0000      -0.202377        -5.5070
  50   1.0000      -0.196775        -5.3545
  51   1.0000      -0.160511        -4.3677
  52   1.0000      -0.133488        -3.6324
  53   1.0000      -0.131299        -3.5728
  54   1.0000      -0.111617        -3.0373
  55   1.0000      -0.107460        -2.9241
  56   1.0000      -0.105564        -2.8726
  57   1.0000      -0.080298        -2.1850
  58   1.0000      -0.067646        -1.8407
  59   1.0000      -0.062793        -1.7087
  60   1.0000      -0.055280        -1.5043
  61   1.0000      -0.047060        -1.2806
  62   1.0000      -0.042253        -1.1498
  63   1.0000      -0.037613        -1.0235
  64   1.0000       0.004068         0.1107
  65   1.0000       0.028733         0.7819
  66   1.0000       0.033134         0.9016
  67   1.0000       0.044816         1.2195
  68   1.0000       0.047277         1.2865
  69   1.0000       0.061547         1.6748
  70   1.0000       0.068776         1.8715
  71   1.0000       0.074875         2.0374
  72   0.0000       0.233450         6.3525
  73   0.0000       0.251275         6.8375
  74   0.0000       0.255322         6.9477
  75   0.0000       0.261455         7.1146
  76   0.0000       0.265480         7.2241

MULLIKEN ATOMIC CHARGES AND SPIN POPULATIONS
--------------------------------------------
   0 V :    0.526136    1.192956
   1 S :   -0.424196   -0.004290
   2 S :   -0.354255   -0.032558
   3 S :   -0.411962   -0.029004
   4 S :   -0.384719   -0.021479
   5 O :   -0.544642   -0.134218
   6 C :   -0.243697    0.006026
   7 C :   -0.234561    0.006260
   8 C :   -0.159298    0.003008
   9 H :    0.075056   -0.000882
  10 H :    0.051091    0.002140
  11 H :    0.142067    0.000700
  12 H :    0.005065   -0.000025
  13 H :    0.091140   -0.000105
  14 H :    0.048684   -0.000081
  15 C :   -0.257178   -0.001625
  16 C :   -0.253527    0.003684
  17 C :   -0.067775    0.008207
  18 H :    0.047126    0.000126
  19 H :    0.133851   -0.000421
  20 H :    0.013934    0.001610
  21 H :    0.012894    0.000183
  22 H :    0.052108   -0.000611
  23 H :    0.136658    0.000400
Sum of atomic charges         :   -2.0000000

LOEWDIN ATOMIC CHARGES AND SPIN POPULATIONS
-------------------------------------------
   0 V :   -0.208399    1.149428
   1 S :   -0.072860    0.001419
   2 S :   -0.042008   -0.022254
   3 S :   -0.062157   -0.020177
   4 S :   -0.062961   -0.012284
   5 O :   -0.375717   -0.120815
   6 C :   -0.325743    0.005331
   7 C :   -0.313489    0.006783
   8 C :   -0.187568    0.000492
   9 H :    0.036390   -0.000012
  10 H :    0.029128    0.000642
  11 H :    0.071611    0.000344
  12 H :    0.031588    0.000148
  13 H :    0.044544   -0.000037
  14 H :    0.027876   -0.000553
  15 C :   -0.318159    0.003175
  16 C :   -0.324012    0.007275
  17 C :   -0.188993    0.001079
  18 H :    0.028557   -0.000148
  19 H :    0.055391   -0.000575
  20 H :    0.035872    0.000655
  21 H :    0.035364    0.000407
  22 H :    0.029998   -0.000609
  23 H :    0.055746    0.000288

  Mayer bond orders larger than 0.100000
B(  0-V ,  1-S ) :   0.7133 B(  0-V ,  2-S ) :   0.8548 B(  0-V ,  3-S ) :   0.7675
B(  0-V ,  4-S ) :   0.7794 B(  0-V ,  5-O ) :   2.0735 B(  1-S , 15-C ) :   1.0275
B(  2-S ,  6-C ) :   1.0129 B(  3-S , 16-C ) :   1.0217 B(  4-S ,  7-C ) :   1.0690
B(  6-C ,  8-C ) :   0.9029 B(  6-C , 13-H ) :   0.9734 B(  6-C , 14-H ) :   0.9683
B(  7-C ,  8-C ) :   0.9195 B(  7-C ,  9-H ) :   0.9766 B(  7-C , 10-H ) :   0.9684
B(  8-C , 11-H ) :   0.9871 B(  8-C , 12-H ) :   0.9442 B( 15-C , 17-C ) :   0.8957
B( 15-C , 22-H ) :   0.9677 B( 15-C , 23-H ) :   0.9796 B( 16-C , 17-C ) :   0.9033
B( 16-C , 18-H ) :   0.9636 B( 16-C , 19-H ) :   0.9772 B( 17-C , 20-H ) :   0.9572
B( 17-C , 21-H ) :   0.9589

FINAL SINGLE POINT ENERGY     -2847.718006740447

DIPOLE MOMENT
-------------
                                X             Y             Z
Electronic contribution:     -0.38378       4.13900      -3.17427
Nuclear contribution   :      0.59785      -4.40668       3.26654
                        -----------------------------------------
Total Dipole Moment    :      0.21407      -0.26768       0.09227
                        -----------------------------------------
Magnitude (a.u.)       :      0.35495
Magnitude (Debye)      :      0.90221

Rotational constants in cm-1:     0.027417     0.011670     0.009513
Rotational constants in MHz :   821.950466   349.852728   285.197053

                             ****ORCA TERMINATED NORMALLY****
TOTAL RUN TIME: 0 days 0 hours 9 minutes 32 seconds 180 msec
