                         Program Version 5.0.4 -  RELEASE  -
|  1> ! nofrozencore ReducedPop printbasis
|  2> ! B3LYP TZVP
|  3>
|  4> %basis
|  5> newgto V "CP(PPP)" end
|  6> end
|  7>
|  8> %pal
|  9> nprocs 4
| 10> end
| 11>
| 12> % sym SymThresh 1e-2 end
| 13> * xyz -2 2
| 14> V -0.30968394681041894 -0.04040428573094046 0.3711977509838848
| 15> S 1.6636625186032974 1.021877864242403 1.52945945850909
| 16> S -0.35155309270988605 2.1198025088856327 -0.7732227287122968
| 17> S 0.9829493625419236 -2.1563176712046275 0.1943115478840057
| 18> S -1.5150588263420846 -1.078536764646482 -1.5421622543169198
| 19> O -1.400300982036826 -0.06677211599554812 1.583845748656787
| 20> C -1.7714086047255084 2.111734831425742 -1.9655109224600407
| 21> C -3.0690144377446997 -0.09813340087087176 -1.8052672808800645
| 22> C -3.023315367234776 1.3818324022133572 -1.4684864650654128
| 23> H -3.906027291290379 -0.5593733424432117 -1.2664512829302412
| 24> H -3.27779350657941 -0.2067539348858548 -2.877915275560431
| 25> H -3.05012297134329 1.4913295148436787 -0.3805231316531219
| 26> H -3.9419437838404345 1.8568122303218948 -1.8585038241862148
| 27> H -1.4160941809438552 1.6593380127251391 -2.897206414109692
| 28> H -2.0109022972216146 3.161368004179154 -2.171297817376084
| 29> C 3.100761092956585 0.255961910326739 0.7325953001689075
| 30> C 2.2506794497345637 -2.0225337563214367 1.586408363178858
| 31> C 3.467589914315484 -1.2033927143472494 1.138071948090934
| 32> H 2.5990101887202512 -3.081670192197273 1.5745508354890128
| 33> H 1.9919708014695348 -1.7248326380928458 2.6420988761088204
| 34> H 4.359414162177601 -1.7193055235477677 0.6383571517610683
| 35> H 3.7898948960835717 -0.9484798349299409 2.2187015846656717
| 36> H 4.0286268395083065 0.8707606978721538 0.6017291670797682
| 37> H 2.58160803541355 0.23667444770839016 -0.26381404282395315
| 38> *
| 39>
| 40> % eprnmr
| 41> gtensor true
| 42> Nuclei = all H {aiso,adip,aorb,fgrad,rho}
| 43> Nuclei = all V {aiso,adip,aorb,fgrad,rho}
| 44> end
| 45>
| 46>                          ****END OF INPUT****

CARTESIAN COORDINATES (ANGSTROEM)
---------------------------------
  V     -0.309912   -0.040550    0.371902
  S      1.663434    1.021732    1.530164
  S     -0.351781    2.119656   -0.772518
  S      0.982721   -2.156464    0.195016
  S     -1.515287   -1.078683   -1.541458
  O     -1.400529   -0.066918    1.584550
  C     -1.771637    2.111589   -1.964806
  C     -3.069243   -0.098280   -1.804563
  C     -3.023543    1.381686   -1.467782
  H     -3.906255   -0.559519   -1.265747
  H     -3.278022   -0.206900   -2.877211
  H     -3.050351    1.491183   -0.379818
  H     -3.942172    1.856666   -1.857799
  H     -1.416322    1.659192   -2.896502
  H     -2.011130    3.161222   -2.170593
  C      3.100533    0.255816    0.733300
  C      2.250451   -2.022680    1.587113
  C      3.467362   -1.203539    1.138777
  H      2.598782   -3.081816    1.575256
  H      1.991743   -1.724979    2.642804
  H      4.359186   -1.719452    0.639062
  H      3.789667   -0.948626    2.219406
  H      4.028399    0.870615    0.602434
  H      2.581380    0.236528   -0.263109

 Total Charge           Charge          ....   -2
 Multiplicity           Mult            ....    2
 Number of Electrons    NEL             ....  145
 Basis Dimension        Dim             ....  353

ORBITAL ENERGIES
----------------
                 SPIN UP ORBITALS
  NO   OCC          E(Eh)            E(eV)
   0   1.0000    -196.610626     -5350.0471
   1   1.0000     -88.565666     -2409.9943
   2   1.0000     -88.563176     -2409.9265
   3   1.0000     -88.561026     -2409.8680
   4   1.0000     -88.560518     -2409.8542
   5   1.0000     -21.985792      -598.2638
   6   1.0000     -18.821991      -512.1724
   7   1.0000     -18.493599      -503.2364
   8   1.0000     -18.486432      -503.0414
   9   1.0000     -18.486307      -503.0380
  10   1.0000      -9.946791      -270.6659
  11   1.0000      -9.943170      -270.5674
  12   1.0000      -9.942913      -270.5604
  13   1.0000      -9.938288      -270.4346
  14   1.0000      -9.936652      -270.3901
  15   1.0000      -9.929159      -270.1861
  16   1.0000      -7.619246      -207.3302
  17   1.0000      -7.617136      -207.2728
  18   1.0000      -7.615307      -207.2230
  19   1.0000      -7.615226      -207.2208
  20   1.0000      -5.584588      -151.9644
  21   1.0000      -5.582493      -151.9073
  22   1.0000      -5.580688      -151.8582
  23   1.0000      -5.580561      -151.8548
  24   1.0000      -5.578220      -151.7911
  25   1.0000      -5.576420      -151.7421
  26   1.0000      -5.575919      -151.7285
  27   1.0000      -5.574354      -151.6859
  28   1.0000      -5.574329      -151.6852
  29   1.0000      -5.574266      -151.6835
  30   1.0000      -5.572401      -151.6327
  31   1.0000      -5.572141      -151.6257
  32   1.0000      -2.377247       -64.6882
  33   1.0000      -1.417249       -38.5653
  34   1.0000      -1.405730       -38.2518
  35   1.0000      -1.405364       -38.2419
  36   1.0000      -0.582859       -15.8604
  37   1.0000      -0.554368       -15.0851
  38   1.0000      -0.549194       -14.9443
  39   1.0000      -0.471501       -12.8302
  40   1.0000      -0.466744       -12.7007
  41   1.0000      -0.404351       -11.0030
  42   1.0000      -0.397038       -10.8039
  43   1.0000      -0.337554        -9.1853
  44   1.0000      -0.329012        -8.9529
  45   1.0000      -0.305132        -8.3031
  46   1.0000      -0.278472        -7.5776
  47   1.0000      -0.217165        -5.9094
  48   1.0000      -0.209764        -5.7080
  49   1.0000      -0.200067        -5.4441
  50   1.0000      -0.192416        -5.2359
  51   1.0000      -0.163917        -4.4604
  52   1.0000      -0.138710        -3.7745
  53   1.0000      -0.122708        -3.3390
  54   1.0000      -0.114991        -3.1291
  55   1.0000      -0.105906        -2.8818
  56   1.0000      -0.100443        -2.7332
  57   1.0000      -0.078053        -2.1239
  58   1.0000      -0.076286        -2.0758
  59   1.0000      -0.058303        -1.5865
  60   1.0000      -0.048176        -1.3109
  61   1.0000      -0.039633        -1.0785
  62   1.0000      -0.033729        -0.9178
  63   1.0000      -0.032678        -0.8892
  64   1.0000      -0.001619        -0.0440
  65   1.0000       0.025266         0.6875
  66   1.0000       0.029180         0.7940
  67   1.0000       0.034452         0.9375
  68   1.0000       0.046060         1.2534
  69   1.0000       0.053162         1.4466
  70   1.0000       0.062576         1.7028
  71   1.0000       0.071605         1.9485
  72   1.0000       0.079214         2.1555
  73   0.0000       0.229480         6.2445
  74   0.0000       0.241438         6.5699
  75   0.0000       0.246006         6.6942
  76   0.0000       0.251128         6.8336
  77   0.0000       0.254762         6.9324

                 SPIN DOWN ORBITALS
  NO   OCC          E(Eh)            E(eV)
   0   1.0000    -196.610765     -5350.0509
   1   1.0000     -88.565840     -2409.9990
   2   1.0000     -88.563359     -2409.9315
   3   1.0000     -88.561142     -2409.8712
   4   1.0000     -88.560505     -2409.8538
   5   1.0000     -21.970522      -597.8483
   6   1.0000     -18.825736      -512.2743
   7   1.0000     -18.488180      -503.0889
   8   1.0000     -18.470284      -502.6020
   9   1.0000     -18.469597      -502.5833
  10   1.0000      -9.946601      -270.6608
  11   1.0000      -9.943118      -270.5660
  12   1.0000      -9.942737      -270.5556
  13   1.0000      -9.938236      -270.4331
  14   1.0000      -9.936515      -270.3863
  15   1.0000      -9.929180      -270.1867
  16   1.0000      -7.619412      -207.3347
  17   1.0000      -7.617313      -207.2776
  18   1.0000      -7.615336      -207.2238
  19   1.0000      -7.615295      -207.2227
  20   1.0000      -5.584750      -151.9688
  21   1.0000      -5.582664      -151.9120
  22   1.0000      -5.580817      -151.8618
  23   1.0000      -5.580584      -151.8554
  24   1.0000      -5.578685      -151.8037
  25   1.0000      -5.576544      -151.7455
  26   1.0000      -5.576385      -151.7412
  27   1.0000      -5.574704      -151.6954
  28   1.0000      -5.574677      -151.6947
  29   1.0000      -5.574497      -151.6898
  30   1.0000      -5.572078      -151.6239
  31   1.0000      -5.571973      -151.6211
  32   1.0000      -2.331624       -63.4467
  33   1.0000      -1.397347       -38.0237
  34   1.0000      -1.343713       -36.5643
  35   1.0000      -1.341561       -36.5057
  36   1.0000      -0.591223       -16.0880
  37   1.0000      -0.554284       -15.0828
  38   1.0000      -0.549027       -14.9398
  39   1.0000      -0.471467       -12.8293
  40   1.0000      -0.466605       -12.6970
  41   1.0000      -0.404511       -11.0073
  42   1.0000      -0.397182       -10.8079
  43   1.0000      -0.337783        -9.1916
  44   1.0000      -0.329428        -8.9642
  45   1.0000      -0.305137        -8.3032
  46   1.0000      -0.278448        -7.5770
  47   1.0000      -0.217057        -5.9064
  48   1.0000      -0.209699        -5.7062
  49   1.0000      -0.199880        -5.4390
  50   1.0000      -0.192352        -5.2342
  51   1.0000      -0.163809        -4.4575
  52   1.0000      -0.138585        -3.7711
  53   1.0000      -0.122257        -3.3268
  54   1.0000      -0.114992        -3.1291
  55   1.0000      -0.105626        -2.8742
  56   1.0000      -0.100356        -2.7308
  57   1.0000      -0.077254        -2.1022
  58   1.0000      -0.074279        -2.0212
  59   1.0000      -0.057771        -1.5720
  60   1.0000      -0.047762        -1.2997
  61   1.0000      -0.040808        -1.1104
  62   1.0000      -0.036208        -0.9853
  63   1.0000      -0.032892        -0.8950
  64   1.0000       0.002801         0.0762
  65   1.0000       0.026262         0.7146
  66   1.0000       0.032174         0.8755
  67   1.0000       0.043415         1.1814
  68   1.0000       0.046751         1.2722
  69   1.0000       0.060149         1.6367
  70   1.0000       0.067935         1.8486
  71   1.0000       0.072363         1.9691
  72   0.0000       0.231931         6.3112
  73   0.0000       0.246823         6.7164
  74   0.0000       0.253987         6.9113
  75   0.0000       0.257206         6.9989
  76   0.0000       0.261681         7.1207

MULLIKEN ATOMIC CHARGES AND SPIN POPULATIONS
--------------------------------------------
   0 V :    0.507565    1.208791
   1 S :   -0.403040   -0.003281
   2 S :   -0.352997   -0.034019
   3 S :   -0.414886   -0.031945
   4 S :   -0.380742   -0.023770
   5 O :   -0.554518   -0.144882
   6 C :   -0.245845    0.006048
   7 C :   -0.233835    0.006432
   8 C :   -0.160690    0.002704
   9 H :    0.074836   -0.000970
  10 H :    0.051536    0.001978
  11 H :    0.141299    0.000707
  12 H :    0.008536   -0.000028
  13 H :    0.097149   -0.000152
  14 H :    0.050290   -0.000101
  15 C :   -0.286767   -0.002680
  16 C :   -0.203468    0.002006
  17 C :   -0.079055    0.009746
  18 H :    0.038220   -0.000105
  19 H :    0.113095    0.000575
  20 H :    0.039939    0.003074
  21 H :   -0.012553    0.000473
  22 H :    0.052628   -0.000992
  23 H :    0.153303    0.000390
Sum of atomic charges         :   -2.0000000

LOEWDIN ATOMIC CHARGES AND SPIN POPULATIONS
-------------------------------------------
   0 V :   -0.207222    1.164013
   1 S :   -0.042171    0.002450
   2 S :   -0.033681   -0.023419
   3 S :   -0.064205   -0.022846
   4 S :   -0.060090   -0.014425
   5 O :   -0.398379   -0.131186
   6 C :   -0.325941    0.005382
   7 C :   -0.312379    0.006788
   8 C :   -0.189084    0.000396
   9 H :    0.036416   -0.000038
  10 H :    0.029290    0.000552
  11 H :    0.071416    0.000378
  12 H :    0.032597    0.000167
  13 H :    0.045736   -0.000097
  14 H :    0.028448   -0.000572
  15 C :   -0.348473    0.002497
  16 C :   -0.319296    0.007854
  17 C :   -0.208410    0.001393
  18 H :    0.032577   -0.000227
  19 H :    0.057284   -0.000440
  20 H :    0.043105    0.000954
  21 H :    0.041287    0.000780
  22 H :    0.031946   -0.000866
  23 H :    0.059230    0.000512

  Mayer bond orders larger than 0.100000
B(  0-V ,  1-S ) :   0.7195 B(  0-V ,  2-S ) :   0.8675 B(  0-V ,  3-S ) :   0.7752
B(  0-V ,  4-S ) :   0.7858 B(  0-V ,  5-O ) :   2.0572 B(  1-S , 15-C ) :   0.9985
B(  2-S ,  6-C ) :   1.0091 B(  3-S , 16-C ) :   0.9983 B(  4-S ,  7-C ) :   1.0673
B(  6-C ,  8-C ) :   0.8990 B(  6-C , 13-H ) :   0.9772 B(  6-C , 14-H ) :   0.9658
B(  7-C ,  8-C ) :   0.9205 B(  7-C ,  9-H ) :   0.9725 B(  7-C , 10-H ) :   0.9737
B(  8-C , 11-H ) :   0.9902 B(  8-C , 12-H ) :   0.9435 B( 15-C , 17-C ) :   0.8861
B( 15-C , 22-H ) :   0.9493 B( 15-C , 23-H ) :   0.9939 B( 16-C , 17-C ) :   0.9263
B( 16-C , 18-H ) :   0.9760 B( 16-C , 19-H ) :   0.9498 B( 17-C , 20-H ) :   0.9194
B( 17-C , 21-H ) :   0.9837

FINAL SINGLE POINT ENERGY     -2847.672870471951

DIPOLE MOMENT
-------------
                                X             Y             Z
Electronic contribution:     -3.07645      -1.02347       4.88205
Nuclear contribution   :      3.02665       1.15939      -5.46158
                        -----------------------------------------
Total Dipole Moment    :     -0.04979       0.13592      -0.57953
                        -----------------------------------------
Magnitude (a.u.)       :      0.59733
Magnitude (Debye)      :      1.51830

Rotational constants in cm-1:     0.027149     0.011710     0.009597
Rotational constants in MHz :   813.899007   351.045665   287.721672

                             ****ORCA TERMINATED NORMALLY****
TOTAL RUN TIME: 0 days 0 hours 14 minutes 29 seconds 677 msec
