                         Program Version 5.0.4 -  RELEASE  -
|  1> ! nofrozencore ReducedPop printbasis
|  2> ! B3LYP TZVP
|  3>
|  4> %basis
|  5> newgto V "CP(PPP)" end
|  6> end
|  7>
|  8> %pal
|  9> nprocs 4
| 10> end
| 11>
| 12> % sym SymThresh 1e-2 end
| 13> * xyz -2 2
| 14> V -0.4690842407543535 0.13538494600397405 0.05500748573978549
| 15> S -0.7124482440222111 -1.721929808317867 -1.6490194466855332
| 16> S 0.246439509836963 -1.7389135690888489 1.4682705040271018
| 17> S 0.550218633128628 1.5558461095646363 -1.7058782164986601
| 18> S 0.7877120515610248 1.7063401129965516 1.5063864361495816
| 19> O -2.00961606674625 0.4932773873027781 0.3286097717522641
| 20> C 0.609712948467198 -1.0352137863764757 3.1642104651057132
| 21> C 0.2120436747200157 1.5028477564669966 3.236184138635709
| 22> C -0.2807268196549281 0.02998454125934566 3.6149047050084038
| 23> H -0.6901994889737134 2.0733143735521438 3.6076269824776106
| 24> H 0.9159767111510022 1.6307936160320584 4.1346202275213955
| 25> H -1.232538180870187 -0.339711859501152 3.1751141561248595
| 26> H -0.47624220161303354 0.3567669103961988 4.71977695561889
| 27> H 1.660912387379926 -0.7349131321722574 3.0592116690884064
| 28> H 0.5977236028853743 -2.1045303064869527 3.576661710782509
| 29> C 0.8091795872230708 -1.4970508457796277 -2.6762610319051467
| 30> C -0.0332931643683494 0.8523011266322114 -3.3147789517379294
| 31> C 0.6805942912363548 -0.4268610980306574 -3.765934948881691
| 32> H 0.09326574008980164 1.6252336025848855 -4.082597270155784
| 33> H -1.098518405778623 0.6441491064337144 -3.215920006873498
| 34> H 1.6866269668113476 -0.17244406345111069 -4.135088117251097
| 35> H 0.12097368327560704 -0.8431280767982463 -4.619271185519012
| 36> H 1.0554923378550396 -2.4627899848126447 -3.1326728643699515
| 37> H 1.6304829786188146 -1.233059281248711 -2.0093068490894392
| 38> *
| 39>
| 40> % eprnmr
| 41> gtensor true
| 42> Nuclei = all H {aiso,adip,aorb,fgrad,rho}
| 43> Nuclei = all V {aiso,adip,aorb,fgrad,rho}
| 44> end
| 45>
| 46>                          ****END OF INPUT****

CARTESIAN COORDINATES (ANGSTROEM)
---------------------------------
  V     -0.469789    0.135555    0.054798
  S     -0.713153   -1.721760   -1.649229
  S      0.245734   -1.738743    1.468061
  S      0.549513    1.556016   -1.706088
  S      0.787007    1.706510    1.506177
  O     -2.010321    0.493447    0.328400
  C      0.609008   -1.035044    3.164001
  C      0.211338    1.503018    3.235975
  C     -0.281432    0.030155    3.614695
  H     -0.690905    2.073484    3.607418
  H      0.915272    1.630964    4.134411
  H     -1.233243   -0.339542    3.174905
  H     -0.476947    0.356937    4.719568
  H      1.660207   -0.734743    3.059002
  H      0.597018   -2.104360    3.576452
  C      0.808474   -1.496881   -2.676470
  C     -0.033998    0.852471   -3.314988
  C      0.679889   -0.426691   -3.766144
  H      0.092561    1.625404   -4.082807
  H     -1.099224    0.644319   -3.216129
  H      1.685922   -0.172274   -4.135298
  H      0.120269   -0.842958   -4.619481
  H      1.054787   -2.462620   -3.132882
  H      1.629778   -1.232889   -2.009516

 Total Charge           Charge          ....   -2
 Multiplicity           Mult            ....    2
 Number of Electrons    NEL             ....  145
 Basis Dimension        Dim             ....  353

ORBITAL ENERGIES
----------------
                 SPIN UP ORBITALS
  NO   OCC          E(Eh)            E(eV)
   0   1.0000    -196.609200     -5350.0083
   1   1.0000     -88.566557     -2410.0185
   2   1.0000     -88.563756     -2409.9423
   3   1.0000     -88.563497     -2409.9353
   4   1.0000     -88.559537     -2409.8275
   5   1.0000     -21.984438      -598.2270
   6   1.0000     -18.826297      -512.2896
   7   1.0000     -18.492198      -503.1983
   8   1.0000     -18.485098      -503.0051
   9   1.0000     -18.484961      -503.0014
  10   1.0000      -9.958088      -270.9734
  11   1.0000      -9.937417      -270.4109
  12   1.0000      -9.937074      -270.4015
  13   1.0000      -9.936419      -270.3837
  14   1.0000      -9.935862      -270.3685
  15   1.0000      -9.933642      -270.3081
  16   1.0000      -7.620586      -207.3667
  17   1.0000      -7.617956      -207.2951
  18   1.0000      -7.617530      -207.2835
  19   1.0000      -7.613816      -207.1825
  20   1.0000      -5.586237      -152.0092
  21   1.0000      -5.583127      -151.9246
  22   1.0000      -5.582919      -151.9190
  23   1.0000      -5.579391      -151.8230
  24   1.0000      -5.579044      -151.8135
  25   1.0000      -5.577566      -151.7733
  26   1.0000      -5.576944      -151.7564
  27   1.0000      -5.576358      -151.7404
  28   1.0000      -5.575229      -151.7097
  29   1.0000      -5.574653      -151.6940
  30   1.0000      -5.573050      -151.6504
  31   1.0000      -5.570870      -151.5911
  32   1.0000      -2.377072       -64.6834
  33   1.0000      -1.419480       -38.6260
  34   1.0000      -1.405389       -38.2426
  35   1.0000      -1.404690       -38.2236
  36   1.0000      -0.588443       -16.0124
  37   1.0000      -0.554781       -15.0964
  38   1.0000      -0.552794       -15.0423
  39   1.0000      -0.472541       -12.8585
  40   1.0000      -0.467868       -12.7313
  41   1.0000      -0.406246       -11.0545
  42   1.0000      -0.398515       -10.8441
  43   1.0000      -0.340711        -9.2712
  44   1.0000      -0.332705        -9.0534
  45   1.0000      -0.298418        -8.1204
  46   1.0000      -0.287175        -7.8144
  47   1.0000      -0.216115        -5.8808
  48   1.0000      -0.205393        -5.5890
  49   1.0000      -0.204823        -5.5735
  50   1.0000      -0.192145        -5.2285
  51   1.0000      -0.159867        -4.3502
  52   1.0000      -0.135948        -3.6993
  53   1.0000      -0.133627        -3.6362
  54   1.0000      -0.110162        -2.9976
  55   1.0000      -0.108916        -2.9638
  56   1.0000      -0.097778        -2.6607
  57   1.0000      -0.086499        -2.3538
  58   1.0000      -0.066259        -1.8030
  59   1.0000      -0.062536        -1.7017
  60   1.0000      -0.055085        -1.4989
  61   1.0000      -0.045144        -1.2284
  62   1.0000      -0.043329        -1.1790
  63   1.0000      -0.031715        -0.8630
  64   1.0000      -0.001691        -0.0460
  65   1.0000       0.026496         0.7210
  66   1.0000       0.028190         0.7671
  67   1.0000       0.032923         0.8959
  68   1.0000       0.042341         1.1521
  69   1.0000       0.052032         1.4159
  70   1.0000       0.061654         1.6777
  71   1.0000       0.069520         1.8917
  72   1.0000       0.077955         2.1213
  73   0.0000       0.230650         6.2763
  74   0.0000       0.241490         6.5713
  75   0.0000       0.244636         6.6569
  76   0.0000       0.250244         6.8095
  77   0.0000       0.257015         6.9937

                 SPIN DOWN ORBITALS
  NO   OCC          E(Eh)            E(eV)
   0   1.0000    -196.609343     -5350.0122
   1   1.0000     -88.566649     -2410.0210
   2   1.0000     -88.563916     -2409.9467
   3   1.0000     -88.563688     -2409.9405
   4   1.0000     -88.559522     -2409.8271
   5   1.0000     -21.969376      -597.8171
   6   1.0000     -18.829808      -512.3851
   7   1.0000     -18.486969      -503.0560
   8   1.0000     -18.469006      -502.5672
   9   1.0000     -18.468527      -502.5542
  10   1.0000      -9.957901      -270.9683
  11   1.0000      -9.937366      -270.4095
  12   1.0000      -9.937023      -270.4002
  13   1.0000      -9.936236      -270.3787
  14   1.0000      -9.935804      -270.3670
  15   1.0000      -9.933602      -270.3071
  16   1.0000      -7.620672      -207.3690
  17   1.0000      -7.618107      -207.2992
  18   1.0000      -7.617714      -207.2885
  19   1.0000      -7.613803      -207.1821
  20   1.0000      -5.586351      -152.0123
  21   1.0000      -5.583281      -151.9288
  22   1.0000      -5.583100      -151.9239
  23   1.0000      -5.579760      -151.8330
  24   1.0000      -5.579069      -151.8142
  25   1.0000      -5.577489      -151.7712
  26   1.0000      -5.577362      -151.7677
  27   1.0000      -5.576848      -151.7538
  28   1.0000      -5.575349      -151.7130
  29   1.0000      -5.574794      -151.6979
  30   1.0000      -5.573403      -151.6600
  31   1.0000      -5.570426      -151.5790
  32   1.0000      -2.332089       -63.4594
  33   1.0000      -1.400328       -38.1049
  34   1.0000      -1.343671       -36.5631
  35   1.0000      -1.341840       -36.5133
  36   1.0000      -0.595999       -16.2180
  37   1.0000      -0.554700       -15.0942
  38   1.0000      -0.552637       -15.0380
  39   1.0000      -0.472500       -12.8574
  40   1.0000      -0.467744       -12.7279
  41   1.0000      -0.406297       -11.0559
  42   1.0000      -0.398655       -10.8480
  43   1.0000      -0.340903        -9.2764
  44   1.0000      -0.333040        -9.0625
  45   1.0000      -0.298406        -8.1201
  46   1.0000      -0.287206        -7.8153
  47   1.0000      -0.216052        -5.8791
  48   1.0000      -0.205372        -5.5885
  49   1.0000      -0.204708        -5.5704
  50   1.0000      -0.191904        -5.2220
  51   1.0000      -0.159774        -4.3477
  52   1.0000      -0.135759        -3.6942
  53   1.0000      -0.133344        -3.6285
  54   1.0000      -0.110090        -2.9957
  55   1.0000      -0.108277        -2.9464
  56   1.0000      -0.097567        -2.6549
  57   1.0000      -0.085607        -2.3295
  58   1.0000      -0.064821        -1.7639
  59   1.0000      -0.062312        -1.6956
  60   1.0000      -0.053996        -1.4693
  61   1.0000      -0.046758        -1.2723
  62   1.0000      -0.044673        -1.2156
  63   1.0000      -0.031577        -0.8593
  64   1.0000       0.002427         0.0660
  65   1.0000       0.027462         0.7473
  66   1.0000       0.030975         0.8429
  67   1.0000       0.041730         1.1355
  68   1.0000       0.043175         1.1749
  69   1.0000       0.059597         1.6217
  70   1.0000       0.066476         1.8089
  71   1.0000       0.069861         1.9010
  72   0.0000       0.229096         6.2340
  73   0.0000       0.246446         6.7061
  74   0.0000       0.249386         6.7861
  75   0.0000       0.259212         7.0535
  76   0.0000       0.262893         7.1537

MULLIKEN ATOMIC CHARGES AND SPIN POPULATIONS
--------------------------------------------
   0 V :    0.531072    1.194354
   1 S :   -0.424386   -0.003148
   2 S :   -0.382795   -0.035597
   3 S :   -0.411372   -0.029314
   4 S :   -0.346531   -0.019732
   5 O :   -0.542257   -0.135730
   6 C :   -0.241462    0.005624
   7 C :   -0.224306    0.007223
   8 C :   -0.124762    0.002924
   9 H :    0.061491   -0.000925
  10 H :    0.029767    0.002308
  11 H :    0.117106    0.000232
  12 H :   -0.020567   -0.000286
  13 H :    0.103354   -0.000188
  14 H :    0.050535    0.000934
  15 C :   -0.257845   -0.002265
  16 C :   -0.251538    0.004070
  17 C :   -0.070640    0.008396
  18 H :    0.048674   -0.000031
  19 H :    0.132208   -0.000332
  20 H :    0.016507    0.001517
  21 H :    0.013795    0.000081
  22 H :    0.053865   -0.000559
  23 H :    0.140086    0.000441
Sum of atomic charges         :   -2.0000000

LOEWDIN ATOMIC CHARGES AND SPIN POPULATIONS
-------------------------------------------
   0 V :   -0.207504    1.150607
   1 S :   -0.069836    0.002344
   2 S :   -0.043633   -0.024762
   3 S :   -0.060570   -0.020305
   4 S :   -0.037889   -0.010614
   5 O :   -0.374476   -0.122378
   6 C :   -0.336585    0.005267
   7 C :   -0.332761    0.006952
   8 C :   -0.205629    0.000531
   9 H :    0.032926   -0.000126
  10 H :    0.030338    0.000974
  11 H :    0.069871    0.000338
  12 H :    0.035272    0.000085
  13 H :    0.046602   -0.000121
  14 H :    0.041713   -0.000204
  15 C :   -0.317883    0.002744
  16 C :   -0.323692    0.007649
  17 C :   -0.188582    0.001093
  18 H :    0.028869   -0.000192
  19 H :    0.054490   -0.000622
  20 H :    0.036439    0.000594
  21 H :    0.035568    0.000397
  22 H :    0.030821   -0.000591
  23 H :    0.056131    0.000339

  Mayer bond orders larger than 0.100000
B(  0-V ,  1-S ) :   0.7106 B(  0-V ,  2-S ) :   0.8534 B(  0-V ,  3-S ) :   0.7741
B(  0-V ,  4-S ) :   0.7585 B(  0-V ,  5-O ) :   2.0788 B(  1-S , 15-C ) :   1.0259
B(  2-S ,  6-C ) :   0.9467 B(  3-S , 16-C ) :   1.0216 B(  4-S ,  7-C ) :   1.0741
B(  6-C ,  8-C ) :   0.9544 B(  6-C , 13-H ) :   0.9718 B(  6-C , 14-H ) :   0.9682
B(  7-C ,  8-C ) :   0.8646 B(  7-C ,  9-H ) :   0.9683 B(  7-C , 10-H ) :   0.9593
B(  8-C , 11-H ) :   0.9712 B(  8-C , 12-H ) :   0.9361 B( 15-C , 17-C ) :   0.8968
B( 15-C , 22-H ) :   0.9690 B( 15-C , 23-H ) :   0.9790 B( 16-C , 17-C ) :   0.9025
B( 16-C , 18-H ) :   0.9633 B( 16-C , 19-H ) :   0.9760 B( 17-C , 20-H ) :   0.9583
B( 17-C , 21-H ) :   0.9596

FINAL SINGLE POINT ENERGY     -2847.670832561545

DIPOLE MOMENT
-------------
                                X             Y             Z
Electronic contribution:     -5.71121       1.88776      -0.81386
Nuclear contribution   :      6.10960      -2.07566       0.77167
                        -----------------------------------------
Total Dipole Moment    :      0.39840      -0.18789      -0.04219
                        -----------------------------------------
Magnitude (a.u.)       :      0.44250
Magnitude (Debye)      :      1.12475

Rotational constants in cm-1:     0.027202     0.011725     0.009594
Rotational constants in MHz :   815.497872   351.505123   287.607547

                             ****ORCA TERMINATED NORMALLY****
TOTAL RUN TIME: 0 days 0 hours 14 minutes 21 seconds 379 msec
