                         Program Version 5.0.4 -  RELEASE  -
|  1> ! nofrozencore ReducedPop printbasis
|  2> ! B3LYP TZVP
|  3>
|  4> %basis
|  5> newgto V "CP(PPP)" end
|  6> end
|  7>
|  8> %pal
|  9> nprocs 8
| 10> end
| 11>
| 12> % sym SymThresh 1e-2 end
| 13> * xyz -2 2
| 14> V 0.07872234331655074 -0.41088010461418206 0.2589887451859441
| 15> S -1.1872484423981535 -1.3448460571939764 -1.7243989290178687
| 16> S 1.7426350122193086 0.05524359000300792 -1.4744353406921544
| 17> S -2.0312782412969073 0.6260005070503376 1.058045198664718
| 18> S 1.0467958227299867 1.3946570953324489 1.6710507829871317
| 19> O 0.44335483079191756 -1.7592244975331994 1.0440780318192369
| 20> C 3.2094882847904374 0.8554496947838843 -0.6649237265198888
| 21> C 2.8520558096808712 1.0298124066085985 1.8767273028358684
| 22> C 3.5440342648856373 0.2959815201757468 0.7235373300804684
| 23> H 2.9933080764882023 0.45242676162590045 2.7979423212863406
| 24> H 3.3470902632371917 1.9980727551465556 2.028233091647219
| 25> H 3.2724382842991373 -0.7625215426375986 0.7461089267679964
| 26> H 4.634088257884709 0.3500326718728079 0.897959396815155
| 27> H 3.036738967147979 1.9338398773057457 -0.5861490246192674
| 28> H 4.056196297360863 0.6917560609862705 -1.3413547320298165
| 29> C -2.391124383829266 0.008797575922658266 -2.0792771198089484
| 30> C -3.4030312577566617 -0.36960942279079734 0.30429863311944555
| 31> C -3.6453052043428973 -0.04208629162092418 -1.190917174974895
| 32> H -4.325896852351105 0.12275903644715278 0.74343725019894
| 33> H -2.9146925257508696 -1.3832866440249603 0.1599665303842569
| 34> H -4.318277480556116 0.845916352210747 -1.342928854165546
| 35> H -4.461114185339075 -0.674078114825582 -1.6474996660906078
| 36> H -2.7287917498538334 -0.10038212094017436 -3.1161265231023925
| 37> H -1.893635629498897 0.9557320130246064 -1.8654160773766395
| 38> *
| 39>
| 40> % eprnmr
| 41> gtensor true
| 42> Nuclei = all H {aiso,adip,aorb,fgrad,rho}
| 43> Nuclei = all V {aiso,adip,aorb,fgrad,rho}
| 44> end
| 45>
| 46>                          ****END OF INPUT****

CARTESIAN COORDINATES (ANGSTROEM)
---------------------------------
  V      0.078562   -0.411549    0.259299
  S     -1.187409   -1.345515   -1.724088
  S      1.742475    0.054574   -1.474125
  S     -2.031439    0.625331    1.058356
  S      1.046635    1.393988    1.671361
  O      0.443194   -1.759894    1.044389
  C      3.209328    0.854780   -0.664613
  C      2.851895    1.029143    1.877038
  C      3.543874    0.295312    0.723848
  H      2.993148    0.451757    2.798253
  H      3.346930    1.997403    2.028544
  H      3.272278   -0.763191    0.746419
  H      4.633928    0.349363    0.898270
  H      3.036579    1.933171   -0.585838
  H      4.056036    0.691087   -1.341044
  C     -2.391285    0.008128   -2.078967
  C     -3.403192   -0.370279    0.304609
  C     -3.645466   -0.042756   -1.190607
  H     -4.326057    0.122090    0.743748
  H     -2.914853   -1.383956    0.160277
  H     -4.318438    0.845247   -1.342618
  H     -4.461275   -0.674747   -1.647189
  H     -2.728952   -0.101051   -3.115816
  H     -1.893796    0.955063   -1.865106

 Total Charge           Charge          ....   -2
 Multiplicity           Mult            ....    2
 Number of Electrons    NEL             ....  145
 Basis Dimension        Dim             ....  353

ORBITAL ENERGIES
----------------
                 SPIN UP ORBITALS
  NO   OCC          E(Eh)            E(eV)
   0   1.0000    -196.608149     -5349.9797
   1   1.0000     -88.561884     -2409.8914
   2   1.0000     -88.561838     -2409.8901
   3   1.0000     -88.560645     -2409.8577
   4   1.0000     -88.559841     -2409.8358
   5   1.0000     -21.983537      -598.2024
   6   1.0000     -18.826192      -512.2867
   7   1.0000     -18.491284      -503.1734
   8   1.0000     -18.484177      -502.9800
   9   1.0000     -18.484065      -502.9770
  10   1.0000      -9.943873      -270.5866
  11   1.0000      -9.943179      -270.5677
  12   1.0000      -9.936738      -270.3924
  13   1.0000      -9.936235      -270.3787
  14   1.0000      -9.933977      -270.3173
  15   1.0000      -9.929650      -270.1995
  16   1.0000      -7.616250      -207.2487
  17   1.0000      -7.615784      -207.2360
  18   1.0000      -7.615064      -207.2164
  19   1.0000      -7.614082      -207.1897
  20   1.0000      -5.581370      -151.8768
  21   1.0000      -5.581177      -151.8715
  22   1.0000      -5.580104      -151.8423
  23   1.0000      -5.579529      -151.8267
  24   1.0000      -5.575378      -151.7137
  25   1.0000      -5.574594      -151.6924
  26   1.0000      -5.574090      -151.6787
  27   1.0000      -5.573499      -151.6626
  28   1.0000      -5.573147      -151.6530
  29   1.0000      -5.572971      -151.6483
  30   1.0000      -5.572342      -151.6311
  31   1.0000      -5.571010      -151.5949
  32   1.0000      -2.376287       -64.6621
  33   1.0000      -1.418947       -38.6115
  34   1.0000      -1.404409       -38.2159
  35   1.0000      -1.403982       -38.2043
  36   1.0000      -0.588711       -16.0197
  37   1.0000      -0.552253       -15.0276
  38   1.0000      -0.549748       -14.9594
  39   1.0000      -0.470196       -12.7947
  40   1.0000      -0.465857       -12.6766
  41   1.0000      -0.405986       -11.0474
  42   1.0000      -0.398091       -10.8326
  43   1.0000      -0.336315        -9.1516
  44   1.0000      -0.327736        -8.9182
  45   1.0000      -0.305427        -8.3111
  46   1.0000      -0.280067        -7.6210
  47   1.0000      -0.225204        -6.1281
  48   1.0000      -0.208651        -5.6777
  49   1.0000      -0.202674        -5.5150
  50   1.0000      -0.198740        -5.4080
  51   1.0000      -0.161506        -4.3948
  52   1.0000      -0.139703        -3.8015
  53   1.0000      -0.118916        -3.2359
  54   1.0000      -0.113292        -3.0828
  55   1.0000      -0.106726        -2.9042
  56   1.0000      -0.095296        -2.5931
  57   1.0000      -0.079124        -2.1531
  58   1.0000      -0.072037        -1.9602
  59   1.0000      -0.064694        -1.7604
  60   1.0000      -0.051019        -1.3883
  61   1.0000      -0.046439        -1.2637
  62   1.0000      -0.038224        -1.0401
  63   1.0000      -0.034456        -0.9376
  64   1.0000      -0.002415        -0.0657
  65   1.0000       0.025253         0.6872
  66   1.0000       0.029454         0.8015
  67   1.0000       0.034993         0.9522
  68   1.0000       0.043744         1.1903
  69   1.0000       0.053374         1.4524
  70   1.0000       0.064435         1.7534
  71   1.0000       0.070406         1.9159
  72   1.0000       0.080033         2.1778
  73   0.0000       0.233153         6.3444
  74   0.0000       0.245098         6.6695
  75   0.0000       0.246050         6.6954
  76   0.0000       0.250568         6.8183
  77   0.0000       0.251606         6.8465

                 SPIN DOWN ORBITALS
  NO   OCC          E(Eh)            E(eV)
   0   1.0000    -196.608290     -5349.9836
   1   1.0000     -88.562061     -2409.8962
   2   1.0000     -88.561812     -2409.8894
   3   1.0000     -88.560811     -2409.8622
   4   1.0000     -88.559947     -2409.8387
   5   1.0000     -21.968479      -597.7927
   6   1.0000     -18.829672      -512.3814
   7   1.0000     -18.486076      -503.0317
   8   1.0000     -18.468113      -502.5429
   9   1.0000     -18.467592      -502.5287
  10   1.0000      -9.943701      -270.5818
  11   1.0000      -9.943001      -270.5628
  12   1.0000      -9.936683      -270.3909
  13   1.0000      -9.936101      -270.3751
  14   1.0000      -9.933938      -270.3162
  15   1.0000      -9.929670      -270.2001
  16   1.0000      -7.616227      -207.2481
  17   1.0000      -7.615957      -207.2407
  18   1.0000      -7.615222      -207.2207
  19   1.0000      -7.614183      -207.1924
  20   1.0000      -5.581386      -151.8772
  21   1.0000      -5.581344      -151.8761
  22   1.0000      -5.580267      -151.8468
  23   1.0000      -5.579653      -151.8301
  24   1.0000      -5.575703      -151.7226
  25   1.0000      -5.575049      -151.7048
  26   1.0000      -5.574521      -151.6904
  27   1.0000      -5.573557      -151.6642
  28   1.0000      -5.573104      -151.6519
  29   1.0000      -5.573044      -151.6502
  30   1.0000      -5.572468      -151.6346
  31   1.0000      -5.570938      -151.5929
  32   1.0000      -2.331337       -63.4389
  33   1.0000      -1.399933       -38.0941
  34   1.0000      -1.342784       -36.5390
  35   1.0000      -1.340998       -36.4904
  36   1.0000      -0.596162       -16.2224
  37   1.0000      -0.552157       -15.0250
  38   1.0000      -0.549592       -14.9552
  39   1.0000      -0.470143       -12.7932
  40   1.0000      -0.465733       -12.6732
  41   1.0000      -0.406024       -11.0485
  42   1.0000      -0.398256       -10.8371
  43   1.0000      -0.336486        -9.1563
  44   1.0000      -0.328100        -8.9280
  45   1.0000      -0.305404        -8.3105
  46   1.0000      -0.280076        -7.6213
  47   1.0000      -0.225123        -6.1259
  48   1.0000      -0.208590        -5.6760
  49   1.0000      -0.202679        -5.5152
  50   1.0000      -0.198561        -5.4031
  51   1.0000      -0.161383        -4.3915
  52   1.0000      -0.139560        -3.7976
  53   1.0000      -0.118514        -3.2249
  54   1.0000      -0.113282        -3.0825
  55   1.0000      -0.106535        -2.8990
  56   1.0000      -0.095175        -2.5898
  57   1.0000      -0.077776        -2.1164
  58   1.0000      -0.070159        -1.9091
  59   1.0000      -0.063785        -1.7357
  60   1.0000      -0.051665        -1.4059
  61   1.0000      -0.048066        -1.3079
  62   1.0000      -0.039563        -1.0766
  63   1.0000      -0.033841        -0.9209
  64   1.0000       0.002396         0.0652
  65   1.0000       0.026551         0.7225
  66   1.0000       0.032121         0.8741
  67   1.0000       0.044152         1.2014
  68   1.0000       0.045848         1.2476
  69   1.0000       0.057975         1.5776
  70   1.0000       0.067838         1.8460
  71   1.0000       0.074263         2.0208
  72   0.0000       0.232288         6.3209
  73   0.0000       0.245366         6.6767
  74   0.0000       0.254066         6.9135
  75   0.0000       0.254693         6.9306
  76   0.0000       0.263492         7.1700

MULLIKEN ATOMIC CHARGES AND SPIN POPULATIONS
--------------------------------------------
   0 V :    0.516249    1.193308
   1 S :   -0.427442   -0.002350
   2 S :   -0.353467   -0.033092
   3 S :   -0.400809   -0.030200
   4 S :   -0.381314   -0.022114
   5 O :   -0.544632   -0.134338
   6 C :   -0.246121    0.005828
   7 C :   -0.237000    0.006539
   8 C :   -0.158285    0.003031
   9 H :    0.075580   -0.000902
  10 H :    0.051752    0.002110
  11 H :    0.138433    0.000659
  12 H :    0.005853   -0.000059
  13 H :    0.095918   -0.000132
  14 H :    0.049641   -0.000043
  15 C :   -0.229848   -0.000748
  16 C :   -0.263115    0.004922
  17 C :   -0.112732    0.004332
  18 H :    0.045510    0.000454
  19 H :    0.177006   -0.000013
  20 H :   -0.000657    0.001908
  21 H :    0.001898    0.000901
  22 H :    0.052418   -0.000487
  23 H :    0.145164    0.000487
Sum of atomic charges         :   -2.0000000

LOEWDIN ATOMIC CHARGES AND SPIN POPULATIONS
-------------------------------------------
   0 V :   -0.214300    1.149540
   1 S :   -0.066385    0.003946
   2 S :   -0.037985   -0.022715
   3 S :   -0.062956   -0.021236
   4 S :   -0.060719   -0.012939
   5 O :   -0.376438   -0.120964
   6 C :   -0.325755    0.005304
   7 C :   -0.314452    0.006897
   8 C :   -0.187448    0.000474
   9 H :    0.036274   -0.000007
  10 H :    0.029220    0.000612
  11 H :    0.069997    0.000334
  12 H :    0.031515    0.000147
  13 H :    0.045640   -0.000068
  14 H :    0.028041   -0.000526
  15 C :   -0.314431    0.002597
  16 C :   -0.349791    0.007730
  17 C :   -0.209338    0.001036
  18 H :    0.051352   -0.000287
  19 H :    0.083941   -0.000696
  20 H :    0.024142    0.000616
  21 H :    0.026376    0.000439
  22 H :    0.033452   -0.000575
  23 H :    0.060051    0.000339

  Mayer bond orders larger than 0.100000
B(  0-V ,  1-S ) :   0.6984 B(  0-V ,  2-S ) :   0.8578 B(  0-V ,  3-S ) :   0.7862
B(  0-V ,  4-S ) :   0.7791 B(  0-V ,  5-O ) :   2.0713 B(  1-S , 15-C ) :   1.0165
B(  2-S ,  6-C ) :   1.0121 B(  3-S , 16-C ) :   1.0393 B(  4-S ,  7-C ) :   1.0697
B(  6-C ,  8-C ) :   0.9007 B(  6-C , 13-H ) :   0.9747 B(  6-C , 14-H ) :   0.9685
B(  7-C ,  8-C ) :   0.9199 B(  7-C ,  9-H ) :   0.9764 B(  7-C , 10-H ) :   0.9688
B(  8-C , 11-H ) :   0.9879 B(  8-C , 12-H ) :   0.9452 B( 15-C , 17-C ) :   0.9045
B( 15-C , 22-H ) :   0.9658 B( 15-C , 23-H ) :   0.9764 B( 16-C , 17-C ) :   0.9087
B( 16-C , 18-H ) :   0.9602 B( 16-C , 19-H ) :   0.9359 B( 17-C , 20-H ) :   0.9445
B( 17-C , 21-H ) :   0.9435

FINAL SINGLE POINT ENERGY     -2847.678917451333

DIPOLE MOMENT
-------------
                                X             Y             Z
Electronic contribution:      0.05668      -5.60657       3.32831
Nuclear contribution   :      0.30829       6.00454      -3.53605
                        -----------------------------------------
Total Dipole Moment    :      0.36497       0.39797      -0.20774
                        -----------------------------------------
Magnitude (a.u.)       :      0.57857
Magnitude (Debye)      :      1.47060

Rotational constants in cm-1:     0.027213     0.011724     0.009596
Rotational constants in MHz :   815.833445   351.478508   287.685589

                             ****ORCA TERMINATED NORMALLY****
TOTAL RUN TIME: 0 days 0 hours 11 minutes 40 seconds 23 msec
