                         Program Version 5.0.4 -  RELEASE  -
|  1> ! nofrozencore ReducedPop printbasis
|  2> ! B3LYP TZVP
|  3>
|  4> %basis
|  5> newgto V "CP(PPP)" end
|  6> end
|  7>
|  8> %pal
|  9> nprocs 8
| 10> end
| 11>
| 12> % sym SymThresh 1e-2 end
| 13> * xyz -2 2
| 14> V 0.058813566221335815 -0.39584457381540544 0.28613321599427877
| 15> S 2.2298978198432247 -0.4337409518682487 -1.0152862184708598
| 16> S 1.033959952419279 1.6702980563938314 1.1639741805221073
| 17> S -1.1364081435172988 -1.0905550006883482 -1.7758425725787754
| 18> S -2.2149629713952934 0.4362697050623738 0.8582714611290084
| 19> O 0.29848694543312 -1.6105036504248222 1.3035140658973834
| 20> C -0.15360838853892553 2.39797812214686 2.3965189519314243
| 21> C -2.2121036164807055 0.868831026941944 2.6608972880659993
| 22> C -0.8812052441009076 1.3476680166592307 3.25408994175727
| 23> H -2.557041559194159 -0.0005650015930441151 3.232718254059902
| 24> H -2.9420001346323152 1.6363355409444447 2.787827490732432
| 25> H -0.22061380128774083 0.5017923728804745 3.3974704068454162
| 26> H -1.0882937576697616 1.759069517204923 4.235300836614026
| 27> H -0.8551849878206224 2.977146026883601 1.8978709876678739
| 28> H 0.38151916007239983 2.996846889737114 2.9803993720828146
| 29> C 1.6739589044578125 0.14382083160914927 -2.6752375096756644
| 30> C 0.1259348803844097 -1.9255005031671102 -2.8602675592335363
| 31> C 1.0856543158289365 -0.9420538131981168 -3.576043470404113
| 32> H -0.16923673459554794 -2.2827982548720316 -3.288782123907518
| 33> H 0.6738184560078486 -2.5090669980911584 -2.275813464436403
| 34> H 0.5832631787363942 -0.49303719917275346 -4.3637660873798225
| 35> H 1.897188703162135 -1.5366632294819138 -4.007352518006145
| 36> H 2.717787433068641 0.6856016375613075 -3.2825441133561966
| 37> H 0.9049076662638769 0.9786541994014557 -2.5245490193655895
| 38> *
| 39>
| 40> % eprnmr
| 41> gtensor true
| 42> Nuclei = all H {aiso,adip,aorb,fgrad,rho}
| 43> Nuclei = all V {aiso,adip,aorb,fgrad,rho}
| 44> end
| 45>
| 46>                          ****END OF INPUT****

CARTESIAN COORDINATES (ANGSTROEM)
---------------------------------
  V      0.059007   -0.396552    0.286312
  S      2.230091   -0.434448   -1.015107
  S      1.034153    1.669591    1.164153
  S     -1.136215   -1.091262   -1.775663
  S     -2.214770    0.435562    0.858451
  O      0.298680   -1.611211    1.303693
  C     -0.153415    2.397271    2.396698
  C     -2.211911    0.868124    2.661077
  C     -0.881012    1.346961    3.254269
  H     -2.556849   -0.001272    3.232897
  H     -2.941807    1.635628    2.788007
  H     -0.220421    0.501085    3.397650
  H     -1.088101    1.758362    4.235480
  H     -0.854992    2.976439    1.898050
  H      0.381712    2.996139    2.980579
  C      1.674152    0.143113   -2.675058
  C      0.126128   -1.926208   -2.860088
  C      1.085847   -0.942761   -3.575864
  H     -0.169044   -2.283506   -3.288603
  H      0.674011   -2.509774   -2.275634
  H      0.583456   -0.493745   -4.363587
  H      1.897382   -1.537371   -4.007173
  H      2.717980    0.684894   -3.282365
  H      0.905101    0.977947   -2.524370

 Total Charge           Charge          ....   -2
 Multiplicity           Mult            ....    2
 Number of Electrons    NEL             ....  145
 Basis Dimension        Dim             ....  353

ORBITAL ENERGIES
----------------
                 SPIN UP ORBITALS
  NO   OCC          E(Eh)            E(eV)
   0   1.0000    -196.606538     -5349.9359
   1   1.0000     -88.560299     -2409.8483
   2   1.0000     -88.559144     -2409.8168
   3   1.0000     -88.557817     -2409.7807
   4   1.0000     -88.557810     -2409.7805
   5   1.0000     -21.981937      -598.1589
   6   1.0000     -18.824305      -512.2354
   7   1.0000     -18.489716      -503.1307
   8   1.0000     -18.482533      -502.9353
   9   1.0000     -18.482483      -502.9339
  10   1.0000      -9.959426      -271.0097
  11   1.0000      -9.938180      -270.4316
  12   1.0000      -9.924125      -270.0492
  13   1.0000      -9.924105      -270.0486
  14   1.0000      -9.916856      -269.8514
  15   1.0000      -9.892112      -269.1781
  16   1.0000      -7.614304      -207.1957
  17   1.0000      -7.613030      -207.1611
  18   1.0000      -7.612103      -207.1359
  19   1.0000      -7.612095      -207.1356
  20   1.0000      -5.579461      -151.8248
  21   1.0000      -5.578386      -151.7956
  22   1.0000      -5.577534      -151.7724
  23   1.0000      -5.577406      -151.7689
  24   1.0000      -5.573312      -151.6575
  25   1.0000      -5.571857      -151.6179
  26   1.0000      -5.571621      -151.6115
  27   1.0000      -5.571295      -151.6027
  28   1.0000      -5.571144      -151.5985
  29   1.0000      -5.570244      -151.5740
  30   1.0000      -5.569095      -151.5428
  31   1.0000      -5.569035      -151.5412
  32   1.0000      -2.374547       -64.6147
  33   1.0000      -1.417254       -38.5655
  34   1.0000      -1.402634       -38.1676
  35   1.0000      -1.402142       -38.1542
  36   1.0000      -0.586837       -15.9686
  37   1.0000      -0.571792       -15.5593
  38   1.0000      -0.553969       -15.0743
  39   1.0000      -0.488163       -13.2836
  40   1.0000      -0.475064       -12.9272
  41   1.0000      -0.406509       -11.0617
  42   1.0000      -0.398505       -10.8439
  43   1.0000      -0.357735        -9.7345
  44   1.0000      -0.333307        -9.0697
  45   1.0000      -0.310750        -8.4559
  46   1.0000      -0.290708        -7.9106
  47   1.0000      -0.241108        -6.5609
  48   1.0000      -0.215099        -5.8531
  49   1.0000      -0.200272        -5.4497
  50   1.0000      -0.197735        -5.3806
  51   1.0000      -0.164747        -4.4830
  52   1.0000      -0.146066        -3.9747
  53   1.0000      -0.129602        -3.5266
  54   1.0000      -0.116737        -3.1766
  55   1.0000      -0.106359        -2.8942
  56   1.0000      -0.102653        -2.7933
  57   1.0000      -0.081261        -2.2112
  58   1.0000      -0.068626        -1.8674
  59   1.0000      -0.063144        -1.7182
  60   1.0000      -0.056124        -1.5272
  61   1.0000      -0.046027        -1.2524
  62   1.0000      -0.040345        -1.0979
  63   1.0000      -0.035758        -0.9730
  64   1.0000      -0.000177        -0.0048
  65   1.0000       0.027520         0.7489
  66   1.0000       0.030585         0.8323
  67   1.0000       0.038151         1.0381
  68   1.0000       0.046722         1.2714
  69   1.0000       0.054300         1.4776
  70   1.0000       0.065504         1.7825
  71   1.0000       0.073773         2.0075
  72   1.0000       0.081457         2.2166
  73   0.0000       0.235107         6.3976
  74   0.0000       0.246696         6.7129
  75   0.0000       0.250492         6.8162
  76   0.0000       0.253978         6.9111
  77   0.0000       0.254886         6.9358

                 SPIN DOWN ORBITALS
  NO   OCC          E(Eh)            E(eV)
   0   1.0000    -196.606679     -5349.9397
   1   1.0000     -88.560456     -2409.8525
   2   1.0000     -88.559321     -2409.8217
   3   1.0000     -88.557916     -2409.7834
   4   1.0000     -88.557793     -2409.7801
   5   1.0000     -21.966874      -597.7490
   6   1.0000     -18.827787      -512.3301
   7   1.0000     -18.484509      -502.9891
   8   1.0000     -18.466458      -502.4979
   9   1.0000     -18.466008      -502.4856
  10   1.0000      -9.959361      -271.0080
  11   1.0000      -9.938001      -270.4267
  12   1.0000      -9.924126      -270.0492
  13   1.0000      -9.924087      -270.0481
  14   1.0000      -9.916726      -269.8478
  15   1.0000      -9.891938      -269.1733
  16   1.0000      -7.614453      -207.1998
  17   1.0000      -7.613203      -207.1658
  18   1.0000      -7.612195      -207.1384
  19   1.0000      -7.612082      -207.1353
  20   1.0000      -5.579613      -151.8290
  21   1.0000      -5.578553      -151.8002
  22   1.0000      -5.577657      -151.7758
  23   1.0000      -5.577425      -151.7695
  24   1.0000      -5.573724      -151.6688
  25   1.0000      -5.572313      -151.6303
  26   1.0000      -5.571737      -151.6147
  27   1.0000      -5.571632      -151.6118
  28   1.0000      -5.571553      -151.6097
  29   1.0000      -5.570379      -151.5777
  30   1.0000      -5.568964      -151.5392
  31   1.0000      -5.568639      -151.5304
  32   1.0000      -2.329591       -63.3914
  33   1.0000      -1.398239       -38.0480
  34   1.0000      -1.340982       -36.4900
  35   1.0000      -1.339165       -36.4405
  36   1.0000      -0.594283       -16.1713
  37   1.0000      -0.571609       -15.5543
  38   1.0000      -0.553875       -15.0717
  39   1.0000      -0.487976       -13.2785
  40   1.0000      -0.474988       -12.9251
  41   1.0000      -0.406450       -11.0601
  42   1.0000      -0.398634       -10.8474
  43   1.0000      -0.358106        -9.7446
  44   1.0000      -0.333781        -9.0826
  45   1.0000      -0.310771        -8.4565
  46   1.0000      -0.290596        -7.9075
  47   1.0000      -0.241010        -6.5582
  48   1.0000      -0.215043        -5.8516
  49   1.0000      -0.200090        -5.4447
  50   1.0000      -0.197688        -5.3794
  51   1.0000      -0.164606        -4.4791
  52   1.0000      -0.145929        -3.9709
  53   1.0000      -0.129315        -3.5188
  54   1.0000      -0.116714        -3.1760
  55   1.0000      -0.106182        -2.8894
  56   1.0000      -0.102416        -2.7869
  57   1.0000      -0.080218        -2.1828
  58   1.0000      -0.066500        -1.8096
  59   1.0000      -0.062230        -1.6934
  60   1.0000      -0.056011        -1.5241
  61   1.0000      -0.046887        -1.2759
  62   1.0000      -0.041422        -1.1271
  63   1.0000      -0.036872        -1.0033
  64   1.0000       0.004704         0.1280
  65   1.0000       0.028367         0.7719
  66   1.0000       0.033850         0.9211
  67   1.0000       0.046367         1.2617
  68   1.0000       0.047620         1.2958
  69   1.0000       0.062813         1.7092
  70   1.0000       0.068788         1.8718
  71   1.0000       0.075237         2.0473
  72   0.0000       0.234879         6.3914
  73   0.0000       0.249562         6.7909
  74   0.0000       0.257721         7.0129
  75   0.0000       0.259687         7.0664
  76   0.0000       0.264944         7.2095

MULLIKEN ATOMIC CHARGES AND SPIN POPULATIONS
--------------------------------------------
   0 V :    0.527966    1.192120
   1 S :   -0.408071   -0.001646
   2 S :   -0.363498   -0.033412
   3 S :   -0.440812   -0.029187
   4 S :   -0.385814   -0.021969
   5 O :   -0.548004   -0.134289
   6 C :   -0.269924    0.005781
   7 C :   -0.240066    0.006784
   8 C :   -0.167016    0.002746
   9 H :    0.072931   -0.000908
  10 H :    0.060356    0.002019
  11 H :    0.139184    0.000664
  12 H :    0.008891   -0.000031
  13 H :    0.105090   -0.000124
  14 H :    0.081133    0.000231
  15 C :   -0.208706   -0.001523
  16 C :   -0.376947    0.006404
  17 C :   -0.094353    0.007426
  18 H :    0.228762   -0.001772
  19 H :    0.128741   -0.000050
  20 H :    0.030536    0.001583
  21 H :    0.013546    0.000076
  22 H :   -0.029328   -0.001642
  23 H :    0.135405    0.000721
Sum of atomic charges         :   -2.0000000

LOEWDIN ATOMIC CHARGES AND SPIN POPULATIONS
-------------------------------------------
   0 V :   -0.206502    1.149006
   1 S :   -0.065653    0.003540
   2 S :   -0.038993   -0.022907
   3 S :   -0.056303   -0.020153
   4 S :   -0.063344   -0.012838
   5 O :   -0.377079   -0.121052
   6 C :   -0.306768    0.005146
   7 C :   -0.310193    0.006982
   8 C :   -0.178406    0.000401
   9 H :    0.036019    0.000009
  10 H :    0.025813    0.000589
  11 H :    0.068188    0.000332
  12 H :    0.029235    0.000152
  13 H :    0.038234   -0.000032
  14 H :    0.013745   -0.000300
  15 C :   -0.322628    0.003032
  16 C :   -0.170833    0.006844
  17 C :   -0.162685    0.001039
  18 H :   -0.159470    0.000645
  19 H :    0.056843   -0.000433
  20 H :    0.030493    0.000530
  21 H :    0.035787    0.000399
  22 H :    0.020984   -0.001359
  23 H :    0.063515    0.000427

  Mayer bond orders larger than 0.100000
B(  0-V ,  1-S ) :   0.7096 B(  0-V ,  2-S ) :   0.8620 B(  0-V ,  3-S ) :   0.7684
B(  0-V ,  4-S ) :   0.7793 B(  0-V ,  5-O ) :   2.0702 B(  1-S , 15-C ) :   1.0343
B(  2-S ,  6-C ) :   1.0005 B(  3-S , 16-C ) :   0.9692 B(  4-S ,  7-C ) :   1.0708
B(  6-C ,  8-C ) :   0.8932 B(  6-C , 13-H ) :   0.9850 B(  6-C , 14-H ) :   0.9771
B(  7-C ,  8-C ) :   0.9194 B(  7-C ,  9-H ) :   0.9788 B(  7-C , 10-H ) :   0.9719
B(  8-C , 11-H ) :   0.9894 B(  8-C , 12-H ) :   0.9492 B( 15-C , 17-C ) :   0.9073
B( 15-C , 22-H ) :   0.9371 B( 15-C , 23-H ) :   0.9695 B( 16-C , 17-C ) :   0.8673
B( 16-C , 18-H ) :   0.9535 B( 16-C , 19-H ) :   1.0324 B( 17-C , 20-H ) :   0.9704
B( 17-C , 21-H ) :   0.9610

FINAL SINGLE POINT ENERGY     -2847.305274600536

DIPOLE MOMENT
-------------
                                X             Y             Z
Electronic contribution:      0.61596      -5.90523       2.53765
Nuclear contribution   :     -0.89594       6.20683      -2.41658
                        -----------------------------------------
Total Dipole Moment    :     -0.27998       0.30160       0.12107
                        -----------------------------------------
Magnitude (a.u.)       :      0.42897
Magnitude (Debye)      :      1.09034

Rotational constants in cm-1:     0.027233     0.011728     0.009603
Rotational constants in MHz :   816.427178   351.596683   287.901942

                             ****ORCA TERMINATED NORMALLY****
TOTAL RUN TIME: 0 days 0 hours 9 minutes 36 seconds 447 msec
