                         Program Version 5.0.4 -  RELEASE  -
|  1> ! nofrozencore ReducedPop printbasis
|  2> ! B3LYP TZVP
|  3>
|  4> %basis
|  5> newgto V "CP(PPP)" end
|  6> end
|  7>
|  8> %pal
|  9> nprocs 4
| 10> end
| 11>
| 12> % sym SymThresh 1e-2 end
| 13> * xyz -2 2
| 14> V 0.3004841581987902 -0.3450884708557885 0.179918170719297
| 15> S 1.0059160746229237 1.6586704578849978 1.5615908814893806
| 16> S -1.7799177915887519 -0.03128104593949372 1.4299766994516907
| 17> S 1.3890248848990792 0.6886782896185913 -1.793234201943826
| 18> S -0.9589668135454282 -1.5122886952200922 -1.620154897372791
| 19> O 1.191607931351433 -1.499932070678516 0.8453644238477381
| 20> C -2.9822041949678413 -1.332686124408335 0.8957774815944546
| 21> C -1.8930871553715618 -2.908686166972546 -0.820359435854046
| 22> C -2.3252086408068395 -2.7198812068566878 0.6111895001110708
| 23> H -1.2678659202831577 -3.806864991447304 -0.8833136917044032
| 24> H -2.78579462788767 -3.0962984595775684 -1.4317461831085065
| 25> H -1.4707236760832536 -2.847204928571058 1.2804204269488355
| 26> H -3.036402875762282 -3.5365403694698725 0.8345958188401386
| 27> H -3.5128016949477683 -0.9862332203948995 0.0026929867420868725
| 28> H -3.714214554510723 -1.4288093989925006 1.706398305039127
| 29> C 0.756776425518489 3.0092573412506924 0.4142314149159536
| 30> C 2.6003648894302467 1.9909875074924457 -1.0724182564062574
| 31> C 2.1931163723714313 3.1198164400241875 -0.650999960204437
| 32> H 3.34510831770527 2.2673388528315717 -1.8348349129500534
| 33> H 3.119088305777445 1.4117754603306627 -0.30701463319772576
| 34> H 2.043655548026333 3.651415898967843 -1.6269697770957672
| 35> H 3.133565005863346 3.568288109598145 -0.23260566367813626
| 36> H 0.5643305273101387 3.911415861538101 1.0067230825405826
| 37> H -0.0920322531313644 2.8478449256595297 -0.2603071780086589
| 38> *
| 39>
| 40> % eprnmr
| 41> gtensor true
| 42> Nuclei = all H {aiso,adip,aorb,fgrad,rho}
| 43> Nuclei = all V {aiso,adip,aorb,fgrad,rho}
| 44> end
| 45>
| 46>                          ****END OF INPUT****

CARTESIAN COORDINATES (ANGSTROEM)
---------------------------------
  V      0.301129   -0.345386    0.180173
  S      1.006561    1.658373    1.561846
  S     -1.779273   -0.031579    1.430232
  S      1.389670    0.688381   -1.792979
  S     -0.958322   -1.512586   -1.619900
  O      1.192253   -1.500230    0.845620
  C     -2.981559   -1.332984    0.896033
  C     -1.892442   -2.908984   -0.820104
  C     -2.324564   -2.720179    0.611445
  H     -1.267221   -3.807163   -0.883058
  H     -2.785150   -3.096596   -1.431491
  H     -1.470079   -2.847503    1.280676
  H     -3.035758   -3.536838    0.834851
  H     -3.512157   -0.986531    0.002948
  H     -3.713570   -1.429107    1.706654
  C      0.757421    3.008960    0.414487
  C      2.601010    1.990690   -1.072163
  C      2.193761    3.119519   -0.650745
  H      3.345753    2.267041   -1.834580
  H      3.119733    1.411478   -0.306759
  H      2.044301    3.651118   -1.626714
  H      3.134210    3.567990   -0.232350
  H      0.564976    3.911118    1.006978
  H     -0.091387    2.847547   -0.260052

 Total Charge           Charge          ....   -2
 Multiplicity           Mult            ....    2
 Number of Electrons    NEL             ....  145
 Basis Dimension        Dim             ....  353

ORBITAL ENERGIES
----------------
                 SPIN UP ORBITALS
  NO   OCC          E(Eh)            E(eV)
   0   1.0000    -196.607383     -5349.9589
   1   1.0000     -88.561157     -2409.8716
   2   1.0000     -88.560285     -2409.8479
   3   1.0000     -88.559557     -2409.8281
   4   1.0000     -88.558938     -2409.8112
   5   1.0000     -21.982686      -598.1793
   6   1.0000     -18.824980      -512.2538
   7   1.0000     -18.490502      -503.1521
   8   1.0000     -18.483298      -502.9561
   9   1.0000     -18.483189      -502.9531
  10   1.0000      -9.947663      -270.6897
  11   1.0000      -9.940975      -270.5077
  12   1.0000      -9.937228      -270.4057
  13   1.0000      -9.929459      -270.1943
  14   1.0000      -9.927814      -270.1496
  15   1.0000      -9.917947      -269.8811
  16   1.0000      -7.615088      -207.2171
  17   1.0000      -7.614791      -207.2090
  18   1.0000      -7.613756      -207.1808
  19   1.0000      -7.613073      -207.1623
  20   1.0000      -5.580496      -151.8530
  21   1.0000      -5.579771      -151.8333
  22   1.0000      -5.579015      -151.8127
  23   1.0000      -5.578533      -151.7996
  24   1.0000      -5.573945      -151.6747
  25   1.0000      -5.573906      -151.6737
  26   1.0000      -5.572777      -151.6430
  27   1.0000      -5.572282      -151.6295
  28   1.0000      -5.572148      -151.6258
  29   1.0000      -5.572013      -151.6222
  30   1.0000      -5.571010      -151.5949
  31   1.0000      -5.569985      -151.5670
  32   1.0000      -2.375302       -64.6352
  33   1.0000      -1.417951       -38.5844
  34   1.0000      -1.403417       -38.1889
  35   1.0000      -1.402888       -38.1745
  36   1.0000      -0.588886       -16.0244
  37   1.0000      -0.587234       -15.9794
  38   1.0000      -0.551817       -15.0157
  39   1.0000      -0.475088       -12.9278
  40   1.0000      -0.469111       -12.7652
  41   1.0000      -0.400828       -10.9071
  42   1.0000      -0.392086       -10.6692
  43   1.0000      -0.332509        -9.0480
  44   1.0000      -0.324808        -8.8385
  45   1.0000      -0.304328        -8.2812
  46   1.0000      -0.279109        -7.5949
  47   1.0000      -0.230791        -6.2802
  48   1.0000      -0.212846        -5.7918
  49   1.0000      -0.207518        -5.6468
  50   1.0000      -0.199384        -5.4255
  51   1.0000      -0.160362        -4.3637
  52   1.0000      -0.153082        -4.1656
  53   1.0000      -0.131638        -3.5821
  54   1.0000      -0.115700        -3.1484
  55   1.0000      -0.103951        -2.8286
  56   1.0000      -0.093356        -2.5404
  57   1.0000      -0.076757        -2.0887
  58   1.0000      -0.064058        -1.7431
  59   1.0000      -0.058950        -1.6041
  60   1.0000      -0.056061        -1.5255
  61   1.0000      -0.045561        -1.2398
  62   1.0000      -0.038865        -1.0576
  63   1.0000      -0.026700        -0.7266
  64   1.0000      -0.000763        -0.0208
  65   1.0000       0.026893         0.7318
  66   1.0000       0.029748         0.8095
  67   1.0000       0.037534         1.0213
  68   1.0000       0.045748         1.2449
  69   1.0000       0.053157         1.4465
  70   1.0000       0.064232         1.7478
  71   1.0000       0.072654         1.9770
  72   1.0000       0.081672         2.2224
  73   0.0000       0.234039         6.3685
  74   0.0000       0.246035         6.6950
  75   0.0000       0.248283         6.7561
  76   0.0000       0.251368         6.8401
  77   0.0000       0.253149         6.8885

                 SPIN DOWN ORBITALS
  NO   OCC          E(Eh)            E(eV)
   0   1.0000    -196.607525     -5349.9627
   1   1.0000     -88.561333     -2409.8764
   2   1.0000     -88.560456     -2409.8525
   3   1.0000     -88.559515     -2409.8269
   4   1.0000     -88.559042     -2409.8140
   5   1.0000     -21.967638      -597.7698
   6   1.0000     -18.828472      -512.3488
   7   1.0000     -18.485294      -503.0104
   8   1.0000     -18.467219      -502.5186
   9   1.0000     -18.466754      -502.5059
  10   1.0000      -9.947626      -270.6887
  11   1.0000      -9.940802      -270.5030
  12   1.0000      -9.937101      -270.4023
  13   1.0000      -9.929479      -270.1949
  14   1.0000      -9.927751      -270.1478
  15   1.0000      -9.917753      -269.8758
  16   1.0000      -7.615259      -207.2217
  17   1.0000      -7.614753      -207.2080
  18   1.0000      -7.613919      -207.1853
  19   1.0000      -7.613172      -207.1649
  20   1.0000      -5.580660      -151.8575
  21   1.0000      -5.579775      -151.8334
  22   1.0000      -5.579192      -151.8175
  23   1.0000      -5.578655      -151.8029
  24   1.0000      -5.574359      -151.6860
  25   1.0000      -5.574268      -151.6835
  26   1.0000      -5.573206      -151.6547
  27   1.0000      -5.572556      -151.6370
  28   1.0000      -5.572415      -151.6331
  29   1.0000      -5.571506      -151.6084
  30   1.0000      -5.571143      -151.5985
  31   1.0000      -5.569906      -151.5649
  32   1.0000      -2.330392       -63.4132
  33   1.0000      -1.398935       -38.0670
  34   1.0000      -1.341773       -36.5115
  35   1.0000      -1.340070       -36.4652
  36   1.0000      -0.595003       -16.1909
  37   1.0000      -0.588395       -16.0110
  38   1.0000      -0.551725       -15.0132
  39   1.0000      -0.474884       -12.9222
  40   1.0000      -0.469085       -12.7645
  41   1.0000      -0.401028       -10.9125
  42   1.0000      -0.392382       -10.6773
  43   1.0000      -0.332688        -9.0529
  44   1.0000      -0.324933        -8.8419
  45   1.0000      -0.304314        -8.2808
  46   1.0000      -0.279087        -7.5943
  47   1.0000      -0.230627        -6.2757
  48   1.0000      -0.212675        -5.7872
  49   1.0000      -0.207463        -5.6454
  50   1.0000      -0.199210        -5.4208
  51   1.0000      -0.160225        -4.3599
  52   1.0000      -0.153040        -4.1644
  53   1.0000      -0.131215        -3.5705
  54   1.0000      -0.115694        -3.1482
  55   1.0000      -0.103688        -2.8215
  56   1.0000      -0.092824        -2.5259
  57   1.0000      -0.075815        -2.0630
  58   1.0000      -0.062964        -1.7133
  59   1.0000      -0.057888        -1.5752
  60   1.0000      -0.055382        -1.5070
  61   1.0000      -0.047029        -1.2797
  62   1.0000      -0.041084        -1.1179
  63   1.0000      -0.026001        -0.7075
  64   1.0000       0.004147         0.1128
  65   1.0000       0.028056         0.7634
  66   1.0000       0.033074         0.9000
  67   1.0000       0.044806         1.2192
  68   1.0000       0.047235         1.2853
  69   1.0000       0.062701         1.7062
  70   1.0000       0.067330         1.8322
  71   1.0000       0.073896         2.0108
  72   0.0000       0.233159         6.3446
  73   0.0000       0.248597         6.7647
  74   0.0000       0.254944         6.9374
  75   0.0000       0.255059         6.9405
  76   0.0000       0.264755         7.2043

MULLIKEN ATOMIC CHARGES AND SPIN POPULATIONS
--------------------------------------------
   0 V :    0.531203    1.190573
   1 S :   -0.411783    0.001438
   2 S :   -0.354890   -0.032988
   3 S :   -0.422092   -0.031926
   4 S :   -0.382371   -0.022028
   5 O :   -0.548755   -0.134614
   6 C :   -0.246328    0.005396
   7 C :   -0.235817    0.006559
   8 C :   -0.156899    0.003040
   9 H :    0.075341   -0.000887
  10 H :    0.050402    0.002018
  11 H :    0.138210    0.000549
  12 H :    0.004751   -0.000078
  13 H :    0.096459   -0.000117
  14 H :    0.049532   -0.000099
  15 C :   -0.236769   -0.001688
  16 C :   -0.286059    0.002498
  17 C :   -0.037726    0.009734
  18 H :    0.039833    0.000899
  19 H :    0.130987    0.000064
  20 H :    0.000818    0.000318
  21 H :    0.005954    0.001738
  22 H :    0.058092   -0.000553
  23 H :    0.137907    0.000153
Sum of atomic charges         :   -2.0000000

LOEWDIN ATOMIC CHARGES AND SPIN POPULATIONS
-------------------------------------------
   0 V :   -0.208714    1.146756
   1 S :   -0.042016    0.006094
   2 S :   -0.037061   -0.022595
   3 S :   -0.089398   -0.022568
   4 S :   -0.064058   -0.012786
   5 O :   -0.377722   -0.121400
   6 C :   -0.326541    0.004995
   7 C :   -0.314022    0.006760
   8 C :   -0.186544    0.000458
   9 H :    0.037261   -0.000002
  10 H :    0.029180    0.000608
  11 H :    0.069782    0.000292
  12 H :    0.031585    0.000133
  13 H :    0.045055   -0.000070
  14 H :    0.027158   -0.000549
  15 C :   -0.323318    0.001553
  16 C :   -0.322759    0.008464
  17 C :   -0.193845    0.002667
  18 H :    0.036172    0.000548
  19 H :    0.048269   -0.000556
  20 H :    0.033691    0.000256
  21 H :    0.044787    0.001214
  22 H :    0.026724   -0.000610
  23 H :    0.056335    0.000337

  Mayer bond orders larger than 0.100000
B(  0-V ,  1-S ) :   0.6963 B(  0-V ,  2-S ) :   0.8552 B(  0-V ,  3-S ) :   0.7784
B(  0-V ,  4-S ) :   0.7795 B(  0-V ,  5-O ) :   2.0695 B(  1-S , 15-C ) :   1.0205
B(  2-S ,  6-C ) :   1.0087 B(  3-S , 16-C ) :   1.0242 B(  3-S , 17-C ) :  -0.1165
B(  4-S ,  7-C ) :   1.0659 B(  6-C ,  8-C ) :   0.8984 B(  6-C , 13-H ) :   0.9740
B(  6-C , 14-H ) :   0.9670 B(  7-C ,  8-C ) :   0.9219 B(  7-C ,  9-H ) :   0.9794
B(  7-C , 10-H ) :   0.9681 B(  8-C , 11-H ) :   0.9872 B(  8-C , 12-H ) :   0.9454
B( 15-C , 17-C ) :   0.8318 B( 15-C , 22-H ) :   0.9614 B( 15-C , 23-H ) :   0.9598
B( 16-C , 17-C ) :   0.8810 B( 16-C , 18-H ) :   0.9629 B( 16-C , 19-H ) :   0.9974
B( 17-C , 20-H ) :   0.9771 B( 17-C , 21-H ) :   0.9442

FINAL SINGLE POINT ENERGY     -2847.629002312128

DIPOLE MOMENT
-------------
                                X             Y             Z
Electronic contribution:      4.35871      -3.36945       2.45103
Nuclear contribution   :     -4.80445       3.38333      -2.44350
                        -----------------------------------------
Total Dipole Moment    :     -0.44574       0.01388       0.00753
                        -----------------------------------------
Magnitude (a.u.)       :      0.44602
Magnitude (Debye)      :      1.13369

Rotational constants in cm-1:     0.027266     0.011717     0.009585
Rotational constants in MHz :   817.420823   351.275037   287.347116

                             ****ORCA TERMINATED NORMALLY****
TOTAL RUN TIME: 0 days 0 hours 14 minutes 25 seconds 211 msec
