                         Program Version 5.0.4 -  RELEASE  -
|  1> ! nofrozencore ReducedPop printbasis
|  2> ! B3LYP TZVP
|  3>
|  4> %basis
|  5> newgto V "CP(PPP)" end
|  6> end
|  7>
|  8> %pal
|  9> nprocs 4
| 10> end
| 11>
| 12> % sym SymThresh 1e-2 end
| 13> * xyz -2 2
| 14> V -0.3153030332109946 -0.18858881595254295 -0.32721289747741344
| 15> S 1.0846878552330639 1.596320257514326 -1.4920303279442046
| 16> S 1.778715157642089 -1.345276925009836 -0.6109317058684683
| 17> S -1.2081881180598586 1.7548248990199435 1.027313814177353
| 18> S -1.1580901272446686 -1.4318628079512035 1.636233552789308
| 19> O -1.2628347929840418 -0.865572542117917 -1.4505882666940602
| 20> C 1.4755122970970438 -2.881379620611463 0.4047488117800274
| 21> C -0.9976258987354782 -3.2078634094343967 1.1253610103931782
| 22> C 0.11300223202186131 -3.538487708925707 0.11439255215605874
| 23> H -1.9560841329689136 -3.5391964089718875 0.70558801138465
| 24> H -0.833074681256692 -3.785400523602523 2.0449252230714454
| 25> H -0.21076044159582435 -3.2334511812146394 -0.8826277249180351
| 26> H 0.2234352230345559 -4.6380314285412565 0.0932234228402076
| 27> H 1.5385985691147788 -2.6121204429402543 1.4788581363665558
| 28> H 2.292677913027078 -3.5985527533511874 0.18094896609648486
| 29> C 1.4768969124068214 2.8203852298008654 -0.160045173939467
| 30> C -1.020074815018277 3.304356638830011 0.028339991662983635
| 31> C 0.3952484984948319 3.892104088913098 0.022602004811948167
| 32> H -1.7279633789124322 4.042320293240909 0.4246661672587697
| 33> H -1.3067188657188373 3.0774256040151293 -0.9981266521978003
| 34> H 0.5806368125712468 4.432066253422463 0.9674426635154492
| 35> H 0.46621187252445134 4.631700715476851 -0.7941884135181454
| 36> H 2.436227452809047 3.2928977743775736 -0.40614588713879235
| 37> H 1.6039147703072225 2.273597319829103 0.7770247604048724
| 38> *
| 39>
| 40> % eprnmr
| 41> gtensor true
| 42> Nuclei = all H {aiso,adip,aorb,fgrad,rho}
| 43> Nuclei = all V {aiso,adip,aorb,fgrad,rho}
| 44> end
| 45>
| 46>                          ****END OF INPUT****

CARTESIAN COORDINATES (ANGSTROEM)
---------------------------------
  V     -0.315788   -0.188472   -0.327779
  S      1.084203    1.596437   -1.492597
  S      1.778230   -1.345160   -0.611498
  S     -1.208673    1.754942    1.026748
  S     -1.158575   -1.431746    1.635667
  O     -1.263320   -0.865455   -1.451155
  C      1.475027   -2.881262    0.404183
  C     -0.998111   -3.207746    1.124795
  C      0.112517   -3.538371    0.113826
  H     -1.956569   -3.539079    0.705022
  H     -0.833560   -3.785283    2.044359
  H     -0.211246   -3.233334   -0.883194
  H      0.222950   -4.637914    0.092657
  H      1.538113   -2.612003    1.478292
  H      2.292193   -3.598436    0.180383
  C      1.476412    2.820502   -0.160611
  C     -1.020560    3.304474    0.027774
  C      0.394763    3.892221    0.022036
  H     -1.728449    4.042437    0.424100
  H     -1.307204    3.077543   -0.998693
  H      0.580152    4.432183    0.966876
  H      0.465727    4.631818   -0.794755
  H      2.435742    3.293015   -0.406712
  H      1.603430    2.273714    0.776458

 Total Charge           Charge          ....   -2
 Multiplicity           Mult            ....    2
 Number of Electrons    NEL             ....  145
 Basis Dimension        Dim             ....  353

ORBITAL ENERGIES
----------------
                 SPIN UP ORBITALS
  NO   OCC          E(Eh)            E(eV)
   0   1.0000    -196.608844     -5349.9986
   1   1.0000     -88.563067     -2409.9236
   2   1.0000     -88.561784     -2409.8887
   3   1.0000     -88.559270     -2409.8202
   4   1.0000     -88.556519     -2409.7454
   5   1.0000     -21.983862      -598.2113
   6   1.0000     -18.823150      -512.2039
   7   1.0000     -18.491687      -503.1844
   8   1.0000     -18.484461      -502.9877
   9   1.0000     -18.484386      -502.9857
  10   1.0000      -9.942414      -270.5468
  11   1.0000      -9.935869      -270.3687
  12   1.0000      -9.933749      -270.3110
  13   1.0000      -9.933664      -270.3087
  14   1.0000      -9.932279      -270.2710
  15   1.0000      -9.925376      -270.0832
  16   1.0000      -7.616982      -207.2686
  17   1.0000      -7.616029      -207.2427
  18   1.0000      -7.613264      -207.1674
  19   1.0000      -7.610821      -207.1010
  20   1.0000      -5.582384      -151.9044
  21   1.0000      -5.581385      -151.8772
  22   1.0000      -5.578483      -151.7982
  23   1.0000      -5.576044      -151.7319
  24   1.0000      -5.575884      -151.7275
  25   1.0000      -5.575090      -151.7059
  26   1.0000      -5.574038      -151.6773
  27   1.0000      -5.573052      -151.6504
  28   1.0000      -5.572238      -151.6283
  29   1.0000      -5.570542      -151.5821
  30   1.0000      -5.570052      -151.5688
  31   1.0000      -5.567898      -151.5102
  32   1.0000      -2.376128       -64.6577
  33   1.0000      -1.417350       -38.5681
  34   1.0000      -1.404363       -38.2147
  35   1.0000      -1.404178       -38.2096
  36   1.0000      -0.585671       -15.9369
  37   1.0000      -0.550911       -14.9911
  38   1.0000      -0.547018       -14.8851
  39   1.0000      -0.467860       -12.7311
  40   1.0000      -0.462780       -12.5929
  41   1.0000      -0.403164       -10.9707
  42   1.0000      -0.394921       -10.7464
  43   1.0000      -0.337408        -9.1813
  44   1.0000      -0.327715        -8.9176
  45   1.0000      -0.302736        -8.2379
  46   1.0000      -0.284898        -7.7525
  47   1.0000      -0.213709        -5.8153
  48   1.0000      -0.203416        -5.5352
  49   1.0000      -0.202557        -5.5119
  50   1.0000      -0.196899        -5.3579
  51   1.0000      -0.156282        -4.2526
  52   1.0000      -0.134170        -3.6510
  53   1.0000      -0.130352        -3.5471
  54   1.0000      -0.111592        -3.0366
  55   1.0000      -0.105745        -2.8775
  56   1.0000      -0.103212        -2.8085
  57   1.0000      -0.080266        -2.1841
  58   1.0000      -0.070338        -1.9140
  59   1.0000      -0.061055        -1.6614
  60   1.0000      -0.051580        -1.4036
  61   1.0000      -0.042577        -1.1586
  62   1.0000      -0.038940        -1.0596
  63   1.0000      -0.036572        -0.9952
  64   1.0000       0.000294         0.0080
  65   1.0000       0.026422         0.7190
  66   1.0000       0.030220         0.8223
  67   1.0000       0.037890         1.0310
  68   1.0000       0.044356         1.2070
  69   1.0000       0.055505         1.5104
  70   1.0000       0.062396         1.6979
  71   1.0000       0.070526         1.9191
  72   1.0000       0.083396         2.2693
  73   0.0000       0.232576         6.3287
  74   0.0000       0.240665         6.5488
  75   0.0000       0.248948         6.7742
  76   0.0000       0.253062         6.8862
  77   0.0000       0.257928         7.0186

                 SPIN DOWN ORBITALS
  NO   OCC          E(Eh)            E(eV)
   0   1.0000    -196.608978     -5350.0023
   1   1.0000     -88.563259     -2409.9288
   2   1.0000     -88.561865     -2409.8909
   3   1.0000     -88.559429     -2409.8246
   4   1.0000     -88.556511     -2409.7452
   5   1.0000     -21.968675      -597.7980
   6   1.0000     -18.826792      -512.3030
   7   1.0000     -18.486344      -503.0390
   8   1.0000     -18.468583      -502.5557
   9   1.0000     -18.467535      -502.5272
  10   1.0000      -9.942222      -270.5416
  11   1.0000      -9.935693      -270.3640
  12   1.0000      -9.933634      -270.3079
  13   1.0000      -9.933622      -270.3076
  14   1.0000      -9.932240      -270.2700
  15   1.0000      -9.925390      -270.0836
  16   1.0000      -7.617168      -207.2737
  17   1.0000      -7.616104      -207.2447
  18   1.0000      -7.613416      -207.1716
  19   1.0000      -7.610816      -207.1008
  20   1.0000      -5.582565      -151.9093
  21   1.0000      -5.581492      -151.8801
  22   1.0000      -5.578627      -151.8022
  23   1.0000      -5.576385      -151.7412
  24   1.0000      -5.576069      -151.7325
  25   1.0000      -5.575498      -151.7170
  26   1.0000      -5.574173      -151.6810
  27   1.0000      -5.572893      -151.6461
  28   1.0000      -5.572658      -151.6397
  29   1.0000      -5.570664      -151.5855
  30   1.0000      -5.570422      -151.5789
  31   1.0000      -5.567469      -151.4985
  32   1.0000      -2.330775       -63.4236
  33   1.0000      -1.397745       -38.0346
  34   1.0000      -1.343169       -36.5495
  35   1.0000      -1.340145       -36.4672
  36   1.0000      -0.593633       -16.1536
  37   1.0000      -0.550815       -14.9885
  38   1.0000      -0.546887       -14.8816
  39   1.0000      -0.467726       -12.7275
  40   1.0000      -0.462747       -12.5920
  41   1.0000      -0.403263       -10.9733
  42   1.0000      -0.395049       -10.7498
  43   1.0000      -0.337632        -9.1874
  44   1.0000      -0.328070        -8.9272
  45   1.0000      -0.302623        -8.2348
  46   1.0000      -0.284977        -7.7546
  47   1.0000      -0.213686        -5.8147
  48   1.0000      -0.203219        -5.5299
  49   1.0000      -0.202509        -5.5105
  50   1.0000      -0.196734        -5.3534
  51   1.0000      -0.156073        -4.2470
  52   1.0000      -0.134081        -3.6485
  53   1.0000      -0.130171        -3.5421
  54   1.0000      -0.111517        -3.0345
  55   1.0000      -0.105710        -2.8765
  56   1.0000      -0.102969        -2.8019
  57   1.0000      -0.079320        -2.1584
  58   1.0000      -0.068076        -1.8524
  59   1.0000      -0.060283        -1.6404
  60   1.0000      -0.051617        -1.4046
  61   1.0000      -0.043828        -1.1926
  62   1.0000      -0.040559        -1.1037
  63   1.0000      -0.036893        -1.0039
  64   1.0000       0.003539         0.0963
  65   1.0000       0.028656         0.7798
  66   1.0000       0.032437         0.8826
  67   1.0000       0.044357         1.2070
  68   1.0000       0.049736         1.3534
  69   1.0000       0.059081         1.6077
  70   1.0000       0.070864         1.9283
  71   1.0000       0.072866         1.9828
  72   0.0000       0.232943         6.3387
  73   0.0000       0.250255         6.8098
  74   0.0000       0.257412         7.0045
  75   0.0000       0.260600         7.0913
  76   0.0000       0.261388         7.1127

MULLIKEN ATOMIC CHARGES AND SPIN POPULATIONS
--------------------------------------------
   0 V :    0.529554    1.201710
   1 S :   -0.427660   -0.004022
   2 S :   -0.340467   -0.037432
   3 S :   -0.426165   -0.028669
   4 S :   -0.388010   -0.020457
   5 O :   -0.548091   -0.140776
   6 C :   -0.266120    0.008529
   7 C :   -0.233619    0.007593
   8 C :   -0.157193    0.001053
   9 H :    0.073957   -0.001082
  10 H :    0.050465    0.003234
  11 H :    0.156006    0.001504
  12 H :    0.007805    0.000420
  13 H :    0.113366   -0.000233
  14 H :    0.040378    0.001664
  15 C :   -0.251016   -0.002304
  16 C :   -0.252817    0.001675
  17 C :   -0.070404    0.007895
  18 H :    0.047672   -0.000568
  19 H :    0.126909   -0.000193
  20 H :    0.012131    0.001320
  21 H :    0.013702   -0.000418
  22 H :    0.052611   -0.000559
  23 H :    0.137005    0.000114
Sum of atomic charges         :   -2.0000000

LOEWDIN ATOMIC CHARGES AND SPIN POPULATIONS
-------------------------------------------
   0 V :   -0.194459    1.157187
   1 S :   -0.075665    0.000804
   2 S :   -0.021389   -0.024620
   3 S :   -0.082831   -0.021087
   4 S :   -0.056087   -0.009884
   5 O :   -0.390067   -0.126681
   6 C :   -0.328733    0.007297
   7 C :   -0.311244    0.007431
   8 C :   -0.191955    0.000710
   9 H :    0.038947    0.000014
  10 H :    0.028013    0.001205
  11 H :    0.073895    0.000331
  12 H :    0.031929    0.000187
  13 H :    0.051887   -0.000230
  14 H :    0.026942    0.000271
  15 C :   -0.317866    0.001655
  16 C :   -0.326309    0.005195
  17 C :   -0.190783    0.001193
  18 H :    0.027824   -0.000467
  19 H :    0.051960   -0.000676
  20 H :    0.034546    0.000526
  21 H :    0.035379    0.000212
  22 H :    0.029992   -0.000589
  23 H :    0.056073    0.000017

  Mayer bond orders larger than 0.100000
B(  0-V ,  1-S ) :   0.6988 B(  0-V ,  2-S ) :   0.8971 B(  0-V ,  3-S ) :   0.7277
B(  0-V ,  4-S ) :   0.7918 B(  0-V ,  5-O ) :   2.0627 B(  1-S , 15-C ) :   1.0191
B(  2-S ,  6-C ) :   1.0006 B(  3-S , 16-C ) :   1.0400 B(  4-S ,  7-C ) :   1.0558
B(  6-C ,  8-C ) :   0.8778 B(  6-C , 13-H ) :   0.9819 B(  6-C , 14-H ) :   0.9600
B(  7-C ,  8-C ) :   0.9159 B(  7-C ,  9-H ) :   0.9756 B(  7-C , 10-H ) :   0.9691
B(  8-C , 11-H ) :   0.9908 B(  8-C , 12-H ) :   0.9436 B( 15-C , 17-C ) :   0.9013
B( 15-C , 22-H ) :   0.9697 B( 15-C , 23-H ) :   0.9756 B( 16-C , 17-C ) :   0.9039
B( 16-C , 18-H ) :   0.9658 B( 16-C , 19-H ) :   0.9758 B( 17-C , 20-H ) :   0.9555
B( 17-C , 21-H ) :   0.9597

FINAL SINGLE POINT ENERGY     -2847.709826193602

DIPOLE MOMENT
-------------
                                X             Y             Z
Electronic contribution:     -4.00662      -1.36110      -4.53149
Nuclear contribution   :      4.33659       1.16533       4.84105
                        -----------------------------------------
Total Dipole Moment    :      0.32997      -0.19577       0.30956
                        -----------------------------------------
Magnitude (a.u.)       :      0.49298
Magnitude (Debye)      :      1.25306

Rotational constants in cm-1:     0.027171     0.011875     0.009592
Rotational constants in MHz :   814.559338   356.018378   287.549584

                             ****ORCA TERMINATED NORMALLY****
TOTAL RUN TIME: 0 days 0 hours 14 minutes 28 seconds 412 msec
