                         Program Version 5.0.4 -  RELEASE  -
|  1> ! nofrozencore ReducedPop printbasis
|  2> ! B3LYP TZVP
|  3>
|  4> %basis
|  5> newgto V "CP(PPP)" end
|  6> end
|  7>
|  8> %pal
|  9> nprocs 8
| 10> end
| 11>
| 12> % sym SymThresh 1e-2 end
| 13> * xyz -2 2
| 14> V 0.08501624448017382 0.48355646307271755 0.034349341144931184
| 15> S -1.6626602091777538 0.18951130607239566 1.8392452749148827
| 16> S 1.387574495928478 -0.909289755705875 1.5689426085842593
| 17> S -1.6832443765453318 0.11807768266301563 -1.6730991242193178
| 18> S 1.5256246195331753 -0.25441545018723843 -1.855279717265102
| 19> O 0.45274415033730236 2.0307969736130866 0.22630316357550598
| 20> C 3.076899319812346 -1.1512312051925633 0.8252446534041887
| 21> C 3.2767979837475525 0.1203273622525734 -1.402087952457089
| 22> C 3.626449606128818 0.061079363521324447 0.10912229001431836
| 23> H 3.5562832619567195 1.1072736538774153 -1.789901399022982
| 24> H 3.8841251366308542 -0.6197872542439256 -1.9396412407894204
| 25> H 3.241094499305929 0.9562782493456126 0.6043339307190506
| 26> H 4.726059251766394 0.08315616633107026 0.21730288763932937
| 27> H 3.0537917466648814 -1.9984181116485775 0.13146231606579606
| 28> H 3.7358504078670975 -1.420679856276482 1.6586821246361432
| 29> C -2.8400128592983145 -1.0697692431787804 1.0358866191441563
| 30> C -3.231703022088654 0.6004512618660817 -0.8927828098627849
| 31> C -3.782912692655238 -0.6403046347184096 0.20143674669736564
| 32> H -3.9310907993396182 0.8066451345860283 -1.712583277612533
| 33> H -3.129421441765226 1.5002942886448436 -0.27859015278670235
| 34> H -4.1770302154278784 -1.5840046150887144 -0.24580227333402993
| 35> H -4.575958526195598 -0.2959260973253637 0.901554956122247
| 36> H -3.3855853903291315 -1.60835407254874 1.8226696719402624
| 37> H -2.167831752301366 -1.7919277767268866 0.5717394974327256
| 38> *
| 39>
| 40> % eprnmr
| 41> gtensor true
| 42> Nuclei = all H {aiso,adip,aorb,fgrad,rho}
| 43> Nuclei = all V {aiso,adip,aorb,fgrad,rho}
| 44> end
| 45>
| 46>                          ****END OF INPUT****

CARTESIAN COORDINATES (ANGSTROEM)
---------------------------------
  V      0.084851    0.484289    0.034427
  S     -1.662826    0.190244    1.839323
  S      1.387409   -0.908557    1.569020
  S     -1.683410    0.118810   -1.673021
  S      1.525459   -0.253683   -1.855202
  O      0.452579    2.031529    0.226381
  C      3.076734   -1.150499    0.825322
  C      3.276633    0.121060   -1.402010
  C      3.626284    0.061812    0.109200
  H      3.556118    1.108006   -1.789824
  H      3.883960   -0.619055   -1.939564
  H      3.240929    0.957011    0.604412
  H      4.725894    0.083889    0.217381
  H      3.053626   -1.997686    0.131540
  H      3.735685   -1.419947    1.658760
  C     -2.840178   -1.069037    1.035964
  C     -3.231868    0.601184   -0.892705
  C     -3.783078   -0.639572    0.201514
  H     -3.931256    0.807378   -1.712506
  H     -3.129587    1.501027   -0.278512
  H     -4.177196   -1.583272   -0.245725
  H     -4.576124   -0.295194    0.901633
  H     -3.385751   -1.607622    1.822747
  H     -2.167997   -1.791195    0.571817

 Total Charge           Charge          ....   -2
 Multiplicity           Mult            ....    2
 Number of Electrons    NEL             ....  145
 Basis Dimension        Dim             ....  353

ORBITAL ENERGIES
----------------
                 SPIN UP ORBITALS
  NO   OCC          E(Eh)            E(eV)
   0   1.0000    -196.606959     -5349.9473
   1   1.0000     -88.562704     -2409.9137
   2   1.0000     -88.560562     -2409.8554
   3   1.0000     -88.559127     -2409.8164
   4   1.0000     -88.556392     -2409.7419
   5   1.0000     -21.982305      -598.1689
   6   1.0000     -18.824826      -512.2496
   7   1.0000     -18.490072      -503.1404
   8   1.0000     -18.482918      -502.9458
   9   1.0000     -18.482851      -502.9439
  10   1.0000      -9.946472      -270.6573
  11   1.0000      -9.943868      -270.5864
  12   1.0000      -9.933585      -270.3066
  13   1.0000      -9.929874      -270.2056
  14   1.0000      -9.928481      -270.1677
  15   1.0000      -9.920956      -269.9629
  16   1.0000      -7.617709      -207.2884
  17   1.0000      -7.614350      -207.1970
  18   1.0000      -7.613523      -207.1745
  19   1.0000      -7.610086      -207.0810
  20   1.0000      -5.582719      -151.9135
  21   1.0000      -5.579765      -151.8331
  22   1.0000      -5.578961      -151.8112
  23   1.0000      -5.576644      -151.7482
  24   1.0000      -5.575410      -151.7146
  25   1.0000      -5.574995      -151.7033
  26   1.0000      -5.573172      -151.6537
  27   1.0000      -5.572547      -151.6367
  28   1.0000      -5.571524      -151.6089
  29   1.0000      -5.570473      -151.5803
  30   1.0000      -5.569357      -151.5499
  31   1.0000      -5.567130      -151.4893
  32   1.0000      -2.374978       -64.6264
  33   1.0000      -1.417695       -38.5774
  34   1.0000      -1.403065       -38.1793
  35   1.0000      -1.402631       -38.1675
  36   1.0000      -0.587393       -15.9838
  37   1.0000      -0.573396       -15.6029
  38   1.0000      -0.551692       -15.0123
  39   1.0000      -0.474084       -12.9005
  40   1.0000      -0.469471       -12.7750
  41   1.0000      -0.400601       -10.9009
  42   1.0000      -0.392464       -10.6795
  43   1.0000      -0.334317        -9.0972
  44   1.0000      -0.326849        -8.8940
  45   1.0000      -0.304454        -8.2846
  46   1.0000      -0.281415        -7.6577
  47   1.0000      -0.225120        -6.1258
  48   1.0000      -0.207991        -5.6597
  49   1.0000      -0.207326        -5.6416
  50   1.0000      -0.197183        -5.3656
  51   1.0000      -0.161623        -4.3980
  52   1.0000      -0.149291        -4.0624
  53   1.0000      -0.129593        -3.5264
  54   1.0000      -0.110748        -3.0136
  55   1.0000      -0.107322        -2.9204
  56   1.0000      -0.099088        -2.6963
  57   1.0000      -0.078512        -2.1364
  58   1.0000      -0.064098        -1.7442
  59   1.0000      -0.063260        -1.7214
  60   1.0000      -0.052068        -1.4169
  61   1.0000      -0.046788        -1.2732
  62   1.0000      -0.042936        -1.1683
  63   1.0000      -0.028374        -0.7721
  64   1.0000      -0.000488        -0.0133
  65   1.0000       0.027410         0.7459
  66   1.0000       0.030474         0.8292
  67   1.0000       0.036356         0.9893
  68   1.0000       0.045720         1.2441
  69   1.0000       0.053834         1.4649
  70   1.0000       0.065230         1.7750
  71   1.0000       0.073035         1.9874
  72   1.0000       0.080609         2.1935
  73   0.0000       0.234860         6.3909
  74   0.0000       0.246502         6.7077
  75   0.0000       0.249965         6.8019
  76   0.0000       0.252008         6.8575
  77   0.0000       0.255599         6.9552

                 SPIN DOWN ORBITALS
  NO   OCC          E(Eh)            E(eV)
   0   1.0000    -196.607100     -5349.9512
   1   1.0000     -88.562857     -2409.9178
   2   1.0000     -88.560739     -2409.8602
   3   1.0000     -88.559231     -2409.8192
   4   1.0000     -88.556380     -2409.7416
   5   1.0000     -21.967261      -597.7596
   6   1.0000     -18.828288      -512.3438
   7   1.0000     -18.484875      -502.9990
   8   1.0000     -18.466890      -502.5096
   9   1.0000     -18.466363      -502.4953
  10   1.0000      -9.946311      -270.6529
  11   1.0000      -9.943687      -270.5815
  12   1.0000      -9.933452      -270.3030
  13   1.0000      -9.929840      -270.2047
  14   1.0000      -9.928500      -270.1682
  15   1.0000      -9.920887      -269.9610
  16   1.0000      -7.617854      -207.2924
  17   1.0000      -7.614522      -207.2017
  18   1.0000      -7.613622      -207.1772
  19   1.0000      -7.610076      -207.0807
  20   1.0000      -5.582858      -151.9173
  21   1.0000      -5.579932      -151.8377
  22   1.0000      -5.579083      -151.8146
  23   1.0000      -5.577058      -151.7595
  24   1.0000      -5.575440      -151.7154
  25   1.0000      -5.575100      -151.7062
  26   1.0000      -5.573629      -151.6662
  27   1.0000      -5.572951      -151.6477
  28   1.0000      -5.571657      -151.6125
  29   1.0000      -5.570404      -151.5784
  30   1.0000      -5.569704      -151.5593
  31   1.0000      -5.566702      -151.4777
  32   1.0000      -2.330065       -63.4043
  33   1.0000      -1.398715       -38.0610
  34   1.0000      -1.341543       -36.5052
  35   1.0000      -1.339617       -36.4528
  36   1.0000      -0.594786       -16.1849
  37   1.0000      -0.573273       -15.5995
  38   1.0000      -0.551595       -15.0097
  39   1.0000      -0.474058       -12.8998
  40   1.0000      -0.469405       -12.7732
  41   1.0000      -0.400729       -10.9044
  42   1.0000      -0.392369       -10.6769
  43   1.0000      -0.334588        -9.1046
  44   1.0000      -0.327245        -8.9048
  45   1.0000      -0.304439        -8.2842
  46   1.0000      -0.281400        -7.6573
  47   1.0000      -0.225100        -6.1253
  48   1.0000      -0.207934        -5.6582
  49   1.0000      -0.207156        -5.6370
  50   1.0000      -0.197020        -5.3612
  51   1.0000      -0.161502        -4.3947
  52   1.0000      -0.149227        -4.0607
  53   1.0000      -0.129371        -3.5204
  54   1.0000      -0.110659        -3.0112
  55   1.0000      -0.107187        -2.9167
  56   1.0000      -0.098216        -2.6726
  57   1.0000      -0.077857        -2.1186
  58   1.0000      -0.062723        -1.7068
  59   1.0000      -0.061492        -1.6733
  60   1.0000      -0.052562        -1.4303
  61   1.0000      -0.047637        -1.2963
  62   1.0000      -0.044399        -1.2082
  63   1.0000      -0.028741        -0.7821
  64   1.0000       0.004113         0.1119
  65   1.0000       0.028350         0.7715
  66   1.0000       0.033320         0.9067
  67   1.0000       0.043768         1.1910
  68   1.0000       0.048144         1.3101
  69   1.0000       0.061207         1.6655
  70   1.0000       0.069452         1.8899
  71   1.0000       0.074324         2.0225
  72   0.0000       0.233434         6.3521
  73   0.0000       0.249509         6.7895
  74   0.0000       0.255505         6.9526
  75   0.0000       0.260135         7.0786
  76   0.0000       0.264235         7.1902

MULLIKEN ATOMIC CHARGES AND SPIN POPULATIONS
--------------------------------------------
   0 V :    0.526744    1.192231
   1 S :   -0.436020   -0.004118
   2 S :   -0.351551   -0.033298
   3 S :   -0.397828   -0.027317
   4 S :   -0.385042   -0.021614
   5 O :   -0.546317   -0.133760
   6 C :   -0.245445    0.005879
   7 C :   -0.235430    0.006342
   8 C :   -0.159529    0.003068
   9 H :    0.075038   -0.000946
  10 H :    0.052115    0.002196
  11 H :    0.138901    0.000662
  12 H :    0.005808   -0.000031
  13 H :    0.093623   -0.000139
  14 H :    0.048516   -0.000022
  15 C :   -0.287321   -0.003321
  16 C :   -0.237219    0.003585
  17 C :   -0.046199    0.008893
  18 H :    0.052029    0.000107
  19 H :    0.129009   -0.000493
  20 H :    0.010908    0.002607
  21 H :    0.006534   -0.000542
  22 H :    0.047458   -0.000490
  23 H :    0.141217    0.000522
Sum of atomic charges         :   -2.0000000

LOEWDIN ATOMIC CHARGES AND SPIN POPULATIONS
-------------------------------------------
   0 V :   -0.209586    1.149023
   1 S :   -0.094531    0.001886
   2 S :   -0.038287   -0.022835
   3 S :   -0.037261   -0.018897
   4 S :   -0.061319   -0.012584
   5 O :   -0.376493   -0.120477
   6 C :   -0.326286    0.005285
   7 C :   -0.314718    0.006953
   8 C :   -0.188163    0.000491
   9 H :    0.035289   -0.000004
  10 H :    0.029103    0.000629
  11 H :    0.070299    0.000353
  12 H :    0.031421    0.000156
  13 H :    0.045260   -0.000068
  14 H :    0.027991   -0.000524
  15 C :   -0.317030    0.003414
  16 C :   -0.328253    0.006363
  17 C :   -0.191138    0.000887
  18 H :    0.025095   -0.000388
  19 H :    0.053982   -0.000651
  20 H :    0.043820    0.001031
  21 H :    0.032304    0.000198
  22 H :    0.036038   -0.000503
  23 H :    0.052464    0.000261

  Mayer bond orders larger than 0.100000
B(  0-V ,  1-S ) :   0.7158 B(  0-V ,  2-S ) :   0.8606 B(  0-V ,  3-S ) :   0.7606
B(  0-V ,  4-S ) :   0.7741 B(  0-V ,  5-O ) :   2.0730 B(  1-S , 15-C ) :   1.0306
B(  1-S , 17-C ) :  -0.1094 B(  2-S ,  6-C ) :   1.0120 B(  3-S , 16-C ) :   1.0211
B(  4-S ,  7-C ) :   1.0729 B(  6-C ,  8-C ) :   0.9026 B(  6-C , 13-H ) :   0.9745
B(  6-C , 14-H ) :   0.9690 B(  7-C ,  8-C ) :   0.9175 B(  7-C ,  9-H ) :   0.9742
B(  7-C , 10-H ) :   0.9696 B(  8-C , 11-H ) :   0.9891 B(  8-C , 12-H ) :   0.9447
B( 15-C , 17-C ) :   0.8763 B( 15-C , 22-H ) :   0.9694 B( 15-C , 23-H ) :   1.0006
B( 16-C , 17-C ) :   0.8598 B( 16-C , 18-H ) :   0.9593 B( 16-C , 19-H ) :   0.9603
B( 17-C , 20-H ) :   0.9500 B( 17-C , 21-H ) :   0.9757

FINAL SINGLE POINT ENERGY     -2847.664224769121

DIPOLE MOMENT
-------------
                                X             Y             Z
Electronic contribution:     -0.13738       6.33775       0.10933
Nuclear contribution   :      0.40402      -6.74079      -0.20662
                        -----------------------------------------
Total Dipole Moment    :      0.26664      -0.40305      -0.09729
                        -----------------------------------------
Magnitude (a.u.)       :      0.49296
Magnitude (Debye)      :      1.25300

Rotational constants in cm-1:     0.027101     0.011723     0.009606
Rotational constants in MHz :   812.469805   351.436726   287.969500

                             ****ORCA TERMINATED NORMALLY****
TOTAL RUN TIME: 0 days 0 hours 9 minutes 36 seconds 61 msec
