                         Program Version 5.0.4 -  RELEASE  -
|  1> ! nofrozencore ReducedPop printbasis
|  2> ! B3LYP TZVP
|  3>
|  4> %basis
|  5> newgto V "CP(PPP)" end
|  6> end
|  7>
|  8> %pal
|  9> nprocs 8
| 10> end
| 11>
| 12> % sym SymThresh 1e-2 end
| 13> * xyz -2 2
| 14> V -0.07051382811664135 0.4550553762559994 0.16964411662314619
| 15> S -1.9146437300730983 -0.7918869153854969 1.3865730314509281
| 16> S 1.3336713612144044 -0.9696970074910368 1.5794722118076168
| 17> S -1.3489954079401782 0.19947795112719843 -1.9373516200193004
| 18> S 1.801594097270792 0.6975100528282605 -1.4491998015665601
| 19> O -0.22208174098160388 1.9171869109378217 0.8168886198425545
| 20> C 3.109371965154771 -0.5654079587406774 1.218931945785432
| 21> C 3.2683430637446658 1.3330074598337593 -0.510205727946758
| 22> C 3.375099982143443 0.9236235622146912 0.9615994189012266
| 23> H 3.2828253754536054 2.4273624708912513 -0.573484715509153
| 24> H 4.1520605863828335 0.9680027973733933 -1.0495011863278334
| 25> H 2.671361861767359 1.5138476429130472 1.5540347604485696
| 26> H 4.390259572348599 1.185705239539478 1.3112854869753274
| 27> H 3.4517331423015016 -1.144559164636083 0.35453432902182547
| 28> H 3.6816463007762437 -0.8992831817198784 2.092365275289516
| 29> C -2.4640806711630385 -2.0160965696807636 0.08987530378345313
| 30> C -3.101288811786283 -0.02905481053519554 -1.43477320599877
| 31> C -3.408200764463806 -1.509475203939638 -0.9206127295501174
| 32> H -3.9646517665587377 -0.0015445741881235967 -2.193869395659016
| 33> H -3.362486143109226 0.680405650659827 -0.6475928588408145
| 34> H -3.5410837186118087 -2.1573098916530973 -1.8077091496139706
| 35> H -4.442690846473535 -1.2914388386462385 -0.5447116642135749
| 36> H -2.6969399607139026 -2.798668560414282 0.8987661232907871
| 37> H -1.6282613796467142 -2.3754533997036846 -0.525445104003439
| 38> *
| 39>
| 40> % eprnmr
| 41> gtensor true
| 42> Nuclei = all H {aiso,adip,aorb,fgrad,rho}
| 43> Nuclei = all V {aiso,adip,aorb,fgrad,rho}
| 44> end
| 45>
| 46>                          ****END OF INPUT****

CARTESIAN COORDINATES (ANGSTROEM)
---------------------------------
  V     -0.070902    0.455667    0.169857
  S     -1.915032   -0.791276    1.386786
  S      1.333283   -0.969086    1.579685
  S     -1.349384    0.200089   -1.937139
  S      1.801206    0.698121   -1.448987
  O     -0.222470    1.917798    0.817102
  C      3.108984   -0.564797    1.219145
  C      3.267955    1.333619   -0.509993
  C      3.374712    0.924235    0.961812
  H      3.282437    2.427974   -0.573272
  H      4.151672    0.968614   -1.049288
  H      2.670973    1.514459    1.554248
  H      4.389871    1.186317    1.311498
  H      3.451345   -1.143948    0.354747
  H      3.681258   -0.898672    2.092578
  C     -2.464469   -2.015485    0.090088
  C     -3.101677   -0.028443   -1.434560
  C     -3.408589   -1.508864   -0.920400
  H     -3.965040   -0.000933   -2.193656
  H     -3.362875    0.681017   -0.647380
  H     -3.541472   -2.156699   -1.807496
  H     -4.443079   -1.290828   -0.544499
  H     -2.697328   -2.798057    0.898979
  H     -1.628650   -2.374842   -0.525232

 Total Charge           Charge          ....   -2
 Multiplicity           Mult            ....    2
 Number of Electrons    NEL             ....  145
 Basis Dimension        Dim             ....  353

ORBITAL ENERGIES
----------------
                 SPIN UP ORBITALS
  NO   OCC          E(Eh)            E(eV)
   0   1.0000    -196.608430     -5349.9874
   1   1.0000     -88.564726     -2409.9687
   2   1.0000     -88.561547     -2409.8822
   3   1.0000     -88.559596     -2409.8291
   4   1.0000     -88.558578     -2409.8014
   5   1.0000     -21.983736      -598.2079
   6   1.0000     -18.825164      -512.2588
   7   1.0000     -18.491481      -503.1788
   8   1.0000     -18.484376      -502.9854
   9   1.0000     -18.484280      -502.9828
  10   1.0000      -9.945612      -270.6339
  11   1.0000      -9.943378      -270.5731
  12   1.0000      -9.937069      -270.4014
  13   1.0000      -9.935970      -270.3715
  14   1.0000      -9.935395      -270.3559
  15   1.0000      -9.929566      -270.1972
  16   1.0000      -7.618909      -207.3211
  17   1.0000      -7.615420      -207.2261
  18   1.0000      -7.613933      -207.1857
  19   1.0000      -7.612818      -207.1553
  20   1.0000      -5.584193      -151.9536
  21   1.0000      -5.580801      -151.8613
  22   1.0000      -5.579363      -151.8222
  23   1.0000      -5.578056      -151.7866
  24   1.0000      -5.577876      -151.7817
  25   1.0000      -5.576060      -151.7323
  26   1.0000      -5.574251      -151.6831
  27   1.0000      -5.572972      -151.6483
  28   1.0000      -5.572590      -151.6379
  29   1.0000      -5.572036      -151.6228
  30   1.0000      -5.570872      -151.5911
  31   1.0000      -5.569862      -151.5637
  32   1.0000      -2.376205       -64.6598
  33   1.0000      -1.418520       -38.5999
  34   1.0000      -1.404471       -38.2176
  35   1.0000      -1.403780       -38.1988
  36   1.0000      -0.587325       -15.9819
  37   1.0000      -0.552319       -15.0294
  38   1.0000      -0.551943       -15.0191
  39   1.0000      -0.470001       -12.7894
  40   1.0000      -0.464562       -12.6414
  41   1.0000      -0.405386       -11.0311
  42   1.0000      -0.397633       -10.8201
  43   1.0000      -0.341043        -9.2803
  44   1.0000      -0.329074        -8.9546
  45   1.0000      -0.305259        -8.3065
  46   1.0000      -0.280078        -7.6213
  47   1.0000      -0.209285        -5.6949
  48   1.0000      -0.208112        -5.6630
  49   1.0000      -0.204054        -5.5526
  50   1.0000      -0.198969        -5.4142
  51   1.0000      -0.161474        -4.3939
  52   1.0000      -0.138909        -3.7799
  53   1.0000      -0.124636        -3.3915
  54   1.0000      -0.113028        -3.0757
  55   1.0000      -0.107937        -2.9371
  56   1.0000      -0.106277        -2.8919
  57   1.0000      -0.081187        -2.2092
  58   1.0000      -0.064417        -1.7529
  59   1.0000      -0.063097        -1.7170
  60   1.0000      -0.054599        -1.4857
  61   1.0000      -0.046447        -1.2639
  62   1.0000      -0.041600        -1.1320
  63   1.0000      -0.031497        -0.8571
  64   1.0000      -0.001089        -0.0296
  65   1.0000       0.026963         0.7337
  66   1.0000       0.028748         0.7823
  67   1.0000       0.035898         0.9768
  68   1.0000       0.045472         1.2374
  69   1.0000       0.053317         1.4508
  70   1.0000       0.063937         1.7398
  71   1.0000       0.071705         1.9512
  72   1.0000       0.079537         2.1643
  73   0.0000       0.232991         6.3400
  74   0.0000       0.243590         6.6284
  75   0.0000       0.248853         6.7716
  76   0.0000       0.251361         6.8399
  77   0.0000       0.253184         6.8895

                 SPIN DOWN ORBITALS
  NO   OCC          E(Eh)            E(eV)
   0   1.0000    -196.608571     -5349.9912
   1   1.0000     -88.564873     -2409.9727
   2   1.0000     -88.561725     -2409.8871
   3   1.0000     -88.559700     -2409.8319
   4   1.0000     -88.558577     -2409.8014
   5   1.0000     -21.968659      -597.7976
   6   1.0000     -18.828697      -512.3549
   7   1.0000     -18.486241      -503.0362
   8   1.0000     -18.468313      -502.5483
   9   1.0000     -18.467789      -502.5341
  10   1.0000      -9.945426      -270.6288
  11   1.0000      -9.943192      -270.5680
  12   1.0000      -9.937012      -270.3998
  13   1.0000      -9.935834      -270.3678
  14   1.0000      -9.935354      -270.3547
  15   1.0000      -9.929586      -270.1978
  16   1.0000      -7.619048      -207.3248
  17   1.0000      -7.615594      -207.2308
  18   1.0000      -7.614031      -207.1883
  19   1.0000      -7.612820      -207.1554
  20   1.0000      -5.584339      -151.9576
  21   1.0000      -5.580969      -151.8659
  22   1.0000      -5.579486      -151.8255
  23   1.0000      -5.578264      -151.7923
  24   1.0000      -5.578091      -151.7876
  25   1.0000      -5.576163      -151.7351
  26   1.0000      -5.574712      -151.6956
  27   1.0000      -5.573374      -151.6592
  28   1.0000      -5.572724      -151.6415
  29   1.0000      -5.572411      -151.6330
  30   1.0000      -5.570802      -151.5892
  31   1.0000      -5.569453      -151.5525
  32   1.0000      -2.331182       -63.4347
  33   1.0000      -1.399348       -38.0782
  34   1.0000      -1.342808       -36.5397
  35   1.0000      -1.340767       -36.4841
  36   1.0000      -0.594942       -16.1892
  37   1.0000      -0.552205       -15.0263
  38   1.0000      -0.551812       -15.0156
  39   1.0000      -0.469939       -12.7877
  40   1.0000      -0.464446       -12.6382
  41   1.0000      -0.405445       -11.0327
  42   1.0000      -0.397792       -10.8245
  43   1.0000      -0.341167        -9.2836
  44   1.0000      -0.329495        -8.9660
  45   1.0000      -0.305232        -8.3058
  46   1.0000      -0.280062        -7.6209
  47   1.0000      -0.209190        -5.6924
  48   1.0000      -0.208028        -5.6607
  49   1.0000      -0.204013        -5.5515
  50   1.0000      -0.198789        -5.4093
  51   1.0000      -0.161335        -4.3901
  52   1.0000      -0.138790        -3.7767
  53   1.0000      -0.124206        -3.3798
  54   1.0000      -0.113014        -3.0753
  55   1.0000      -0.107545        -2.9265
  56   1.0000      -0.106154        -2.8886
  57   1.0000      -0.080368        -2.1869
  58   1.0000      -0.062869        -1.7107
  59   1.0000      -0.061263        -1.6670
  60   1.0000      -0.054993        -1.4964
  61   1.0000      -0.047294        -1.2869
  62   1.0000      -0.042986        -1.1697
  63   1.0000      -0.032463        -0.8834
  64   1.0000       0.003449         0.0939
  65   1.0000       0.027908         0.7594
  66   1.0000       0.032049         0.8721
  67   1.0000       0.044795         1.2189
  68   1.0000       0.046505         1.2655
  69   1.0000       0.059958         1.6315
  70   1.0000       0.067939         1.8487
  71   1.0000       0.073641         2.0039
  72   0.0000       0.231391         6.2965
  73   0.0000       0.248746         6.7687
  74   0.0000       0.254684         6.9303
  75   0.0000       0.257531         7.0078
  76   0.0000       0.262897         7.1538

MULLIKEN ATOMIC CHARGES AND SPIN POPULATIONS
--------------------------------------------
   0 V :    0.527522    1.195414
   1 S :   -0.443160   -0.005618
   2 S :   -0.350089   -0.033357
   3 S :   -0.389532   -0.027065
   4 S :   -0.386689   -0.021705
   5 O :   -0.545996   -0.136375
   6 C :   -0.245429    0.005870
   7 C :   -0.233342    0.006742
   8 C :   -0.161374    0.003103
   9 H :    0.075563   -0.000970
  10 H :    0.052045    0.002172
  11 H :    0.139832    0.000596
  12 H :    0.005892   -0.000044
  13 H :    0.094794   -0.000125
  14 H :    0.049081   -0.000029
  15 C :   -0.257167   -0.002475
  16 C :   -0.228277    0.005467
  17 C :   -0.066501    0.007189
  18 H :    0.013768   -0.001281
  19 H :    0.136901   -0.000298
  20 H :    0.026898    0.001506
  21 H :   -0.004039    0.000015
  22 H :    0.061080    0.000546
  23 H :    0.128221    0.000723
Sum of atomic charges         :   -2.0000000

LOEWDIN ATOMIC CHARGES AND SPIN POPULATIONS
-------------------------------------------
   0 V :   -0.205964    1.151712
   1 S :   -0.076935    0.000264
   2 S :   -0.036632   -0.022943
   3 S :   -0.049774   -0.018244
   4 S :   -0.063246   -0.012545
   5 O :   -0.378653   -0.123005
   6 C :   -0.326309    0.005367
   7 C :   -0.313306    0.007223
   8 C :   -0.187451    0.000486
   9 H :    0.036440   -0.000016
  10 H :    0.029341    0.000637
  11 H :    0.070250    0.000338
  12 H :    0.031642    0.000156
  13 H :    0.045146   -0.000061
  14 H :    0.027684   -0.000529
  15 C :   -0.331777    0.002744
  16 C :   -0.330995    0.007499
  17 C :   -0.196786    0.001045
  18 H :    0.029277   -0.000683
  19 H :    0.051702   -0.000596
  20 H :    0.036446    0.000599
  21 H :    0.034917    0.000261
  22 H :    0.046433   -0.000067
  23 H :    0.058549    0.000358

  Mayer bond orders larger than 0.100000
B(  0-V ,  1-S ) :   0.7114 B(  0-V ,  2-S ) :   0.8606 B(  0-V ,  3-S ) :   0.7602
B(  0-V ,  4-S ) :   0.7748 B(  0-V ,  5-O ) :   2.0736 B(  1-S , 15-C ) :   0.9784
B(  2-S ,  6-C ) :   1.0100 B(  3-S , 16-C ) :   1.0400 B(  4-S ,  7-C ) :   1.0699
B(  6-C ,  8-C ) :   0.9008 B(  6-C , 13-H ) :   0.9738 B(  6-C , 14-H ) :   0.9682
B(  7-C ,  8-C ) :   0.9203 B(  7-C ,  9-H ) :   0.9765 B(  7-C , 10-H ) :   0.9691
B(  8-C , 11-H ) :   0.9884 B(  8-C , 12-H ) :   0.9450 B( 15-C , 17-C ) :   0.9256
B( 15-C , 22-H ) :   0.9805 B( 15-C , 23-H ) :   0.9633 B( 16-C , 17-C ) :   0.8605
B( 16-C , 18-H ) :   0.9440 B( 16-C , 19-H ) :   0.9780 B( 17-C , 20-H ) :   0.9617
B( 17-C , 21-H ) :   0.9519

FINAL SINGLE POINT ENERGY     -2847.688149421282

DIPOLE MOMENT
-------------
                                X             Y             Z
Electronic contribution:     -1.74072       5.42210       1.81406
Nuclear contribution   :      2.19443      -5.69885      -1.82010
                        -----------------------------------------
Total Dipole Moment    :      0.45371      -0.27675      -0.00603
                        -----------------------------------------
Magnitude (a.u.)       :      0.53149
Magnitude (Debye)      :      1.35094

Rotational constants in cm-1:     0.027170     0.011720     0.009600
Rotational constants in MHz :   814.540800   351.352388   287.802062

                             ****ORCA TERMINATED NORMALLY****
TOTAL RUN TIME: 0 days 0 hours 9 minutes 39 seconds 198 msec
