                         Program Version 5.0.4 -  RELEASE  -
|  1> ! nofrozencore ReducedPop printbasis
|  2> ! B3LYP TZVP
|  3>
|  4> %basis
|  5> newgto V "CP(PPP)" end
|  6> end
|  7>
|  8> %pal
|  9> nprocs 8
| 10> end
| 11>
| 12> % sym SymThresh 1e-2 end
| 13> * xyz -2 2
| 14> V -0.4285790443041307 -0.18857345002450276 -0.1502294285991075
| 15> S -0.8971957989983802 0.12825917479502552 2.3175137149798184
| 16> S -0.33726198749511305 2.25507816796843 -0.08458379790476246
| 17> S 1.0922491375679044 -2.0642188840072215 0.4256647582994746
| 18> S 0.9859836588938795 -0.1817850313646267 -2.1965904444167554
| 19> O -1.8623443944881037 -0.6875791841971786 -0.6653215097473411
| 20> C 0.03399032385624868 2.8602254336485835 -1.8024427392946267
| 21> C 0.18372592696435994 0.8919180509599588 -3.4482165712637416
| 22> C -0.7545717714999102 2.0624073101056872 -2.9003299713453488
| 23> H -0.672756026045002 0.5015568499311707 -4.1156789880009175
| 24> H 1.0195226118364278 1.1270114257414514 -4.139616271935292
| 25> H -1.7356951061514971 1.7204327890353657 -2.5499438720636065
| 26> H -0.9250753984684907 2.6895019119275325 -3.8017403322279266
| 27> H 1.1452697784791264 2.9430988647752856 -1.7442881177038385
| 28> H -0.4430327122060238 3.85528357343 -2.030999833740807
| 29> C 0.7441985524675351 -0.27296995657943823 3.072750636095491
| 30> C 0.5526247598723328 -2.649031741549679 2.0986216816871313
| 31> C 0.9945569959900133 -1.7704750985886113 3.2687382283024697
| 32> H 0.9441334191151649 -3.6667422581966465 2.212868106287825
| 33> H -0.5359505136540446 -2.699074341888385 2.0919679863744918
| 34> H 2.0679060595200975 -1.9304558961496328 3.4565191414588146
| 35> H 0.45674260296216945 -2.1044110006801438 4.17088085879191
| 36> H 0.8032257526826128 0.2556502094774746 4.030917321200297
| 37> H 1.5212814408432955 0.13331275387225477 2.4247189766384767
| 38> *
| 39>
| 40> % eprnmr
| 41> gtensor true
| 42> Nuclei = all H {aiso,adip,aorb,fgrad,rho}
| 43> Nuclei = all V {aiso,adip,aorb,fgrad,rho}
| 44> end
| 45>
| 46>                          ****END OF INPUT****

CARTESIAN COORDINATES (ANGSTROEM)
---------------------------------
  V     -0.429196   -0.189008   -0.150204
  S     -0.897813    0.127825    2.317539
  S     -0.337879    2.254644   -0.084559
  S      1.091632   -2.064653    0.425690
  S      0.985367   -0.182220   -2.196565
  O     -1.862961   -0.688014   -0.665296
  C      0.033374    2.859791   -1.802418
  C      0.183109    0.891483   -3.448191
  C     -0.755189    2.061973   -2.900305
  H     -0.673373    0.501122   -4.115654
  H      1.018906    1.126577   -4.139591
  H     -1.736312    1.719998   -2.549919
  H     -0.925692    2.689067   -3.801715
  H      1.144653    2.942664   -1.744263
  H     -0.443650    3.854849   -2.030975
  C      0.743582   -0.273405    3.072776
  C      0.552008   -2.649466    2.098647
  C      0.993940   -1.770910    3.268763
  H      0.943517   -3.667177    2.212893
  H     -0.536567   -2.699509    2.091993
  H      2.067289   -1.930890    3.456544
  H      0.456126   -2.104846    4.170906
  H      0.802609    0.255216    4.030942
  H      1.520665    0.132878    2.424744

 Total Charge           Charge          ....   -2
 Multiplicity           Mult            ....    2
 Number of Electrons    NEL             ....  145
 Basis Dimension        Dim             ....  353

ORBITAL ENERGIES
----------------
                 SPIN UP ORBITALS
  NO   OCC          E(Eh)            E(eV)
   0   1.0000    -196.607631     -5349.9656
   1   1.0000     -88.562530     -2409.9089
   2   1.0000     -88.562033     -2409.8954
   3   1.0000     -88.560418     -2409.8515
   4   1.0000     -88.557733     -2409.7784
   5   1.0000     -21.982939      -598.1862
   6   1.0000     -18.825491      -512.2677
   7   1.0000     -18.490717      -503.1580
   8   1.0000     -18.483557      -502.9632
   9   1.0000     -18.483469      -502.9608
  10   1.0000      -9.950796      -270.7749
  11   1.0000      -9.941353      -270.5180
  12   1.0000      -9.940757      -270.5017
  13   1.0000      -9.934856      -270.3412
  14   1.0000      -9.934596      -270.3341
  15   1.0000      -9.932408      -270.2746
  16   1.0000      -7.616831      -207.2645
  17   1.0000      -7.616239      -207.2484
  18   1.0000      -7.614305      -207.1958
  19   1.0000      -7.612068      -207.1349
  20   1.0000      -5.582250      -151.9007
  21   1.0000      -5.581404      -151.8777
  22   1.0000      -5.579633      -151.8295
  23   1.0000      -5.577310      -151.7663
  24   1.0000      -5.575733      -151.7234
  25   1.0000      -5.575225      -151.7096
  26   1.0000      -5.573917      -151.6740
  27   1.0000      -5.573486      -151.6623
  28   1.0000      -5.573228      -151.6553
  29   1.0000      -5.571468      -151.6073
  30   1.0000      -5.571270      -151.6020
  31   1.0000      -5.569126      -151.5436
  32   1.0000      -2.375630       -64.6442
  33   1.0000      -1.418296       -38.5938
  34   1.0000      -1.403732       -38.1975
  35   1.0000      -1.403283       -38.1853
  36   1.0000      -0.587823       -15.9955
  37   1.0000      -0.552210       -15.0264
  38   1.0000      -0.541890       -14.7456
  39   1.0000      -0.466993       -12.7075
  40   1.0000      -0.464462       -12.6386
  41   1.0000      -0.406274       -11.0553
  42   1.0000      -0.399493       -10.8707
  43   1.0000      -0.337546        -9.1851
  44   1.0000      -0.325466        -8.8564
  45   1.0000      -0.301624        -8.2076
  46   1.0000      -0.285899        -7.7797
  47   1.0000      -0.215508        -5.8643
  48   1.0000      -0.204678        -5.5696
  49   1.0000      -0.196048        -5.3347
  50   1.0000      -0.178681        -4.8622
  51   1.0000      -0.176192        -4.7944
  52   1.0000      -0.137998        -3.7551
  53   1.0000      -0.133423        -3.6306
  54   1.0000      -0.131327        -3.5736
  55   1.0000      -0.111469        -3.0332
  56   1.0000      -0.086686        -2.3588
  57   1.0000      -0.069229        -1.8838
  58   1.0000      -0.064336        -1.7507
  59   1.0000      -0.060289        -1.6406
  60   1.0000      -0.055371        -1.5067
  61   1.0000      -0.046002        -1.2518
  62   1.0000      -0.041918        -1.1406
  63   1.0000      -0.036242        -0.9862
  64   1.0000      -0.000780        -0.0212
  65   1.0000       0.026495         0.7210
  66   1.0000       0.029600         0.8055
  67   1.0000       0.036852         1.0028
  68   1.0000       0.045667         1.2427
  69   1.0000       0.053839         1.4650
  70   1.0000       0.064370         1.7516
  71   1.0000       0.072352         1.9688
  72   1.0000       0.080404         2.1879
  73   0.0000       0.233677         6.3587
  74   0.0000       0.245358         6.6765
  75   0.0000       0.248922         6.7735
  76   0.0000       0.250407         6.8139
  77   0.0000       0.258250         7.0273

                 SPIN DOWN ORBITALS
  NO   OCC          E(Eh)            E(eV)
   0   1.0000    -196.607772     -5349.9695
   1   1.0000     -88.562633     -2409.9118
   2   1.0000     -88.562194     -2409.8998
   3   1.0000     -88.560593     -2409.8562
   4   1.0000     -88.557708     -2409.7777
   5   1.0000     -21.967877      -597.7763
   6   1.0000     -18.828989      -512.3628
   7   1.0000     -18.485501      -503.0160
   8   1.0000     -18.467495      -502.5261
   9   1.0000     -18.466990      -502.5123
  10   1.0000      -9.950623      -270.7702
  11   1.0000      -9.941214      -270.5142
  12   1.0000      -9.940776      -270.5023
  13   1.0000      -9.934681      -270.3364
  14   1.0000      -9.934540      -270.3326
  15   1.0000      -9.932367      -270.2734
  16   1.0000      -7.616929      -207.2672
  17   1.0000      -7.616392      -207.2526
  18   1.0000      -7.614476      -207.2004
  19   1.0000      -7.612046      -207.1343
  20   1.0000      -5.582369      -151.9040
  21   1.0000      -5.581558      -151.8819
  22   1.0000      -5.579800      -151.8341
  23   1.0000      -5.577327      -151.7668
  24   1.0000      -5.576139      -151.7345
  25   1.0000      -5.575649      -151.7211
  26   1.0000      -5.573839      -151.6719
  27   1.0000      -5.573679      -151.6675
  28   1.0000      -5.573605      -151.6655
  29   1.0000      -5.571611      -151.6112
  30   1.0000      -5.571599      -151.6109
  31   1.0000      -5.568662      -151.5310
  32   1.0000      -2.330670       -63.4207
  33   1.0000      -1.399249       -38.0755
  34   1.0000      -1.342138       -36.5214
  35   1.0000      -1.340265       -36.4705
  36   1.0000      -0.595327       -16.1997
  37   1.0000      -0.552055       -15.0222
  38   1.0000      -0.541801       -14.7432
  39   1.0000      -0.466872       -12.7042
  40   1.0000      -0.464418       -12.6375
  41   1.0000      -0.406378       -11.0581
  42   1.0000      -0.399579       -10.8731
  43   1.0000      -0.337680        -9.1887
  44   1.0000      -0.325861        -8.8671
  45   1.0000      -0.301581        -8.2064
  46   1.0000      -0.285924        -7.7804
  47   1.0000      -0.215446        -5.8626
  48   1.0000      -0.204568        -5.5666
  49   1.0000      -0.195923        -5.3313
  50   1.0000      -0.178590        -4.8597
  51   1.0000      -0.176068        -4.7911
  52   1.0000      -0.137850        -3.7511
  53   1.0000      -0.133338        -3.6283
  54   1.0000      -0.131042        -3.5658
  55   1.0000      -0.111412        -3.0317
  56   1.0000      -0.085689        -2.3317
  57   1.0000      -0.067108        -1.8261
  58   1.0000      -0.063393        -1.7250
  59   1.0000      -0.059952        -1.6314
  60   1.0000      -0.055300        -1.5048
  61   1.0000      -0.047263        -1.2861
  62   1.0000      -0.042244        -1.1495
  63   1.0000      -0.037915        -1.0317
  64   1.0000       0.004013         0.1092
  65   1.0000       0.027800         0.7565
  66   1.0000       0.032864         0.8943
  67   1.0000       0.044456         1.2097
  68   1.0000       0.047083         1.2812
  69   1.0000       0.062417         1.6985
  70   1.0000       0.067618         1.8400
  71   1.0000       0.073673         2.0047
  72   0.0000       0.232848         6.3361
  73   0.0000       0.250294         6.8109
  74   0.0000       0.253135         6.8881
  75   0.0000       0.260804         7.0968
  76   0.0000       0.264085         7.1861

MULLIKEN ATOMIC CHARGES AND SPIN POPULATIONS
--------------------------------------------
   0 V :    0.525907    1.192846
   1 S :   -0.427708   -0.001707
   2 S :   -0.351761   -0.032812
   3 S :   -0.413712   -0.029570
   4 S :   -0.361922   -0.021117
   5 O :   -0.547978   -0.134886
   6 C :   -0.251151    0.006342
   7 C :   -0.235659    0.006280
   8 C :   -0.134257    0.002619
   9 H :    0.022590   -0.000858
  10 H :    0.063776    0.002467
  11 H :    0.147785    0.000459
  12 H :    0.006887   -0.000163
  13 H :    0.108628   -0.000166
  14 H :    0.022558   -0.000861
  15 C :   -0.257309   -0.002445
  16 C :   -0.253777    0.003404
  17 C :   -0.067349    0.008716
  18 H :    0.049666    0.000003
  19 H :    0.132309   -0.000200
  20 H :    0.015472    0.001630
  21 H :    0.012948    0.000050
  22 H :    0.054755   -0.000544
  23 H :    0.139301    0.000512
Sum of atomic charges         :   -2.0000000

LOEWDIN ATOMIC CHARGES AND SPIN POPULATIONS
-------------------------------------------
   0 V :   -0.209412    1.149274
   1 S :   -0.072088    0.003719
   2 S :   -0.042846   -0.022615
   3 S :   -0.062742   -0.020602
   4 S :   -0.042348   -0.012257
   5 O :   -0.376328   -0.121583
   6 C :   -0.340022    0.005724
   7 C :   -0.333474    0.006619
   8 C :   -0.183504    0.000442
   9 H :    0.028526    0.000016
  10 H :    0.032515    0.000807
  11 H :    0.075167    0.000213
  12 H :    0.030426    0.000068
  13 H :    0.054988   -0.000137
  14 H :    0.028523   -0.000848
  15 C :   -0.317206    0.002655
  16 C :   -0.323841    0.007358
  17 C :   -0.188571    0.001143
  18 H :    0.029027   -0.000178
  19 H :    0.054496   -0.000613
  20 H :    0.036257    0.000621
  21 H :    0.035338    0.000400
  22 H :    0.031055   -0.000577
  23 H :    0.056063    0.000351

  Mayer bond orders larger than 0.100000
B(  0-V ,  1-S ) :   0.7106 B(  0-V ,  2-S ) :   0.8618 B(  0-V ,  3-S ) :   0.7715
B(  0-V ,  4-S ) :   0.7683 B(  0-V ,  5-O ) :   2.0723 B(  1-S , 15-C ) :   1.0248
B(  2-S ,  6-C ) :   1.0148 B(  3-S , 16-C ) :   1.0210 B(  4-S ,  7-C ) :   1.0757
B(  6-C ,  8-C ) :   0.8900 B(  6-C , 13-H ) :   0.9826 B(  6-C , 14-H ) :   0.9550
B(  7-C ,  8-C ) :   0.8966 B(  7-C ,  9-H ) :   0.9470 B(  7-C , 10-H ) :   0.9759
B(  8-C , 11-H ) :   0.9698 B(  8-C , 12-H ) :   0.9549 B( 15-C , 17-C ) :   0.8965
B( 15-C , 22-H ) :   0.9699 B( 15-C , 23-H ) :   0.9792 B( 16-C , 17-C ) :   0.9047
B( 16-C , 18-H ) :   0.9643 B( 16-C , 19-H ) :   0.9757 B( 17-C , 20-H ) :   0.9580
B( 17-C , 21-H ) :   0.9593

FINAL SINGLE POINT ENERGY     -2847.682476971708

DIPOLE MOMENT
-------------
                                X             Y             Z
Electronic contribution:     -4.99384      -3.22025      -0.68215
Nuclear contribution   :      5.34574       3.50540       0.67680
                        -----------------------------------------
Total Dipole Moment    :      0.35190       0.28515      -0.00535
                        -----------------------------------------
Magnitude (a.u.)       :      0.45296
Magnitude (Debye)      :      1.15133

Rotational constants in cm-1:     0.027149     0.011707     0.009600
Rotational constants in MHz :   813.905338   350.977819   287.797603

                             ****ORCA TERMINATED NORMALLY****
TOTAL RUN TIME: 0 days 0 hours 9 minutes 32 seconds 243 msec
