                         Program Version 5.0.4 -  RELEASE  -
|  1> ! nofrozencore ReducedPop printbasis
|  2> ! B3LYP TZVP
|  3>
|  4> %basis
|  5> newgto V "CP(PPP)" end
|  6> end
|  7>
|  8> %pal
|  9> nprocs 4
| 10> end
| 11>
| 12> % sym SymThresh 1e-2 end
| 13> * xyz -2 2
| 14> V 0.038463788330584725 -0.13840267283970056 -0.47935614825626965
| 15> S -0.4403451450489773 2.463658699911813 -0.3597887744102497
| 16> S 2.1387632912331744 0.5477428478122984 0.6270787846857131
| 17> S -2.319450802592601 -0.48514222463575457 0.14643245246190936
| 18> S 0.22660017139909855 -2.3162373649894668 0.4309948225461072
| 19> O 0.2709030090140975 -0.21120034500087378 -2.0692383148324454
| 20> C 3.0960153812393556 -1.0065925254053028 0.928643533489843
| 21> C 1.8760414658672215 -3.008444507497295 -0.046012733901870106
| 22> C 2.992120554469843 -1.9861064116047848 -0.2472362672393477
| 23> H 1.7571092414837084 -3.6067786779895745 -0.9577088074782047
| 24> H 2.1666406966060117 -3.6977693795479523 0.7588603795094105
| 25> H 2.8131293720813684 -1.4168451910153368 -1.1643270049448309
| 26> H 3.941791980278317 -2.53683491955304 -0.38557432295066735
| 27> H 2.730162657409299 -1.4955452311588995 1.8395958637966292
| 28> H 4.140161649795305 -0.7149777250419642 1.0997540104564465
| 29> C -1.4926637966243845 2.6459030248179594 1.1282840764364483
| 30> C -3.1178604136911696 1.1770546489287468 -0.230805886975944
| 31> C -2.91741421224584 2.460533438583163 0.6343753252468897
| 32> H -4.197402669515261 0.9834781969933827 -0.2741928226518806
| 33> H -2.786725888017492 1.4193218397811602 -1.2385722210203736
| 34> H -3.6571223004280387 2.4996790189168867 1.4965781537432783
| 35> H -3.1679402198717215 3.3236277637611846 -0.05564433919937293
| 36> H -1.3536171784687527 3.6332337178478005 1.5876248786266038
| 37> H -1.2348825931668996 1.8856916231029115 1.8723008848456755
| 38> *
| 39>
| 40> % eprnmr
| 41> gtensor true
| 42> Nuclei = all H {aiso,adip,aorb,fgrad,rho}
| 43> Nuclei = all V {aiso,adip,aorb,fgrad,rho}
| 44> end
| 45>
| 46>                          ****END OF INPUT****

CARTESIAN COORDINATES (ANGSTROEM)
---------------------------------
  V      0.038291   -0.138309   -0.480085
  S     -0.440518    2.463752   -0.360518
  S      2.138591    0.547836    0.626350
  S     -2.319623   -0.485049    0.145703
  S      0.226428   -2.316144    0.430266
  O      0.270730   -0.211107   -2.069967
  C      3.095843   -1.006499    0.927915
  C      1.875869   -3.008351   -0.046742
  C      2.991948   -1.986013   -0.247965
  H      1.756937   -3.606685   -0.958438
  H      2.166468   -3.697676    0.758131
  H      2.812957   -1.416752   -1.165056
  H      3.941619   -2.536741   -0.386303
  H      2.729990   -1.495452    1.838867
  H      4.139989   -0.714884    1.099025
  C     -1.492836    2.645997    1.127555
  C     -3.118033    1.177148   -0.231535
  C     -2.917587    2.460627    0.633646
  H     -4.197575    0.983572   -0.274922
  H     -2.786898    1.419415   -1.239301
  H     -3.657295    2.499773    1.495849
  H     -3.168113    3.323721   -0.056373
  H     -1.353790    3.633327    1.586896
  H     -1.235055    1.885785    1.871572

 Total Charge           Charge          ....   -2
 Multiplicity           Mult            ....    2
 Number of Electrons    NEL             ....  145
 Basis Dimension        Dim             ....  353

ORBITAL ENERGIES
----------------
                 SPIN UP ORBITALS
  NO   OCC          E(Eh)            E(eV)
   0   1.0000    -196.607466     -5349.9611
   1   1.0000     -88.565640     -2409.9936
   2   1.0000     -88.565016     -2409.9766
   3   1.0000     -88.560120     -2409.8434
   4   1.0000     -88.549921     -2409.5658
   5   1.0000     -21.982894      -598.1849
   6   1.0000     -18.824147      -512.2311
   7   1.0000     -18.490595      -503.1547
   8   1.0000     -18.483532      -502.9625
   9   1.0000     -18.483473      -502.9609
  10   1.0000      -9.946720      -270.6640
  11   1.0000      -9.937263      -270.4067
  12   1.0000      -9.936195      -270.3776
  13   1.0000      -9.932483      -270.2766
  14   1.0000      -9.931885      -270.2603
  15   1.0000      -9.930192      -270.2143
  16   1.0000      -7.620805      -207.3726
  17   1.0000      -7.618515      -207.3103
  18   1.0000      -7.613963      -207.1865
  19   1.0000      -7.604485      -206.9285
  20   1.0000      -5.586108      -152.0057
  21   1.0000      -5.583815      -151.9433
  22   1.0000      -5.579608      -151.8289
  23   1.0000      -5.579398      -151.8231
  24   1.0000      -5.577912      -151.7827
  25   1.0000      -5.577451      -151.7702
  26   1.0000      -5.575803      -151.7253
  27   1.0000      -5.572842      -151.6447
  28   1.0000      -5.571063      -151.5963
  29   1.0000      -5.569734      -151.5602
  30   1.0000      -5.563856      -151.4002
  31   1.0000      -5.561332      -151.3315
  32   1.0000      -2.375537       -64.6416
  33   1.0000      -1.417493       -38.5719
  34   1.0000      -1.404001       -38.2048
  35   1.0000      -1.403397       -38.1884
  36   1.0000      -0.586601       -15.9622
  37   1.0000      -0.556400       -15.1404
  38   1.0000      -0.546261       -14.8645
  39   1.0000      -0.472223       -12.8498
  40   1.0000      -0.460895       -12.5416
  41   1.0000      -0.404008       -10.9936
  42   1.0000      -0.392432       -10.6786
  43   1.0000      -0.336235        -9.1494
  44   1.0000      -0.328141        -8.9292
  45   1.0000      -0.310765        -8.4563
  46   1.0000      -0.282821        -7.6959
  47   1.0000      -0.212443        -5.7809
  48   1.0000      -0.205251        -5.5852
  49   1.0000      -0.199942        -5.4407
  50   1.0000      -0.198132        -5.3914
  51   1.0000      -0.163698        -4.4544
  52   1.0000      -0.132410        -3.6031
  53   1.0000      -0.127029        -3.4566
  54   1.0000      -0.115542        -3.1440
  55   1.0000      -0.107965        -2.9379
  56   1.0000      -0.100771        -2.7421
  57   1.0000      -0.087161        -2.3718
  58   1.0000      -0.066291        -1.8039
  59   1.0000      -0.062448        -1.6993
  60   1.0000      -0.054363        -1.4793
  61   1.0000      -0.043842        -1.1930
  62   1.0000      -0.041034        -1.1166
  63   1.0000      -0.033900        -0.9225
  64   1.0000      -0.002742        -0.0746
  65   1.0000       0.024067         0.6549
  66   1.0000       0.028142         0.7658
  67   1.0000       0.036327         0.9885
  68   1.0000       0.047442         1.2910
  69   1.0000       0.054871         1.4931
  70   1.0000       0.064268         1.7488
  71   1.0000       0.070471         1.9176
  72   1.0000       0.083234         2.2649
  73   0.0000       0.231195         6.2911
  74   0.0000       0.244845         6.6626
  75   0.0000       0.249357         6.7854
  76   0.0000       0.253002         6.8845
  77   0.0000       0.260057         7.0765

                 SPIN DOWN ORBITALS
  NO   OCC          E(Eh)            E(eV)
   0   1.0000    -196.607605     -5349.9649
   1   1.0000     -88.565720     -2409.9958
   2   1.0000     -88.565188     -2409.9813
   3   1.0000     -88.560305     -2409.8484
   4   1.0000     -88.549919     -2409.5658
   5   1.0000     -21.967910      -597.7772
   6   1.0000     -18.827623      -512.3257
   7   1.0000     -18.485388      -503.0130
   8   1.0000     -18.467646      -502.5302
   9   1.0000     -18.467006      -502.5128
  10   1.0000      -9.946446      -270.6565
  11   1.0000      -9.937231      -270.4058
  12   1.0000      -9.936052      -270.3737
  13   1.0000      -9.932298      -270.2716
  14   1.0000      -9.931853      -270.2595
  15   1.0000      -9.930206      -270.2146
  16   1.0000      -7.620879      -207.3747
  17   1.0000      -7.618679      -207.3148
  18   1.0000      -7.614141      -207.1913
  19   1.0000      -7.604485      -206.9286
  20   1.0000      -5.586242      -152.0094
  21   1.0000      -5.583981      -151.9479
  22   1.0000      -5.579970      -151.8387
  23   1.0000      -5.579570      -151.8278
  24   1.0000      -5.577884      -151.7819
  25   1.0000      -5.577765      -151.7787
  26   1.0000      -5.575944      -151.7292
  27   1.0000      -5.573319      -151.6577
  28   1.0000      -5.571207      -151.6003
  29   1.0000      -5.569756      -151.5608
  30   1.0000      -5.564218      -151.4101
  31   1.0000      -5.560940      -151.3209
  32   1.0000      -2.330765       -63.4233
  33   1.0000      -1.398466       -38.0542
  34   1.0000      -1.342803       -36.5395
  35   1.0000      -1.340590       -36.4793
  36   1.0000      -0.594096       -16.1662
  37   1.0000      -0.556210       -15.1353
  38   1.0000      -0.546133       -14.8610
  39   1.0000      -0.472041       -12.8449
  40   1.0000      -0.460836       -12.5400
  41   1.0000      -0.404068       -10.9952
  42   1.0000      -0.392552       -10.6819
  43   1.0000      -0.336437        -9.1549
  44   1.0000      -0.328468        -8.9381
  45   1.0000      -0.310652        -8.4533
  46   1.0000      -0.282870        -7.6973
  47   1.0000      -0.212302        -5.7770
  48   1.0000      -0.205204        -5.5839
  49   1.0000      -0.199655        -5.4329
  50   1.0000      -0.198068        -5.3897
  51   1.0000      -0.163489        -4.4488
  52   1.0000      -0.132231        -3.5982
  53   1.0000      -0.126777        -3.4498
  54   1.0000      -0.115467        -3.1420
  55   1.0000      -0.107794        -2.9332
  56   1.0000      -0.100720        -2.7407
  57   1.0000      -0.085582        -2.3288
  58   1.0000      -0.064041        -1.7426
  59   1.0000      -0.061654        -1.6777
  60   1.0000      -0.054812        -1.4915
  61   1.0000      -0.045158        -1.2288
  62   1.0000      -0.040735        -1.1085
  63   1.0000      -0.035519        -0.9665
  64   1.0000       0.001873         0.0510
  65   1.0000       0.026504         0.7212
  66   1.0000       0.030211         0.8221
  67   1.0000       0.042731         1.1628
  68   1.0000       0.048603         1.3226
  69   1.0000       0.062994         1.7142
  70   1.0000       0.069660         1.8955
  71   1.0000       0.074591         2.0297
  72   0.0000       0.230248         6.2654
  73   0.0000       0.248469         6.7612
  74   0.0000       0.253516         6.8985
  75   0.0000       0.260508         7.0888
  76   0.0000       0.264829         7.2064

MULLIKEN ATOMIC CHARGES AND SPIN POPULATIONS
--------------------------------------------
   0 V :    0.527921    1.189468
   1 S :   -0.450717   -0.005903
   2 S :   -0.351768   -0.034988
   3 S :   -0.406189   -0.030984
   4 S :   -0.347654   -0.017201
   5 O :   -0.550518   -0.134117
   6 C :   -0.257931    0.006619
   7 C :   -0.234949    0.009561
   8 C :   -0.172016    0.004697
   9 H :    0.077672   -0.001532
  10 H :    0.055139    0.003196
  11 H :    0.152787    0.000673
  12 H :    0.006705   -0.000180
  13 H :    0.099941   -0.000240
  14 H :    0.050171   -0.000055
  15 C :   -0.241358   -0.002936
  16 C :   -0.270654    0.004462
  17 C :   -0.065860    0.008425
  18 H :    0.040186   -0.000532
  19 H :    0.141938   -0.000210
  20 H :   -0.011099    0.002688
  21 H :    0.022661   -0.000492
  22 H :    0.053874   -0.000470
  23 H :    0.131717    0.000052
Sum of atomic charges         :   -2.0000000

LOEWDIN ATOMIC CHARGES AND SPIN POPULATIONS
-------------------------------------------
   0 V :   -0.209655    1.145815
   1 S :   -0.097580   -0.001095
   2 S :   -0.041828   -0.024357
   3 S :   -0.065936   -0.021825
   4 S :   -0.007439   -0.006121
   5 O :   -0.384102   -0.120905
   6 C :   -0.329314    0.005742
   7 C :   -0.311379    0.010665
   8 C :   -0.190295    0.000978
   9 H :    0.036854   -0.000015
  10 H :    0.030972    0.001048
  11 H :    0.072436    0.000509
  12 H :    0.031555    0.000179
  13 H :    0.045508   -0.000090
  14 H :    0.027360   -0.000428
  15 C :   -0.317035    0.001511
  16 C :   -0.330798    0.007908
  17 C :   -0.195607    0.000851
  18 H :    0.025802   -0.000371
  19 H :    0.054698   -0.000602
  20 H :    0.024151    0.000949
  21 H :    0.045132    0.000301
  22 H :    0.029522   -0.000558
  23 H :    0.056978   -0.000090

  Mayer bond orders larger than 0.100000
B(  0-V ,  1-S ) :   0.6330 B(  0-V ,  2-S ) :   0.8404 B(  0-V ,  3-S ) :   0.7863
B(  0-V ,  4-S ) :   0.8600 B(  0-V ,  5-O ) :   2.0622 B(  1-S , 15-C ) :   1.0200
B(  2-S ,  6-C ) :   1.0203 B(  3-S , 16-C ) :   1.0182 B(  4-S ,  7-C ) :   1.0312
B(  6-C ,  8-C ) :   0.8884 B(  6-C , 13-H ) :   0.9753 B(  6-C , 14-H ) :   0.9640
B(  7-C ,  8-C ) :   0.9191 B(  7-C ,  9-H ) :   0.9747 B(  7-C , 10-H ) :   0.9681
B(  8-C , 11-H ) :   0.9884 B(  8-C , 12-H ) :   0.9392 B( 15-C , 17-C ) :   0.9094
B( 15-C , 22-H ) :   0.9689 B( 15-C , 23-H ) :   0.9740 B( 16-C , 17-C ) :   0.8790
B( 16-C , 18-H ) :   0.9590 B( 16-C , 19-H ) :   0.9834 B( 17-C , 20-H ) :   0.9243
B( 17-C , 21-H ) :   0.9733

FINAL SINGLE POINT ENERGY     -2847.705330730920

DIPOLE MOMENT
-------------
                                X             Y             Z
Electronic contribution:     -0.54303      -1.39261      -6.03154
Nuclear contribution   :      0.91659       0.89052       6.45213
                        -----------------------------------------
Total Dipole Moment    :      0.37355      -0.50209       0.42059
                        -----------------------------------------
Magnitude (a.u.)       :      0.75401
Magnitude (Debye)      :      1.91654

Rotational constants in cm-1:     0.027304     0.011731     0.009618
Rotational constants in MHz :   818.567443   351.694980   288.348889

                             ****ORCA TERMINATED NORMALLY****
TOTAL RUN TIME: 0 days 0 hours 14 minutes 23 seconds 225 msec
