                         Program Version 5.0.4 -  RELEASE  -
|  1> ! nofrozencore ReducedPop printbasis
|  2> ! B3LYP TZVP
|  3>
|  4> %basis
|  5> newgto V "CP(PPP)" end
|  6> end
|  7>
|  8> %pal
|  9> nprocs 4
| 10> end
| 11>
| 12> % sym SymThresh 1e-2 end
| 13> * xyz -2 2
| 14> V 0.3238615080848639 -0.33396666723526947 -0.1591857956187184
| 15> S -0.18952738533351954 0.7829912121835112 -2.352595878780084
| 16> S 1.2642453982666033 1.8750264964021064 0.33305184140124355
| 17> S -1.9089259789266264 -1.3710855606848835 -0.075887640610571
| 18> S 0.12645339359080285 -0.7890301336906193 2.2750984575412407
| 19> O 1.4713658684723128 -1.337050623706397 -0.655443917784009
| 20> C 2.018007837017159 1.8125945701047503 2.009171801049901
| 21> C 1.8206984523229754 -0.5462391201570236 3.0328122152294235
| 22> C 2.7203141449161174 0.492179935615964 2.351048087392165
| 23> H 2.3383890788184125 -1.5121251184000826 3.0431100168283947
| 24> H 1.655139002651519 -0.255177153192922 4.078020597127249
| 25> H 3.128351237191067 0.06849886761984252 1.4296873790772995
| 26> H 3.5772348605307642 0.694066692888815 3.019470465112521
| 27> H 1.2536433060344068 2.020298250268583 2.766105130774466
| 28> H 2.7476808107603232 2.6305763125133845 2.0427981883661372
| 29> C -2.2429571925114264 1.338798572979662 -2.0268935278918523
| 30> C -2.5172783637494502 -1.4920792993402408 -2.0455113822832236
| 31> C -3.0456331799459053 -0.016739016166737678 -2.4327067596478535
| 32> H -3.385442250617731 -2.172944396861342 -2.047049990530824
| 33> H -1.7105024912895925 -1.890017568947073 -2.660127353918322
| 34> H -4.103951318539973 -0.03515630026544324 -2.0429686701079515
| 35> H -3.109016144772037 0.08827492695712591 -3.5450343609616155
| 36> H -2.4637765322337826 2.109344583358472 -2.787729995421427
| 37> H -2.360648045346866 1.7353482152885398 -1.016965945422412
| 38> *
| 39>
| 40> % eprnmr
| 41> gtensor true
| 42> Nuclei = all H {aiso,adip,aorb,fgrad,rho}
| 43> Nuclei = all V {aiso,adip,aorb,fgrad,rho}
| 44> end
| 45>
| 46>                          ****END OF INPUT****

CARTESIAN COORDINATES (ANGSTROEM)
---------------------------------
  V      0.324151   -0.334495   -0.159641
  S     -0.189237    0.782463   -2.353051
  S      1.264535    1.874498    0.332597
  S     -1.908636   -1.371614   -0.076343
  S      0.126743   -0.789558    2.274643
  O      1.471656   -1.337579   -0.655899
  C      2.018298    1.812067    2.008717
  C      1.820988   -0.546767    3.032357
  C      2.720604    0.491652    2.350593
  H      2.338679   -1.512653    3.042655
  H      1.655429   -0.255705    4.077566
  H      3.128641    0.067971    1.429232
  H      3.577525    0.693539    3.019015
  H      1.253933    2.019770    2.765650
  H      2.747971    2.630048    2.042343
  C     -2.242667    1.338271   -2.027349
  C     -2.516988   -1.492607   -2.045966
  C     -3.045343   -0.017267   -2.433162
  H     -3.385152   -2.173472   -2.047505
  H     -1.710213   -1.890546   -2.660582
  H     -4.103661   -0.035684   -2.043424
  H     -3.108726    0.087747   -3.545489
  H     -2.463487    2.108817   -2.788185
  H     -2.360358    1.734820   -1.017421

 Total Charge           Charge          ....   -2
 Multiplicity           Mult            ....    2
 Number of Electrons    NEL             ....  145
 Basis Dimension        Dim             ....  353

ORBITAL ENERGIES
----------------
                 SPIN UP ORBITALS
  NO   OCC          E(Eh)            E(eV)
   0   1.0000    -196.606138     -5349.9250
   1   1.0000     -88.569847     -2410.1081
   2   1.0000     -88.568359     -2410.0676
   3   1.0000     -88.559213     -2409.8187
   4   1.0000     -88.559130     -2409.8164
   5   1.0000     -21.981640      -598.1508
   6   1.0000     -18.824413      -512.2383
   7   1.0000     -18.489473      -503.1241
   8   1.0000     -18.482227      -502.9270
   9   1.0000     -18.482139      -502.9246
  10   1.0000      -9.961088      -271.0550
  11   1.0000      -9.956141      -270.9204
  12   1.0000      -9.955869      -270.9130
  13   1.0000      -9.943336      -270.5719
  14   1.0000      -9.933423      -270.3022
  15   1.0000      -9.928559      -270.1698
  16   1.0000      -7.621284      -207.3857
  17   1.0000      -7.619161      -207.3279
  18   1.0000      -7.613252      -207.1671
  19   1.0000      -7.613234      -207.1666
  20   1.0000      -5.587408      -152.0411
  21   1.0000      -5.585659      -151.9935
  22   1.0000      -5.580053      -151.8410
  23   1.0000      -5.578810      -151.8071
  24   1.0000      -5.578590      -151.8011
  25   1.0000      -5.578287      -151.7929
  26   1.0000      -5.578126      -151.7885
  27   1.0000      -5.575933      -151.7289
  28   1.0000      -5.572275      -151.6293
  29   1.0000      -5.572064      -151.6236
  30   1.0000      -5.570426      -151.5790
  31   1.0000      -5.570127      -151.5709
  32   1.0000      -2.374184       -64.6048
  33   1.0000      -1.416989       -38.5582
  34   1.0000      -1.402211       -38.1561
  35   1.0000      -1.401749       -38.1435
  36   1.0000      -0.586928       -15.9711
  37   1.0000      -0.550407       -14.9773
  38   1.0000      -0.519833       -14.1454
  39   1.0000      -0.468899       -12.7594
  40   1.0000      -0.439922       -11.9709
  41   1.0000      -0.399160       -10.8617
  42   1.0000      -0.376154       -10.2357
  43   1.0000      -0.340161        -9.2562
  44   1.0000      -0.326631        -8.8881
  45   1.0000      -0.311779        -8.4839
  46   1.0000      -0.301083        -8.1929
  47   1.0000      -0.213098        -5.7987
  48   1.0000      -0.206375        -5.6157
  49   1.0000      -0.197978        -5.3872
  50   1.0000      -0.182858        -4.9758
  51   1.0000      -0.160224        -4.3599
  52   1.0000      -0.136583        -3.7166
  53   1.0000      -0.122430        -3.3315
  54   1.0000      -0.112608        -3.0642
  55   1.0000      -0.111684        -3.0391
  56   1.0000      -0.105615        -2.8739
  57   1.0000      -0.078327        -2.1314
  58   1.0000      -0.063831        -1.7369
  59   1.0000      -0.062556        -1.7022
  60   1.0000      -0.050070        -1.3625
  61   1.0000      -0.045502        -1.2382
  62   1.0000      -0.030943        -0.8420
  63   1.0000      -0.018615        -0.5066
  64   1.0000      -0.002828        -0.0770
  65   1.0000       0.025533         0.6948
  66   1.0000       0.026858         0.7309
  67   1.0000       0.036063         0.9813
  68   1.0000       0.042405         1.1539
  69   1.0000       0.052695         1.4339
  70   1.0000       0.065450         1.7810
  71   1.0000       0.074597         2.0299
  72   1.0000       0.081349         2.2136
  73   0.0000       0.232577         6.3287
  74   0.0000       0.240127         6.5342
  75   0.0000       0.246877         6.7179
  76   0.0000       0.251039         6.8311
  77   0.0000       0.252387         6.8678

                 SPIN DOWN ORBITALS
  NO   OCC          E(Eh)            E(eV)
   0   1.0000    -196.606277     -5349.9288
   1   1.0000     -88.570027     -2410.1130
   2   1.0000     -88.568307     -2410.0662
   3   1.0000     -88.559321     -2409.8216
   4   1.0000     -88.559303     -2409.8212
   5   1.0000     -21.966683      -597.7438
   6   1.0000     -18.827858      -512.3321
   7   1.0000     -18.484309      -502.9836
   8   1.0000     -18.466378      -502.4957
   9   1.0000     -18.465658      -502.4761
  10   1.0000      -9.960983      -271.0521
  11   1.0000      -9.955915      -270.9142
  12   1.0000      -9.955765      -270.9101
  13   1.0000      -9.943150      -270.5669
  14   1.0000      -9.933315      -270.2992
  15   1.0000      -9.928579      -270.1704
  16   1.0000      -7.621452      -207.3903
  17   1.0000      -7.619113      -207.3266
  18   1.0000      -7.613404      -207.1713
  19   1.0000      -7.613354      -207.1699
  20   1.0000      -5.587650      -152.0477
  21   1.0000      -5.585681      -151.9941
  22   1.0000      -5.580492      -151.8529
  23   1.0000      -5.578936      -151.8106
  24   1.0000      -5.578746      -151.8054
  25   1.0000      -5.578445      -151.7972
  26   1.0000      -5.578393      -151.7958
  27   1.0000      -5.575373      -151.7136
  28   1.0000      -5.572678      -151.6403
  29   1.0000      -5.572509      -151.6357
  30   1.0000      -5.570563      -151.5827
  31   1.0000      -5.570068      -151.5693
  32   1.0000      -2.329573       -63.3909
  33   1.0000      -1.398140       -38.0453
  34   1.0000      -1.341390       -36.5011
  35   1.0000      -1.338901       -36.4333
  36   1.0000      -0.594307       -16.1719
  37   1.0000      -0.550327       -14.9751
  38   1.0000      -0.519555       -14.1378
  39   1.0000      -0.468874       -12.7587
  40   1.0000      -0.439571       -11.9613
  41   1.0000      -0.399362       -10.8672
  42   1.0000      -0.376185       -10.2365
  43   1.0000      -0.340241        -9.2584
  44   1.0000      -0.327027        -8.8989
  45   1.0000      -0.311637        -8.4801
  46   1.0000      -0.301150        -8.1947
  47   1.0000      -0.212979        -5.7955
  48   1.0000      -0.206325        -5.6144
  49   1.0000      -0.197791        -5.3822
  50   1.0000      -0.182715        -4.9719
  51   1.0000      -0.160106        -4.3567
  52   1.0000      -0.136304        -3.7090
  53   1.0000      -0.122166        -3.3243
  54   1.0000      -0.112453        -3.0600
  55   1.0000      -0.111680        -3.0390
  56   1.0000      -0.105463        -2.8698
  57   1.0000      -0.077292        -2.1032
  58   1.0000      -0.062531        -1.7015
  59   1.0000      -0.060087        -1.6350
  60   1.0000      -0.051724        -1.4075
  61   1.0000      -0.046716        -1.2712
  62   1.0000      -0.030940        -0.8419
  63   1.0000      -0.018430        -0.5015
  64   1.0000       0.001350         0.0367
  65   1.0000       0.027014         0.7351
  66   1.0000       0.029694         0.8080
  67   1.0000       0.042518         1.1570
  68   1.0000       0.045517         1.2386
  69   1.0000       0.063895         1.7387
  70   1.0000       0.065333         1.7778
  71   1.0000       0.075277         2.0484
  72   0.0000       0.229089         6.2338
  73   0.0000       0.239255         6.5105
  74   0.0000       0.249533         6.7901
  75   0.0000       0.255400         6.9498
  76   0.0000       0.260327         7.0839

MULLIKEN ATOMIC CHARGES AND SPIN POPULATIONS
--------------------------------------------
   0 V :    0.556403    1.182286
   1 S :   -0.442942    0.000454
   2 S :   -0.346404   -0.032584
   3 S :   -0.420770   -0.034646
   4 S :   -0.389139   -0.022074
   5 O :   -0.547253   -0.132749
   6 C :   -0.242798    0.004368
   7 C :   -0.234677    0.007120
   8 C :   -0.160255    0.002936
   9 H :    0.075898   -0.000943
  10 H :    0.051835    0.001971
  11 H :    0.137529    0.000405
  12 H :    0.005259   -0.000087
  13 H :    0.092884   -0.000109
  14 H :    0.047442   -0.000143
  15 C :   -0.237672    0.001036
  16 C :   -0.222047    0.014006
  17 C :   -0.118949    0.007088
  18 H :    0.046119   -0.000932
  19 H :    0.123351   -0.000181
  20 H :    0.019559    0.002243
  21 H :    0.021765    0.000482
  22 H :    0.051883   -0.000201
  23 H :    0.132978    0.000254
Sum of atomic charges         :   -2.0000000

LOEWDIN ATOMIC CHARGES AND SPIN POPULATIONS
-------------------------------------------
   0 V :   -0.229906    1.138740
   1 S :   -0.144299    0.006765
   2 S :   -0.031874   -0.022379
   3 S :   -0.111674   -0.024341
   4 S :   -0.069148   -0.013141
   5 O :   -0.376972   -0.119723
   6 C :   -0.332201    0.004101
   7 C :   -0.308823    0.007314
   8 C :   -0.187440    0.000430
   9 H :    0.036942   -0.000026
  10 H :    0.029298    0.000593
  11 H :    0.070115    0.000257
  12 H :    0.031352    0.000134
  13 H :    0.044049   -0.000087
  14 H :    0.027066   -0.000601
  15 C :   -0.243660    0.005068
  16 C :   -0.268840    0.015281
  17 C :   -0.189994    0.000375
  18 H :    0.031003   -0.000186
  19 H :    0.054557   -0.000390
  20 H :    0.037821    0.001009
  21 H :    0.038212    0.000740
  22 H :    0.034949   -0.000192
  23 H :    0.059468    0.000258

  Mayer bond orders larger than 0.100000
B(  0-V ,  1-S ) :   0.7056 B(  0-V ,  2-S ) :   0.8554 B(  0-V ,  3-S ) :   0.7659
B(  0-V ,  4-S ) :   0.7675 B(  0-V ,  5-O ) :   2.0679 B(  1-S , 15-C ) :   0.9788
B(  2-S ,  6-C ) :   1.0169 B(  3-S , 16-C ) :   0.9853 B(  4-S ,  7-C ) :   1.0628
B(  6-C ,  8-C ) :   0.8991 B(  6-C , 13-H ) :   0.9731 B(  6-C , 14-H ) :   0.9685
B(  7-C ,  8-C ) :   0.9227 B(  7-C ,  9-H ) :   0.9779 B(  7-C , 10-H ) :   0.9681
B(  8-C , 11-H ) :   0.9884 B(  8-C , 12-H ) :   0.9451 B( 15-C , 17-C ) :   0.9129
B( 15-C , 22-H ) :   0.9606 B( 15-C , 23-H ) :   0.9674 B( 16-C , 17-C ) :   0.9114
B( 16-C , 18-H ) :   0.9591 B( 16-C , 19-H ) :   0.9694 B( 17-C , 20-H ) :   0.9552
B( 17-C , 21-H ) :   0.9630

FINAL SINGLE POINT ENERGY     -2847.670477409128

DIPOLE MOMENT
-------------
                                X             Y             Z
Electronic contribution:      3.65928      -4.47267      -2.54335
Nuclear contribution   :     -3.73573       4.77225       2.85653
                        -----------------------------------------
Total Dipole Moment    :     -0.07646       0.29958       0.31318
                        -----------------------------------------
Magnitude (a.u.)       :      0.44009
Magnitude (Debye)      :      1.11861

Rotational constants in cm-1:     0.026365     0.011541     0.009502
Rotational constants in MHz :   790.403166   345.986116   284.859447

                             ****ORCA TERMINATED NORMALLY****
TOTAL RUN TIME: 0 days 0 hours 14 minutes 38 seconds 788 msec
