                         Program Version 5.0.4 -  RELEASE  -
|  1> ! nofrozencore ReducedPop printbasis
|  2> ! B3LYP TZVP
|  3>
|  4> %basis
|  5> newgto V "CP(PPP)" end
|  6> end
|  7>
|  8> %pal
|  9> nprocs 8
| 10> end
| 11>
| 12> % sym SymThresh 1e-2 end
| 13> * xyz -2 2
| 14> V 0.22605005878073695 0.4173885219241438 0.12917198656134357
| 15> S 1.16659152481407 -1.1766429383293633 1.8563606562911275
| 16> S 1.501915940630247 -1.027069348793886 -1.379590748810626
| 17> S -1.9627776468136386 0.31880039883321254 1.2962712091015136
| 18> S -1.2498285193576564 1.0838948013346323 -1.7596066217015682
| 19> O 1.051366597399979 1.7483648034827612 0.469393771504561
| 20> C 1.2885367166924768 -0.38235429639205315 -3.1061939997609467
| 21> C -0.16668460842745672 1.7186269109552395 -3.118372057516524
| 22> C 1.247962323986341 1.1455939136746827 -3.2070433818829356
| 23> H -0.06341991609588828 3.061973967921198 -2.96856181399972
| 24> H -0.6449417779099902 1.5665540347967801 -3.9698760486965115
| 25> H 1.8582352623238372 1.5485868544162704 -2.4482833075074013
| 26> H 1.6853538173753189 1.4733296853478868 -4.188139122405097
| 27> H 0.35361089255798733 -0.8108395715285611 -3.5493189956601143
| 28> H 2.1702503011692835 -0.7847842848749375 -3.702568174763291
| 29> C -0.2937110652090951 -2.2432756312613664 2.1905306158106206
| 30> C -1.5710577785975355 -0.21223453953285143 3.019980014819379
| 31> C -1.2797913850269684 -1.69472904206893 3.2041843425853145
| 32> H -2.575035128596731 0.11482470609971437 3.749216957907736
| 33> H -0.6846417246731238 0.3826374851338575 3.3749331221772456
| 34> H -2.2773748382011396 -2.3043133672318863 3.1372070654704607
| 35> H -0.8608702230777066 -1.8562704889865396 4.294380371647907
| 36> H 0.22850256603498942 -3.5672995873914606 2.684462344422462
| 37> H -0.839225163396526 -2.457762910669291 1.170027429620131
| 38> *
| 39>
| 40> % eprnmr
| 41> gtensor true
| 42> Nuclei = all H {aiso,adip,aorb,fgrad,rho}
| 43> Nuclei = all V {aiso,adip,aorb,fgrad,rho}
| 44> end
| 45>
| 46>                          ****END OF INPUT****

CARTESIAN COORDINATES (ANGSTROEM)
---------------------------------
  V      0.226323    0.417918    0.129635
  S      1.166864   -1.176113    1.856824
  S      1.502189   -1.026540   -1.379127
  S     -1.962505    0.319330    1.296735
  S     -1.249556    1.084425   -1.759143
  O      1.051639    1.748895    0.469857
  C      1.288810   -0.381824   -3.105731
  C     -0.166412    1.719157   -3.117909
  C      1.248235    1.146124   -3.206580
  H     -0.063147    3.062504   -2.968098
  H     -0.644669    1.567084   -3.969413
  H      1.858508    1.549117   -2.447820
  H      1.685627    1.473860   -4.187676
  H      0.353884   -0.810310   -3.548856
  H      2.170523   -0.784254   -3.702105
  C     -0.293438   -2.242746    2.190994
  C     -1.570785   -0.211705    3.020443
  C     -1.279519   -1.694199    3.204648
  H     -2.574762    0.115355    3.749680
  H     -0.684369    0.383167    3.375397
  H     -2.277102   -2.303784    3.137670
  H     -0.860597   -1.855741    4.294844
  H      0.228775   -3.566770    2.684926
  H     -0.838952   -2.457233    1.170491

 Total Charge           Charge          ....   -2
 Multiplicity           Mult            ....    2
 Number of Electrons    NEL             ....  145
 Basis Dimension        Dim             ....  353

ORBITAL ENERGIES
----------------
                 SPIN UP ORBITALS
  NO   OCC          E(Eh)            E(eV)
   0   1.0000    -196.614584     -5350.1548
   1   1.0000     -88.570501     -2410.1259
   2   1.0000     -88.569206     -2410.0906
   3   1.0000     -88.567802     -2410.0524
   4   1.0000     -88.567747     -2410.0509
   5   1.0000     -21.989770      -598.3721
   6   1.0000     -18.832426      -512.4564
   7   1.0000     -18.497510      -503.3428
   8   1.0000     -18.490406      -503.1495
   9   1.0000     -18.490331      -503.1475
  10   1.0000      -9.982816      -271.6462
  11   1.0000      -9.963619      -271.1239
  12   1.0000      -9.959064      -270.9999
  13   1.0000      -9.955631      -270.9065
  14   1.0000      -9.948257      -270.7058
  15   1.0000      -9.932962      -270.2896
  16   1.0000      -7.624697      -207.4785
  17   1.0000      -7.623360      -207.4422
  18   1.0000      -7.621935      -207.4034
  19   1.0000      -7.621643      -207.3954
  20   1.0000      -5.589961      -152.1106
  21   1.0000      -5.588742      -152.0774
  22   1.0000      -5.587316      -152.0386
  23   1.0000      -5.587044      -152.0312
  24   1.0000      -5.583608      -151.9377
  25   1.0000      -5.582551      -151.9089
  26   1.0000      -5.581881      -151.8907
  27   1.0000      -5.580954      -151.8655
  28   1.0000      -5.580446      -151.8517
  29   1.0000      -5.580320      -151.8482
  30   1.0000      -5.578957      -151.8111
  31   1.0000      -5.578821      -151.8074
  32   1.0000      -2.382583       -64.8334
  33   1.0000      -1.425173       -38.7809
  34   1.0000      -1.410787       -38.3895
  35   1.0000      -1.410318       -38.3767
  36   1.0000      -0.594498       -16.1771
  37   1.0000      -0.557879       -15.1807
  38   1.0000      -0.553319       -15.0566
  39   1.0000      -0.471967       -12.8429
  40   1.0000      -0.459335       -12.4991
  41   1.0000      -0.409704       -11.1486
  42   1.0000      -0.402201       -10.9445
  43   1.0000      -0.336936        -9.1685
  44   1.0000      -0.329094        -8.9551
  45   1.0000      -0.314871        -8.5681
  46   1.0000      -0.267210        -7.2712
  47   1.0000      -0.208168        -5.6645
  48   1.0000      -0.207125        -5.6362
  49   1.0000      -0.191723        -5.2170
  50   1.0000      -0.183489        -4.9930
  51   1.0000      -0.167194        -4.5496
  52   1.0000      -0.136572        -3.7163
  53   1.0000      -0.131310        -3.5731
  54   1.0000      -0.119713        -3.2576
  55   1.0000      -0.099646        -2.7115
  56   1.0000      -0.087807        -2.3893
  57   1.0000      -0.083850        -2.2817
  58   1.0000      -0.072980        -1.9859
  59   1.0000      -0.070121        -1.9081
  60   1.0000      -0.061541        -1.6746
  61   1.0000      -0.053300        -1.4504
  62   1.0000      -0.049057        -1.3349
  63   1.0000      -0.043264        -1.1773
  64   1.0000      -0.006855        -0.1865
  65   1.0000       0.021143         0.5753
  66   1.0000       0.022818         0.6209
  67   1.0000       0.029375         0.7993
  68   1.0000       0.038291         1.0420
  69   1.0000       0.046449         1.2640
  70   1.0000       0.056588         1.5398
  71   1.0000       0.064704         1.7607
  72   1.0000       0.072975         1.9858
  73   0.0000       0.222325         6.0498
  74   0.0000       0.230057         6.2602
  75   0.0000       0.238971         6.5027
  76   0.0000       0.241240         6.5645
  77   0.0000       0.243215         6.6182

                 SPIN DOWN ORBITALS
  NO   OCC          E(Eh)            E(eV)
   0   1.0000    -196.614727     -5350.1587
   1   1.0000     -88.570661     -2410.1302
   2   1.0000     -88.569173     -2410.0897
   3   1.0000     -88.567981     -2410.0573
   4   1.0000     -88.567850     -2410.0537
   5   1.0000     -21.974712      -597.9623
   6   1.0000     -18.835939      -512.5520
   7   1.0000     -18.492291      -503.2008
   8   1.0000     -18.474347      -502.7125
   9   1.0000     -18.473864      -502.6994
  10   1.0000      -9.982741      -271.6442
  11   1.0000      -9.963437      -271.1189
  12   1.0000      -9.958882      -270.9949
  13   1.0000      -9.955591      -270.9054
  14   1.0000      -9.948119      -270.7021
  15   1.0000      -9.932984      -270.2902
  16   1.0000      -7.624848      -207.4827
  17   1.0000      -7.623331      -207.4414
  18   1.0000      -7.622032      -207.4060
  19   1.0000      -7.621817      -207.4002
  20   1.0000      -5.590114      -152.1147
  21   1.0000      -5.588756      -152.0778
  22   1.0000      -5.587436      -152.0419
  23   1.0000      -5.587212      -152.0358
  24   1.0000      -5.584026      -151.9491
  25   1.0000      -5.582866      -151.9175
  26   1.0000      -5.582001      -151.8940
  27   1.0000      -5.581364      -151.8766
  28   1.0000      -5.580907      -151.8642
  29   1.0000      -5.579854      -151.8356
  30   1.0000      -5.578956      -151.8111
  31   1.0000      -5.578878      -151.8090
  32   1.0000      -2.337616       -63.6098
  33   1.0000      -1.406103       -38.2620
  34   1.0000      -1.349138       -36.7119
  35   1.0000      -1.347364       -36.6636
  36   1.0000      -0.602034       -16.3822
  37   1.0000      -0.557775       -15.1778
  38   1.0000      -0.553145       -15.0518
  39   1.0000      -0.471918       -12.8415
  40   1.0000      -0.459208       -12.4957
  41   1.0000      -0.409805       -11.1514
  42   1.0000      -0.402291       -10.9469
  43   1.0000      -0.337111        -9.1733
  44   1.0000      -0.329393        -8.9632
  45   1.0000      -0.314856        -8.5677
  46   1.0000      -0.267097        -7.2681
  47   1.0000      -0.208052        -5.6614
  48   1.0000      -0.206982        -5.6323
  49   1.0000      -0.191577        -5.2131
  50   1.0000      -0.183409        -4.9908
  51   1.0000      -0.167137        -4.5480
  52   1.0000      -0.136298        -3.7089
  53   1.0000      -0.131047        -3.5660
  54   1.0000      -0.119653        -3.2559
  55   1.0000      -0.099418        -2.7053
  56   1.0000      -0.086887        -2.3643
  57   1.0000      -0.083514        -2.2725
  58   1.0000      -0.070882        -1.9288
  59   1.0000      -0.069245        -1.8843
  60   1.0000      -0.061665        -1.6780
  61   1.0000      -0.054371        -1.4795
  62   1.0000      -0.049783        -1.3547
  63   1.0000      -0.044440        -1.2093
  64   1.0000      -0.002469        -0.0672
  65   1.0000       0.022153         0.6028
  66   1.0000       0.025919         0.7053
  67   1.0000       0.038354         1.0437
  68   1.0000       0.038939         1.0596
  69   1.0000       0.053368         1.4522
  70   1.0000       0.060541         1.6474
  71   1.0000       0.066830         1.8185
  72   0.0000       0.222098         6.0436
  73   0.0000       0.227978         6.2036
  74   0.0000       0.244548         6.6545
  75   0.0000       0.248114         6.7515
  76   0.0000       0.254768         6.9326

MULLIKEN ATOMIC CHARGES AND SPIN POPULATIONS
--------------------------------------------
   0 V :    0.512775    1.194045
   1 S :   -0.378273   -0.000279
   2 S :   -0.341822   -0.033510
   3 S :   -0.384790   -0.028858
   4 S :   -0.362491   -0.022000
   5 O :   -0.539121   -0.135529
   6 C :   -0.250739    0.005897
   7 C :   -0.225122    0.007479
   8 C :   -0.147379    0.002628
   9 H :   -0.019992   -0.000990
  10 H :    0.104451    0.001600
  11 H :    0.154210    0.000697
  12 H :    0.002139   -0.000102
  13 H :    0.092941   -0.000105
  14 H :    0.041241   -0.000262
  15 C :   -0.193526   -0.001286
  16 C :   -0.235033    0.003331
  17 C :   -0.036954    0.008744
  18 H :   -0.008151   -0.000584
  19 H :    0.136992   -0.000259
  20 H :    0.014731    0.001660
  21 H :    0.013654    0.000376
  22 H :   -0.088766   -0.003500
  23 H :    0.139025    0.000806
Sum of atomic charges         :   -2.0000000

LOEWDIN ATOMIC CHARGES AND SPIN POPULATIONS
-------------------------------------------
   0 V :   -0.213153    1.150439
   1 S :   -0.045705    0.004864
   2 S :   -0.031570   -0.023062
   3 S :   -0.049686   -0.020173
   4 S :   -0.046942   -0.012564
   5 O :   -0.370986   -0.122138
   6 C :   -0.330316    0.005445
   7 C :   -0.300850    0.007204
   8 C :   -0.188064    0.000381
   9 H :    0.023266   -0.000369
  10 H :    0.011957    0.000508
  11 H :    0.064443    0.000332
  12 H :    0.035285    0.000152
  13 H :    0.047825   -0.000077
  14 H :    0.032186   -0.000668
  15 C :   -0.323162    0.003600
  16 C :   -0.338835    0.007513
  17 C :   -0.214511    0.001045
  18 H :    0.029562   -0.000690
  19 H :    0.060325   -0.000648
  20 H :    0.045118    0.000692
  21 H :    0.045673    0.000529
  22 H :   -0.012897   -0.002779
  23 H :    0.071037    0.000466

  Mayer bond orders larger than 0.100000
B(  0-V ,  1-S ) :   0.6934 B(  0-V ,  2-S ) :   0.8638 B(  0-V ,  3-S ) :   0.7661
B(  0-V ,  4-S ) :   0.7766 B(  0-V ,  5-O ) :   2.0792 B(  1-S , 15-C ) :   1.0409
B(  2-S ,  6-C ) :   1.0132 B(  3-S , 16-C ) :   1.0261 B(  4-S ,  7-C ) :   1.0844
B(  6-C ,  8-C ) :   0.8936 B(  6-C , 13-H ) :   0.9707 B(  6-C , 14-H ) :   0.9617
B(  7-C ,  8-C ) :   0.9315 B(  7-C ,  9-H ) :   0.9346 B(  7-C , 10-H ) :   0.9656
B(  8-C , 11-H ) :   0.9866 B(  8-C , 12-H ) :   0.9463 B( 15-C , 17-C ) :   0.9114
B( 15-C , 22-H ) :   0.8907 B( 15-C , 23-H ) :   0.9555 B( 16-C , 17-C ) :   0.9009
B( 16-C , 18-H ) :   0.9360 B( 16-C , 19-H ) :   0.9614 B( 17-C , 20-H ) :   0.9486
B( 17-C , 21-H ) :   0.9462

FINAL SINGLE POINT ENERGY     -2847.615952077813

DIPOLE MOMENT
-------------
                                X             Y             Z
Electronic contribution:      2.52101       5.28401       2.20814
Nuclear contribution   :     -2.55964      -5.28604      -2.85477
                        -----------------------------------------
Total Dipole Moment    :     -0.03864      -0.00203      -0.64663
                        -----------------------------------------
Magnitude (a.u.)       :      0.64779
Magnitude (Debye)      :      1.64654

Rotational constants in cm-1:     0.027122     0.011712     0.009590
Rotational constants in MHz :   813.082127   351.131691   287.502122

                             ****ORCA TERMINATED NORMALLY****
TOTAL RUN TIME: 0 days 0 hours 9 minutes 38 seconds 32 msec
