                         Program Version 5.0.4 -  RELEASE  -
|  1> ! nofrozencore ReducedPop printbasis
|  2> ! B3LYP TZVP
|  3>
|  4> %basis
|  5> newgto V "CP(PPP)" end
|  6> end
|  7>
|  8> %pal
|  9> nprocs 8
| 10> end
| 11>
| 12> % sym SymThresh 1e-2 end
| 13> * xyz -2 2
| 14> V -0.4764230548497059 0.07197633886938946 -0.057917521352635296
| 15> S -0.39339805938214756 -2.367596406977178 0.5265747374885322
| 16> S 0.33803977065206803 0.31925604460085144 2.2069582633947378
| 17> S 0.5078393623600448 -0.53579675295177 -2.2603838451749922
| 18> S 0.47331384805236676 2.2585393943231007 -0.6483251395461243
| 19> O -2.073132322590482 0.24723657411081576 -0.04767602029888918
| 20> C 0.5330915307292419 2.1265143147269856 2.588243195511769
| 21> C -0.2284126865009616 3.4982979653309005 0.5371585447268704
| 22> C -0.5398698862470488 3.0243749217369995 1.9639412257760966
| 23> H -1.1439734490860671 3.916756198552668 0.10228654664410455
| 24> H 0.5027983883923777 4.316165211900575 0.589386236451353
| 25> H -1.4894115950678664 2.480386515894016 1.9728873574569672
| 26> H -0.6794811191903076 3.9269313602511753 2.5884408063121196
| 27> H 1.525012476291797 2.4653136597785013 2.2673101211318434
| 28> H 0.4896980603976636 2.2081102493123113 3.6813308078858773
| 29> C 1.1836113564016935 -2.9309573047933872 -0.2622801809443965
| 30> C 0.00578121176917255 -2.309708488150193 -2.431506526668689
| 31> C 1.015032193258384 -3.2453688704732144 -1.7596208448528008
| 32> H -0.09335764564581421 -2.5544638954620567 -3.5126960457189123
| 33> H -0.979743259167353 -2.4427808331721637 -1.946061312152534
| 34> H 1.9944379702129031 -3.1626015903108167 -2.2711282150056014
| 35> H 0.6691775438721038 -4.292431940714347 -1.8765654716173807
| 36> H 1.543317265542122 -3.818998812576973 0.27093565297364575
| 37> H 1.927707031048713 -2.144802383605169 -0.12993152707461622
| 38> *
| 39>
| 40> % eprnmr
| 41> gtensor true
| 42> Nuclei = all H {aiso,adip,aorb,fgrad,rho}
| 43> Nuclei = all V {aiso,adip,aorb,fgrad,rho}
| 44> end
| 45>
| 46>                          ****END OF INPUT****

CARTESIAN COORDINATES (ANGSTROEM)
---------------------------------
  V     -0.477127    0.071805   -0.058129
  S     -0.394102   -2.367767    0.526363
  S      0.337336    0.319085    2.206747
  S      0.507135   -0.535968   -2.260595
  S      0.472610    2.258368   -0.648537
  O     -2.073837    0.247066   -0.047888
  C      0.532387    2.126343    2.588032
  C     -0.229117    3.498127    0.536947
  C     -0.540574    3.024204    1.963730
  H     -1.144678    3.916585    0.102075
  H      0.502094    4.315994    0.589175
  H     -1.490116    2.480216    1.972676
  H     -0.680185    3.926760    2.588229
  H      1.524308    2.465143    2.267099
  H      0.488994    2.207939    3.681119
  C      1.182907   -2.931128   -0.262492
  C      0.005077   -2.309879   -2.431718
  C      1.014328   -3.245540   -1.759832
  H     -0.094062   -2.554635   -3.512908
  H     -0.980448   -2.442952   -1.946273
  H      1.993734   -3.162772   -2.271340
  H      0.668473   -4.292603   -1.876777
  H      1.542613   -3.819170    0.270724
  H      1.927003   -2.144973   -0.130143

 Total Charge           Charge          ....   -2
 Multiplicity           Mult            ....    2
 Number of Electrons    NEL             ....  145
 Basis Dimension        Dim             ....  353

ORBITAL ENERGIES
----------------
                 SPIN UP ORBITALS
  NO   OCC          E(Eh)            E(eV)
   0   1.0000    -196.603329     -5349.8486
   1   1.0000     -88.560414     -2409.8514
   2   1.0000     -88.559385     -2409.8234
   3   1.0000     -88.559269     -2409.8202
   4   1.0000     -88.555369     -2409.7141
   5   1.0000     -21.978997      -598.0789
   6   1.0000     -18.821764      -512.1662
   7   1.0000     -18.486806      -503.0516
   8   1.0000     -18.479574      -502.8548
   9   1.0000     -18.479491      -502.8525
  10   1.0000      -9.943104      -270.5656
  11   1.0000      -9.936131      -270.3759
  12   1.0000      -9.933090      -270.2931
  13   1.0000      -9.931791      -270.2578
  14   1.0000      -9.930753      -270.2295
  15   1.0000      -9.930408      -270.2201
  16   1.0000      -7.614407      -207.1986
  17   1.0000      -7.613857      -207.1836
  18   1.0000      -7.613542      -207.1750
  19   1.0000      -7.609993      -207.0784
  20   1.0000      -5.579846      -151.8353
  21   1.0000      -5.579306      -151.8206
  22   1.0000      -5.578676      -151.8035
  23   1.0000      -5.575231      -151.7097
  24   1.0000      -5.573195      -151.6543
  25   1.0000      -5.572802      -151.6437
  26   1.0000      -5.572618      -151.6386
  27   1.0000      -5.571566      -151.6100
  28   1.0000      -5.570858      -151.5908
  29   1.0000      -5.570769      -151.5883
  30   1.0000      -5.569196      -151.5455
  31   1.0000      -5.567023      -151.4864
  32   1.0000      -2.371910       -64.5429
  33   1.0000      -1.414345       -38.4863
  34   1.0000      -1.400164       -38.1004
  35   1.0000      -1.399773       -38.0898
  36   1.0000      -0.584532       -15.9059
  37   1.0000      -0.551446       -15.0056
  38   1.0000      -0.548974       -14.9383
  39   1.0000      -0.469964       -12.7884
  40   1.0000      -0.459997       -12.5172
  41   1.0000      -0.403114       -10.9693
  42   1.0000      -0.395590       -10.7646
  43   1.0000      -0.336599        -9.1593
  44   1.0000      -0.328094        -8.9279
  45   1.0000      -0.304097        -8.2749
  46   1.0000      -0.282588        -7.6896
  47   1.0000      -0.209622        -5.7041
  48   1.0000      -0.207626        -5.6498
  49   1.0000      -0.201436        -5.4814
  50   1.0000      -0.198813        -5.4100
  51   1.0000      -0.161703        -4.4002
  52   1.0000      -0.131772        -3.5857
  53   1.0000      -0.127754        -3.4764
  54   1.0000      -0.112224        -3.0538
  55   1.0000      -0.106697        -2.9034
  56   1.0000      -0.103454        -2.8151
  57   1.0000      -0.081554        -2.2192
  58   1.0000      -0.069121        -1.8809
  59   1.0000      -0.060832        -1.6553
  60   1.0000      -0.054723        -1.4891
  61   1.0000      -0.044169        -1.2019
  62   1.0000      -0.038509        -1.0479
  63   1.0000      -0.032593        -0.8869
  64   1.0000      -0.000509        -0.0139
  65   1.0000       0.026808         0.7295
  66   1.0000       0.030628         0.8334
  67   1.0000       0.036258         0.9866
  68   1.0000       0.046096         1.2543
  69   1.0000       0.054675         1.4878
  70   1.0000       0.066186         1.8010
  71   1.0000       0.073029         1.9872
  72   1.0000       0.083994         2.2856
  73   0.0000       0.236325         6.4307
  74   0.0000       0.248677         6.7668
  75   0.0000       0.251082         6.8323
  76   0.0000       0.253254         6.8914
  77   0.0000       0.261487         7.1154

                 SPIN DOWN ORBITALS
  NO   OCC          E(Eh)            E(eV)
   0   1.0000    -196.603468     -5349.8523
   1   1.0000     -88.560594     -2409.8563
   2   1.0000     -88.559474     -2409.8258
   3   1.0000     -88.559421     -2409.8243
   4   1.0000     -88.555327     -2409.7130
   5   1.0000     -21.964032      -597.6717
   6   1.0000     -18.825206      -512.2599
   7   1.0000     -18.481645      -502.9111
   8   1.0000     -18.463621      -502.4207
   9   1.0000     -18.463089      -502.4062
  10   1.0000      -9.942914      -270.5604
  11   1.0000      -9.935978      -270.3717
  12   1.0000      -9.933046      -270.2919
  13   1.0000      -9.931639      -270.2536
  14   1.0000      -9.930701      -270.2281
  15   1.0000      -9.930427      -270.2207
  16   1.0000      -7.614582      -207.2033
  17   1.0000      -7.613942      -207.1859
  18   1.0000      -7.613687      -207.1789
  19   1.0000      -7.609955      -207.0774
  20   1.0000      -5.580021      -151.8401
  21   1.0000      -5.579421      -151.8238
  22   1.0000      -5.578811      -151.8072
  23   1.0000      -5.575238      -151.7099
  24   1.0000      -5.573645      -151.6666
  25   1.0000      -5.573181      -151.6540
  26   1.0000      -5.573030      -151.6499
  27   1.0000      -5.571710      -151.6139
  28   1.0000      -5.570875      -151.5912
  29   1.0000      -5.570754      -151.5879
  30   1.0000      -5.569517      -151.5543
  31   1.0000      -5.566514      -151.4726
  32   1.0000      -2.327246       -63.3276
  33   1.0000      -1.395523       -37.9741
  34   1.0000      -1.338981       -36.4355
  35   1.0000      -1.337099       -36.3843
  36   1.0000      -0.591922       -16.1070
  37   1.0000      -0.551327       -15.0024
  38   1.0000      -0.548817       -14.9341
  39   1.0000      -0.469859       -12.7855
  40   1.0000      -0.459881       -12.5140
  41   1.0000      -0.403181       -10.9711
  42   1.0000      -0.395613       -10.7652
  43   1.0000      -0.336740        -9.1632
  44   1.0000      -0.328430        -8.9370
  45   1.0000      -0.304033        -8.2732
  46   1.0000      -0.282578        -7.6893
  47   1.0000      -0.209575        -5.7028
  48   1.0000      -0.207556        -5.6479
  49   1.0000      -0.201186        -5.4745
  50   1.0000      -0.198686        -5.4065
  51   1.0000      -0.161559        -4.3962
  52   1.0000      -0.131629        -3.5818
  53   1.0000      -0.127500        -3.4695
  54   1.0000      -0.112189        -3.0528
  55   1.0000      -0.106502        -2.8981
  56   1.0000      -0.103372        -2.8129
  57   1.0000      -0.080453        -2.1892
  58   1.0000      -0.066972        -1.8224
  59   1.0000      -0.059815        -1.6276
  60   1.0000      -0.054571        -1.4850
  61   1.0000      -0.044684        -1.2159
  62   1.0000      -0.039189        -1.0664
  63   1.0000      -0.034335        -0.9343
  64   1.0000       0.004082         0.1111
  65   1.0000       0.028337         0.7711
  66   1.0000       0.033125         0.9014
  67   1.0000       0.044110         1.2003
  68   1.0000       0.048192         1.3114
  69   1.0000       0.061695         1.6788
  70   1.0000       0.070226         1.9110
  71   1.0000       0.074958         2.0397
  72   0.0000       0.235721         6.4143
  73   0.0000       0.252485         6.8705
  74   0.0000       0.254934         6.9371
  75   0.0000       0.262483         7.1425
  76   0.0000       0.267992         7.2924

MULLIKEN ATOMIC CHARGES AND SPIN POPULATIONS
--------------------------------------------
   0 V :    0.509966    1.184747
   1 S :   -0.419220    0.001937
   2 S :   -0.336655   -0.034082
   3 S :   -0.417800   -0.027634
   4 S :   -0.377127   -0.019084
   5 O :   -0.551953   -0.132897
   6 C :   -0.244674    0.006494
   7 C :   -0.234266    0.006605
   8 C :   -0.152547    0.003492
   9 H :    0.076717   -0.000950
  10 H :    0.051038    0.002383
  11 H :    0.130660    0.000450
  12 H :    0.005515   -0.000104
  13 H :    0.089383   -0.000224
  14 H :    0.049896    0.000027
  15 C :   -0.254894   -0.002728
  16 C :   -0.262670    0.001610
  17 C :   -0.073234    0.008343
  18 H :    0.042123   -0.000585
  19 H :    0.148258    0.000258
  20 H :    0.022956    0.001384
  21 H :    0.005793    0.000554
  22 H :    0.052297   -0.000529
  23 H :    0.140439    0.000532
Sum of atomic charges         :   -2.0000000

LOEWDIN ATOMIC CHARGES AND SPIN POPULATIONS
-------------------------------------------
   0 V :   -0.230915    1.140579
   1 S :   -0.055704    0.006482
   2 S :   -0.022568   -0.022740
   3 S :   -0.067417   -0.019432
   4 S :   -0.051820   -0.009870
   5 O :   -0.384310   -0.119667
   6 C :   -0.325438    0.006060
   7 C :   -0.314635    0.007386
   8 C :   -0.186672    0.000512
   9 H :    0.037350    0.000055
  10 H :    0.029166    0.000757
  11 H :    0.069282    0.000275
  12 H :    0.031830    0.000170
  13 H :    0.044034   -0.000075
  14 H :    0.028394   -0.000486
  15 C :   -0.315899    0.002266
  16 C :   -0.331635    0.006756
  17 C :   -0.194362    0.001347
  18 H :    0.026517   -0.000373
  19 H :    0.057885   -0.000713
  20 H :    0.039206    0.000478
  21 H :    0.031777    0.000471
  22 H :    0.029702   -0.000580
  23 H :    0.056231    0.000339

  Mayer bond orders larger than 0.100000
B(  0-V ,  1-S ) :   0.7104 B(  0-V ,  2-S ) :   0.8773 B(  0-V ,  3-S ) :   0.7686
B(  0-V ,  4-S ) :   0.7919 B(  0-V ,  5-O ) :   2.0639 B(  1-S , 15-C ) :   1.0175
B(  2-S ,  6-C ) :   1.0130 B(  3-S , 16-C ) :   1.0107 B(  4-S ,  7-C ) :   1.0701
B(  6-C ,  8-C ) :   0.9059 B(  6-C , 13-H ) :   0.9722 B(  6-C , 14-H ) :   0.9689
B(  7-C ,  8-C ) :   0.9167 B(  7-C ,  9-H ) :   0.9781 B(  7-C , 10-H ) :   0.9691
B(  8-C , 11-H ) :   0.9877 B(  8-C , 12-H ) :   0.9459 B( 15-C , 17-C ) :   0.8932
B( 15-C , 22-H ) :   0.9689 B( 15-C , 23-H ) :   0.9792 B( 16-C , 17-C ) :   0.9059
B( 16-C , 18-H ) :   0.9563 B( 16-C , 19-H ) :   0.9657 B( 17-C , 20-H ) :   0.9613
B( 17-C , 21-H ) :   0.9495

FINAL SINGLE POINT ENERGY     -2847.714490041011

DIPOLE MOMENT
-------------
                                X             Y             Z
Electronic contribution:     -5.78755      -0.23185      -1.61381
Nuclear contribution   :      6.14313       0.52127       1.89963
                        -----------------------------------------
Total Dipole Moment    :      0.35558       0.28942       0.28582
                        -----------------------------------------
Magnitude (a.u.)       :      0.54027
Magnitude (Debye)      :      1.37327

Rotational constants in cm-1:     0.027728     0.011785     0.009725
Rotational constants in MHz :   831.265079   353.303252   291.559985

                             ****ORCA TERMINATED NORMALLY****
TOTAL RUN TIME: 0 days 0 hours 9 minutes 40 seconds 402 msec
