                         Program Version 5.0.4 -  RELEASE  -
|  1> ! nofrozencore ReducedPop printbasis
|  2> ! B3LYP TZVP
|  3>
|  4> %basis
|  5> newgto V "CP(PPP)" end
|  6> end
|  7>
|  8> %pal
|  9> nprocs 4
| 10> end
| 11>
| 12> % sym SymThresh 1e-2 end
| 13> * xyz -2 2
| 14> V -0.0748746132382315 0.010439394631526868 0.5469526578975118
| 15> S -1.310382086132445 -2.101682058059681 -0.11278472569548864
| 16> S 1.674770789958896 -1.4179081024650992 -0.32663498419225895
| 17> S -1.6842817720478604 1.4396000072075092 -0.5981626857774213
| 18> S 1.2217177033982833 2.0075036567306843 -0.09055651964466531
| 19> O -0.19785904929310447 0.03496037768168005 2.1540119551757795
| 20> C 3.2499831320431243 -0.4482444485563656 -0.1774751199395635
| 21> C 2.801335727005278 1.8632861116319033 0.8552199488549549
| 22> C 3.3116790913915155 0.435535175649245 1.0760663913655355
| 23> H 2.6829231130445903 2.3519366802923267 1.8302116707910143
| 24> H 3.5593343909061765 2.43227839362586 0.29900171017632
| 25> H 2.7256442856647705 -0.04203813264761651 1.8658785107003848
| 26> H 4.352353995457874 0.500535836544405 1.4431870942544738
| 27> H 3.373484144074278 0.1761344375438902 -1.0688900865591981
| 28> H 4.068507339551171 -1.178125352621276 -0.16122080953540785
| 29> C -2.088929175976861 -1.5241911002913193 -1.688169054124133
| 30> C -3.22551339314926 0.4313551927134517 -0.4446656645783292
| 31> C -3.358485716887522 -0.6873464227707835 -1.4841778694040393
| 32> H -4.089276144723889 1.1039004184748331 -0.5264924193948302
| 33> H -3.2385458119301833 -0.007187118749814429 0.5545984528887069
| 34> H -3.6464916587381944 -0.24961089282689422 -2.4568415627988576
| 35> H -4.182974140997778 -1.3522097594757514 -1.172324730911377
| 36> H -2.328275942557966 -2.405062043719992 -2.300236049859281
| 37> H -1.3519674289288555 -0.9342954065994982 -2.236746817050955
| 38> *
| 39>
| 40> % eprnmr
| 41> gtensor true
| 42> Nuclei = all H {aiso,adip,aorb,fgrad,rho}
| 43> Nuclei = all V {aiso,adip,aorb,fgrad,rho}
| 44> end
| 45>
| 46>                          ****END OF INPUT****

CARTESIAN COORDINATES (ANGSTROEM)
---------------------------------
  V     -0.075238    0.010396    0.547613
  S     -1.310745   -2.101725   -0.112124
  S      1.674408   -1.417952   -0.325974
  S     -1.684645    1.439557   -0.597502
  S      1.221355    2.007460   -0.089896
  O     -0.198222    0.034917    2.154673
  C      3.249620   -0.448288   -0.176814
  C      2.800973    1.863243    0.855881
  C      3.311316    0.435492    1.076727
  H      2.682560    2.351893    1.830872
  H      3.558971    2.432235    0.299662
  H      2.725281   -0.042082    1.866539
  H      4.351991    0.500492    1.443848
  H      3.373121    0.176091   -1.068229
  H      4.068144   -1.178169   -0.160560
  C     -2.089292   -1.524235   -1.687508
  C     -3.225876    0.431312   -0.444005
  C     -3.358849   -0.687390   -1.483517
  H     -4.089639    1.103857   -0.525832
  H     -3.238909   -0.007231    0.555259
  H     -3.646855   -0.249654   -2.456181
  H     -4.183337   -1.352253   -1.171664
  H     -2.328639   -2.405105   -2.299575
  H     -1.352330   -0.934339   -2.236086

 Total Charge           Charge          ....   -2
 Multiplicity           Mult            ....    2
 Number of Electrons    NEL             ....  145
 Basis Dimension        Dim             ....  353

ORBITAL ENERGIES
----------------
                 SPIN UP ORBITALS
  NO   OCC          E(Eh)            E(eV)
   0   1.0000    -196.601273     -5349.7926
   1   1.0000     -88.560184     -2409.8451
   2   1.0000     -88.558223     -2409.7918
   3   1.0000     -88.556540     -2409.7460
   4   1.0000     -88.555555     -2409.7192
   5   1.0000     -21.976930      -598.0227
   6   1.0000     -18.818593      -512.0799
   7   1.0000     -18.484736      -502.9952
   8   1.0000     -18.477530      -502.7991
   9   1.0000     -18.477402      -502.7957
  10   1.0000      -9.938859      -270.4501
  11   1.0000      -9.932152      -270.2676
  12   1.0000      -9.931306      -270.2446
  13   1.0000      -9.929622      -270.1988
  14   1.0000      -9.929495      -270.1953
  15   1.0000      -9.924972      -270.0722
  16   1.0000      -7.614824      -207.2099
  17   1.0000      -7.612112      -207.1361
  18   1.0000      -7.611175      -207.1106
  19   1.0000      -7.609913      -207.0763
  20   1.0000      -5.580051      -151.8409
  21   1.0000      -5.577577      -151.7736
  22   1.0000      -5.576624      -151.7477
  23   1.0000      -5.575090      -151.7059
  24   1.0000      -5.573790      -151.6705
  25   1.0000      -5.571909      -151.6194
  26   1.0000      -5.570849      -151.5905
  27   1.0000      -5.570241      -151.5740
  28   1.0000      -5.569281      -151.5478
  29   1.0000      -5.569186      -151.5452
  30   1.0000      -5.567972      -151.5122
  31   1.0000      -5.566963      -151.4848
  32   1.0000      -2.369946       -64.4895
  33   1.0000      -1.411601       -38.4116
  34   1.0000      -1.398482       -38.0546
  35   1.0000      -1.398198       -38.0469
  36   1.0000      -0.582156       -15.8413
  37   1.0000      -0.548599       -14.9281
  38   1.0000      -0.547980       -14.9113
  39   1.0000      -0.466725       -12.7002
  40   1.0000      -0.463783       -12.6202
  41   1.0000      -0.403408       -10.9773
  42   1.0000      -0.392870       -10.6905
  43   1.0000      -0.339129        -9.2282
  44   1.0000      -0.323857        -8.8126
  45   1.0000      -0.303073        -8.2470
  46   1.0000      -0.282922        -7.6987
  47   1.0000      -0.210347        -5.7238
  48   1.0000      -0.203687        -5.5426
  49   1.0000      -0.200896        -5.4667
  50   1.0000      -0.195626        -5.3232
  51   1.0000      -0.157135        -4.2758
  52   1.0000      -0.130541        -3.5522
  53   1.0000      -0.130065        -3.5393
  54   1.0000      -0.109035        -2.9670
  55   1.0000      -0.106188        -2.8895
  56   1.0000      -0.102730        -2.7954
  57   1.0000      -0.084799        -2.3075
  58   1.0000      -0.068182        -1.8553
  59   1.0000      -0.058395        -1.5890
  60   1.0000      -0.049795        -1.3550
  61   1.0000      -0.040610        -1.1050
  62   1.0000      -0.033448        -0.9102
  63   1.0000      -0.030907        -0.8410
  64   1.0000       0.001076         0.0293
  65   1.0000       0.029581         0.8049
  66   1.0000       0.030940         0.8419
  67   1.0000       0.038017         1.0345
  68   1.0000       0.042484         1.1561
  69   1.0000       0.055637         1.5140
  70   1.0000       0.066670         1.8142
  71   1.0000       0.077011         2.0956
  72   1.0000       0.082978         2.2579
  73   0.0000       0.239772         6.5245
  74   0.0000       0.251563         6.8454
  75   0.0000       0.253020         6.8850
  76   0.0000       0.254748         6.9321
  77   0.0000       0.261242         7.1087

                 SPIN DOWN ORBITALS
  NO   OCC          E(Eh)            E(eV)
   0   1.0000    -196.601408     -5349.7963
   1   1.0000     -88.560348     -2409.8496
   2   1.0000     -88.558407     -2409.7968
   3   1.0000     -88.556662     -2409.7493
   4   1.0000     -88.555562     -2409.7194
   5   1.0000     -21.961943      -597.6149
   6   1.0000     -18.821905      -512.1701
   7   1.0000     -18.479558      -502.8543
   8   1.0000     -18.461982      -502.3761
   9   1.0000     -18.460561      -502.3374
  10   1.0000      -9.938693      -270.4456
  11   1.0000      -9.931963      -270.2625
  12   1.0000      -9.931232      -270.2426
  13   1.0000      -9.929591      -270.1979
  14   1.0000      -9.929387      -270.1924
  15   1.0000      -9.924984      -270.0725
  16   1.0000      -7.614981      -207.2142
  17   1.0000      -7.612292      -207.1410
  18   1.0000      -7.611292      -207.1138
  19   1.0000      -7.609921      -207.0765
  20   1.0000      -5.580199      -151.8449
  21   1.0000      -5.577742      -151.7781
  22   1.0000      -5.576752      -151.7511
  23   1.0000      -5.575127      -151.7069
  24   1.0000      -5.574234      -151.6826
  25   1.0000      -5.572024      -151.6225
  26   1.0000      -5.571317      -151.6033
  27   1.0000      -5.570679      -151.5859
  28   1.0000      -5.569549      -151.5551
  29   1.0000      -5.569428      -151.5518
  30   1.0000      -5.567934      -151.5112
  31   1.0000      -5.566597      -151.4748
  32   1.0000      -2.325138       -63.2702
  33   1.0000      -1.392609       -37.8948
  34   1.0000      -1.338145       -36.4128
  35   1.0000      -1.334383       -36.3104
  36   1.0000      -0.589236       -16.0339
  37   1.0000      -0.548507       -14.9256
  38   1.0000      -0.547847       -14.9077
  39   1.0000      -0.466704       -12.6997
  40   1.0000      -0.463673       -12.6172
  41   1.0000      -0.403513       -10.9801
  42   1.0000      -0.393036       -10.6951
  43   1.0000      -0.339316        -9.2333
  44   1.0000      -0.324294        -8.8245
  45   1.0000      -0.303033        -8.2459
  46   1.0000      -0.282945        -7.6993
  47   1.0000      -0.210250        -5.7212
  48   1.0000      -0.203615        -5.5406
  49   1.0000      -0.200749        -5.4627
  50   1.0000      -0.195457        -5.3187
  51   1.0000      -0.156996        -4.2721
  52   1.0000      -0.130246        -3.5442
  53   1.0000      -0.129819        -3.5325
  54   1.0000      -0.109025        -2.9667
  55   1.0000      -0.106106        -2.8873
  56   1.0000      -0.102545        -2.7904
  57   1.0000      -0.083664        -2.2766
  58   1.0000      -0.066116        -1.7991
  59   1.0000      -0.057181        -1.5560
  60   1.0000      -0.049827        -1.3559
  61   1.0000      -0.041237        -1.1221
  62   1.0000      -0.034486        -0.9384
  63   1.0000      -0.031689        -0.8623
  64   1.0000       0.004314         0.1174
  65   1.0000       0.031335         0.8527
  66   1.0000       0.033997         0.9251
  67   1.0000       0.042819         1.1652
  68   1.0000       0.044377         1.2075
  69   1.0000       0.063320         1.7230
  70   1.0000       0.071857         1.9553
  71   1.0000       0.078409         2.1336
  72   0.0000       0.236381         6.4323
  73   0.0000       0.254271         6.9191
  74   0.0000       0.259321         7.0565
  75   0.0000       0.263362         7.1665
  76   0.0000       0.269473         7.3327

MULLIKEN ATOMIC CHARGES AND SPIN POPULATIONS
--------------------------------------------
   0 V :    0.512073    1.192636
   1 S :   -0.431406   -0.006358
   2 S :   -0.336398   -0.034694
   3 S :   -0.393517   -0.031008
   4 S :   -0.365792   -0.024607
   5 O :   -0.577204   -0.127131
   6 C :   -0.245573    0.005081
   7 C :   -0.238303    0.005189
   8 C :   -0.173253    0.004101
   9 H :    0.075715   -0.000861
  10 H :    0.048673    0.002448
  11 H :    0.146111    0.000741
  12 H :    0.005154    0.000204
  13 H :    0.096058   -0.000111
  14 H :    0.045928   -0.000090
  15 C :   -0.244828   -0.001626
  16 C :   -0.264144    0.005397
  17 C :   -0.064225    0.007350
  18 H :    0.047505    0.001622
  19 H :    0.142317   -0.000834
  20 H :    0.011429    0.001719
  21 H :    0.011001    0.000541
  22 H :    0.050820   -0.000466
  23 H :    0.141860    0.000755
Sum of atomic charges         :   -2.0000000

LOEWDIN ATOMIC CHARGES AND SPIN POPULATIONS
-------------------------------------------
   0 V :   -0.218293    1.148915
   1 S :   -0.073768   -0.000252
   2 S :   -0.024467   -0.023593
   3 S :   -0.040064   -0.020797
   4 S :   -0.047207   -0.014938
   5 O :   -0.402214   -0.114764
   6 C :   -0.332601    0.004269
   7 C :   -0.317004    0.006346
   8 C :   -0.190119    0.000966
   9 H :    0.036676    0.000022
  10 H :    0.027963    0.000744
  11 H :    0.070221    0.000422
  12 H :    0.030642    0.000144
  13 H :    0.045113   -0.000110
  14 H :    0.025843   -0.000492
  15 C :   -0.318283    0.003317
  16 C :   -0.325024    0.007665
  17 C :   -0.189545    0.000736
  18 H :    0.028112    0.000603
  19 H :    0.056888   -0.000372
  20 H :    0.035043    0.000685
  21 H :    0.035423    0.000449
  22 H :    0.029598   -0.000474
  23 H :    0.057067    0.000510

  Mayer bond orders larger than 0.100000
B(  0-V ,  1-S ) :   0.7078 B(  0-V ,  2-S ) :   0.8775 B(  0-V ,  3-S ) :   0.7859
B(  0-V ,  4-S ) :   0.7856 B(  0-V ,  5-O ) :   2.0328 B(  1-S , 15-C ) :   1.0077
B(  2-S ,  6-C ) :   0.9956 B(  3-S , 16-C ) :   1.0049 B(  4-S ,  7-C ) :   1.0695
B(  6-C ,  8-C ) :   0.9006 B(  6-C , 13-H ) :   0.9738 B(  6-C , 14-H ) :   0.9654
B(  7-C ,  8-C ) :   0.9180 B(  7-C ,  9-H ) :   0.9760 B(  7-C , 10-H ) :   0.9662
B(  8-C , 11-H ) :   0.9902 B(  8-C , 12-H ) :   0.9412 B( 15-C , 17-C ) :   0.8975
B( 15-C , 22-H ) :   0.9653 B( 15-C , 23-H ) :   0.9751 B( 16-C , 17-C ) :   0.9026
B( 16-C , 18-H ) :   0.9622 B( 16-C , 19-H ) :   0.9796 B( 17-C , 20-H ) :   0.9552
B( 17-C , 21-H ) :   0.9558

FINAL SINGLE POINT ENERGY     -2847.713006744299

DIPOLE MOMENT
-------------
                                X             Y             Z
Electronic contribution:     -1.87708      -0.20342       5.83917
Nuclear contribution   :      2.14945       0.32582      -6.14694
                        -----------------------------------------
Total Dipole Moment    :      0.27237       0.12240      -0.30777
                        -----------------------------------------
Magnitude (a.u.)       :      0.42883
Magnitude (Debye)      :      1.08999

Rotational constants in cm-1:     0.026609     0.012537     0.010171
Rotational constants in MHz :   797.709702   375.858211   304.914422

                             ****ORCA TERMINATED NORMALLY****
TOTAL RUN TIME: 0 days 0 hours 14 minutes 23 seconds 960 msec
