                         Program Version 5.0.4 -  RELEASE  -
|  1> ! nofrozencore ReducedPop printbasis
|  2> ! B3LYP TZVP
|  3>
|  4> %basis
|  5> newgto V "CP(PPP)" end
|  6> end
|  7>
|  8> %pal
|  9> nprocs 8
| 10> end
| 11>
| 12> % sym SymThresh 1e-2 end
| 13> * xyz -2 2
| 14> V 0.21670284275292076 0.4339987811098148 -0.0824616279489916
| 15> S 1.8934902749075113 -0.5864198271855829 1.5050541127937256
| 16> S 0.9941069012261098 -1.3992302946972504 -1.5067699772480427
| 17> S -1.3462602312083236 0.707024879733803 1.8503590736665987
| 18> S -1.8946526014235525 0.5526982870582414 -1.3919738913466917
| 19> O 0.9820813256912833 1.794852864671013 -0.4455354979310965
| 20> C 0.11626692615387914 -1.2736523997832614 -3.133209059608386
| 21> C -1.4321989820420293 0.7815857184875501 -3.173404094359884
| 22> C -0.10487337359866586 0.16248351789647203 -3.6233779472221803
| 23> H -1.416025968523302 1.8539481230496124 -3.4008251543380563
| 24> H -2.2471040308939054 0.3410507148208729 -3.762576231338647
| 25> H 0.7254945493939943 0.7803406900133929 -3.272022632481479
| 26> H -0.07990264900404007 0.18741161711925627 -4.728018132994615
| 27> H -0.8488700631856494 -1.7871614796782123 -3.0670618449272546
| 28> H 0.7356818751595721 -1.8184169241774497 -3.85537043332748
| 29> C 0.6698016864928601 -1.6071134929792907 2.7113783711116795
| 30> C -0.43896236241613706 0.6442247191460762 3.227377347870435
| 31> C 0.07059685649360695 -0.6741662404021158 3.780177690191864
| 32> H -0.9555915642195355 1.1931341054421873 4.037206640236431
| 33> H 0.48715728848201445 1.1980483815437462 3.0342313937483842
| 34> H -0.6492359584394422 -1.2134450165126556 4.478412393239687
| 35> H 0.9538010300430588 -0.3319693126934839 4.41252583198134
| 36> H 1.2993148079306882 -2.3564005163258854 3.2141372453078505
| 37> H -0.07071286357853793 -2.1209866313300125 2.092081639409392
| 38> *
| 39>
| 40> % eprnmr
| 41> gtensor true
| 42> Nuclei = all H {aiso,adip,aorb,fgrad,rho}
| 43> Nuclei = all V {aiso,adip,aorb,fgrad,rho}
| 44> end
| 45>
| 46>                          ****END OF INPUT****

CARTESIAN COORDINATES (ANGSTROEM)
---------------------------------
  V      0.217073    0.434635   -0.082294
  S      1.893860   -0.585783    1.505221
  S      0.994477   -1.398594   -1.506603
  S     -1.345890    0.707661    1.850526
  S     -1.894282    0.553335   -1.391807
  O      0.982451    1.795489   -0.445368
  C      0.116637   -1.273016   -3.133042
  C     -1.431829    0.782222   -3.173237
  C     -0.104503    0.163120   -3.623211
  H     -1.415656    1.854585   -3.400658
  H     -2.246734    0.341687   -3.762409
  H      0.725865    0.780977   -3.271855
  H     -0.079532    0.188048   -4.727851
  H     -0.848500   -1.786525   -3.066895
  H      0.736052   -1.817780   -3.855203
  C      0.670172   -1.606477    2.711546
  C     -0.438592    0.644861    3.227545
  C      0.070967   -0.673530    3.780345
  H     -0.955221    1.193771    4.037374
  H      0.487527    1.198685    3.034399
  H     -0.648866   -1.212809    4.478580
  H      0.954171   -0.331333    4.412693
  H      1.299685   -2.355764    3.214305
  H     -0.070343   -2.120350    2.092249

 Total Charge           Charge          ....   -2
 Multiplicity           Mult            ....    2
 Number of Electrons    NEL             ....  145
 Basis Dimension        Dim             ....  353

ORBITAL ENERGIES
----------------
                 SPIN UP ORBITALS
  NO   OCC          E(Eh)            E(eV)
   0   1.0000    -196.607432     -5349.9602
   1   1.0000     -88.564841     -2409.9718
   2   1.0000     -88.560773     -2409.8612
   3   1.0000     -88.558961     -2409.8118
   4   1.0000     -88.550563     -2409.5833
   5   1.0000     -21.982779      -598.1818
   6   1.0000     -18.825294      -512.2623
   7   1.0000     -18.490523      -503.1527
   8   1.0000     -18.483412      -502.9592
   9   1.0000     -18.483321      -502.9567
  10   1.0000      -9.944818      -270.6122
  11   1.0000      -9.942770      -270.5565
  12   1.0000      -9.938209      -270.4324
  13   1.0000      -9.934921      -270.3429
  14   1.0000      -9.928918      -270.1796
  15   1.0000      -9.921611      -269.9808
  16   1.0000      -7.616968      -207.2682
  17   1.0000      -7.614657      -207.2054
  18   1.0000      -7.613248      -207.1670
  19   1.0000      -7.609857      -207.0747
  20   1.0000      -5.582810      -151.9160
  21   1.0000      -5.580053      -151.8410
  22   1.0000      -5.578673      -151.8034
  23   1.0000      -5.576149      -151.7347
  24   1.0000      -5.574040      -151.6773
  25   1.0000      -5.573911      -151.6738
  26   1.0000      -5.573485      -151.6622
  27   1.0000      -5.572266      -151.6291
  28   1.0000      -5.571853      -151.6178
  29   1.0000      -5.570205      -151.5730
  30   1.0000      -5.568756      -151.5336
  31   1.0000      -5.567132      -151.4894
  32   1.0000      -2.375428       -64.6387
  33   1.0000      -1.418034       -38.5867
  34   1.0000      -1.403512       -38.1915
  35   1.0000      -1.403080       -38.1797
  36   1.0000      -0.587805       -15.9950
  37   1.0000      -0.560109       -15.2414
  38   1.0000      -0.551539       -15.0082
  39   1.0000      -0.477502       -12.9935
  40   1.0000      -0.469510       -12.7760
  41   1.0000      -0.402307       -10.9473
  42   1.0000      -0.395948       -10.7743
  43   1.0000      -0.338865        -9.2210
  44   1.0000      -0.328011        -8.9256
  45   1.0000      -0.304443        -8.2843
  46   1.0000      -0.278438        -7.5767
  47   1.0000      -0.214679        -5.8417
  48   1.0000      -0.207498        -5.6463
  49   1.0000      -0.202601        -5.5131
  50   1.0000      -0.198333        -5.3969
  51   1.0000      -0.161068        -4.3829
  52   1.0000      -0.137696        -3.7469
  53   1.0000      -0.131961        -3.5908
  54   1.0000      -0.112334        -3.0568
  55   1.0000      -0.108267        -2.9461
  56   1.0000      -0.106151        -2.8885
  57   1.0000      -0.083355        -2.2682
  58   1.0000      -0.068460        -1.8629
  59   1.0000      -0.064092        -1.7440
  60   1.0000      -0.054977        -1.4960
  61   1.0000      -0.047304        -1.2872
  62   1.0000      -0.044910        -1.2221
  63   1.0000      -0.032003        -0.8708
  64   1.0000       0.000162         0.0044
  65   1.0000       0.025729         0.7001
  66   1.0000       0.034922         0.9503
  67   1.0000       0.037154         1.0110
  68   1.0000       0.046317         1.2603
  69   1.0000       0.054438         1.4813
  70   1.0000       0.066443         1.8080
  71   1.0000       0.071034         1.9329
  72   1.0000       0.080945         2.2026
  73   0.0000       0.233828         6.3628
  74   0.0000       0.245719         6.6863
  75   0.0000       0.249041         6.7767
  76   0.0000       0.251708         6.8493
  77   0.0000       0.257127         6.9968

                 SPIN DOWN ORBITALS
  NO   OCC          E(Eh)            E(eV)
   0   1.0000    -196.607573     -5349.9640
   1   1.0000     -88.564825     -2409.9714
   2   1.0000     -88.560952     -2409.8660
   3   1.0000     -88.559061     -2409.8146
   4   1.0000     -88.550716     -2409.5875
   5   1.0000     -21.967704      -597.7716
   6   1.0000     -18.828778      -512.3571
   7   1.0000     -18.485308      -503.0108
   8   1.0000     -18.467266      -502.5198
   9   1.0000     -18.466892      -502.5097
  10   1.0000      -9.944742      -270.6102
  11   1.0000      -9.942581      -270.5514
  12   1.0000      -9.938183      -270.4317
  13   1.0000      -9.934794      -270.3395
  14   1.0000      -9.928936      -270.1801
  15   1.0000      -9.921486      -269.9774
  16   1.0000      -7.616955      -207.2679
  17   1.0000      -7.614830      -207.2101
  18   1.0000      -7.613343      -207.1696
  19   1.0000      -7.610004      -207.0787
  20   1.0000      -5.582838      -151.9168
  21   1.0000      -5.580219      -151.8455
  22   1.0000      -5.578796      -151.8068
  23   1.0000      -5.576499      -151.7442
  24   1.0000      -5.574175      -151.6810
  25   1.0000      -5.573949      -151.6749
  26   1.0000      -5.573468      -151.6618
  27   1.0000      -5.572662      -151.6398
  28   1.0000      -5.571985      -151.6214
  29   1.0000      -5.570126      -151.5708
  30   1.0000      -5.569158      -151.5445
  31   1.0000      -5.567255      -151.4927
  32   1.0000      -2.330419       -63.4139
  33   1.0000      -1.398975       -38.0680
  34   1.0000      -1.341686       -36.5091
  35   1.0000      -1.340160       -36.4676
  36   1.0000      -0.595266       -16.1980
  37   1.0000      -0.560065       -15.2401
  38   1.0000      -0.551439       -15.0054
  39   1.0000      -0.477483       -12.9930
  40   1.0000      -0.469456       -12.7745
  41   1.0000      -0.402373       -10.9491
  42   1.0000      -0.396032       -10.7766
  43   1.0000      -0.338897        -9.2218
  44   1.0000      -0.328397        -8.9361
  45   1.0000      -0.304424        -8.2838
  46   1.0000      -0.278520        -7.5789
  47   1.0000      -0.214634        -5.8405
  48   1.0000      -0.207433        -5.6445
  49   1.0000      -0.202571        -5.5122
  50   1.0000      -0.198157        -5.3921
  51   1.0000      -0.160931        -4.3792
  52   1.0000      -0.137477        -3.7409
  53   1.0000      -0.131750        -3.5851
  54   1.0000      -0.112319        -3.0563
  55   1.0000      -0.108231        -2.9451
  56   1.0000      -0.105982        -2.8839
  57   1.0000      -0.082275        -2.2388
  58   1.0000      -0.066411        -1.8071
  59   1.0000      -0.063125        -1.7177
  60   1.0000      -0.055479        -1.5096
  61   1.0000      -0.047445        -1.2910
  62   1.0000      -0.046440        -1.2637
  63   1.0000      -0.033096        -0.9006
  64   1.0000       0.004769         0.1298
  65   1.0000       0.027724         0.7544
  66   1.0000       0.037134         1.0105
  67   1.0000       0.046837         1.2745
  68   1.0000       0.048355         1.3158
  69   1.0000       0.060311         1.6411
  70   1.0000       0.068629         1.8675
  71   1.0000       0.074640         2.0311
  72   0.0000       0.233632         6.3574
  73   0.0000       0.249441         6.7876
  74   0.0000       0.255320         6.9476
  75   0.0000       0.259595         7.0639
  76   0.0000       0.263829         7.1791

MULLIKEN ATOMIC CHARGES AND SPIN POPULATIONS
--------------------------------------------
   0 V :    0.514463    1.194167
   1 S :   -0.430768   -0.003706
   2 S :   -0.348967   -0.033755
   3 S :   -0.387877   -0.026072
   4 S :   -0.383446   -0.021030
   5 O :   -0.545359   -0.134549
   6 C :   -0.246176    0.005675
   7 C :   -0.235597    0.006947
   8 C :   -0.157904    0.003014
   9 H :    0.075016   -0.000981
  10 H :    0.051644    0.002133
  11 H :    0.138618    0.000591
  12 H :    0.005360   -0.000063
  13 H :    0.094407   -0.000131
  14 H :    0.048776   -0.000110
  15 C :   -0.266696   -0.000486
  16 C :   -0.261473   -0.000216
  17 C :   -0.050403    0.007999
  18 H :    0.041377   -0.000626
  19 H :    0.140226   -0.000658
  20 H :    0.005203    0.002146
  21 H :    0.011298   -0.000084
  22 H :    0.054195   -0.000237
  23 H :    0.134086    0.000030
Sum of atomic charges         :   -2.0000000

LOEWDIN ATOMIC CHARGES AND SPIN POPULATIONS
-------------------------------------------
   0 V :   -0.207617    1.151116
   1 S :   -0.112216    0.002315
   2 S :   -0.035738   -0.023179
   3 S :    0.013392   -0.018198
   4 S :   -0.062606   -0.011876
   5 O :   -0.377896   -0.121182
   6 C :   -0.327824    0.005020
   7 C :   -0.313820    0.007293
   8 C :   -0.187532    0.000494
   9 H :    0.036174    0.000002
  10 H :    0.029173    0.000618
  11 H :    0.070041    0.000327
  12 H :    0.031407    0.000148
  13 H :    0.044920   -0.000065
  14 H :    0.027550   -0.000538
  15 C :   -0.276873    0.003499
  16 C :   -0.399903    0.004467
  17 C :   -0.196085    0.000664
  18 H :    0.026097   -0.000932
  19 H :    0.050176   -0.001152
  20 H :    0.032032    0.000894
  21 H :    0.044446    0.000323
  22 H :    0.033645   -0.000285
  23 H :    0.059057    0.000226

  Mayer bond orders larger than 0.100000
B(  0-V ,  1-S ) :   0.7109 B(  0-V ,  2-S ) :   0.8581 B(  0-V ,  3-S ) :   0.7735
B(  0-V ,  4-S ) :   0.7800 B(  0-V ,  5-O ) :   2.0742 B(  1-S , 15-C ) :   0.9805
B(  2-S ,  6-C ) :   1.0126 B(  3-S , 16-C ) :   1.1170 B(  3-S , 17-C ) :  -0.1107
B(  4-S ,  7-C ) :   1.0714 B(  6-C ,  8-C ) :   0.9004 B(  6-C , 13-H ) :   0.9741
B(  6-C , 14-H ) :   0.9682 B(  7-C ,  8-C ) :   0.9201 B(  7-C ,  9-H ) :   0.9765
B(  7-C , 10-H ) :   0.9691 B(  8-C , 11-H ) :   0.9881 B(  8-C , 12-H ) :   0.9451
B( 15-C , 17-C ) :   0.9153 B( 15-C , 22-H ) :   0.9703 B( 15-C , 23-H ) :   0.9728
B( 16-C , 17-C ) :   0.8594 B( 16-C , 18-H ) :   0.9514 B( 16-C , 19-H ) :   0.9746
B( 17-C , 20-H ) :   0.9227 B( 17-C , 21-H ) :   0.9821

FINAL SINGLE POINT ENERGY     -2847.688806957236

DIPOLE MOMENT
-------------
                                X             Y             Z
Electronic contribution:      2.70100       5.45101       0.11112
Nuclear contribution   :     -2.91303      -5.77744      -0.40420
                        -----------------------------------------
Total Dipole Moment    :     -0.21203      -0.32643      -0.29308
                        -----------------------------------------
Magnitude (a.u.)       :      0.48725
Magnitude (Debye)      :      1.23849

Rotational constants in cm-1:     0.027108     0.011733     0.009629
Rotational constants in MHz :   812.670077   351.741701   288.659009

                             ****ORCA TERMINATED NORMALLY****
TOTAL RUN TIME: 0 days 0 hours 9 minutes 39 seconds 829 msec
