                         Program Version 5.0.4 -  RELEASE  -
|  1> ! nofrozencore ReducedPop printbasis
|  2> ! B3LYP TZVP
|  3>
|  4> %basis
|  5> newgto V "CP(PPP)" end
|  6> end
|  7>
|  8> %pal
|  9> nprocs 8
| 10> end
| 11>
| 12> % sym SymThresh 1e-2 end
| 13> * xyz -2 2
| 14> V -0.4777170692279655 0.030292388049529724 0.11570689852165211
| 15> S 0.48761223325229736 1.7824883189448035 1.6661065981704277
| 16> S 0.27593797362252037 1.6225125581496018 -1.5760289743132678
| 17> S 0.5635826975686141 -1.7271992006294152 1.5278459018698165
| 18> S -0.37115083399879417 -1.806735287295405 -1.5673679285332434
| 19> O -2.042674812775998 0.20710259224305325 0.4006303262195071
| 20> C -0.12923699102012332 0.9574824960866741 -3.2490134856627932
| 21> C -1.4223793691266449 -1.2566508418311508 -3.0118040931740477
| 22> C -1.5255807267659534 0.19200905376503186 -3.2905998572481465
| 23> H -2.3582693804589745 -1.7934132674597858 -2.7619104396359155
| 24> H -0.8748116808665576 -1.9107373446521156 -3.7367968359390655
| 25> H -2.281825242241611 0.522266468298579 -2.556569616146594
| 26> H -1.8304689114136077 0.5683044254247588 -4.32661031399061
| 27> H 0.6046416086588365 0.24628092474817062 -3.6679006319443332
| 28> H -0.3240130778110132 1.6739563390601682 -4.112243768932688
| 29> C 2.1079201581140032 1.0255094149924076 2.1350933232398916
| 30> C 0.8225365903495108 -0.9447378881665995 3.1840354540315214
| 31> C 2.018461321533574 0.006766738830816054 3.28036757278137
| 32> H 0.9426470276320645 -1.7544536941653162 3.9142204433271397
| 33> H -0.08138730538581276 -0.3921984392477638 3.440495450540032
| 34> H 2.9536141216151948 -0.5747132855566234 3.302142610046243
| 35> H 1.9531029587502655 0.5459400064345317 4.2394321219160025
| 36> H 2.798913298765997 1.8273665536707384 2.4211873175800283
| 37> H 2.520700183739615 0.5411988863834932 1.2497311370516213
| 38> *
| 39>
| 40> % eprnmr
| 41> gtensor true
| 42> Nuclei = all H {aiso,adip,aorb,fgrad,rho}
| 43> Nuclei = all V {aiso,adip,aorb,fgrad,rho}
| 44> end
| 45>
| 46>                          ****END OF INPUT****

CARTESIAN COORDINATES (ANGSTROEM)
---------------------------------
  V     -0.478323    0.030353    0.116153
  S      0.487006    1.782549    1.666552
  S      0.275332    1.622573   -1.575583
  S      0.562976   -1.727139    1.528292
  S     -0.371757   -1.806675   -1.566922
  O     -2.043281    0.207163    0.401076
  C     -0.129843    0.957543   -3.248568
  C     -1.422986   -1.256590   -3.011358
  C     -1.526187    0.192070   -3.290154
  H     -2.358876   -1.793353   -2.761465
  H     -0.875418   -1.910677   -3.736351
  H     -2.282432    0.522327   -2.556124
  H     -1.831075    0.568365   -4.326165
  H      0.604035    0.246342   -3.667455
  H     -0.324619    1.674017   -4.111798
  C      2.107314    1.025570    2.135539
  C      0.821930   -0.944677    3.184481
  C      2.017855    0.006827    3.280813
  H      0.942041   -1.754393    3.914666
  H     -0.081994   -0.392138    3.440941
  H      2.953008   -0.574653    3.302588
  H      1.952497    0.546001    4.239878
  H      2.798307    1.827427    2.421633
  H      2.520094    0.541260    1.250177

 Total Charge           Charge          ....   -2
 Multiplicity           Mult            ....    2
 Number of Electrons    NEL             ....  145
 Basis Dimension        Dim             ....  353

ORBITAL ENERGIES
----------------
                 SPIN UP ORBITALS
  NO   OCC          E(Eh)            E(eV)
   0   1.0000    -196.607492     -5349.9619
   1   1.0000     -88.564611     -2409.9656
   2   1.0000     -88.561789     -2409.8888
   3   1.0000     -88.558577     -2409.8014
   4   1.0000     -88.558065     -2409.7875
   5   1.0000     -21.982844      -598.1836
   6   1.0000     -18.826025      -512.2822
   7   1.0000     -18.490648      -503.1561
   8   1.0000     -18.483426      -502.9596
   9   1.0000     -18.483377      -502.9582
  10   1.0000      -9.945358      -270.6269
  11   1.0000      -9.942779      -270.5568
  12   1.0000      -9.936037      -270.3733
  13   1.0000      -9.934600      -270.3342
  14   1.0000      -9.934318      -270.3265
  15   1.0000      -9.932176      -270.2682
  16   1.0000      -7.618200      -207.3018
  17   1.0000      -7.615935      -207.2401
  18   1.0000      -7.613013      -207.1606
  19   1.0000      -7.612400      -207.1439
  20   1.0000      -5.583843      -151.9441
  21   1.0000      -5.581142      -151.8706
  22   1.0000      -5.578451      -151.7974
  23   1.0000      -5.577632      -151.7751
  24   1.0000      -5.576883      -151.7547
  25   1.0000      -5.575312      -151.7119
  26   1.0000      -5.574942      -151.7019
  27   1.0000      -5.573162      -151.6534
  28   1.0000      -5.572127      -151.6253
  29   1.0000      -5.571629      -151.6117
  30   1.0000      -5.569810      -151.5622
  31   1.0000      -5.569479      -151.5532
  32   1.0000      -2.375655       -64.6449
  33   1.0000      -1.418595       -38.6019
  34   1.0000      -1.403799       -38.1993
  35   1.0000      -1.403152       -38.1817
  36   1.0000      -0.588676       -16.0187
  37   1.0000      -0.551918       -15.0184
  38   1.0000      -0.551097       -14.9961
  39   1.0000      -0.469348       -12.7716
  40   1.0000      -0.466130       -12.6840
  41   1.0000      -0.404867       -11.0170
  42   1.0000      -0.397621       -10.8198
  43   1.0000      -0.339062        -9.2263
  44   1.0000      -0.331473        -9.0198
  45   1.0000      -0.297838        -8.1046
  46   1.0000      -0.285299        -7.7634
  47   1.0000      -0.214438        -5.8351
  48   1.0000      -0.211093        -5.7441
  49   1.0000      -0.202990        -5.5236
  50   1.0000      -0.198189        -5.3930
  51   1.0000      -0.147957        -4.0261
  52   1.0000      -0.133470        -3.6319
  53   1.0000      -0.131499        -3.5783
  54   1.0000      -0.114240        -3.1086
  55   1.0000      -0.107888        -2.9358
  56   1.0000      -0.102706        -2.7948
  57   1.0000      -0.082574        -2.2470
  58   1.0000      -0.070093        -1.9073
  59   1.0000      -0.064965        -1.7678
  60   1.0000      -0.057914        -1.5759
  61   1.0000      -0.046679        -1.2702
  62   1.0000      -0.039010        -1.0615
  63   1.0000      -0.033487        -0.9112
  64   1.0000      -0.001050        -0.0286
  65   1.0000       0.026258         0.7145
  66   1.0000       0.030213         0.8221
  67   1.0000       0.038121         1.0373
  68   1.0000       0.045933         1.2499
  69   1.0000       0.052250         1.4218
  70   1.0000       0.063607         1.7308
  71   1.0000       0.072630         1.9764
  72   1.0000       0.081350         2.2136
  73   0.0000       0.234418         6.3788
  74   0.0000       0.243116         6.6155
  75   0.0000       0.247140         6.7250
  76   0.0000       0.251945         6.8558
  77   0.0000       0.258322         7.0293

                 SPIN DOWN ORBITALS
  NO   OCC          E(Eh)            E(eV)
   0   1.0000    -196.607634     -5349.9657
   1   1.0000     -88.564777     -2409.9701
   2   1.0000     -88.561950     -2409.8932
   3   1.0000     -88.558692     -2409.8045
   4   1.0000     -88.558030     -2409.7865
   5   1.0000     -21.967803      -597.7743
   6   1.0000     -18.829489      -512.3764
   7   1.0000     -18.485460      -503.0149
   8   1.0000     -18.467382      -502.5230
   9   1.0000     -18.466906      -502.5100
  10   1.0000      -9.945219      -270.6232
  11   1.0000      -9.942598      -270.5518
  12   1.0000      -9.936062      -270.3740
  13   1.0000      -9.934544      -270.3327
  14   1.0000      -9.934147      -270.3219
  15   1.0000      -9.932132      -270.2671
  16   1.0000      -7.618362      -207.3062
  17   1.0000      -7.616089      -207.2443
  18   1.0000      -7.613122      -207.1636
  19   1.0000      -7.612368      -207.1431
  20   1.0000      -5.584000      -151.9484
  21   1.0000      -5.581295      -151.8748
  22   1.0000      -5.578584      -151.8010
  23   1.0000      -5.577643      -151.7754
  24   1.0000      -5.577307      -151.7662
  25   1.0000      -5.575439      -151.7154
  26   1.0000      -5.575370      -151.7135
  27   1.0000      -5.573280      -151.6567
  28   1.0000      -5.572561      -151.6371
  29   1.0000      -5.571955      -151.6206
  30   1.0000      -5.569743      -151.5604
  31   1.0000      -5.568992      -151.5400
  32   1.0000      -2.330764       -63.4233
  33   1.0000      -1.399678       -38.0872
  34   1.0000      -1.342153       -36.5218
  35   1.0000      -1.340274       -36.4707
  36   1.0000      -0.596065       -16.2198
  37   1.0000      -0.551810       -15.0155
  38   1.0000      -0.550940       -14.9918
  39   1.0000      -0.469295       -12.7702
  40   1.0000      -0.466004       -12.6806
  41   1.0000      -0.404934       -11.0188
  42   1.0000      -0.397774       -10.8240
  43   1.0000      -0.339231        -9.2309
  44   1.0000      -0.331775        -9.0281
  45   1.0000      -0.297819        -8.1041
  46   1.0000      -0.285340        -7.7645
  47   1.0000      -0.214371        -5.8333
  48   1.0000      -0.210995        -5.7415
  49   1.0000      -0.202882        -5.5207
  50   1.0000      -0.198072        -5.3898
  51   1.0000      -0.147582        -4.0159
  52   1.0000      -0.133344        -3.6285
  53   1.0000      -0.131248        -3.5714
  54   1.0000      -0.114186        -3.1072
  55   1.0000      -0.107822        -2.9340
  56   1.0000      -0.102627        -2.7926
  57   1.0000      -0.081784        -2.2255
  58   1.0000      -0.067635        -1.8404
  59   1.0000      -0.064062        -1.7432
  60   1.0000      -0.058085        -1.5806
  61   1.0000      -0.048146        -1.3101
  62   1.0000      -0.040872        -1.1122
  63   1.0000      -0.033002        -0.8980
  64   1.0000       0.003870         0.1053
  65   1.0000       0.027421         0.7462
  66   1.0000       0.033382         0.9084
  67   1.0000       0.045858         1.2479
  68   1.0000       0.047071         1.2809
  69   1.0000       0.059991         1.6324
  70   1.0000       0.067690         1.8419
  71   1.0000       0.075290         2.0488
  72   0.0000       0.233303         6.3485
  73   0.0000       0.246941         6.7196
  74   0.0000       0.252655         6.8751
  75   0.0000       0.260463         7.0875
  76   0.0000       0.264810         7.2058

MULLIKEN ATOMIC CHARGES AND SPIN POPULATIONS
--------------------------------------------
   0 V :    0.533810    1.191462
   1 S :   -0.428243   -0.000336
   2 S :   -0.327301   -0.031492
   3 S :   -0.408519   -0.029478
   4 S :   -0.414252   -0.023687
   5 O :   -0.548837   -0.133479
   6 C :   -0.240105    0.005951
   7 C :   -0.238689    0.005038
   8 C :   -0.132633    0.005058
   9 H :    0.085258   -0.000721
  10 H :    0.051638    0.001805
  11 H :    0.131698    0.000375
  12 H :   -0.003944   -0.000068
  13 H :    0.097055   -0.000087
  14 H :    0.020591   -0.001131
  15 C :   -0.255506   -0.002283
  16 C :   -0.252181    0.003131
  17 C :   -0.070124    0.008506
  18 H :    0.047444   -0.000077
  19 H :    0.130779   -0.000143
  20 H :    0.015635    0.001689
  21 H :    0.013297    0.000073
  22 H :    0.052320   -0.000583
  23 H :    0.140809    0.000475
Sum of atomic charges         :   -2.0000000

LOEWDIN ATOMIC CHARGES AND SPIN POPULATIONS
-------------------------------------------
   0 V :   -0.208645    1.147591
   1 S :   -0.072072    0.005033
   2 S :   -0.023643   -0.021011
   3 S :   -0.060188   -0.020782
   4 S :   -0.071290   -0.014359
   5 O :   -0.376633   -0.120271
   6 C :   -0.335477    0.005174
   7 C :   -0.320614    0.007308
   8 C :   -0.194497    0.000315
   9 H :    0.041750    0.000056
  10 H :    0.033437    0.000423
  11 H :    0.076101    0.000286
  12 H :    0.035280    0.000180
  13 H :    0.044094    0.000004
  14 H :    0.023482   -0.000946
  15 C :   -0.317342    0.002676
  16 C :   -0.325531    0.007155
  17 C :   -0.188697    0.001204
  18 H :    0.028258   -0.000207
  19 H :    0.053979   -0.000605
  20 H :    0.036255    0.000636
  21 H :    0.035154    0.000392
  22 H :    0.030386   -0.000604
  23 H :    0.056453    0.000349

  Mayer bond orders larger than 0.100000
B(  0-V ,  1-S ) :   0.7102 B(  0-V ,  2-S ) :   0.8475 B(  0-V ,  3-S ) :   0.7710
B(  0-V ,  4-S ) :   0.7779 B(  0-V ,  5-O ) :   2.0685 B(  1-S , 15-C ) :   1.0234
B(  2-S ,  6-C ) :   1.0045 B(  3-S , 16-C ) :   1.0245 B(  4-S ,  7-C ) :   1.0138
B(  6-C ,  8-C ) :   0.8654 B(  6-C , 13-H ) :   0.9721 B(  6-C , 14-H ) :   0.9585
B(  7-C ,  8-C ) :   0.9535 B(  7-C ,  9-H ) :   0.9809 B(  7-C , 10-H ) :   0.9745
B(  8-C , 11-H ) :   0.9785 B(  8-C , 12-H ) :   0.9566 B( 15-C , 17-C ) :   0.8951
B( 15-C , 22-H ) :   0.9683 B( 15-C , 23-H ) :   0.9799 B( 16-C , 17-C ) :   0.9035
B( 16-C , 18-H ) :   0.9637 B( 16-C , 19-H ) :   0.9759 B( 17-C , 20-H ) :   0.9582
B( 17-C , 21-H ) :   0.9599

FINAL SINGLE POINT ENERGY     -2847.687974967753

DIPOLE MOMENT
-------------
                                X             Y             Z
Electronic contribution:     -5.64390       0.52795       2.71359
Nuclear contribution   :      5.92104      -0.60214      -2.96200
                        -----------------------------------------
Total Dipole Moment    :      0.27713      -0.07419      -0.24842
                        -----------------------------------------
Magnitude (a.u.)       :      0.37950
Magnitude (Debye)      :      0.96460

Rotational constants in cm-1:     0.027187     0.011719     0.009602
Rotational constants in MHz :   815.031973   351.331469   287.853119

                             ****ORCA TERMINATED NORMALLY****
TOTAL RUN TIME: 0 days 0 hours 9 minutes 37 seconds 45 msec
