                         Program Version 5.0.4 -  RELEASE  -
|  1> ! nofrozencore ReducedPop printbasis
|  2> ! B3LYP TZVP
|  3>
|  4> %basis
|  5> newgto V "CP(PPP)" end
|  6> end
|  7>
|  8> %pal
|  9> nprocs 4
| 10> end
| 11>
| 12> % sym SymThresh 1e-2 end
| 13> * xyz -2 2
| 14> V 0.4511911676768205 0.17144971235951406 -0.09421082774430545
| 15> S -0.5689984292788269 0.2442227413318909 -2.4099477878359865
| 16> S -1.2438723049733857 1.8884565085213323 0.31993626048420265
| 17> S 0.5082116687592866 -2.3054598664590324 -0.24648270940088612
| 18> S 0.49947222411234987 -0.3631078491266715 2.335391830993006
| 19> O 1.8790019545420222 0.84398468838946 -0.3749575641541407
| 20> C -1.1117380390580904 2.436291854881068 2.0904992040018664
| 21> C 0.8673195034721969 1.1964765319958088 3.269391731405404
| 22> C 0.3383189719597914 2.477818637880534 2.6066191347762957
| 23> H 1.97162862427876 1.3603125230978825 3.1370090708752687
| 24> H 0.14721116556183286 1.1356779361557015 4.129545081471451
| 25> H 1.0808542483246384 3.0503879833375778 1.9332391077011883
| 26> H 0.6350356760939073 3.480284093603337 3.150350924125843
| 27> H -1.561598532620657 1.65325236379795 2.7261268391821947
| 28> H -1.438539946612697 3.4875001634628404 2.055132748647688
| 29> C -1.6359696045698402 -1.2662047406922692 -2.403410114452385
| 30> C 0.47912646068421755 -2.693740235569781 -2.0550819178681605
| 31> C -0.8891108392525169 -2.5653970764139564 -2.7307478054943877
| 32> H 0.853247032293084 -3.7173983294965462 -2.180453784785253
| 33> H 1.1805737957957385 -2.023731098870415 -2.552352367545513
| 34> H -1.5240560275354649 -3.4185696973002058 -2.4437951347010665
| 35> H -0.7409855601605307 -2.634323866056443 -3.8208063531575407
| 36> H -2.4460688555300236 -1.1187339464219803 -3.127259333725322
| 37> H -2.092761730241796 -1.35105737876743 -1.4169338508450022
| 38> *
| 39>
| 40> % eprnmr
| 41> gtensor true
| 42> Nuclei = all H {aiso,adip,aorb,fgrad,rho}
| 43> Nuclei = all V {aiso,adip,aorb,fgrad,rho}
| 44> end
| 45>
| 46>                          ****END OF INPUT****

CARTESIAN COORDINATES (ANGSTROEM)
---------------------------------
  V      0.451841    0.171531   -0.094586
  S     -0.568349    0.244304   -2.410323
  S     -1.243222    1.888538    0.319561
  S      0.508861   -2.305378   -0.246858
  S      0.500122   -0.363026    2.335016
  O      1.879652    0.844066   -0.375333
  C     -1.111088    2.436374    2.090124
  C      0.867969    1.196558    3.269016
  C      0.338969    2.477900    2.606244
  H      1.972278    1.360394    3.136633
  H      0.147861    1.135760    4.129169
  H      1.081504    3.050470    1.932863
  H      0.635685    3.480366    3.149975
  H     -1.560949    1.653334    2.725751
  H     -1.437890    3.487582    2.054757
  C     -1.635320   -1.266123   -2.403786
  C      0.479776   -2.693659   -2.055458
  C     -0.888461   -2.565315   -2.731123
  H      0.853897   -3.717317   -2.180829
  H      1.181224   -2.023649   -2.552728
  H     -1.523406   -3.418488   -2.444171
  H     -0.740336   -2.634242   -3.821182
  H     -2.445419   -1.118652   -3.127635
  H     -2.092112   -1.350976   -1.417309

 Total Charge           Charge          ....   -2
 Multiplicity           Mult            ....    2
 Number of Electrons    NEL             ....  145
 Basis Dimension        Dim             ....  353

ORBITAL ENERGIES
----------------
                 SPIN UP ORBITALS
  NO   OCC          E(Eh)            E(eV)
   0   1.0000    -196.606736     -5349.9413
   1   1.0000     -88.561647     -2409.8849
   2   1.0000     -88.560502     -2409.8538
   3   1.0000     -88.559704     -2409.8321
   4   1.0000     -88.557266     -2409.7657
   5   1.0000     -21.982082      -598.1629
   6   1.0000     -18.824389      -512.2377
   7   1.0000     -18.489861      -503.1347
   8   1.0000     -18.482707      -502.9400
   9   1.0000     -18.482609      -502.9374
  10   1.0000      -9.955293      -270.8973
  11   1.0000      -9.941950      -270.5342
  12   1.0000      -9.940012      -270.4815
  13   1.0000      -9.934410      -270.3290
  14   1.0000      -9.934123      -270.3212
  15   1.0000      -9.931999      -270.2634
  16   1.0000      -7.615833      -207.2374
  17   1.0000      -7.615036      -207.2157
  18   1.0000      -7.613736      -207.1803
  19   1.0000      -7.611606      -207.1223
  20   1.0000      -5.581023      -151.8673
  21   1.0000      -5.580445      -151.8516
  22   1.0000      -5.579139      -151.8161
  23   1.0000      -5.576851      -151.7538
  24   1.0000      -5.574832      -151.6989
  25   1.0000      -5.573991      -151.6760
  26   1.0000      -5.573068      -151.6509
  27   1.0000      -5.572466      -151.6345
  28   1.0000      -5.572036      -151.6228
  29   1.0000      -5.570947      -151.5932
  30   1.0000      -5.570833      -151.5901
  31   1.0000      -5.568651      -151.5307
  32   1.0000      -2.374720       -64.6194
  33   1.0000      -1.417350       -38.5681
  34   1.0000      -1.402882       -38.1744
  35   1.0000      -1.402328       -38.1593
  36   1.0000      -0.586709       -15.9652
  37   1.0000      -0.552324       -15.0295
  38   1.0000      -0.550955       -14.9922
  39   1.0000      -0.471000       -12.8166
  40   1.0000      -0.465951       -12.6792
  41   1.0000      -0.405167       -11.0251
  42   1.0000      -0.398567       -10.8456
  43   1.0000      -0.337438        -9.1821
  44   1.0000      -0.325768        -8.8646
  45   1.0000      -0.306776        -8.3478
  46   1.0000      -0.286043        -7.7836
  47   1.0000      -0.226320        -6.1585
  48   1.0000      -0.213796        -5.8177
  49   1.0000      -0.202931        -5.5220
  50   1.0000      -0.199243        -5.4217
  51   1.0000      -0.154579        -4.2063
  52   1.0000      -0.134742        -3.6665
  53   1.0000      -0.131754        -3.5852
  54   1.0000      -0.114178        -3.1070
  55   1.0000      -0.108030        -2.9396
  56   1.0000      -0.098783        -2.6880
  57   1.0000      -0.075669        -2.0590
  58   1.0000      -0.064368        -1.7515
  59   1.0000      -0.059604        -1.6219
  60   1.0000      -0.051247        -1.3945
  61   1.0000      -0.042723        -1.1626
  62   1.0000      -0.038183        -1.0390
  63   1.0000      -0.022541        -0.6134
  64   1.0000       0.000065         0.0018
  65   1.0000       0.027406         0.7458
  66   1.0000       0.030352         0.8259
  67   1.0000       0.037607         1.0233
  68   1.0000       0.045583         1.2404
  69   1.0000       0.053838         1.4650
  70   1.0000       0.064713         1.7609
  71   1.0000       0.071407         1.9431
  72   1.0000       0.080520         2.1911
  73   0.0000       0.234569         6.3829
  74   0.0000       0.242107         6.5881
  75   0.0000       0.247195         6.7265
  76   0.0000       0.250249         6.8096
  77   0.0000       0.258520         7.0347

                 SPIN DOWN ORBITALS
  NO   OCC          E(Eh)            E(eV)
   0   1.0000    -196.606878     -5349.9451
   1   1.0000     -88.561806     -2409.8893
   2   1.0000     -88.560606     -2409.8566
   3   1.0000     -88.559885     -2409.8370
   4   1.0000     -88.557241     -2409.7650
   5   1.0000     -21.967020      -597.7530
   6   1.0000     -18.827891      -512.3330
   7   1.0000     -18.484648      -502.9928
   8   1.0000     -18.466615      -502.5022
   9   1.0000     -18.466158      -502.4897
  10   1.0000      -9.955111      -270.8923
  11   1.0000      -9.941818      -270.5306
  12   1.0000      -9.940051      -270.4825
  13   1.0000      -9.934232      -270.3242
  14   1.0000      -9.934066      -270.3197
  15   1.0000      -9.931957      -270.2623
  16   1.0000      -7.615984      -207.2415
  17   1.0000      -7.615134      -207.2183
  18   1.0000      -7.613912      -207.1851
  19   1.0000      -7.611584      -207.1217
  20   1.0000      -5.581175      -151.8715
  21   1.0000      -5.580574      -151.8551
  22   1.0000      -5.579311      -151.8208
  23   1.0000      -5.576868      -151.7543
  24   1.0000      -5.575252      -151.7103
  25   1.0000      -5.574387      -151.6868
  26   1.0000      -5.573185      -151.6541
  27   1.0000      -5.572929      -151.6471
  28   1.0000      -5.571965      -151.6209
  29   1.0000      -5.571172      -151.5993
  30   1.0000      -5.571084      -151.5969
  31   1.0000      -5.568188      -151.5181
  32   1.0000      -2.329756       -63.3959
  33   1.0000      -1.398313       -38.0500
  34   1.0000      -1.341194       -36.4957
  35   1.0000      -1.339379       -36.4464
  36   1.0000      -0.594224       -16.1697
  37   1.0000      -0.552224       -15.0268
  38   1.0000      -0.550797       -14.9880
  39   1.0000      -0.470944       -12.8150
  40   1.0000      -0.465823       -12.6757
  41   1.0000      -0.405251       -11.0274
  42   1.0000      -0.398668       -10.8483
  43   1.0000      -0.337576        -9.1859
  44   1.0000      -0.326198        -8.8763
  45   1.0000      -0.306751        -8.3471
  46   1.0000      -0.286051        -7.7839
  47   1.0000      -0.226290        -6.1577
  48   1.0000      -0.213735        -5.8160
  49   1.0000      -0.202820        -5.5190
  50   1.0000      -0.199166        -5.4196
  51   1.0000      -0.154398        -4.2014
  52   1.0000      -0.134494        -3.6598
  53   1.0000      -0.131495        -3.5782
  54   1.0000      -0.113813        -3.0970
  55   1.0000      -0.107966        -2.9379
  56   1.0000      -0.097963        -2.6657
  57   1.0000      -0.074654        -2.0314
  58   1.0000      -0.062926        -1.7123
  59   1.0000      -0.059785        -1.6268
  60   1.0000      -0.050811        -1.3826
  61   1.0000      -0.044095        -1.1999
  62   1.0000      -0.040040        -1.0895
  63   1.0000      -0.021819        -0.5937
  64   1.0000       0.004779         0.1300
  65   1.0000       0.028436         0.7738
  66   1.0000       0.033706         0.9172
  67   1.0000       0.044363         1.2072
  68   1.0000       0.047435         1.2908
  69   1.0000       0.061955         1.6859
  70   1.0000       0.068750         1.8708
  71   1.0000       0.072135         1.9629
  72   0.0000       0.233837         6.3630
  73   0.0000       0.244150         6.6437
  74   0.0000       0.251142         6.8339
  75   0.0000       0.260874         7.0988
  76   0.0000       0.265259         7.2181

MULLIKEN ATOMIC CHARGES AND SPIN POPULATIONS
--------------------------------------------
   0 V :    0.536702    1.193635
   1 S :   -0.427758   -0.001842
   2 S :   -0.345411   -0.033721
   3 S :   -0.411091   -0.029277
   4 S :   -0.372486   -0.021744
   5 O :   -0.547468   -0.135233
   6 C :   -0.231150    0.005675
   7 C :   -0.232602    0.006757
   8 C :   -0.121374    0.002817
   9 H :    0.087051   -0.001759
  10 H :    0.071230    0.002516
  11 H :    0.060512    0.000730
  12 H :   -0.032155    0.000364
  13 H :    0.092881   -0.000039
  14 H :    0.051143   -0.000016
  15 C :   -0.255590   -0.002193
  16 C :   -0.251347    0.003701
  17 C :   -0.070299    0.008354
  18 H :    0.047310   -0.000066
  19 H :    0.130802   -0.000264
  20 H :    0.015420    0.001628
  21 H :    0.012848    0.000085
  22 H :    0.052606   -0.000572
  23 H :    0.140228    0.000465
Sum of atomic charges         :   -2.0000000

LOEWDIN ATOMIC CHARGES AND SPIN POPULATIONS
-------------------------------------------
   0 V :   -0.209186    1.149837
   1 S :   -0.071876    0.003666
   2 S :   -0.039221   -0.023303
   3 S :   -0.061647   -0.020296
   4 S :   -0.066418   -0.012367
   5 O :   -0.375421   -0.121932
   6 C :   -0.331036    0.005404
   7 C :   -0.328690    0.007272
   8 C :   -0.227722   -0.000295
   9 H :    0.066688    0.000034
  10 H :    0.053121    0.000598
  11 H :    0.059614    0.000228
  12 H :    0.026798    0.000487
  13 H :    0.055652   -0.000054
  14 H :    0.040568   -0.000519
  15 C :   -0.317641    0.002701
  16 C :   -0.324877    0.007449
  17 C :   -0.188664    0.001144
  18 H :    0.028231   -0.000190
  19 H :    0.053948   -0.000611
  20 H :    0.036029    0.000616
  21 H :    0.035053    0.000394
  22 H :    0.030456   -0.000600
  23 H :    0.056242    0.000336

  Mayer bond orders larger than 0.100000
B(  0-V ,  1-S ) :   0.7085 B(  0-V ,  2-S ) :   0.8582 B(  0-V ,  3-S ) :   0.7690
B(  0-V ,  4-S ) :   0.7626 B(  0-V ,  5-O ) :   2.0771 B(  1-S , 15-C ) :   1.0251
B(  2-S ,  6-C ) :   1.0377 B(  3-S , 16-C ) :   1.0236 B(  4-S ,  7-C ) :   1.1054
B(  6-C ,  8-C ) :   0.9364 B(  6-C , 13-H ) :   0.9757 B(  6-C , 14-H ) :   0.9619
B(  7-C ,  8-C ) :   0.9648 B(  7-C ,  9-H ) :   0.9611 B(  7-C , 10-H ) :   0.9720
B(  8-C , 11-H ) :   0.9266 B(  8-C , 12-H ) :   0.9109 B( 15-C , 17-C ) :   0.8961
B( 15-C , 22-H ) :   0.9685 B( 15-C , 23-H ) :   0.9795 B( 16-C , 17-C ) :   0.9036
B( 16-C , 18-H ) :   0.9631 B( 16-C , 19-H ) :   0.9760 B( 17-C , 20-H ) :   0.9581
B( 17-C , 21-H ) :   0.9595

FINAL SINGLE POINT ENERGY     -2847.652673580088

DIPOLE MOMENT
-------------
                                X             Y             Z
Electronic contribution:      5.41391       0.88577      -1.73402
Nuclear contribution   :     -5.72291      -0.85462       1.91914
                        -----------------------------------------
Total Dipole Moment    :     -0.30901       0.03115       0.18512
                        -----------------------------------------
Magnitude (a.u.)       :      0.36156
Magnitude (Debye)      :      0.91901

Rotational constants in cm-1:     0.027161     0.011720     0.009603
Rotational constants in MHz :   814.256860   351.368616   287.886564

                             ****ORCA TERMINATED NORMALLY****
TOTAL RUN TIME: 0 days 0 hours 14 minutes 27 seconds 308 msec
