                         Program Version 5.0.4 -  RELEASE  -
|  1> ! nofrozencore ReducedPop printbasis
|  2> ! B3LYP TZVP
|  3>
|  4> %basis
|  5> newgto V "CP(PPP)" end
|  6> end
|  7>
|  8> %pal
|  9> nprocs 4
| 10> end
| 11>
| 12> % sym SymThresh 1e-2 end
| 13> * xyz -2 2
| 14> V -0.31731551732848456 -0.3774042407457814 0.017152315664554416
| 15> S -0.5322942525854191 0.30754214835628246 -2.410984247383614
| 16> S 1.9497506062027659 -0.9571119435772923 -0.716875125214737
| 17> S -1.526439528196608 1.6935442437001076 0.6603113757449183
| 18> S 0.500823911157318 -0.16383612774608491 2.3601044364682795
| 19> O -1.250433435534888 -1.6735580978941116 0.04540594517747316
| 20> C 2.8867775425042286 -1.694489595669132 0.8025147595255233
| 21> C 1.3539816471707293 -1.791443830121519 2.7978847563247453
| 22> C 1.9626592304517774 -2.514042494888486 1.6434032565972096
| 23> H 0.5010493891136006 -2.2994308577944342 3.2815783831853897
| 24> H 1.9667902448448575 -1.2827480678129248 3.597096913567706
| 25> H 1.2026016920400826 -3.106862797967938 1.1160049072536216
| 26> H 2.736377225909762 -3.2202642916046855 2.0418624224014628
| 27> H 3.242123451701167 -0.6224055698271135 1.0610482293903967
| 28> H 3.6320207784724845 -2.081915141670046 -0.02911682982606967
| 29> C -0.37145936697000337 2.149222797932912 -2.3043267738991946
| 30> C -2.487996277270242 2.1951309387793643 -0.8370739869498074
| 31> C -1.6742935500806349 2.8701035591419553 -1.9445371066585648
| 32> H -3.2873597396378327 2.8679447215124503 -0.5029974265551994
| 33> H -2.952407168428741 1.308569448107825 -1.2709380240174435
| 34> H -1.4314808325129482 3.898502007236527 -1.6325554494380294
| 35> H -2.3027471238838095 2.946751802201475 -2.8467914075687384
| 36> H 0.002339526501173677 2.5036545509164787 -3.271913031987702
| 37> H 0.39181836440946044 2.3644080565735726 -1.5562626538185884
| 38> *
| 39>
| 40> % eprnmr
| 41> gtensor true
| 42> Nuclei = all H {aiso,adip,aorb,fgrad,rho}
| 43> Nuclei = all V {aiso,adip,aorb,fgrad,rho}
| 44> end
| 45>
| 46>                          ****END OF INPUT****

CARTESIAN COORDINATES (ANGSTROEM)
---------------------------------
  V     -0.317952   -0.377786    0.017014
  S     -0.532931    0.307161   -2.411122
  S      1.949114   -0.957493   -0.717013
  S     -1.527076    1.693163    0.660173
  S      0.500187   -0.164218    2.359966
  O     -1.251070   -1.673940    0.045268
  C      2.886141   -1.694871    0.802377
  C      1.353345   -1.791825    2.797747
  C      1.962023   -2.514424    1.643265
  H      0.500413   -2.299812    3.281440
  H      1.966154   -1.283130    3.596959
  H      1.201965   -3.107244    1.115867
  H      2.735741   -3.220646    2.041724
  H      3.241487   -0.622787    1.060910
  H      3.631384   -2.082297   -0.029255
  C     -0.372096    2.148841   -2.304465
  C     -2.488633    2.194749   -0.837212
  C     -1.674930    2.869722   -1.944675
  H     -3.287996    2.867563   -0.503136
  H     -2.953044    1.308188   -1.271076
  H     -1.432117    3.898121   -1.632694
  H     -2.303384    2.946370   -2.846930
  H      0.001703    2.503273   -3.272051
  H      0.391182    2.364027   -1.556401

 Total Charge           Charge          ....   -2
 Multiplicity           Mult            ....    2
 Number of Electrons    NEL             ....  145
 Basis Dimension        Dim             ....  353

ORBITAL ENERGIES
----------------
                 SPIN UP ORBITALS
  NO   OCC          E(Eh)            E(eV)
   0   1.0000    -196.603603     -5349.8560
   1   1.0000     -88.559758     -2409.8335
   2   1.0000     -88.556986     -2409.7581
   3   1.0000     -88.556697     -2409.7502
   4   1.0000     -88.555175     -2409.7088
   5   1.0000     -21.978985      -598.0786
   6   1.0000     -18.822881      -512.1966
   7   1.0000     -18.486805      -503.0515
   8   1.0000     -18.479585      -502.8551
   9   1.0000     -18.479479      -502.8522
  10   1.0000      -9.950468      -270.7660
  11   1.0000      -9.950427      -270.7649
  12   1.0000      -9.945596      -270.6334
  13   1.0000      -9.932453      -270.2758
  14   1.0000      -9.932299      -270.2716
  15   1.0000      -9.930204      -270.2146
  16   1.0000      -7.613925      -207.1854
  17   1.0000      -7.611140      -207.1097
  18   1.0000      -7.610899      -207.1031
  19   1.0000      -7.609466      -207.0641
  20   1.0000      -5.579159      -151.8166
  21   1.0000      -5.576527      -151.7450
  22   1.0000      -5.576262      -151.7378
  23   1.0000      -5.574711      -151.6956
  24   1.0000      -5.572894      -151.6462
  25   1.0000      -5.571153      -151.5988
  26   1.0000      -5.570194      -151.5727
  27   1.0000      -5.569791      -151.5617
  28   1.0000      -5.568644      -151.5305
  29   1.0000      -5.568049      -151.5143
  30   1.0000      -5.567981      -151.5125
  31   1.0000      -5.566571      -151.4741
  32   1.0000      -2.371890       -64.5424
  33   1.0000      -1.415165       -38.5086
  34   1.0000      -1.399739       -38.0888
  35   1.0000      -1.399502       -38.0824
  36   1.0000      -0.586184       -15.9509
  37   1.0000      -0.562226       -15.2989
  38   1.0000      -0.549522       -14.9532
  39   1.0000      -0.470771       -12.8103
  40   1.0000      -0.464139       -12.6299
  41   1.0000      -0.408280       -11.1099
  42   1.0000      -0.398710       -10.8494
  43   1.0000      -0.334841        -9.1115
  44   1.0000      -0.316938        -8.6243
  45   1.0000      -0.296072        -8.0565
  46   1.0000      -0.282596        -7.6898
  47   1.0000      -0.217391        -5.9155
  48   1.0000      -0.212790        -5.7903
  49   1.0000      -0.206218        -5.6115
  50   1.0000      -0.201700        -5.4885
  51   1.0000      -0.170644        -4.6434
  52   1.0000      -0.135934        -3.6989
  53   1.0000      -0.131136        -3.5684
  54   1.0000      -0.127929        -3.4811
  55   1.0000      -0.123338        -3.3562
  56   1.0000      -0.108031        -2.9397
  57   1.0000      -0.071448        -1.9442
  58   1.0000      -0.063444        -1.7264
  59   1.0000      -0.057942        -1.5767
  60   1.0000      -0.046094        -1.2543
  61   1.0000      -0.042947        -1.1687
  62   1.0000      -0.034726        -0.9449
  63   1.0000      -0.018777        -0.5110
  64   1.0000       0.001804         0.0491
  65   1.0000       0.031206         0.8492
  66   1.0000       0.032276         0.8783
  67   1.0000       0.040596         1.1047
  68   1.0000       0.047467         1.2916
  69   1.0000       0.057550         1.5660
  70   1.0000       0.067830         1.8458
  71   1.0000       0.076285         2.0758
  72   1.0000       0.083525         2.2728
  73   0.0000       0.237707         6.4683
  74   0.0000       0.249156         6.7799
  75   0.0000       0.251863         6.8535
  76   0.0000       0.254312         6.9202
  77   0.0000       0.259953         7.0737

                 SPIN DOWN ORBITALS
  NO   OCC          E(Eh)            E(eV)
   0   1.0000    -196.603744     -5349.8599
   1   1.0000     -88.559916     -2409.8378
   2   1.0000     -88.557181     -2409.7634
   3   1.0000     -88.556810     -2409.7533
   4   1.0000     -88.555149     -2409.7081
   5   1.0000     -21.963993      -597.6706
   6   1.0000     -18.826256      -512.2885
   7   1.0000     -18.481655      -502.9114
   8   1.0000     -18.463626      -502.4208
   9   1.0000     -18.463007      -502.4040
  10   1.0000      -9.950312      -270.7617
  11   1.0000      -9.950234      -270.7596
  12   1.0000      -9.945616      -270.6340
  13   1.0000      -9.932281      -270.2711
  14   1.0000      -9.932244      -270.2701
  15   1.0000      -9.930163      -270.2135
  16   1.0000      -7.614075      -207.1895
  17   1.0000      -7.611248      -207.1126
  18   1.0000      -7.611088      -207.1082
  19   1.0000      -7.609443      -207.0635
  20   1.0000      -5.579310      -151.8207
  21   1.0000      -5.576666      -151.7488
  22   1.0000      -5.576471      -151.7435
  23   1.0000      -5.574728      -151.6960
  24   1.0000      -5.573309      -151.6574
  25   1.0000      -5.571271      -151.6020
  26   1.0000      -5.570610      -151.5840
  27   1.0000      -5.570267      -151.5747
  28   1.0000      -5.568979      -151.5396
  29   1.0000      -5.568131      -151.5166
  30   1.0000      -5.567985      -151.5126
  31   1.0000      -5.566107      -151.4615
  32   1.0000      -2.327147       -63.3249
  33   1.0000      -1.396379       -37.9974
  34   1.0000      -1.338447       -36.4210
  35   1.0000      -1.336608       -36.3710
  36   1.0000      -0.593310       -16.1448
  37   1.0000      -0.562082       -15.2950
  38   1.0000      -0.549370       -14.9491
  39   1.0000      -0.470664       -12.8074
  40   1.0000      -0.464015       -12.6265
  41   1.0000      -0.408448       -11.1144
  42   1.0000      -0.398728       -10.8499
  43   1.0000      -0.334963        -9.1148
  44   1.0000      -0.317357        -8.6357
  45   1.0000      -0.296062        -8.0562
  46   1.0000      -0.282639        -7.6910
  47   1.0000      -0.217338        -5.9141
  48   1.0000      -0.212738        -5.7889
  49   1.0000      -0.206076        -5.6076
  50   1.0000      -0.201615        -5.4862
  51   1.0000      -0.170494        -4.6394
  52   1.0000      -0.135769        -3.6945
  53   1.0000      -0.130966        -3.5638
  54   1.0000      -0.127739        -3.4760
  55   1.0000      -0.123321        -3.3557
  56   1.0000      -0.107972        -2.9381
  57   1.0000      -0.069798        -1.8993
  58   1.0000      -0.061886        -1.6840
  59   1.0000      -0.058109        -1.5812
  60   1.0000      -0.047098        -1.2816
  61   1.0000      -0.043134        -1.1737
  62   1.0000      -0.035415        -0.9637
  63   1.0000      -0.017094        -0.4651
  64   1.0000       0.006272         0.1707
  65   1.0000       0.032175         0.8755
  66   1.0000       0.035231         0.9587
  67   1.0000       0.047665         1.2970
  68   1.0000       0.048698         1.3251
  69   1.0000       0.066140         1.7998
  70   1.0000       0.071604         1.9485
  71   1.0000       0.076911         2.0929
  72   0.0000       0.235408         6.4058
  73   0.0000       0.251913         6.8549
  74   0.0000       0.258183         7.0255
  75   0.0000       0.262809         7.1514
  76   0.0000       0.266772         7.2592

MULLIKEN ATOMIC CHARGES AND SPIN POPULATIONS
--------------------------------------------
   0 V :    0.566643    1.188088
   1 S :   -0.428398   -0.001585
   2 S :   -0.438839   -0.036998
   3 S :   -0.409825   -0.028687
   4 S :   -0.438970   -0.023244
   5 O :   -0.556870   -0.130080
   6 C :   -0.287656    0.007217
   7 C :   -0.257542    0.006383
   8 C :   -0.058293    0.006107
   9 H :    0.090342   -0.001000
  10 H :    0.064658    0.002252
  11 H :    0.151227    0.000533
  12 H :    0.004268    0.000142
  13 H :    0.125178   -0.000574
  14 H :    0.056544    0.000785
  15 C :   -0.257251   -0.002273
  16 C :   -0.251332    0.003314
  17 C :   -0.067563    0.008388
  18 H :    0.046910   -0.000013
  19 H :    0.128239   -0.000189
  20 H :    0.012934    0.001548
  21 H :    0.012249    0.000036
  22 H :    0.052505   -0.000542
  23 H :    0.140841    0.000393
Sum of atomic charges         :   -2.0000000

LOEWDIN ATOMIC CHARGES AND SPIN POPULATIONS
-------------------------------------------
   0 V :   -0.214891    1.144339
   1 S :   -0.073147    0.003870
   2 S :   -0.082861   -0.025775
   3 S :   -0.061374   -0.020091
   4 S :   -0.090344   -0.013941
   5 O :   -0.379311   -0.117012
   6 C :   -0.349785    0.007656
   7 C :   -0.310839    0.008057
   8 C :   -0.183914    0.001099
   9 H :    0.046516    0.000111
  10 H :    0.045501    0.000636
  11 H :    0.080729    0.000413
  12 H :    0.042022    0.000284
  13 H :    0.075584   -0.000365
  14 H :    0.050496   -0.000125
  15 C :   -0.317133    0.002641
  16 C :   -0.326341    0.007165
  17 C :   -0.189160    0.001120
  18 H :    0.027926   -0.000191
  19 H :    0.053262   -0.000606
  20 H :    0.035349    0.000607
  21 H :    0.034886    0.000374
  22 H :    0.030373   -0.000573
  23 H :    0.056456    0.000307

  Mayer bond orders larger than 0.100000
B(  0-V ,  1-S ) :   0.7048 B(  0-V ,  2-S ) :   0.8442 B(  0-V ,  3-S ) :   0.7643
B(  0-V ,  4-S ) :   0.7642 B(  0-V ,  5-O ) :   2.0615 B(  1-S , 15-C ) :   1.0247
B(  2-S ,  6-C ) :   0.8676 B(  3-S , 16-C ) :   1.0273 B(  4-S ,  7-C ) :   1.0174
B(  4-S ,  8-C ) :  -0.1396 B(  6-C ,  8-C ) :   0.9144 B(  6-C , 13-H ) :   0.9720
B(  6-C , 14-H ) :   0.9731 B(  7-C ,  8-C ) :   0.9443 B(  7-C ,  9-H ) :   0.9787
B(  7-C , 10-H ) :   0.9773 B(  8-C , 11-H ) :   0.9664 B(  8-C , 12-H ) :   0.9434
B( 15-C , 17-C ) :   0.8977 B( 15-C , 22-H ) :   0.9693 B( 15-C , 23-H ) :   0.9797
B( 16-C , 17-C ) :   0.9025 B( 16-C , 18-H ) :   0.9643 B( 16-C , 19-H ) :   0.9749
B( 17-C , 20-H ) :   0.9571 B( 17-C , 21-H ) :   0.9595

FINAL SINGLE POINT ENERGY     -2847.659635335139

DIPOLE MOMENT
-------------
                                X             Y             Z
Electronic contribution:     -4.48929      -4.72742       0.28924
Nuclear contribution   :      4.90544       4.76588      -0.08861
                        -----------------------------------------
Total Dipole Moment    :      0.41615       0.03846       0.20064
                        -----------------------------------------
Magnitude (a.u.)       :      0.46359
Magnitude (Debye)      :      1.17834

Rotational constants in cm-1:     0.027145     0.011734     0.009605
Rotational constants in MHz :   813.781767   351.761995   287.952426

                             ****ORCA TERMINATED NORMALLY****
TOTAL RUN TIME: 0 days 0 hours 14 minutes 31 seconds 68 msec
