                         Program Version 5.0.4 -  RELEASE  -
|  1> ! nofrozencore ReducedPop printbasis
|  2> ! B3LYP TZVP
|  3>
|  4> %basis
|  5> newgto V "CP(PPP)" end
|  6> end
|  7>
|  8> %pal
|  9> nprocs 8
| 10> end
| 11>
| 12> % sym SymThresh 1e-2 end
| 13> * xyz -2 2
| 14> V 0.4723529460311044 0.11362666192818183 0.07751892701653706
| 15> S -0.0731061796395965 1.6696822882325648 -1.8434085295601108
| 16> S -1.1405774838265506 1.548376001772471 1.231028976313714
| 17> S 0.37594663183254334 -1.7980152169971673 -1.5033946244540703
| 18> S 0.010327176101333423 -1.7109615203158095 1.7046288117251174
| 19> O 1.9724556872005816 0.5664700161014449 0.41279410351179857
| 20> C -1.2867964149227442 0.9592986964663048 2.9837485199473535
| 21> C 0.3057497952038272 -1.0243176212142773 3.4002286609646917
| 22> C 0.05856850891282404 0.49065102630014396 3.579280318870589
| 23> H 1.2790301627008085 -1.22570647364076 3.6857234175370075
| 24> H -0.3882102273952393 -1.6283620829865695 4.114081341498656
| 25> H 0.4734728453833471 0.7875164430087088 3.36439487141217
| 26> H 0.03275482011503448 0.6801673162432199 4.724552238390081
| 27> H -2.088382315472889 0.0848601693976589 3.0297247075473535
| 28> H -1.6716590248417604 1.7811204133441547 3.5477824573910732
| 29> C -1.2289985471932836 0.637871026076262 -2.852813022797361
| 30> C 0.6690057583367253 -1.0727296993745994 -3.180038604447906
| 31> C -0.5302624093048032 -0.3475002462936964 -3.798671785729597
| 32> H 0.9800163166454465 -1.8886078951251613 -3.8433593311113396
| 33> H 1.4980776757758234 -0.36927955046008176 -3.09874006436876
| 34> H -1.2695617515439157 -1.0872521934104848 -4.14373382036067
| 35> H -0.1781033081696158 0.19495855862407752 -4.690928014101715
| 36> H -1.8707653335467076 1.3087814613497837 -3.4354272140557716
| 37> H -1.8728892622535205 0.08564287952274556 -2.1671659489530364
| 38> *
| 39>
| 40> % eprnmr
| 41> gtensor true
| 42> Nuclei = all H {aiso,adip,aorb,fgrad,rho}
| 43> Nuclei = all V {aiso,adip,aorb,fgrad,rho}
| 44> end
| 45>
| 46>                          ****END OF INPUT****

CARTESIAN COORDINATES (ANGSTROEM)
---------------------------------
  V      0.473067    0.113794    0.077341
  S     -0.072392    1.669850   -1.843586
  S     -1.139863    1.548543    1.230851
  S      0.376661   -1.797848   -1.503572
  S      0.011042   -1.710794    1.704451
  O      1.973170    0.566637    0.412616
  C     -1.286082    0.959466    2.983571
  C      0.306464   -1.024150    3.400051
  C      0.059283    0.490818    3.579103
  H      1.279745   -1.225539    3.685546
  H     -0.387496   -1.628195    4.113904
  H      0.474187    0.787684    3.364217
  H      0.033469    0.680335    4.724375
  H     -2.087668    0.085028    3.029547
  H     -1.670945    1.781288    3.547605
  C     -1.228284    0.638038   -2.852991
  C      0.669720   -1.072562   -3.180216
  C     -0.529548   -0.347333   -3.798850
  H      0.980731   -1.888440   -3.843537
  H      1.498792   -0.369112   -3.098918
  H     -1.268847   -1.087085   -4.143912
  H     -0.177389    0.195126   -4.691106
  H     -1.870051    1.308949   -3.435605
  H     -1.872175    0.085810   -2.167344

 Total Charge           Charge          ....   -2
 Multiplicity           Mult            ....    2
 Number of Electrons    NEL             ....  145
 Basis Dimension        Dim             ....  353

ORBITAL ENERGIES
----------------
                 SPIN UP ORBITALS
  NO   OCC          E(Eh)            E(eV)
   0   1.0000    -196.607025     -5349.9491
   1   1.0000     -88.561526     -2409.8816
   2   1.0000     -88.561379     -2409.8776
   3   1.0000     -88.558946     -2409.8114
   4   1.0000     -88.557199     -2409.7639
   5   1.0000     -21.982399      -598.1715
   6   1.0000     -18.824933      -512.2525
   7   1.0000     -18.490180      -503.1434
   8   1.0000     -18.483013      -502.9483
   9   1.0000     -18.482924      -502.9459
  10   1.0000      -9.943813      -270.5849
  11   1.0000      -9.941414      -270.5196
  12   1.0000      -9.934128      -270.3214
  13   1.0000      -9.934019      -270.3184
  14   1.0000      -9.931738      -270.2563
  15   1.0000      -9.928437      -270.1665
  16   1.0000      -7.615553      -207.2297
  17   1.0000      -7.615320      -207.2234
  18   1.0000      -7.613251      -207.1671
  19   1.0000      -7.611537      -207.1204
  20   1.0000      -5.580758      -151.8602
  21   1.0000      -5.580702      -151.8586
  22   1.0000      -5.578688      -151.8038
  23   1.0000      -5.576763      -151.7514
  24   1.0000      -5.574538      -151.6909
  25   1.0000      -5.574153      -151.6804
  26   1.0000      -5.572794      -151.6434
  27   1.0000      -5.572540      -151.6365
  28   1.0000      -5.572306      -151.6302
  29   1.0000      -5.570761      -151.5881
  30   1.0000      -5.570155      -151.5716
  31   1.0000      -5.568595      -151.5292
  32   1.0000      -2.375044       -64.6282
  33   1.0000      -1.417741       -38.5787
  34   1.0000      -1.403126       -38.1810
  35   1.0000      -1.402674       -38.1687
  36   1.0000      -0.587561       -15.9884
  37   1.0000      -0.580837       -15.8054
  38   1.0000      -0.550765       -14.9871
  39   1.0000      -0.468625       -12.7519
  40   1.0000      -0.465689       -12.6720
  41   1.0000      -0.434504       -11.8234
  42   1.0000      -0.401616       -10.9285
  43   1.0000      -0.337567        -9.1857
  44   1.0000      -0.335864        -9.1393
  45   1.0000      -0.326640        -8.8883
  46   1.0000      -0.286349        -7.7919
  47   1.0000      -0.223210        -6.0739
  48   1.0000      -0.213962        -5.8222
  49   1.0000      -0.202797        -5.5184
  50   1.0000      -0.196736        -5.3534
  51   1.0000      -0.156430        -4.2567
  52   1.0000      -0.133659        -3.6370
  53   1.0000      -0.132009        -3.5921
  54   1.0000      -0.130725        -3.5572
  55   1.0000      -0.111470        -3.0333
  56   1.0000      -0.107836        -2.9344
  57   1.0000      -0.081372        -2.2142
  58   1.0000      -0.071120        -1.9353
  59   1.0000      -0.063947        -1.7401
  60   1.0000      -0.055940        -1.5222
  61   1.0000      -0.046812        -1.2738
  62   1.0000      -0.040623        -1.1054
  63   1.0000      -0.036383        -0.9900
  64   1.0000      -0.000399        -0.0109
  65   1.0000       0.027270         0.7421
  66   1.0000       0.030358         0.8261
  67   1.0000       0.037112         1.0099
  68   1.0000       0.045558         1.2397
  69   1.0000       0.054075         1.4715
  70   1.0000       0.064393         1.7522
  71   1.0000       0.072286         1.9670
  72   1.0000       0.081178         2.2090
  73   0.0000       0.234666         6.3856
  74   0.0000       0.246432         6.7058
  75   0.0000       0.248985         6.7752
  76   0.0000       0.249994         6.8027
  77   0.0000       0.258755         7.0411

                 SPIN DOWN ORBITALS
  NO   OCC          E(Eh)            E(eV)
   0   1.0000    -196.607167     -5349.9530
   1   1.0000     -88.561701     -2409.8864
   2   1.0000     -88.561539     -2409.8820
   3   1.0000     -88.559050     -2409.8143
   4   1.0000     -88.557176     -2409.7633
   5   1.0000     -21.967349      -597.7620
   6   1.0000     -18.828411      -512.3471
   7   1.0000     -18.484978      -503.0018
   8   1.0000     -18.466958      -502.5115
   9   1.0000     -18.466456      -502.4978
  10   1.0000      -9.943629      -270.5799
  11   1.0000      -9.941281      -270.5160
  12   1.0000      -9.933963      -270.3169
  13   1.0000      -9.933953      -270.3166
  14   1.0000      -9.931697      -270.2552
  15   1.0000      -9.928460      -270.1671
  16   1.0000      -7.615705      -207.2339
  17   1.0000      -7.615490      -207.2280
  18   1.0000      -7.613350      -207.1698
  19   1.0000      -7.611516      -207.1199
  20   1.0000      -5.580911      -151.8643
  21   1.0000      -5.580864      -151.8630
  22   1.0000      -5.578809      -151.8071
  23   1.0000      -5.576782      -151.7519
  24   1.0000      -5.574960      -151.7024
  25   1.0000      -5.574605      -151.6927
  26   1.0000      -5.572913      -151.6467
  27   1.0000      -5.572714      -151.6413
  28   1.0000      -5.572671      -151.6401
  29   1.0000      -5.571100      -151.5973
  30   1.0000      -5.570081      -151.5696
  31   1.0000      -5.568137      -151.5167
  32   1.0000      -2.330125       -63.4059
  33   1.0000      -1.398748       -38.0619
  34   1.0000      -1.341549       -36.5054
  35   1.0000      -1.339719       -36.4556
  36   1.0000      -0.594885       -16.1876
  37   1.0000      -0.580912       -15.8074
  38   1.0000      -0.550611       -14.9829
  39   1.0000      -0.468552       -12.7500
  40   1.0000      -0.465568       -12.6688
  41   1.0000      -0.434575       -11.8254
  42   1.0000      -0.401609       -10.9283
  43   1.0000      -0.337702        -9.1893
  44   1.0000      -0.336037        -9.1440
  45   1.0000      -0.327016        -8.8985
  46   1.0000      -0.286336        -7.7916
  47   1.0000      -0.223177        -6.0729
  48   1.0000      -0.213903        -5.8206
  49   1.0000      -0.202673        -5.5150
  50   1.0000      -0.196564        -5.3488
  51   1.0000      -0.156311        -4.2534
  52   1.0000      -0.133505        -3.6329
  53   1.0000      -0.131799        -3.5864
  54   1.0000      -0.130595        -3.5537
  55   1.0000      -0.111415        -3.0318
  56   1.0000      -0.107772        -2.9326
  57   1.0000      -0.080327        -2.1858
  58   1.0000      -0.068669        -1.8686
  59   1.0000      -0.062934        -1.7125
  60   1.0000      -0.055951        -1.5225
  61   1.0000      -0.047872        -1.3027
  62   1.0000      -0.041546        -1.1305
  63   1.0000      -0.037489        -1.0201
  64   1.0000       0.004282         0.1165
  65   1.0000       0.028457         0.7744
  66   1.0000       0.033139         0.9017
  67   1.0000       0.045848         1.2476
  68   1.0000       0.046470         1.2645
  69   1.0000       0.061926         1.6851
  70   1.0000       0.068371         1.8605
  71   1.0000       0.073811         2.0085
  72   0.0000       0.233115         6.3434
  73   0.0000       0.250840         6.8257
  74   0.0000       0.252951         6.8831
  75   0.0000       0.261107         7.1051
  76   0.0000       0.264999         7.2110

MULLIKEN ATOMIC CHARGES AND SPIN POPULATIONS
--------------------------------------------
   0 V :    0.528987    1.191814
   1 S :   -0.427904   -0.001823
   2 S :   -0.355913   -0.032785
   3 S :   -0.410478   -0.029305
   4 S :   -0.385030   -0.021560
   5 O :   -0.547614   -0.134096
   6 C :   -0.252138    0.005557
   7 C :   -0.243821    0.005975
   8 C :   -0.195172    0.003430
   9 H :    0.091317   -0.000943
  10 H :    0.029717    0.002882
  11 H :    0.249193   -0.000027
  12 H :   -0.036047    0.000007
  13 H :    0.070608   -0.000193
  14 H :    0.062887    0.000171
  15 C :   -0.256616   -0.002198
  16 C :   -0.251920    0.003510
  17 C :   -0.069290    0.008308
  18 H :    0.047418   -0.000057
  19 H :    0.131089   -0.000238
  20 H :    0.015267    0.001612
  21 H :    0.012682    0.000077
  22 H :    0.052528   -0.000574
  23 H :    0.140251    0.000456
Sum of atomic charges         :   -2.0000000

LOEWDIN ATOMIC CHARGES AND SPIN POPULATIONS
-------------------------------------------
   0 V :   -0.202740    1.148238
   1 S :   -0.072467    0.003553
   2 S :   -0.034095   -0.022397
   3 S :   -0.060794   -0.020470
   4 S :   -0.060649   -0.012634
   5 O :   -0.376852   -0.120889
   6 C :   -0.303286    0.005265
   7 C :   -0.282586    0.007022
   8 C :    0.007743    0.000478
   9 H :    0.026676    0.000104
  10 H :    0.034430    0.000999
  11 H :   -0.213382    0.000114
  12 H :    0.053382    0.000121
  13 H :    0.052876   -0.000114
  14 H :    0.023143   -0.000446
  15 C :   -0.317777    0.002677
  16 C :   -0.325022    0.007315
  17 C :   -0.188777    0.001135
  18 H :    0.028244   -0.000202
  19 H :    0.054113   -0.000611
  20 H :    0.036093    0.000613
  21 H :    0.035080    0.000389
  22 H :    0.030326   -0.000596
  23 H :    0.056321    0.000335

  Mayer bond orders larger than 0.100000
B(  0-V ,  1-S ) :   0.7099 B(  0-V ,  2-S ) :   0.8568 B(  0-V ,  3-S ) :   0.7704
B(  0-V ,  4-S ) :   0.7795 B(  0-V ,  5-O ) :   2.0750 B(  1-S , 15-C ) :   1.0254
B(  2-S ,  6-C ) :   1.0213 B(  3-S , 16-C ) :   1.0238 B(  4-S ,  7-C ) :   1.0630
B(  6-C ,  8-C ) :   0.9147 B(  6-C , 13-H ) :   0.9688 B(  6-C , 14-H ) :   0.9643
B(  7-C ,  8-C ) :   0.8992 B(  7-C ,  9-H ) :   0.9768 B(  7-C , 10-H ) :   0.9710
B(  8-C , 11-H ) :   1.0048 B(  8-C , 12-H ) :   0.9524 B( 15-C , 17-C ) :   0.8958
B( 15-C , 22-H ) :   0.9684 B( 15-C , 23-H ) :   0.9796 B( 16-C , 17-C ) :   0.9028
B( 16-C , 18-H ) :   0.9634 B( 16-C , 19-H ) :   0.9758 B( 17-C , 20-H ) :   0.9580
B( 17-C , 21-H ) :   0.9594

FINAL SINGLE POINT ENERGY     -2847.069881802203

DIPOLE MOMENT
-------------
                                X             Y             Z
Electronic contribution:      6.56235       1.68576      -0.47963
Nuclear contribution   :     -6.88854      -1.70473       0.67814
                        -----------------------------------------
Total Dipole Moment    :     -0.32619      -0.01897       0.19851
                        -----------------------------------------
Magnitude (a.u.)       :      0.38232
Magnitude (Debye)      :      0.97178

Rotational constants in cm-1:     0.027229     0.011727     0.009600
Rotational constants in MHz :   816.294493   351.577052   287.811307

                             ****ORCA TERMINATED NORMALLY****
TOTAL RUN TIME: 0 days 0 hours 9 minutes 34 seconds 422 msec
