                         Program Version 5.0.4 -  RELEASE  -
|  1> ! nofrozencore ReducedPop printbasis
|  2> ! B3LYP TZVP
|  3>
|  4> %basis
|  5> newgto V "CP(PPP)" end
|  6> end
|  7>
|  8> %pal
|  9> nprocs 4
| 10> end
| 11>
| 12> % sym SymThresh 1e-2 end
| 13> * xyz -2 2
| 14> V -0.014469719902339577 0.35658343118190605 -0.3384311655455016
| 15> S -2.1756856657881722 -0.8938830520256518 -0.8137297816862702
| 16> S -1.1755524398689536 0.8677911639154909 1.7537339523831281
| 17> S 1.262966743862154 -1.546416839589424 -1.2386943036768538
| 18> S 2.1755072426351165 0.6803028016793834 0.7986317357132348
| 19> O -0.11087788305129838 1.5911584700613495 -1.3546660583970827
| 20> C -0.04041400280658294 1.9005033985090825 2.8079022070153328
| 21> C 2.1581438822144627 2.3676561613858897 1.5604919650650946
| 22> C 0.7999594824509092 2.9104188866207203 2.0168131669652203
| 23> H 2.6007532375056903 3.0781220884858516 0.8525566554670527
| 24> H 2.828613598585354 2.320439418712431 2.428700948288515
| 25> H 0.22303557260594187 3.2358798567945657 1.1474253732703148
| 26> H 0.989084398628042 3.808376883092001 2.632732129721909
| 27> H 0.6236037947795823 1.2411431372625732 3.3765708191399635
| 28> H -0.6833573660321469 2.4273232651565677 3.522450081449738
| 29> C -1.7770062931705228 -2.489956698031777 -0.5650724163521407
| 30> C -0.0922389641969895 -2.4697424400828387 -2.5520404640635177
| 31> C -1.1208262686666053 -3.2842696160347233 -1.703156601503522
| 32> H 0.5288650362564767 -3.179548427357772 -3.1260312759310573
| 33> H -0.5066253689134219 -1.6989531746742255 -3.2093288069390318
| 34> H -0.4684894860941545 -4.028996106169558 -1.1095078865040928
| 35> H -1.860316676513637 -3.919542826091422 -2.336511250288458
| 36> H -2.642712370675914 -3.0567744840000968 -0.16690280767990354
| 37> H -1.020721821992661 -2.5179317451742866 0.23113113003131777
| 38> *
| 39>
| 40> % eprnmr
| 41> gtensor true
| 42> Nuclei = all H {aiso,adip,aorb,fgrad,rho}
| 43> Nuclei = all V {aiso,adip,aorb,fgrad,rho}
| 44> end
| 45>
| 46>                          ****END OF INPUT****

CARTESIAN COORDINATES (ANGSTROEM)
---------------------------------
  V     -0.014588    0.356898   -0.339107
  S     -2.175804   -0.893568   -0.814406
  S     -1.175671    0.868106    1.753058
  S      1.262849   -1.546102   -1.239370
  S      2.175389    0.680618    0.797956
  O     -0.110996    1.591474   -1.355342
  C     -0.040532    1.900818    2.807226
  C      2.158026    2.367971    1.559816
  C      0.799841    2.910734    2.016137
  H      2.600635    3.078437    0.851881
  H      2.828495    2.320754    2.428025
  H      0.222917    3.236195    1.146749
  H      0.988966    3.808692    2.632056
  H      0.623486    1.241458    3.375895
  H     -0.683476    2.427638    3.521774
  C     -1.777124   -2.489642   -0.565748
  C     -0.092357   -2.469427   -2.552716
  C     -1.120944   -3.283955   -1.703833
  H      0.528747   -3.179233   -3.126707
  H     -0.506744   -1.698638   -3.210005
  H     -0.468608   -4.028681   -1.110184
  H     -1.860435   -3.919228   -2.337187
  H     -2.642831   -3.056459   -0.167579
  H     -1.020840   -2.517617    0.230455

 Total Charge           Charge          ....   -2
 Multiplicity           Mult            ....    2
 Number of Electrons    NEL             ....  145
 Basis Dimension        Dim             ....  353

ORBITAL ENERGIES
----------------
                 SPIN UP ORBITALS
  NO   OCC          E(Eh)            E(eV)
   0   1.0000    -196.606887     -5349.9454
   1   1.0000     -88.572473     -2410.1795
   2   1.0000     -88.561626     -2409.8844
   3   1.0000     -88.559688     -2409.8316
   4   1.0000     -88.547217     -2409.4923
   5   1.0000     -21.982282      -598.1683
   6   1.0000     -18.824901      -512.2516
   7   1.0000     -18.490085      -503.1408
   8   1.0000     -18.482907      -502.9455
   9   1.0000     -18.482785      -502.9421
  10   1.0000      -9.953059      -270.8365
  11   1.0000      -9.945617      -270.6340
  12   1.0000      -9.942951      -270.5614
  13   1.0000      -9.936097      -270.3749
  14   1.0000      -9.929505      -270.1956
  15   1.0000      -9.924656      -270.0636
  16   1.0000      -7.623654      -207.4502
  17   1.0000      -7.615350      -207.2242
  18   1.0000      -7.614010      -207.1877
  19   1.0000      -7.606236      -206.9762
  20   1.0000      -5.589781      -152.1057
  21   1.0000      -5.582481      -151.9070
  22   1.0000      -5.580792      -151.8611
  23   1.0000      -5.580674      -151.8579
  24   1.0000      -5.579464      -151.8249
  25   1.0000      -5.574184      -151.6812
  26   1.0000      -5.573075      -151.6511
  27   1.0000      -5.572555      -151.6369
  28   1.0000      -5.570899      -151.5919
  29   1.0000      -5.570527      -151.5818
  30   1.0000      -5.565332      -151.4404
  31   1.0000      -5.563408      -151.3880
  32   1.0000      -2.375001       -64.6271
  33   1.0000      -1.417805       -38.5804
  34   1.0000      -1.403173       -38.1823
  35   1.0000      -1.402574       -38.1660
  36   1.0000      -0.587505       -15.9868
  37   1.0000      -0.552745       -15.0409
  38   1.0000      -0.551848       -15.0165
  39   1.0000      -0.470471       -12.8022
  40   1.0000      -0.469055       -12.7636
  41   1.0000      -0.401190       -10.9169
  42   1.0000      -0.390871       -10.6362
  43   1.0000      -0.341977        -9.3057
  44   1.0000      -0.328877        -8.9492
  45   1.0000      -0.304664        -8.2903
  46   1.0000      -0.280372        -7.6293
  47   1.0000      -0.211526        -5.7559
  48   1.0000      -0.208037        -5.6610
  49   1.0000      -0.199840        -5.4379
  50   1.0000      -0.197695        -5.3796
  51   1.0000      -0.161387        -4.3916
  52   1.0000      -0.139638        -3.7998
  53   1.0000      -0.126348        -3.4381
  54   1.0000      -0.112675        -3.0660
  55   1.0000      -0.108267        -2.9461
  56   1.0000      -0.106294        -2.8924
  57   1.0000      -0.079927        -2.1749
  58   1.0000      -0.074128        -2.0171
  59   1.0000      -0.063892        -1.7386
  60   1.0000      -0.054306        -1.4778
  61   1.0000      -0.046343        -1.2610
  62   1.0000      -0.040488        -1.1017
  63   1.0000      -0.027993        -0.7617
  64   1.0000      -0.001155        -0.0314
  65   1.0000       0.024080         0.6553
  66   1.0000       0.031554         0.8586
  67   1.0000       0.035812         0.9745
  68   1.0000       0.049060         1.3350
  69   1.0000       0.053254         1.4491
  70   1.0000       0.062089         1.6895
  71   1.0000       0.073198         1.9918
  72   1.0000       0.082188         2.2365
  73   0.0000       0.232712         6.3324
  74   0.0000       0.246189         6.6991
  75   0.0000       0.249139         6.7794
  76   0.0000       0.251390         6.8407
  77   0.0000       0.252147         6.8613

                 SPIN DOWN ORBITALS
  NO   OCC          E(Eh)            E(eV)
   0   1.0000    -196.607029     -5349.9493
   1   1.0000     -88.572667     -2410.1848
   2   1.0000     -88.561799     -2409.8891
   3   1.0000     -88.559794     -2409.8345
   4   1.0000     -88.547186     -2409.4914
   5   1.0000     -21.967286      -597.7603
   6   1.0000     -18.828350      -512.3454
   7   1.0000     -18.484904      -502.9998
   8   1.0000     -18.466964      -502.5116
   9   1.0000     -18.466322      -502.4942
  10   1.0000      -9.952739      -270.8278
  11   1.0000      -9.945549      -270.6322
  12   1.0000      -9.942780      -270.5568
  13   1.0000      -9.935960      -270.3712
  14   1.0000      -9.929525      -270.1961
  15   1.0000      -9.924614      -270.0625
  16   1.0000      -7.623837      -207.4551
  17   1.0000      -7.615519      -207.2288
  18   1.0000      -7.614110      -207.1905
  19   1.0000      -7.606209      -206.9755
  20   1.0000      -5.590039      -152.1127
  21   1.0000      -5.582936      -151.9194
  22   1.0000      -5.580958      -151.8656
  23   1.0000      -5.580808      -151.8615
  24   1.0000      -5.579585      -151.8282
  25   1.0000      -5.574623      -151.6932
  26   1.0000      -5.573489      -151.6623
  27   1.0000      -5.572688      -151.6406
  28   1.0000      -5.570828      -151.5899
  29   1.0000      -5.570547      -151.5823
  30   1.0000      -5.565657      -151.4492
  31   1.0000      -5.562930      -151.3750
  32   1.0000      -2.330234       -63.4089
  33   1.0000      -1.398886       -38.0656
  34   1.0000      -1.341904       -36.5151
  35   1.0000      -1.339726       -36.4558
  36   1.0000      -0.594872       -16.1873
  37   1.0000      -0.552525       -15.0350
  38   1.0000      -0.551737       -15.0135
  39   1.0000      -0.470221       -12.7954
  40   1.0000      -0.468898       -12.7594
  41   1.0000      -0.401372       -10.9219
  42   1.0000      -0.390856       -10.6357
  43   1.0000      -0.342356        -9.3160
  44   1.0000      -0.329326        -8.9614
  45   1.0000      -0.304666        -8.2904
  46   1.0000      -0.280279        -7.6268
  47   1.0000      -0.211474        -5.7545
  48   1.0000      -0.207982        -5.6595
  49   1.0000      -0.199533        -5.4296
  50   1.0000      -0.197544        -5.3754
  51   1.0000      -0.161261        -4.3881
  52   1.0000      -0.139382        -3.7928
  53   1.0000      -0.126037        -3.4296
  54   1.0000      -0.112668        -3.0659
  55   1.0000      -0.108037        -2.9398
  56   1.0000      -0.106145        -2.8884
  57   1.0000      -0.078840        -2.1454
  58   1.0000      -0.072580        -1.9750
  59   1.0000      -0.062864        -1.7106
  60   1.0000      -0.053536        -1.4568
  61   1.0000      -0.047564        -1.2943
  62   1.0000      -0.042425        -1.1544
  63   1.0000      -0.027045        -0.7359
  64   1.0000       0.002982         0.0811
  65   1.0000       0.025274         0.6878
  66   1.0000       0.034510         0.9391
  67   1.0000       0.042116         1.1460
  68   1.0000       0.049757         1.3539
  69   1.0000       0.060432         1.6444
  70   1.0000       0.070913         1.9296
  71   1.0000       0.073647         2.0040
  72   0.0000       0.227786         6.1984
  73   0.0000       0.247713         6.7406
  74   0.0000       0.253983         6.9112
  75   0.0000       0.258922         7.0456
  76   0.0000       0.263095         7.1592

MULLIKEN ATOMIC CHARGES AND SPIN POPULATIONS
--------------------------------------------
   0 V :    0.534264    1.188712
   1 S :   -0.408444   -0.000546
   2 S :   -0.358032   -0.032192
   3 S :   -0.414438   -0.037236
   4 S :   -0.384176   -0.022363
   5 O :   -0.549384   -0.133132
   6 C :   -0.245713    0.005736
   7 C :   -0.235519    0.006115
   8 C :   -0.159115    0.003122
   9 H :    0.075489   -0.000885
  10 H :    0.051479    0.002171
  11 H :    0.138728    0.000654
  12 H :    0.006012   -0.000035
  13 H :    0.095712   -0.000133
  14 H :    0.049586    0.000012
  15 C :   -0.259870   -0.003841
  16 C :   -0.271526    0.015296
  17 C :   -0.054716    0.006333
  18 H :    0.050377   -0.000345
  19 H :    0.120707   -0.000621
  20 H :    0.022177    0.001467
  21 H :    0.002726    0.001947
  22 H :    0.046585   -0.001318
  23 H :    0.147090    0.001081
Sum of atomic charges         :   -2.0000000

LOEWDIN ATOMIC CHARGES AND SPIN POPULATIONS
-------------------------------------------
   0 V :   -0.213189    1.144786
   1 S :   -0.002251    0.004393
   2 S :   -0.040140   -0.022018
   3 S :   -0.119916   -0.026681
   4 S :   -0.062133   -0.013326
   5 O :   -0.376937   -0.119904
   6 C :   -0.324506    0.005404
   7 C :   -0.314593    0.006608
   8 C :   -0.187325    0.000469
   9 H :    0.036198   -0.000014
  10 H :    0.029196    0.000656
  11 H :    0.070171    0.000325
  12 H :    0.031640    0.000149
  13 H :    0.045490   -0.000075
  14 H :    0.027835   -0.000529
  15 C :   -0.387239    0.002285
  16 C :   -0.262253    0.015158
  17 C :   -0.200732    0.001648
  18 H :    0.032706    0.000136
  19 H :    0.057054   -0.000374
  20 H :    0.049695    0.000509
  21 H :    0.031221    0.001335
  22 H :    0.028072   -0.001168
  23 H :    0.051937    0.000230

  Mayer bond orders larger than 0.100000
B(  0-V ,  1-S ) :   0.7072 B(  0-V ,  2-S ) :   0.8592 B(  0-V ,  3-S ) :   0.7697
B(  0-V ,  4-S ) :   0.7727 B(  0-V ,  5-O ) :   2.0675 B(  1-S , 15-C ) :   1.1190
B(  1-S , 17-C ) :  -0.1206 B(  2-S ,  6-C ) :   1.0085 B(  3-S , 16-C ) :   0.9702
B(  4-S ,  7-C ) :   1.0684 B(  6-C ,  8-C ) :   0.9012 B(  6-C , 13-H ) :   0.9746
B(  6-C , 14-H ) :   0.9682 B(  7-C ,  8-C ) :   0.9192 B(  7-C ,  9-H ) :   0.9767
B(  7-C , 10-H ) :   0.9687 B(  8-C , 11-H ) :   0.9882 B(  8-C , 12-H ) :   0.9451
B( 15-C , 17-C ) :   0.8449 B( 15-C , 22-H ) :   0.9561 B( 15-C , 23-H ) :   0.9844
B( 16-C , 17-C ) :   0.9189 B( 16-C , 18-H ) :   0.9634 B( 16-C , 19-H ) :   0.9685
B( 17-C , 20-H ) :   0.9866 B( 17-C , 21-H ) :   0.9171

FINAL SINGLE POINT ENERGY     -2847.679133510103

DIPOLE MOMENT
-------------
                                X             Y             Z
Electronic contribution:     -0.53991       3.79661      -5.03470
Nuclear contribution   :      0.63588      -3.74612       5.50678
                        -----------------------------------------
Total Dipole Moment    :      0.09597       0.05050       0.47207
                        -----------------------------------------
Magnitude (a.u.)       :      0.48437
Magnitude (Debye)      :      1.23117

Rotational constants in cm-1:     0.027279     0.011693     0.009556
Rotational constants in MHz :   817.803252   350.554962   286.486314

                             ****ORCA TERMINATED NORMALLY****
TOTAL RUN TIME: 0 days 0 hours 14 minutes 23 seconds 949 msec
