                         Program Version 5.0.4 -  RELEASE  -
|  1> ! nofrozencore ReducedPop printbasis
|  2> ! B3LYP TZVP
|  3>
|  4> %basis
|  5> newgto V "CP(PPP)" end
|  6> end
|  7>
|  8> %pal
|  9> nprocs 8
| 10> end
| 11>
| 12> % sym SymThresh 1e-2 end
| 13> * xyz -2 2
| 14> V -0.2027314589986075 0.39213731636527904 -0.21705232107289935
| 15> S -1.8590745519720342 -1.397069609353049 -0.8583101418305036
| 16> S -1.0612006624681685 -0.11163225889295754 2.018875796348695
| 17> S 1.426722891573036 -0.6128644170090845 -1.7805891662094853
| 18> S 1.8965004282311777 1.2710319715438727 0.7886033188164097
| 19> O -0.922211746748948 1.6923877135474352 -0.8200431002398219
| 20> C -0.19789262890730613 0.9991191365542373 3.2299079948910734
| 21> C 1.4186911420027921 2.582295915818822 2.0084175739460277
| 22> C 0.06779864705463733 2.4157352991260463 2.708535297856565
| 23> H 1.4387586522079086 3.5582423079292576 1.5093670398657688
| 24> H 2.2133087647379996 2.592587938279338 2.7657662979862274
| 25> H -0.7349590301896326 2.683579691465743 2.0166606624596866
| 26> H 0.02794103602106503 3.1397182442288716 3.542532417017019
| 27> H 0.7487163929254643 0.5369595915325409 3.5290981804656396
| 28> H -0.8430168843021257 1.0441260143882822 4.1150403276611005
| 29> C -0.7705104582543205 -2.9235058333463635 -1.1626259195788229
| 30> C 0.441025420665431 -1.6443671276243221 -3.0357545738732594
| 31> C -0.10845701720831794 -2.8477170901263933 -2.4458895319996246
| 32> H 0.8470171905493725 -1.8649366919479207 -4.065521623830969
| 33> H -0.4522772667617418 -0.9983259405489153 -3.138395100964608
| 34> H 0.6751296880241702 -3.626407737071032 -2.3678476256105974
| 35> H -0.802218350225665 -3.2040965991993158 -3.232623368523093
| 36> H -1.1358499223446112 -3.9770690082117297 -0.9789565558846354
| 37> H 0.043680484635099645 -2.7188223966904954 -0.4429952022101294
| 38> *
| 39>
| 40> % eprnmr
| 41> gtensor true
| 42> Nuclei = all H {aiso,adip,aorb,fgrad,rho}
| 43> Nuclei = all V {aiso,adip,aorb,fgrad,rho}
| 44> end
| 45>
| 46>                          ****END OF INPUT****

CARTESIAN COORDINATES (ANGSTROEM)
---------------------------------
  V     -0.203077    0.392532   -0.217595
  S     -1.859420   -1.396675   -0.858853
  S     -1.061546   -0.111238    2.018333
  S      1.426377   -0.612470   -1.781132
  S      1.896155    1.271426    0.788060
  O     -0.922557    1.692782   -0.820586
  C     -0.198238    0.999513    3.229365
  C      1.418345    2.582690    2.007874
  C      0.067453    2.416130    2.707992
  H      1.438413    3.558637    1.508824
  H      2.212963    2.592982    2.765223
  H     -0.735305    2.683974    2.016118
  H      0.027595    3.140113    3.541989
  H      0.748371    0.537354    3.528555
  H     -0.843363    1.044520    4.114497
  C     -0.770856   -2.923112   -1.163169
  C      0.440680   -1.643973   -3.036298
  C     -0.108803   -2.847323   -2.446433
  H      0.846671   -1.864542   -4.066065
  H     -0.452623   -0.997932   -3.138938
  H      0.674784   -3.626013   -2.368391
  H     -0.802564   -3.203702   -3.233166
  H     -1.136196   -3.976675   -0.979500
  H      0.043335   -2.718428   -0.443538

 Total Charge           Charge          ....   -2
 Multiplicity           Mult            ....    2
 Number of Electrons    NEL             ....  145
 Basis Dimension        Dim             ....  353

ORBITAL ENERGIES
----------------
                 SPIN UP ORBITALS
  NO   OCC          E(Eh)            E(eV)
   0   1.0000    -196.608948     -5350.0015
   1   1.0000     -88.564276     -2409.9565
   2   1.0000     -88.561668     -2409.8855
   3   1.0000     -88.560921     -2409.8652
   4   1.0000     -88.560453     -2409.8524
   5   1.0000     -21.984298      -598.2231
   6   1.0000     -18.826433      -512.2933
   7   1.0000     -18.492072      -503.1949
   8   1.0000     -18.484937      -503.0007
   9   1.0000     -18.484822      -502.9976
  10   1.0000      -9.943478      -270.5758
  11   1.0000      -9.936969      -270.3987
  12   1.0000      -9.936727      -270.3921
  13   1.0000      -9.935739      -270.3652
  14   1.0000      -9.929575      -270.1975
  15   1.0000      -9.922071      -269.9933
  16   1.0000      -7.617686      -207.2878
  17   1.0000      -7.615494      -207.2281
  18   1.0000      -7.614733      -207.2074
  19   1.0000      -7.614491      -207.2008
  20   1.0000      -5.583036      -151.9221
  21   1.0000      -5.580898      -151.8640
  22   1.0000      -5.580165      -151.8440
  23   1.0000      -5.579921      -151.8374
  24   1.0000      -5.576627      -151.7477
  25   1.0000      -5.574951      -151.7021
  26   1.0000      -5.574331      -151.6852
  27   1.0000      -5.573782      -151.6703
  28   1.0000      -5.573597      -151.6653
  29   1.0000      -5.572684      -151.6404
  30   1.0000      -5.571647      -151.6122
  31   1.0000      -5.571589      -151.6107
  32   1.0000      -2.376899       -64.6787
  33   1.0000      -1.419446       -38.6251
  34   1.0000      -1.405139       -38.2358
  35   1.0000      -1.404527       -38.2191
  36   1.0000      -0.588849       -16.0234
  37   1.0000      -0.572086       -15.5672
  38   1.0000      -0.552539       -15.0353
  39   1.0000      -0.470335       -12.7985
  40   1.0000      -0.466232       -12.6868
  41   1.0000      -0.402684       -10.9576
  42   1.0000      -0.394042       -10.7224
  43   1.0000      -0.347725        -9.4621
  44   1.0000      -0.329612        -8.9692
  45   1.0000      -0.305228        -8.3057
  46   1.0000      -0.276504        -7.5241
  47   1.0000      -0.217014        -5.9052
  48   1.0000      -0.214784        -5.8446
  49   1.0000      -0.208413        -5.6712
  50   1.0000      -0.199111        -5.4181
  51   1.0000      -0.162039        -4.4093
  52   1.0000      -0.141786        -3.8582
  53   1.0000      -0.128017        -3.4835
  54   1.0000      -0.114523        -3.1163
  55   1.0000      -0.113170        -3.0795
  56   1.0000      -0.106157        -2.8887
  57   1.0000      -0.079906        -2.1743
  58   1.0000      -0.067987        -1.8500
  59   1.0000      -0.064754        -1.7621
  60   1.0000      -0.049303        -1.3416
  61   1.0000      -0.047058        -1.2805
  62   1.0000      -0.036399        -0.9905
  63   1.0000      -0.034024        -0.9259
  64   1.0000      -0.001654        -0.0450
  65   1.0000       0.025915         0.7052
  66   1.0000       0.030064         0.8181
  67   1.0000       0.035512         0.9663
  68   1.0000       0.045820         1.2468
  69   1.0000       0.051843         1.4107
  70   1.0000       0.063884         1.7384
  71   1.0000       0.071744         1.9522
  72   1.0000       0.079910         2.1745
  73   0.0000       0.232650         6.3307
  74   0.0000       0.243623         6.6293
  75   0.0000       0.248504         6.7621
  76   0.0000       0.251242         6.8367
  77   0.0000       0.252310         6.8657

                 SPIN DOWN ORBITALS
  NO   OCC          E(Eh)            E(eV)
   0   1.0000    -196.609089     -5350.0053
   1   1.0000     -88.564435     -2409.9608
   2   1.0000     -88.561845     -2409.8903
   3   1.0000     -88.560874     -2409.8639
   4   1.0000     -88.560557     -2409.8553
   5   1.0000     -21.969307      -597.8152
   6   1.0000     -18.829898      -512.3876
   7   1.0000     -18.486887      -503.0538
   8   1.0000     -18.468868      -502.5635
   9   1.0000     -18.468501      -502.5535
  10   1.0000      -9.943295      -270.5708
  11   1.0000      -9.936900      -270.3968
  12   1.0000      -9.936522      -270.3865
  13   1.0000      -9.935612      -270.3617
  14   1.0000      -9.929595      -270.1980
  15   1.0000      -9.922033      -269.9922
  16   1.0000      -7.617835      -207.2918
  17   1.0000      -7.615667      -207.2328
  18   1.0000      -7.614831      -207.2101
  19   1.0000      -7.614448      -207.1997
  20   1.0000      -5.583212      -151.9269
  21   1.0000      -5.581064      -151.8685
  22   1.0000      -5.580287      -151.8473
  23   1.0000      -5.579930      -151.8376
  24   1.0000      -5.577022      -151.7585
  25   1.0000      -5.575073      -151.7054
  26   1.0000      -5.574791      -151.6978
  27   1.0000      -5.574194      -151.6815
  28   1.0000      -5.573904      -151.6736
  29   1.0000      -5.572816      -151.6440
  30   1.0000      -5.571567      -151.6101
  31   1.0000      -5.571073      -151.5966
  32   1.0000      -2.332148       -63.4610
  33   1.0000      -1.400491       -38.1093
  34   1.0000      -1.343654       -36.5627
  35   1.0000      -1.341992       -36.5175
  36   1.0000      -0.596274       -16.2254
  37   1.0000      -0.571915       -15.5626
  38   1.0000      -0.552441       -15.0327
  39   1.0000      -0.470280       -12.7970
  40   1.0000      -0.466047       -12.6818
  41   1.0000      -0.402814       -10.9611
  42   1.0000      -0.394100       -10.7240
  43   1.0000      -0.347789        -9.4638
  44   1.0000      -0.330044        -8.9809
  45   1.0000      -0.305210        -8.3052
  46   1.0000      -0.276422        -7.5218
  47   1.0000      -0.216923        -5.9028
  48   1.0000      -0.214624        -5.8402
  49   1.0000      -0.208352        -5.6695
  50   1.0000      -0.198946        -5.4136
  51   1.0000      -0.161914        -4.4059
  52   1.0000      -0.141449        -3.8490
  53   1.0000      -0.127902        -3.4804
  54   1.0000      -0.114186        -3.1072
  55   1.0000      -0.113157        -3.0792
  56   1.0000      -0.106026        -2.8851
  57   1.0000      -0.078721        -2.1421
  58   1.0000      -0.065575        -1.7844
  59   1.0000      -0.063989        -1.7412
  60   1.0000      -0.050848        -1.3837
  61   1.0000      -0.048355        -1.3158
  62   1.0000      -0.036244        -0.9862
  63   1.0000      -0.034135        -0.9289
  64   1.0000       0.003693         0.1005
  65   1.0000       0.026898         0.7319
  66   1.0000       0.033027         0.8987
  67   1.0000       0.044036         1.1983
  68   1.0000       0.046379         1.2620
  69   1.0000       0.060779         1.6539
  70   1.0000       0.067330         1.8321
  71   1.0000       0.073074         1.9884
  72   0.0000       0.229954         6.2574
  73   0.0000       0.247099         6.7239
  74   0.0000       0.254307         6.9201
  75   0.0000       0.256713         6.9855
  76   0.0000       0.261930         7.1275

MULLIKEN ATOMIC CHARGES AND SPIN POPULATIONS
--------------------------------------------
   0 V :    0.507862    1.186494
   1 S :   -0.420330    0.001550
   2 S :   -0.348875   -0.033464
   3 S :   -0.408377   -0.029432
   4 S :   -0.379269   -0.021907
   5 O :   -0.543453   -0.133840
   6 C :   -0.246056    0.005544
   7 C :   -0.235956    0.006782
   8 C :   -0.159591    0.003020
   9 H :    0.075495   -0.000953
  10 H :    0.052304    0.002206
  11 H :    0.139166    0.000644
  12 H :    0.006375   -0.000020
  13 H :    0.095612   -0.000121
  14 H :    0.049363   -0.000094
  15 C :   -0.257374   -0.003567
  16 C :   -0.251445    0.004604
  17 C :   -0.040690    0.011037
  18 H :    0.044651   -0.000870
  19 H :    0.136813   -0.000089
  20 H :   -0.000880    0.001654
  21 H :   -0.006924    0.000853
  22 H :    0.047551   -0.000848
  23 H :    0.144028    0.000816
Sum of atomic charges         :   -2.0000000

LOEWDIN ATOMIC CHARGES AND SPIN POPULATIONS
-------------------------------------------
   0 V :   -0.222085    1.143406
   1 S :   -0.080015    0.006862
   2 S :   -0.035686   -0.022926
   3 S :   -0.071550   -0.020342
   4 S :   -0.059012   -0.012703
   5 O :   -0.376039   -0.120537
   6 C :   -0.326581    0.005045
   7 C :   -0.313627    0.007121
   8 C :   -0.187664    0.000470
   9 H :    0.036300   -0.000006
  10 H :    0.029480    0.000660
  11 H :    0.070247    0.000338
  12 H :    0.031761    0.000157
  13 H :    0.045248   -0.000071
  14 H :    0.027850   -0.000548
  15 C :   -0.312848    0.003090
  16 C :   -0.321598    0.009133
  17 C :   -0.200936    0.001033
  18 H :    0.038515   -0.000231
  19 H :    0.061164   -0.000829
  20 H :    0.033215    0.000649
  21 H :    0.032027    0.000648
  22 H :    0.040163   -0.000752
  23 H :    0.061671    0.000335

  Mayer bond orders larger than 0.100000
B(  0-V ,  1-S ) :   0.7143 B(  0-V ,  2-S ) :   0.8625 B(  0-V ,  3-S ) :   0.7726
B(  0-V ,  4-S ) :   0.7832 B(  0-V ,  5-O ) :   2.0696 B(  1-S , 15-C ) :   1.0122
B(  2-S ,  6-C ) :   1.0096 B(  3-S , 16-C ) :   0.9964 B(  4-S ,  7-C ) :   1.0675
B(  6-C ,  8-C ) :   0.9005 B(  6-C , 13-H ) :   0.9746 B(  6-C , 14-H ) :   0.9678
B(  7-C ,  8-C ) :   0.9193 B(  7-C ,  9-H ) :   0.9758 B(  7-C , 10-H ) :   0.9696
B(  8-C , 11-H ) :   0.9887 B(  8-C , 12-H ) :   0.9446 B( 15-C , 17-C ) :   0.9175
B( 15-C , 22-H ) :   0.9486 B( 15-C , 23-H ) :   0.9976 B( 16-C , 17-C ) :   0.9248
B( 16-C , 18-H ) :   0.9451 B( 16-C , 19-H ) :   0.9907 B( 17-C , 20-H ) :   0.9418
B( 17-C , 21-H ) :   0.9421

FINAL SINGLE POINT ENERGY     -2847.687436428621

DIPOLE MOMENT
-------------
                                X             Y             Z
Electronic contribution:     -2.62459       4.35084      -3.57997
Nuclear contribution   :      2.81074      -4.42005       4.03406
                        -----------------------------------------
Total Dipole Moment    :      0.18615      -0.06921       0.45409
                        -----------------------------------------
Magnitude (a.u.)       :      0.49562
Magnitude (Debye)      :      1.25976

Rotational constants in cm-1:     0.027320     0.011722     0.009612
Rotational constants in MHz :   819.042354   351.430342   288.150223

                             ****ORCA TERMINATED NORMALLY****
TOTAL RUN TIME: 0 days 0 hours 9 minutes 35 seconds 82 msec
