                         Program Version 5.0.4 -  RELEASE  -
|  1> ! nofrozencore ReducedPop printbasis
|  2> ! B3LYP TZVP
|  3>
|  4> %basis
|  5> newgto V "CP(PPP)" end
|  6> end
|  7>
|  8> %pal
|  9> nprocs 8
| 10> end
| 11>
| 12> % sym SymThresh 1e-2 end
| 13> * xyz -2 2
| 14> V -0.30722829278535585 0.37666294112378074 -0.0758997091244688
| 15> S -1.9043682605437326 -1.5767840122490004 -0.2800519082930552
| 16> S -0.193508632328289 -0.4168915266135568 2.2366192735101906
| 17> S 0.6913302871570295 -0.27074777135832395 -2.2545716974221244
| 18> S 1.9211425955359107 1.4518796105641176 0.18546295865139995
| 19> O -1.3239113091699295 1.6089734374933082 -0.2010145738794341
| 20> C 0.9537665757639715 0.7031405877776362 3.1668244574160074
| 21> C 1.8521187532141976 2.600594504928406 1.6556781281316328
| 22> C 0.8607715147999148 2.1815138886729453 2.7760380352335066
| 23> H 1.6219707011927762 3.3904448559614044 1.382726406618846
| 24> H 2.425183974890822 2.6372161700181835 1.8969304704451808
| 25> H -0.1367605756597446 2.3845602617864814 2.4783342941038042
| 26> H 1.0652493100328795 2.782291406284662 3.591623016438388
| 27> H 2.03576309408692 0.3376185540286311 3.032513136396488
| 28> H 0.6720012838456725 0.5786508356751555 4.314308450743434
| 29> C -0.8463410482268839 -2.8484183405422705 -1.106255512375706
| 30> C -0.607133076302313 -1.2632592253118666 -3.1212298079079583
| 31> C -0.7656414427908336 -2.7057772933986346 -2.6315223762792765
| 32> H -0.35700371567422085 -1.2691491431067794 -4.2000868226639225
| 33> H -1.5614253347911986 -0.7450602534689222 -2.9984517274778693
| 34> H 0.07811033872932614 -3.313754477979602 -2.997234663765706
| 35> H -1.6786703893466965 -3.1205902842535598 -3.082360753402478
| 36> H -1.241463018362392 -3.84558464009485 -0.8524892473938326
| 37> H 0.15684393631689014 -2.7785455435361466 -0.6827096073991044
| 38> *
| 39>
| 40> % eprnmr
| 41> gtensor true
| 42> Nuclei = all H {aiso,adip,aorb,fgrad,rho}
| 43> Nuclei = all V {aiso,adip,aorb,fgrad,rho}
| 44> end
| 45>
| 46>                          ****END OF INPUT****

CARTESIAN COORDINATES (ANGSTROEM)
---------------------------------
  V     -0.307792    0.377048   -0.076223
  S     -1.904932   -1.576398   -0.280375
  S     -0.194072   -0.416506    2.236296
  S      0.690767   -0.270362   -2.254895
  S      1.920579    1.452265    0.185140
  O     -1.324475    1.609359   -0.201338
  C      0.953203    0.703526    3.166501
  C      1.851556    2.600980    1.655355
  C      0.860208    2.181899    2.775715
  H      1.621407    3.390830    1.382403
  H      2.424621    2.637602    1.896607
  H     -0.137324    2.384946    2.478011
  H      1.064686    2.782677    3.591300
  H      2.035200    0.338004    3.032190
  H      0.671438    0.579036    4.313985
  C     -0.846904   -2.848033   -1.106579
  C     -0.607696   -1.262874   -3.121553
  C     -0.766205   -2.705392   -2.631845
  H     -0.357567   -1.268764   -4.200410
  H     -1.561989   -0.744675   -2.998775
  H      0.077547   -3.313369   -2.997558
  H     -1.679234   -3.120205   -3.082684
  H     -1.242026   -3.845199   -0.852812
  H      0.156281   -2.778160   -0.683033

 Total Charge           Charge          ....   -2
 Multiplicity           Mult            ....    2
 Number of Electrons    NEL             ....  145
 Basis Dimension        Dim             ....  353

ORBITAL ENERGIES
----------------
                 SPIN UP ORBITALS
  NO   OCC          E(Eh)            E(eV)
   0   1.0000    -196.605686     -5349.9127
   1   1.0000     -88.560246     -2409.8468
   2   1.0000     -88.560105     -2409.8430
   3   1.0000     -88.556326     -2409.7402
   4   1.0000     -88.555792     -2409.7256
   5   1.0000     -21.981062      -598.1351
   6   1.0000     -18.823385      -512.2103
   7   1.0000     -18.488846      -503.1071
   8   1.0000     -18.481670      -502.9118
   9   1.0000     -18.481591      -502.9097
  10   1.0000      -9.948017      -270.6993
  11   1.0000      -9.934410      -270.3290
  12   1.0000      -9.933781      -270.3119
  13   1.0000      -9.930750      -270.2294
  14   1.0000      -9.916169      -269.8327
  15   1.0000      -9.884376      -268.9675
  16   1.0000      -7.614278      -207.1950
  17   1.0000      -7.614021      -207.1880
  18   1.0000      -7.610672      -207.0969
  19   1.0000      -7.609847      -207.0745
  20   1.0000      -5.579494      -151.8257
  21   1.0000      -5.579473      -151.8252
  22   1.0000      -5.575913      -151.7283
  23   1.0000      -5.575198      -151.7088
  24   1.0000      -5.573254      -151.6560
  25   1.0000      -5.572850      -151.6450
  26   1.0000      -5.571510      -151.6085
  27   1.0000      -5.571179      -151.5995
  28   1.0000      -5.569886      -151.5643
  29   1.0000      -5.568915      -151.5379
  30   1.0000      -5.567739      -151.5059
  31   1.0000      -5.566915      -151.4835
  32   1.0000      -2.373709       -64.5919
  33   1.0000      -1.416399       -38.5422
  34   1.0000      -1.401810       -38.1452
  35   1.0000      -1.401311       -38.1316
  36   1.0000      -0.586144       -15.9498
  37   1.0000      -0.580971       -15.8090
  38   1.0000      -0.549641       -14.9565
  39   1.0000      -0.494428       -13.4541
  40   1.0000      -0.464141       -12.6299
  41   1.0000      -0.405657       -11.0385
  42   1.0000      -0.398965       -10.8564
  43   1.0000      -0.355006        -9.6602
  44   1.0000      -0.333767        -9.0823
  45   1.0000      -0.313106        -8.5200
  46   1.0000      -0.284524        -7.7423
  47   1.0000      -0.244813        -6.6617
  48   1.0000      -0.212865        -5.7923
  49   1.0000      -0.201414        -5.4808
  50   1.0000      -0.200091        -5.4448
  51   1.0000      -0.176687        -4.8079
  52   1.0000      -0.132750        -3.6123
  53   1.0000      -0.130630        -3.5546
  54   1.0000      -0.115694        -3.1482
  55   1.0000      -0.106157        -2.8887
  56   1.0000      -0.103796        -2.8244
  57   1.0000      -0.081241        -2.2107
  58   1.0000      -0.069092        -1.8801
  59   1.0000      -0.062427        -1.6987
  60   1.0000      -0.054836        -1.4922
  61   1.0000      -0.045265        -1.2317
  62   1.0000      -0.040237        -1.0949
  63   1.0000      -0.035042        -0.9535
  64   1.0000       0.001367         0.0372
  65   1.0000       0.029022         0.7897
  66   1.0000       0.031783         0.8649
  67   1.0000       0.038208         1.0397
  68   1.0000       0.046762         1.2725
  69   1.0000       0.055136         1.5003
  70   1.0000       0.065674         1.7871
  71   1.0000       0.073851         2.0096
  72   1.0000       0.082308         2.2397
  73   0.0000       0.235757         6.4153
  74   0.0000       0.247762         6.7419
  75   0.0000       0.250528         6.8172
  76   0.0000       0.258133         7.0241
  77   0.0000       0.259283         7.0554

                 SPIN DOWN ORBITALS
  NO   OCC          E(Eh)            E(eV)
   0   1.0000    -196.605828     -5349.9166
   1   1.0000     -88.560422     -2409.8516
   2   1.0000     -88.560265     -2409.8473
   3   1.0000     -88.556302     -2409.7395
   4   1.0000     -88.555891     -2409.7283
   5   1.0000     -21.966002      -597.7253
   6   1.0000     -18.826859      -512.3049
   7   1.0000     -18.483642      -502.9655
   8   1.0000     -18.465581      -502.4740
   9   1.0000     -18.465132      -502.4618
  10   1.0000      -9.947883      -270.6957
  11   1.0000      -9.934235      -270.3243
  12   1.0000      -9.933724      -270.3104
  13   1.0000      -9.930709      -270.2283
  14   1.0000      -9.916193      -269.8333
  15   1.0000      -9.884196      -268.9627
  16   1.0000      -7.614430      -207.1992
  17   1.0000      -7.614192      -207.1927
  18   1.0000      -7.610651      -207.0963
  19   1.0000      -7.609941      -207.0770
  20   1.0000      -5.579646      -151.8299
  21   1.0000      -5.579637      -151.8296
  22   1.0000      -5.575931      -151.7288
  23   1.0000      -5.575319      -151.7121
  24   1.0000      -5.573675      -151.6674
  25   1.0000      -5.573306      -151.6574
  26   1.0000      -5.571629      -151.6117
  27   1.0000      -5.571311      -151.6031
  28   1.0000      -5.570224      -151.5735
  29   1.0000      -5.569314      -151.5487
  30   1.0000      -5.567279      -151.4934
  31   1.0000      -5.566831      -151.4812
  32   1.0000      -2.328759       -63.3688
  33   1.0000      -1.397395       -38.0250
  34   1.0000      -1.340159       -36.4676
  35   1.0000      -1.338346       -36.4182
  36   1.0000      -0.593451       -16.1486
  37   1.0000      -0.580932       -15.8080
  38   1.0000      -0.549488       -14.9523
  39   1.0000      -0.494369       -13.4525
  40   1.0000      -0.464016       -12.6265
  41   1.0000      -0.405817       -11.0429
  42   1.0000      -0.399032       -10.8582
  43   1.0000      -0.355248        -9.6668
  44   1.0000      -0.333902        -9.0859
  45   1.0000      -0.313277        -8.5247
  46   1.0000      -0.284508        -7.7419
  47   1.0000      -0.244697        -6.6585
  48   1.0000      -0.212806        -5.7907
  49   1.0000      -0.201225        -5.4756
  50   1.0000      -0.200029        -5.4431
  51   1.0000      -0.176604        -4.8056
  52   1.0000      -0.132562        -3.6072
  53   1.0000      -0.130374        -3.5477
  54   1.0000      -0.115597        -3.1456
  55   1.0000      -0.106096        -2.8870
  56   1.0000      -0.103740        -2.8229
  57   1.0000      -0.079946        -2.1755
  58   1.0000      -0.066933        -1.8213
  59   1.0000      -0.061456        -1.6723
  60   1.0000      -0.054895        -1.4938
  61   1.0000      -0.046153        -1.2559
  62   1.0000      -0.041135        -1.1193
  63   1.0000      -0.036188        -0.9847
  64   1.0000       0.006042         0.1644
  65   1.0000       0.030131         0.8199
  66   1.0000       0.034568         0.9406
  67   1.0000       0.046737         1.2718
  68   1.0000       0.047928         1.3042
  69   1.0000       0.062836         1.7099
  70   1.0000       0.069585         1.8935
  71   1.0000       0.075382         2.0512
  72   0.0000       0.236161         6.4263
  73   0.0000       0.251463         6.8427
  74   0.0000       0.259016         7.0482
  75   0.0000       0.262326         7.1383
  76   0.0000       0.266672         7.2565

MULLIKEN ATOMIC CHARGES AND SPIN POPULATIONS
--------------------------------------------
   0 V :    0.530220    1.192139
   1 S :   -0.428806   -0.001813
   2 S :   -0.344536   -0.033002
   3 S :   -0.406725   -0.029206
   4 S :   -0.429231   -0.021772
   5 O :   -0.549160   -0.134058
   6 C :   -0.226295    0.006099
   7 C :   -0.357457    0.010174
   8 C :   -0.183216    0.001398
   9 H :    0.121510   -0.000710
  10 H :    0.198455   -0.000117
  11 H :    0.141104    0.000717
  12 H :    0.022792   -0.000005
  13 H :    0.078316   -0.000093
  14 H :    0.015115   -0.000614
  15 C :   -0.255429   -0.002196
  16 C :   -0.251317    0.003418
  17 C :   -0.068214    0.008388
  18 H :    0.043314   -0.000053
  19 H :    0.130670   -0.000239
  20 H :    0.014893    0.001599
  21 H :    0.013386    0.000062
  22 H :    0.050006   -0.000588
  23 H :    0.140603    0.000472
Sum of atomic charges         :   -2.0000000

LOEWDIN ATOMIC CHARGES AND SPIN POPULATIONS
-------------------------------------------
   0 V :   -0.204993    1.148703
   1 S :   -0.072864    0.003606
   2 S :   -0.035501   -0.022652
   3 S :   -0.059965   -0.020416
   4 S :   -0.059695   -0.012236
   5 O :   -0.377718   -0.120862
   6 C :   -0.330541    0.005294
   7 C :   -0.146698    0.006733
   8 C :   -0.148460    0.000192
   9 H :    0.017478    0.000359
  10 H :   -0.155285    0.000715
  11 H :    0.065566    0.000348
  12 H :    0.025473    0.000140
  13 H :    0.048246   -0.000074
  14 H :    0.028285   -0.000865
  15 C :   -0.318279    0.002702
  16 C :   -0.326649    0.007274
  17 C :   -0.189533    0.001137
  18 H :    0.028834   -0.000219
  19 H :    0.054261   -0.000615
  20 H :    0.036174    0.000614
  21 H :    0.034839    0.000382
  22 H :    0.030659   -0.000604
  23 H :    0.056366    0.000344

  Mayer bond orders larger than 0.100000
B(  0-V ,  1-S ) :   0.7075 B(  0-V ,  2-S ) :   0.8551 B(  0-V ,  3-S ) :   0.7702
B(  0-V ,  4-S ) :   0.7803 B(  0-V ,  5-O ) :   2.0707 B(  1-S , 15-C ) :   1.0252
B(  2-S ,  6-C ) :   1.0221 B(  3-S , 16-C ) :   1.0262 B(  4-S ,  7-C ) :   0.9652
B(  6-C ,  8-C ) :   0.9106 B(  6-C , 13-H ) :   0.9639 B(  6-C , 14-H ) :   0.9587
B(  7-C ,  8-C ) :   0.8768 B(  7-C ,  9-H ) :   1.0352 B(  7-C , 10-H ) :   0.9942
B(  8-C , 11-H ) :   0.9990 B(  8-C , 12-H ) :   0.9569 B( 15-C , 17-C ) :   0.8958
B( 15-C , 22-H ) :   0.9679 B( 15-C , 23-H ) :   0.9794 B( 16-C , 17-C ) :   0.9028
B( 16-C , 18-H ) :   0.9626 B( 16-C , 19-H ) :   0.9752 B( 17-C , 20-H ) :   0.9579
B( 17-C , 21-H ) :   0.9596

FINAL SINGLE POINT ENERGY     -2847.265247184931

DIPOLE MOMENT
-------------
                                X             Y             Z
Electronic contribution:     -3.87602       4.55334      -1.78653
Nuclear contribution   :      4.27172      -4.47047       2.11578
                        -----------------------------------------
Total Dipole Moment    :      0.39570       0.08288       0.32925
                        -----------------------------------------
Magnitude (a.u.)       :      0.52140
Magnitude (Debye)      :      1.32529

Rotational constants in cm-1:     0.027235     0.011732     0.009602
Rotational constants in MHz :   816.479116   351.721719   287.866115

                             ****ORCA TERMINATED NORMALLY****
TOTAL RUN TIME: 0 days 0 hours 9 minutes 37 seconds 284 msec
