                         Program Version 5.0.4 -  RELEASE  -
|  1> ! nofrozencore ReducedPop printbasis
|  2> ! B3LYP TZVP
|  3>
|  4> %basis
|  5> newgto V "CP(PPP)" end
|  6> end
|  7>
|  8> %pal
|  9> nprocs 4
| 10> end
| 11>
| 12> % sym SymThresh 1e-2 end
| 13> * xyz -2 2
| 14> V 0.29850680861850204 0.15323706922085 0.35976884452937474
| 15> S 1.9139101570970694 -1.201132032878879 -1.0419489509001496
| 16> S 0.2891926714997025 1.5560127066083331 -1.645931578950132
| 17> S -0.7775158587297292 -1.9636455130091415 1.0834977693935681
| 18> S -1.9327752936621037 1.0514736895194206 0.9959990314411885
| 19> O 1.2916700994787988 0.7538657305976325 1.4646347646976454
| 20> C -0.8375839555503384 2.997677586988695 -1.3338391137357177
| 21> C -1.7644503406457748 2.9012242037681673 1.0943594485537078
| 22> C -0.7868134463670464 3.544608780834822 0.09625288746676419
| 23> H -1.6584011773410026 3.082358907805075 1.6203449771282297
| 24> H -3.0111991538087834 3.3744588614229167 0.7826765384222397
| 25> H 0.3104478892169554 3.3869048185708315 0.5144421287447415
| 26> H -0.9720992274476735 4.624349179575195 0.09342635826607004
| 27> H -1.8705111309724543 2.71222153666033 -1.5763408426190784
| 28> H -0.5297270110791948 3.7897846036742378 -2.0489381814685883
| 29> C 0.8368967323739797 -2.586779801077871 -1.5993920742054728
| 30> C 0.5000968461770201 -3.273721250179439 0.8316540069622521
| 31> C 0.6968909877861162 -3.73299383765602 -0.6092626276932386
| 32> H 0.17480700585534822 -4.230300127829698 1.5186829781853532
| 33> H 1.4687271262078314 -2.88856312646187 1.2232009203197625
| 34> H -0.18768144607383225 -4.3971269669937785 -0.927788988393767
| 35> H 1.642812396878426 -4.399085510426687 -0.6501886699816765
| 36> H 1.3776143092461293 -3.0822394704934295 -2.8021958635573094
| 37> H -0.20556028796825257 -2.1568729970641964 -1.8551361835549218
| 38> *
| 39>
| 40> % eprnmr
| 41> gtensor true
| 42> Nuclei = all H {aiso,adip,aorb,fgrad,rho}
| 43> Nuclei = all V {aiso,adip,aorb,fgrad,rho}
| 44> end
| 45>
| 46>                          ****END OF INPUT****

CARTESIAN COORDINATES (ANGSTROEM)
---------------------------------
  V      0.299051    0.153190    0.360290
  S      1.914454   -1.201179   -1.041428
  S      0.289737    1.555965   -1.645410
  S     -0.776972   -1.963693    1.084019
  S     -1.932231    1.051426    0.996520
  O      1.292214    0.753818    1.465156
  C     -0.837040    2.997630   -1.333318
  C     -1.763906    2.901177    1.094881
  C     -0.786269    3.544562    0.096774
  H     -1.657857    3.082312    1.620866
  H     -3.010655    3.374412    0.783198
  H      0.310992    3.386858    0.514963
  H     -0.971555    4.624302    0.093948
  H     -1.869967    2.712174   -1.575820
  H     -0.529183    3.789737   -2.048417
  C      0.837441   -2.586827   -1.598871
  C      0.500641   -3.273768    0.832175
  C      0.697435   -3.733041   -0.608741
  H      0.175351   -4.230347    1.519204
  H      1.469271   -2.888610    1.223722
  H     -0.187137   -4.397174   -0.927268
  H      1.643357   -4.399133   -0.649667
  H      1.378158   -3.082287   -2.801675
  H     -0.205016   -2.156920   -1.854615

 Total Charge           Charge          ....   -2
 Multiplicity           Mult            ....    2
 Number of Electrons    NEL             ....  145
 Basis Dimension        Dim             ....  353

ORBITAL ENERGIES
----------------
                 SPIN UP ORBITALS
  NO   OCC          E(Eh)            E(eV)
   0   1.0000    -196.612431     -5350.0962
   1   1.0000     -88.567877     -2410.0545
   2   1.0000     -88.567172     -2410.0353
   3   1.0000     -88.565570     -2409.9917
   4   1.0000     -88.565234     -2409.9825
   5   1.0000     -21.987741      -598.3169
   6   1.0000     -18.830226      -512.3965
   7   1.0000     -18.495517      -503.2886
   8   1.0000     -18.488364      -503.0940
   9   1.0000     -18.488271      -503.0914
  10   1.0000      -9.972737      -271.3720
  11   1.0000      -9.956856      -270.9398
  12   1.0000      -9.954826      -270.8846
  13   1.0000      -9.949075      -270.7281
  14   1.0000      -9.942156      -270.5398
  15   1.0000      -9.941354      -270.5180
  16   1.0000      -7.622055      -207.4067
  17   1.0000      -7.620928      -207.3760
  18   1.0000      -7.619809      -207.3455
  19   1.0000      -7.619082      -207.3258
  20   1.0000      -5.587300      -152.0382
  21   1.0000      -5.586452      -152.0151
  22   1.0000      -5.585171      -151.9802
  23   1.0000      -5.584474      -151.9613
  24   1.0000      -5.581006      -151.8669
  25   1.0000      -5.580018      -151.8400
  26   1.0000      -5.579248      -151.8191
  27   1.0000      -5.578991      -151.8121
  28   1.0000      -5.577915      -151.7828
  29   1.0000      -5.577819      -151.7802
  30   1.0000      -5.576767      -151.7515
  31   1.0000      -5.576255      -151.7376
  32   1.0000      -2.380498       -64.7766
  33   1.0000      -1.423194       -38.7271
  34   1.0000      -1.408651       -38.3314
  35   1.0000      -1.408159       -38.3179
  36   1.0000      -0.592738       -16.1292
  37   1.0000      -0.574824       -15.6417
  38   1.0000      -0.551785       -15.0148
  39   1.0000      -0.500963       -13.6319
  40   1.0000      -0.459577       -12.5057
  41   1.0000      -0.406905       -11.0725
  42   1.0000      -0.399572       -10.8729
  43   1.0000      -0.368294       -10.0218
  44   1.0000      -0.333158        -9.0657
  45   1.0000      -0.314755        -8.5649
  46   1.0000      -0.270700        -7.3661
  47   1.0000      -0.224878        -6.1193
  48   1.0000      -0.209446        -5.6993
  49   1.0000      -0.195951        -5.3321
  50   1.0000      -0.187665        -5.1066
  51   1.0000      -0.154183        -4.1955
  52   1.0000      -0.135007        -3.6737
  53   1.0000      -0.133488        -3.6324
  54   1.0000      -0.129574        -3.5259
  55   1.0000      -0.098346        -2.6761
  56   1.0000      -0.090611        -2.4656
  57   1.0000      -0.085456        -2.3254
  58   1.0000      -0.071235        -1.9384
  59   1.0000      -0.068216        -1.8562
  60   1.0000      -0.060100        -1.6354
  61   1.0000      -0.050534        -1.3751
  62   1.0000      -0.046692        -1.2706
  63   1.0000      -0.042095        -1.1455
  64   1.0000      -0.004509        -0.1227
  65   1.0000       0.022594         0.6148
  66   1.0000       0.025509         0.6941
  67   1.0000       0.030719         0.8359
  68   1.0000       0.040834         1.1112
  69   1.0000       0.048431         1.3179
  70   1.0000       0.058837         1.6010
  71   1.0000       0.066025         1.7966
  72   1.0000       0.074757         2.0342
  73   0.0000       0.227860         6.2004
  74   0.0000       0.238078         6.4784
  75   0.0000       0.240423         6.5422
  76   0.0000       0.243356         6.6221
  77   0.0000       0.245217         6.6727

                 SPIN DOWN ORBITALS
  NO   OCC          E(Eh)            E(eV)
   0   1.0000    -196.612574     -5350.1001
   1   1.0000     -88.568037     -2410.0588
   2   1.0000     -88.567279     -2410.0382
   3   1.0000     -88.565543     -2409.9909
   4   1.0000     -88.565413     -2409.9874
   5   1.0000     -21.972690      -597.9073
   6   1.0000     -18.833720      -512.4916
   7   1.0000     -18.490305      -503.1468
   8   1.0000     -18.472289      -502.6565
   9   1.0000     -18.471832      -502.6441
  10   1.0000      -9.972669      -271.3701
  11   1.0000      -9.956665      -270.9346
  12   1.0000      -9.954647      -270.8797
  13   1.0000      -9.949034      -270.7270
  14   1.0000      -9.942169      -270.5402
  15   1.0000      -9.941223      -270.5144
  16   1.0000      -7.622207      -207.4108
  17   1.0000      -7.621029      -207.3787
  18   1.0000      -7.619785      -207.3449
  19   1.0000      -7.619256      -207.3305
  20   1.0000      -5.587454      -152.0423
  21   1.0000      -5.586578      -152.0185
  22   1.0000      -5.585187      -151.9807
  23   1.0000      -5.584644      -151.9659
  24   1.0000      -5.581427      -151.8784
  25   1.0000      -5.580432      -151.8513
  26   1.0000      -5.579368      -151.8223
  27   1.0000      -5.579323      -151.8211
  28   1.0000      -5.578376      -151.7953
  29   1.0000      -5.577748      -151.7782
  30   1.0000      -5.576391      -151.7413
  31   1.0000      -5.576306      -151.7390
  32   1.0000      -2.335560       -63.5538
  33   1.0000      -1.404151       -38.2089
  34   1.0000      -1.346990       -36.6535
  35   1.0000      -1.345271       -36.6067
  36   1.0000      -0.600205       -16.3324
  37   1.0000      -0.574714       -15.6388
  38   1.0000      -0.551619       -15.0103
  39   1.0000      -0.500903       -13.6303
  40   1.0000      -0.459456       -12.5024
  41   1.0000      -0.406974       -11.0743
  42   1.0000      -0.399722       -10.8770
  43   1.0000      -0.368599       -10.0301
  44   1.0000      -0.333280        -9.0690
  45   1.0000      -0.314914        -8.5693
  46   1.0000      -0.270610        -7.3637
  47   1.0000      -0.224722        -6.1150
  48   1.0000      -0.209336        -5.6963
  49   1.0000      -0.195779        -5.3274
  50   1.0000      -0.187595        -5.1047
  51   1.0000      -0.153935        -4.1888
  52   1.0000      -0.134804        -3.6682
  53   1.0000      -0.133263        -3.6263
  54   1.0000      -0.129470        -3.5231
  55   1.0000      -0.097846        -2.6625
  56   1.0000      -0.090580        -2.4648
  57   1.0000      -0.084588        -2.3018
  58   1.0000      -0.069331        -1.8866
  59   1.0000      -0.067471        -1.8360
  60   1.0000      -0.059986        -1.6323
  61   1.0000      -0.051620        -1.4047
  62   1.0000      -0.047181        -1.2839
  63   1.0000      -0.043471        -1.1829
  64   1.0000      -0.000050        -0.0014
  65   1.0000       0.023866         0.6494
  66   1.0000       0.028586         0.7779
  67   1.0000       0.039487         1.0745
  68   1.0000       0.041472         1.1285
  69   1.0000       0.055869         1.5203
  70   1.0000       0.062985         1.7139
  71   1.0000       0.066942         1.8216
  72   0.0000       0.225658         6.1405
  73   0.0000       0.235972         6.4211
  74   0.0000       0.247834         6.7439
  75   0.0000       0.250642         6.8203
  76   0.0000       0.258466         7.0332

MULLIKEN ATOMIC CHARGES AND SPIN POPULATIONS
--------------------------------------------
   0 V :    0.517543    1.192534
   1 S :   -0.391503   -0.001134
   2 S :   -0.345676   -0.033474
   3 S :   -0.392758   -0.029093
   4 S :   -0.382968   -0.021958
   5 O :   -0.544032   -0.134825
   6 C :   -0.223516    0.006131
   7 C :   -0.267570    0.010649
   8 C :   -0.194894    0.002960
   9 H :    0.239027   -0.004336
  10 H :   -0.062401    0.002387
  11 H :    0.117243    0.000456
  12 H :    0.023227    0.000065
  13 H :    0.096389   -0.000179
  14 H :    0.045993   -0.000151
  15 C :   -0.209097   -0.001687
  16 C :   -0.242553    0.003291
  17 C :   -0.042831    0.008633
  18 H :    0.010770   -0.000334
  19 H :    0.135615   -0.000239
  20 H :    0.014508    0.001663
  21 H :    0.012996    0.000302
  22 H :   -0.053386   -0.002385
  23 H :    0.139873    0.000726
Sum of atomic charges         :   -2.0000000

LOEWDIN ATOMIC CHARGES AND SPIN POPULATIONS
-------------------------------------------
   0 V :   -0.214254    1.149204
   1 S :   -0.054495    0.004152
   2 S :   -0.034063   -0.023047
   3 S :   -0.053628   -0.020347
   4 S :   -0.036571   -0.012934
   5 O :   -0.375040   -0.121504
   6 C :   -0.326199    0.005252
   7 C :   -0.109534    0.006708
   8 C :   -0.166837    0.000642
   9 H :   -0.225191    0.000893
  10 H :    0.020597    0.000939
  11 H :    0.084818    0.000256
  12 H :    0.032851    0.000150
  13 H :    0.048101   -0.000069
  14 H :    0.030052   -0.000579
  15 C :   -0.327926    0.003244
  16 C :   -0.336833    0.007421
  17 C :   -0.208799    0.001078
  18 H :    0.032875   -0.000491
  19 H :    0.058073   -0.000640
  20 H :    0.042591    0.000674
  21 H :    0.042645    0.000486
  22 H :    0.009853   -0.001914
  23 H :    0.066914    0.000429

  Mayer bond orders larger than 0.100000
B(  0-V ,  1-S ) :   0.6996 B(  0-V ,  2-S ) :   0.8654 B(  0-V ,  3-S ) :   0.7680
B(  0-V ,  4-S ) :   0.7742 B(  0-V ,  5-O ) :   2.0716 B(  1-S , 15-C ) :   1.0371
B(  2-S ,  6-C ) :   1.0092 B(  3-S , 16-C ) :   1.0252 B(  4-S ,  7-C ) :   1.0137
B(  6-C ,  8-C ) :   0.9131 B(  6-C , 13-H ) :   0.9690 B(  6-C , 14-H ) :   0.9691
B(  7-C ,  8-C ) :   0.8931 B(  7-C ,  9-H ) :   0.9677 B(  7-C , 10-H ) :   0.9676
B(  8-C , 11-H ) :   0.9846 B(  8-C , 12-H ) :   0.9437 B( 15-C , 17-C ) :   0.9075
B( 15-C , 22-H ) :   0.9166 B( 15-C , 23-H ) :   0.9610 B( 16-C , 17-C ) :   0.9008
B( 16-C , 18-H ) :   0.9467 B( 16-C , 19-H ) :   0.9658 B( 17-C , 20-H ) :   0.9512
B( 17-C , 21-H ) :   0.9500

FINAL SINGLE POINT ENERGY     -2847.060932271484

DIPOLE MOMENT
-------------
                                X             Y             Z
Electronic contribution:      4.38949       1.22302       5.43585
Nuclear contribution   :     -4.58963      -0.85425      -5.47458
                        -----------------------------------------
Total Dipole Moment    :     -0.20015       0.36877      -0.03873
                        -----------------------------------------
Magnitude (a.u.)       :      0.42136
Magnitude (Debye)      :      1.07102

Rotational constants in cm-1:     0.027169     0.011716     0.009593
Rotational constants in MHz :   814.507927   351.240769   287.602206

                             ****ORCA TERMINATED NORMALLY****
TOTAL RUN TIME: 0 days 0 hours 14 minutes 18 seconds 853 msec
