                         Program Version 5.0.4 -  RELEASE  -
|  1> ! nofrozencore ReducedPop printbasis
|  2> ! B3LYP TZVP
|  3>
|  4> %basis
|  5> newgto V "CP(PPP)" end
|  6> end
|  7>
|  8> %pal
|  9> nprocs 8
| 10> end
| 11>
| 12> % sym SymThresh 1e-2 end
| 13> * xyz -2 2
| 14> V 0.2568940798142603 -0.2251765137792732 -0.35163352312257895
| 15> S 0.06688637306012465 2.065233982483291 -1.3734966422678538
| 16> S 1.5844576817486864 1.0294842828524595 1.2822688579098123
| 17> S -2.1313060032503826 -0.6696743028617053 -0.7662937328893991
| 18> S -0.15258584540727596 -1.996251996982629 1.3500701795214993
| 19> O 1.2150559570598498 -0.930818810721501 -1.4238853168055294
| 20> C 2.2226827927297625 -0.16627159041762893 2.5490740859671015
| 21> C 1.499200937339943 -2.564712784502049 1.970791312654077
| 22> C 2.6298345063829767 -1.530193660594226 1.9792495869461857
| 23> H 1.8202202299197487 -3.4326760935294764 1.3829035358737458
| 24> H 1.3358014787582215 -2.916103486672546 2.998047698845628
| 25> H 3.003324062389195 -1.3845958546033683 0.9623890831203528
| 26> H 3.462896607802596 -1.9503806022427885 2.5716802579283318
| 27> H 1.4636871047763214 -0.30980201078825237 3.325389828782043
| 28> H 3.090146840155695 0.3163585349162495 3.0143249976154554
| 29> C -1.7346096507450273 2.5085301983030956 -0.8869277169807285
| 30> C -2.6028046101425524 0.6058965716835667 -2.1132632322384204
| 31> C -2.919970387809928 2.070713719920907 -1.7683506817615275
| 32> H -3.4089927463137917 0.13200759580858218 -2.7232899479254473
| 33> H -1.6885650966850088 0.6671944405054282 -2.7364114395028016
| 34> H -3.8606487583315974 2.2037604149521774 -1.2111236545751631
| 35> H -2.9987761758941898 2.6483214660245467 -2.703959376543962
| 36> H -1.7503609723903968 3.6002443052907194 -0.6768537121618589
| 37> H -1.88325860647268 1.9860949289194871 0.07387792593107037
| 38> *
| 39>
| 40> % eprnmr
| 41> gtensor true
| 42> Nuclei = all H {aiso,adip,aorb,fgrad,rho}
| 43> Nuclei = all V {aiso,adip,aorb,fgrad,rho}
| 44> end
| 45>
| 46>                          ****END OF INPUT****

CARTESIAN COORDINATES (ANGSTROEM)
---------------------------------
  V      0.257100   -0.225374   -0.352333
  S      0.067092    2.065037   -1.374196
  S      1.584663    1.029287    1.281570
  S     -2.131100   -0.669871   -0.766993
  S     -0.152380   -1.996449    1.349371
  O      1.215262   -0.931016   -1.424584
  C      2.222888   -0.166469    2.548375
  C      1.499406   -2.564910    1.970092
  C      2.630040   -1.530391    1.978551
  H      1.820426   -3.432873    1.382205
  H      1.336007   -2.916300    2.997349
  H      3.003530   -1.384793    0.961690
  H      3.463102   -1.950578    2.570981
  H      1.463893   -0.309999    3.324691
  H      3.090352    0.316162    3.013626
  C     -1.734404    2.508333   -0.887627
  C     -2.602599    0.605700   -2.113962
  C     -2.919765    2.070517   -1.769050
  H     -3.408787    0.131811   -2.723989
  H     -1.688360    0.666997   -2.737110
  H     -3.860443    2.203563   -1.211823
  H     -2.998571    2.648124   -2.704658
  H     -1.750155    3.600047   -0.677553
  H     -1.883053    1.985898    0.073179

 Total Charge           Charge          ....   -2
 Multiplicity           Mult            ....    2
 Number of Electrons    NEL             ....  145
 Basis Dimension        Dim             ....  353

ORBITAL ENERGIES
----------------
                 SPIN UP ORBITALS
  NO   OCC          E(Eh)            E(eV)
   0   1.0000    -196.606363     -5349.9311
   1   1.0000     -88.566691     -2410.0222
   2   1.0000     -88.562853     -2409.9177
   3   1.0000     -88.560407     -2409.8512
   4   1.0000     -88.558649     -2409.8033
   5   1.0000     -21.981987      -598.1603
   6   1.0000     -18.824424      -512.2386
   7   1.0000     -18.489669      -503.1295
   8   1.0000     -18.482634      -502.9380
   9   1.0000     -18.482548      -502.9357
  10   1.0000      -9.942159      -270.5399
  11   1.0000      -9.940269      -270.4885
  12   1.0000      -9.939008      -270.4541
  13   1.0000      -9.938337      -270.4359
  14   1.0000      -9.934742      -270.3381
  15   1.0000      -9.928669      -270.1728
  16   1.0000      -7.619758      -207.3442
  17   1.0000      -7.615992      -207.2417
  18   1.0000      -7.614290      -207.1954
  19   1.0000      -7.612956      -207.1591
  20   1.0000      -5.585239      -151.9821
  21   1.0000      -5.581545      -151.8816
  22   1.0000      -5.579678      -151.8308
  23   1.0000      -5.578645      -151.8026
  24   1.0000      -5.578394      -151.7958
  25   1.0000      -5.576977      -151.7572
  26   1.0000      -5.575109      -151.7064
  27   1.0000      -5.573118      -151.6523
  28   1.0000      -5.573030      -151.6498
  29   1.0000      -5.571977      -151.6212
  30   1.0000      -5.571471      -151.6074
  31   1.0000      -5.569884      -151.5642
  32   1.0000      -2.374780       -64.6210
  33   1.0000      -1.417446       -38.5707
  34   1.0000      -1.403031       -38.1784
  35   1.0000      -1.402468       -38.1631
  36   1.0000      -0.587021       -15.9736
  37   1.0000      -0.551152       -14.9976
  38   1.0000      -0.549530       -14.9535
  39   1.0000      -0.468935       -12.7604
  40   1.0000      -0.448708       -12.2100
  41   1.0000      -0.405003       -11.0207
  42   1.0000      -0.396629       -10.7928
  43   1.0000      -0.338513        -9.2114
  44   1.0000      -0.327213        -8.9039
  45   1.0000      -0.304928        -8.2975
  46   1.0000      -0.287749        -7.8301
  47   1.0000      -0.210376        -5.7246
  48   1.0000      -0.208211        -5.6657
  49   1.0000      -0.207177        -5.6376
  50   1.0000      -0.197875        -5.3845
  51   1.0000      -0.160457        -4.3662
  52   1.0000      -0.133633        -3.6363
  53   1.0000      -0.123351        -3.3565
  54   1.0000      -0.111805        -3.0424
  55   1.0000      -0.105998        -2.8844
  56   1.0000      -0.098040        -2.6678
  57   1.0000      -0.082117        -2.2345
  58   1.0000      -0.071878        -1.9559
  59   1.0000      -0.063367        -1.7243
  60   1.0000      -0.052873        -1.4388
  61   1.0000      -0.045692        -1.2433
  62   1.0000      -0.039847        -1.0843
  63   1.0000      -0.035480        -0.9655
  64   1.0000      -0.000034        -0.0009
  65   1.0000       0.027294         0.7427
  66   1.0000       0.028655         0.7797
  67   1.0000       0.037425         1.0184
  68   1.0000       0.044211         1.2031
  69   1.0000       0.051430         1.3995
  70   1.0000       0.062139         1.6909
  71   1.0000       0.071662         1.9500
  72   1.0000       0.080391         2.1876
  73   0.0000       0.234658         6.3854
  74   0.0000       0.246985         6.7208
  75   0.0000       0.250226         6.8090
  76   0.0000       0.252008         6.8575
  77   0.0000       0.257049         6.9946

                 SPIN DOWN ORBITALS
  NO   OCC          E(Eh)            E(eV)
   0   1.0000    -196.606504     -5349.9350
   1   1.0000     -88.566861     -2410.0268
   2   1.0000     -88.562846     -2409.9176
   3   1.0000     -88.560581     -2409.8559
   4   1.0000     -88.558749     -2409.8061
   5   1.0000     -21.966974      -597.7517
   6   1.0000     -18.827885      -512.3328
   7   1.0000     -18.484480      -502.9883
   8   1.0000     -18.466643      -502.5029
   9   1.0000     -18.466098      -502.4881
  10   1.0000      -9.941987      -270.5352
  11   1.0000      -9.940222      -270.4872
  12   1.0000      -9.938919      -270.4517
  13   1.0000      -9.938120      -270.4300
  14   1.0000      -9.934616      -270.3347
  15   1.0000      -9.928689      -270.1734
  16   1.0000      -7.619919      -207.3485
  17   1.0000      -7.615987      -207.2415
  18   1.0000      -7.614461      -207.2000
  19   1.0000      -7.613051      -207.1617
  20   1.0000      -5.585416      -151.9869
  21   1.0000      -5.581579      -151.8825
  22   1.0000      -5.579842      -151.8352
  23   1.0000      -5.579074      -151.8143
  24   1.0000      -5.578512      -151.7990
  25   1.0000      -5.577108      -151.7608
  26   1.0000      -5.575455      -151.7158
  27   1.0000      -5.573573      -151.6646
  28   1.0000      -5.572623      -151.6388
  29   1.0000      -5.572380      -151.6322
  30   1.0000      -5.571599      -151.6109
  31   1.0000      -5.569798      -151.5619
  32   1.0000      -2.329948       -63.4011
  33   1.0000      -1.398470       -38.0543
  34   1.0000      -1.341590       -36.5065
  35   1.0000      -1.339634       -36.4533
  36   1.0000      -0.594419       -16.1750
  37   1.0000      -0.551062       -14.9952
  38   1.0000      -0.549320       -14.9478
  39   1.0000      -0.468890       -12.7592
  40   1.0000      -0.448548       -12.2056
  41   1.0000      -0.405040       -11.0217
  42   1.0000      -0.396776       -10.7968
  43   1.0000      -0.338683        -9.2160
  44   1.0000      -0.327626        -8.9152
  45   1.0000      -0.304884        -8.2963
  46   1.0000      -0.287755        -7.8302
  47   1.0000      -0.210286        -5.7222
  48   1.0000      -0.208076        -5.6620
  49   1.0000      -0.207120        -5.6360
  50   1.0000      -0.197698        -5.3796
  51   1.0000      -0.160335        -4.3629
  52   1.0000      -0.133382        -3.6295
  53   1.0000      -0.123175        -3.3518
  54   1.0000      -0.111799        -3.0422
  55   1.0000      -0.105803        -2.8790
  56   1.0000      -0.097925        -2.6647
  57   1.0000      -0.080670        -2.1951
  58   1.0000      -0.069625        -1.8946
  59   1.0000      -0.062353        -1.6967
  60   1.0000      -0.053395        -1.4530
  61   1.0000      -0.046974        -1.2782
  62   1.0000      -0.039690        -1.0800
  63   1.0000      -0.036600        -0.9959
  64   1.0000       0.004072         0.1108
  65   1.0000       0.029321         0.7979
  66   1.0000       0.030876         0.8402
  67   1.0000       0.043353         1.1797
  68   1.0000       0.045866         1.2481
  69   1.0000       0.058709         1.5976
  70   1.0000       0.067571         1.8387
  71   1.0000       0.073612         2.0031
  72   0.0000       0.232321         6.3218
  73   0.0000       0.250473         6.8157
  74   0.0000       0.255352         6.9485
  75   0.0000       0.259494         7.0612
  76   0.0000       0.265274         7.2185

MULLIKEN ATOMIC CHARGES AND SPIN POPULATIONS
--------------------------------------------
   0 V :    0.527553    1.192633
   1 S :   -0.420624   -0.004337
   2 S :   -0.353216   -0.032967
   3 S :   -0.404887   -0.032171
   4 S :   -0.385446   -0.021194
   5 O :   -0.543292   -0.133673
   6 C :   -0.245803    0.005337
   7 C :   -0.235287    0.006367
   8 C :   -0.157478    0.003043
   9 H :    0.074542   -0.000881
  10 H :    0.051409    0.002120
  11 H :    0.138103    0.000622
  12 H :    0.005435   -0.000052
  13 H :    0.095397   -0.000108
  14 H :    0.048614   -0.000082
  15 C :   -0.296092    0.000712
  16 C :   -0.291353    0.007536
  17 C :   -0.057802    0.006009
  18 H :    0.047171    0.000497
  19 H :    0.144514   -0.000560
  20 H :    0.029670    0.001143
  21 H :    0.024303    0.000687
  22 H :    0.055685   -0.000501
  23 H :    0.148883   -0.000180
Sum of atomic charges         :   -2.0000000

LOEWDIN ATOMIC CHARGES AND SPIN POPULATIONS
-------------------------------------------
   0 V :   -0.218344    1.147963
   1 S :   -0.086095    0.001632
   2 S :   -0.038844   -0.022602
   3 S :   -0.072161   -0.022013
   4 S :   -0.064386   -0.012241
   5 O :   -0.376134   -0.120279
   6 C :   -0.327024    0.004959
   7 C :   -0.314584    0.006691
   8 C :   -0.187226    0.000463
   9 H :    0.035913    0.000006
  10 H :    0.029159    0.000622
  11 H :    0.070012    0.000316
  12 H :    0.031385    0.000142
  13 H :    0.045217   -0.000061
  14 H :    0.027522   -0.000553
  15 C :   -0.310975    0.004042
  16 C :   -0.322136    0.009627
  17 C :   -0.180944    0.001278
  18 H :    0.026665    0.000129
  19 H :    0.061690   -0.000745
  20 H :    0.039864    0.000445
  21 H :    0.038757    0.000501
  22 H :    0.029764   -0.000455
  23 H :    0.062905    0.000134

  Mayer bond orders larger than 0.100000
B(  0-V ,  1-S ) :   0.7102 B(  0-V ,  2-S ) :   0.8582 B(  0-V ,  3-S ) :   0.7715
B(  0-V ,  4-S ) :   0.7737 B(  0-V ,  5-O ) :   2.0742 B(  1-S , 15-C ) :   1.0157
B(  2-S ,  6-C ) :   1.0113 B(  3-S , 16-C ) :   1.0084 B(  4-S ,  7-C ) :   1.0663
B(  6-C ,  8-C ) :   0.9006 B(  6-C , 13-H ) :   0.9750 B(  6-C , 14-H ) :   0.9680
B(  7-C ,  8-C ) :   0.9201 B(  7-C ,  9-H ) :   0.9763 B(  7-C , 10-H ) :   0.9696
B(  8-C , 11-H ) :   0.9878 B(  8-C , 12-H ) :   0.9456 B( 15-C , 17-C ) :   0.8957
B( 15-C , 22-H ) :   0.9708 B( 15-C , 23-H ) :   0.9786 B( 16-C , 17-C ) :   0.9027
B( 16-C , 18-H ) :   0.9636 B( 16-C , 19-H ) :   0.9735 B( 17-C , 20-H ) :   0.9571
B( 17-C , 21-H ) :   0.9569

FINAL SINGLE POINT ENERGY     -2847.705708264210

DIPOLE MOMENT
-------------
                                X             Y             Z
Electronic contribution:      2.46357      -2.40752      -5.14824
Nuclear contribution   :     -2.47721       2.47760       5.59847
                        -----------------------------------------
Total Dipole Moment    :     -0.01364       0.07008       0.45022
                        -----------------------------------------
Magnitude (a.u.)       :      0.45585
Magnitude (Debye)      :      1.15867

Rotational constants in cm-1:     0.027157     0.011656     0.009554
Rotational constants in MHz :   814.148658   349.441225   286.425587

                             ****ORCA TERMINATED NORMALLY****
TOTAL RUN TIME: 0 days 0 hours 9 minutes 35 seconds 751 msec
