                         Program Version 5.0.4 -  RELEASE  -
|  1> ! nofrozencore ReducedPop printbasis
|  2> ! B3LYP TZVP
|  3>
|  4> %basis
|  5> newgto V "CP(PPP)" end
|  6> end
|  7>
|  8> %pal
|  9> nprocs 4
| 10> end
| 11>
| 12> % sym SymThresh 1e-2 end
| 13> * xyz -2 2
| 14> V -0.21625238115976286 0.37613295630682647 0.23175406915007893
| 15> S 1.9317329239905485 0.18073689857719077 1.5595676470001625
| 16> S 1.352587919016522 1.0117415307806519 -1.5366140809465396
| 17> S -0.9982931999013424 -1.735963510636405 1.273027119192151
| 18> S -1.8755508665331664 -0.31059281380699677 -1.4893903170375251
| 19> O -0.8656570692228894 1.6776018410205418 0.9049536122022643
| 20> C 0.37130493633169454 1.3848403119242394 -3.0691548923536414
| 21> C -2.147363118620537 1.1407005824450964 -2.6079198115781286
| 22> C -0.9598556704933601 2.093466125638077 -2.805233159825693
| 23> H -3.0051166885933718 1.7160978907579478 -2.2404359212683875
| 24> H -2.429101716790279 0.7356320155156788 -3.588914402078553
| 25> H -0.8666087396438903 2.7234938519099083 -1.916773145007974
| 26> H -1.2057730832446993 2.7612131054049236 -3.6508163702023784
| 27> H 0.1951151038751911 0.4519308062316413 -3.6149284922642098
| 28> H 1.0124722929754486 2.0210734317309407 -3.6903013947775807
| 29> C 2.22768098753764 -1.6601847917562293 1.5830497304824793
| 30> C -0.019590367048829143 -1.8873526049625302 2.8203872753602557
| 31> C 1.3073554804639722 -2.4111479368007367 2.717845841358992
| 32> H -0.3984963275093517 -2.658893603687878 3.5321853221701507
| 33> H -0.13363578143800117 -0.9273051119464484 3.334090532250203
| 34> H 1.7708365070867822 -3.437147481507617 2.2599294660065246
| 35> H 2.2599354093615687 -2.214846516080638 3.44063822562969
| 36> H 3.3334498656029217 -1.7050138296295445 1.6213144075437247
| 37> H 1.8530615450458074 -2.0907306936735663 0.6456800794539774
| 38> *
| 39>
| 40> % eprnmr
| 41> gtensor true
| 42> Nuclei = all H {aiso,adip,aorb,fgrad,rho}
| 43> Nuclei = all V {aiso,adip,aorb,fgrad,rho}
| 44> end
| 45>
| 46>                          ****END OF INPUT****

CARTESIAN COORDINATES (ANGSTROEM)
---------------------------------
  V     -0.216476    0.376555    0.232339
  S      1.931509    0.181159    1.560152
  S      1.352364    1.012164   -1.536029
  S     -0.998517   -1.735541    1.273612
  S     -1.875775   -0.310171   -1.488806
  O     -0.865881    1.678024    0.905538
  C      0.371081    1.385263   -3.068570
  C     -2.147587    1.141123   -2.607335
  C     -0.960080    2.093888   -2.804648
  H     -3.005341    1.716520   -2.239851
  H     -2.429326    0.736054   -3.588330
  H     -0.866833    2.723916   -1.916188
  H     -1.205997    2.761635   -3.650232
  H      0.194891    0.452353   -3.614344
  H      1.012248    2.021496   -3.689717
  C      2.227457   -1.659763    1.583635
  C     -0.019814   -1.886930    2.820972
  C      1.307132   -2.410726    2.718431
  H     -0.398720   -2.658471    3.532770
  H     -0.133860   -0.926883    3.334675
  H      1.770613   -3.436725    2.260514
  H      2.259712   -2.214424    3.441223
  H      3.333226   -1.704592    1.621899
  H      1.852838   -2.090308    0.646265

 Total Charge           Charge          ....   -2
 Multiplicity           Mult            ....    2
 Number of Electrons    NEL             ....  145
 Basis Dimension        Dim             ....  353

ORBITAL ENERGIES
----------------
                 SPIN UP ORBITALS
  NO   OCC          E(Eh)            E(eV)
   0   1.0000    -196.608548     -5349.9906
   1   1.0000     -88.568183     -2410.0628
   2   1.0000     -88.561101     -2409.8701
   3   1.0000     -88.560552     -2409.8551
   4   1.0000     -88.555576     -2409.7197
   5   1.0000     -21.983843      -598.2108
   6   1.0000     -18.826310      -512.2899
   7   1.0000     -18.491659      -503.1836
   8   1.0000     -18.484456      -502.9876
   9   1.0000     -18.484350      -502.9847
  10   1.0000      -9.955301      -270.8975
  11   1.0000      -9.944687      -270.6087
  12   1.0000      -9.943793      -270.5844
  13   1.0000      -9.938399      -270.4376
  14   1.0000      -9.935671      -270.3634
  15   1.0000      -9.929766      -270.2027
  16   1.0000      -7.622484      -207.4183
  17   1.0000      -7.614936      -207.2129
  18   1.0000      -7.614891      -207.2117
  19   1.0000      -7.609803      -207.0733
  20   1.0000      -5.587967      -152.0563
  21   1.0000      -5.581257      -151.8737
  22   1.0000      -5.580334      -151.8486
  23   1.0000      -5.580318      -151.8482
  24   1.0000      -5.579557      -151.8275
  25   1.0000      -5.574792      -151.6978
  26   1.0000      -5.573912      -151.6738
  27   1.0000      -5.573770      -151.6700
  28   1.0000      -5.572089      -151.6243
  29   1.0000      -5.571840      -151.6175
  30   1.0000      -5.569129      -151.5437
  31   1.0000      -5.567043      -151.4869
  32   1.0000      -2.376439       -64.6662
  33   1.0000      -1.419179       -38.6178
  34   1.0000      -1.404588       -38.2208
  35   1.0000      -1.403945       -38.2033
  36   1.0000      -0.588780       -16.0215
  37   1.0000      -0.557651       -15.1745
  38   1.0000      -0.552216       -15.0265
  39   1.0000      -0.471140       -12.8204
  40   1.0000      -0.469683       -12.7807
  41   1.0000      -0.403154       -10.9704
  42   1.0000      -0.395635       -10.7658
  43   1.0000      -0.345301        -9.3961
  44   1.0000      -0.329411        -8.9637
  45   1.0000      -0.305182        -8.3044
  46   1.0000      -0.278861        -7.5882
  47   1.0000      -0.215612        -5.8671
  48   1.0000      -0.208187        -5.6651
  49   1.0000      -0.200019        -5.4428
  50   1.0000      -0.197402        -5.3716
  51   1.0000      -0.168378        -4.5818
  52   1.0000      -0.161491        -4.3944
  53   1.0000      -0.118144        -3.2149
  54   1.0000      -0.112029        -3.0485
  55   1.0000      -0.108172        -2.9435
  56   1.0000      -0.092456        -2.5158
  57   1.0000      -0.076380        -2.0784
  58   1.0000      -0.065424        -1.7803
  59   1.0000      -0.055043        -1.4978
  60   1.0000      -0.050171        -1.3652
  61   1.0000      -0.047110        -1.2819
  62   1.0000      -0.040267        -1.0957
  63   1.0000      -0.028512        -0.7759
  64   1.0000      -0.002054        -0.0559
  65   1.0000       0.025450         0.6925
  66   1.0000       0.029126         0.7925
  67   1.0000       0.035119         0.9556
  68   1.0000       0.045412         1.2357
  69   1.0000       0.051226         1.3939
  70   1.0000       0.061691         1.6787
  71   1.0000       0.071847         1.9550
  72   1.0000       0.081983         2.2309
  73   0.0000       0.233033         6.3411
  74   0.0000       0.244568         6.6550
  75   0.0000       0.248204         6.7540
  76   0.0000       0.249064         6.7774
  77   0.0000       0.251187         6.8351

                 SPIN DOWN ORBITALS
  NO   OCC          E(Eh)            E(eV)
   0   1.0000    -196.608689     -5349.9944
   1   1.0000     -88.568336     -2410.0670
   2   1.0000     -88.561280     -2409.8750
   3   1.0000     -88.560653     -2409.8579
   4   1.0000     -88.555538     -2409.7187
   5   1.0000     -21.968825      -597.8021
   6   1.0000     -18.829782      -512.3844
   7   1.0000     -18.486466      -503.0423
   8   1.0000     -18.468425      -502.5514
   9   1.0000     -18.467929      -502.5379
  10   1.0000      -9.955253      -270.8962
  11   1.0000      -9.944519      -270.6041
  12   1.0000      -9.943610      -270.5794
  13   1.0000      -9.938340      -270.4360
  14   1.0000      -9.935547      -270.3600
  15   1.0000      -9.929786      -270.2032
  16   1.0000      -7.622630      -207.4223
  17   1.0000      -7.615111      -207.2177
  18   1.0000      -7.614986      -207.2143
  19   1.0000      -7.609769      -207.0723
  20   1.0000      -5.588115      -152.0603
  21   1.0000      -5.581661      -151.8847
  22   1.0000      -5.580501      -151.8531
  23   1.0000      -5.580438      -151.8514
  24   1.0000      -5.579673      -151.8306
  25   1.0000      -5.574805      -151.6982
  26   1.0000      -5.574312      -151.6847
  27   1.0000      -5.574233      -151.6826
  28   1.0000      -5.572226      -151.6280
  29   1.0000      -5.571761      -151.6153
  30   1.0000      -5.569471      -151.5530
  31   1.0000      -5.566526      -151.4729
  32   1.0000      -2.331616       -63.4465
  33   1.0000      -1.400200       -38.1014
  34   1.0000      -1.343066       -36.5467
  35   1.0000      -1.341225       -36.4966
  36   1.0000      -0.596216       -16.2239
  37   1.0000      -0.557481       -15.1698
  38   1.0000      -0.552120       -15.0240
  39   1.0000      -0.471012       -12.8169
  40   1.0000      -0.469610       -12.7788
  41   1.0000      -0.403270       -10.9735
  42   1.0000      -0.395738       -10.7686
  43   1.0000      -0.345390        -9.3985
  44   1.0000      -0.329846        -8.9756
  45   1.0000      -0.305166        -8.3040
  46   1.0000      -0.278782        -7.5860
  47   1.0000      -0.215564        -5.8658
  48   1.0000      -0.208128        -5.6635
  49   1.0000      -0.199754        -5.4356
  50   1.0000      -0.197336        -5.3698
  51   1.0000      -0.168300        -4.5797
  52   1.0000      -0.161362        -4.3909
  53   1.0000      -0.117410        -3.1949
  54   1.0000      -0.112017        -3.0481
  55   1.0000      -0.108001        -2.9389
  56   1.0000      -0.091833        -2.4989
  57   1.0000      -0.075617        -2.0576
  58   1.0000      -0.064159        -1.7458
  59   1.0000      -0.053705        -1.4614
  60   1.0000      -0.051371        -1.3979
  61   1.0000      -0.048654        -1.3239
  62   1.0000      -0.040033        -1.0894
  63   1.0000      -0.028918        -0.7869
  64   1.0000       0.002559         0.0696
  65   1.0000       0.026364         0.7174
  66   1.0000       0.032189         0.8759
  67   1.0000       0.041890         1.1399
  68   1.0000       0.045964         1.2508
  69   1.0000       0.060907         1.6574
  70   1.0000       0.069560         1.8928
  71   1.0000       0.072182         1.9642
  72   0.0000       0.231496         6.2993
  73   0.0000       0.245112         6.6699
  74   0.0000       0.253904         6.9091
  75   0.0000       0.255941         6.9645
  76   0.0000       0.262878         7.1533

MULLIKEN ATOMIC CHARGES AND SPIN POPULATIONS
--------------------------------------------
   0 V :    0.526732    1.188735
   1 S :   -0.443102    0.000346
   2 S :   -0.347942   -0.033756
   3 S :   -0.389400   -0.027942
   4 S :   -0.387525   -0.021462
   5 O :   -0.546779   -0.134043
   6 C :   -0.246350    0.005368
   7 C :   -0.234111    0.006850
   8 C :   -0.161223    0.003015
   9 H :    0.075425   -0.000953
  10 H :    0.051333    0.002138
  11 H :    0.139756    0.000527
  12 H :    0.006411   -0.000050
  13 H :    0.095750   -0.000123
  14 H :    0.049347   -0.000115
  15 C :   -0.308184   -0.001283
  16 C :   -0.213234    0.002802
  17 C :   -0.074712    0.007390
  18 H :    0.038732   -0.000356
  19 H :    0.146375   -0.000279
  20 H :    0.006807    0.001726
  21 H :   -0.004320    0.000979
  22 H :    0.071773   -0.000274
  23 H :    0.148439    0.000759
Sum of atomic charges         :   -2.0000000

LOEWDIN ATOMIC CHARGES AND SPIN POPULATIONS
-------------------------------------------
   0 V :   -0.209400    1.145323
   1 S :   -0.083050    0.005558
   2 S :   -0.035407   -0.023270
   3 S :   -0.041603   -0.019386
   4 S :   -0.063222   -0.012234
   5 O :   -0.377073   -0.120765
   6 C :   -0.326586    0.004868
   7 C :   -0.313788    0.007089
   8 C :   -0.187301    0.000450
   9 H :    0.036122   -0.000006
  10 H :    0.029001    0.000652
  11 H :    0.070166    0.000306
  12 H :    0.031596    0.000146
  13 H :    0.045499   -0.000079
  14 H :    0.027854   -0.000562
  15 C :   -0.343001    0.002981
  16 C :   -0.336470    0.006628
  17 C :   -0.222315    0.001505
  18 H :    0.038732   -0.000184
  19 H :    0.069486   -0.000571
  20 H :    0.055307    0.000579
  21 H :    0.052630    0.001032
  22 H :    0.034726   -0.000428
  23 H :    0.048099    0.000370

  Mayer bond orders larger than 0.100000
B(  0-V ,  1-S ) :   0.7191 B(  0-V ,  2-S ) :   0.8643 B(  0-V ,  3-S ) :   0.7543
B(  0-V ,  4-S ) :   0.7754 B(  0-V ,  5-O ) :   2.0735 B(  1-S , 15-C ) :   0.9970
B(  2-S ,  6-C ) :   1.0083 B(  3-S , 16-C ) :   0.9945 B(  4-S ,  7-C ) :   1.0687
B(  6-C ,  8-C ) :   0.9035 B(  6-C , 13-H ) :   0.9742 B(  6-C , 14-H ) :   0.9683
B(  7-C ,  8-C ) :   0.9166 B(  7-C ,  9-H ) :   0.9772 B(  7-C , 10-H ) :   0.9687
B(  8-C , 11-H ) :   0.9884 B(  8-C , 12-H ) :   0.9459 B( 15-C , 17-C ) :   0.8078
B( 15-C , 22-H ) :   0.9728 B( 15-C , 23-H ) :   0.9741 B( 16-C , 17-C ) :   0.9702
B( 16-C , 18-H ) :   0.9529 B( 16-C , 19-H ) :   0.9592 B( 17-C , 20-H ) :   0.9622
B( 17-C , 21-H ) :   0.9338

FINAL SINGLE POINT ENERGY     -2847.640838690652

DIPOLE MOMENT
-------------
                                X             Y             Z
Electronic contribution:     -3.21128       4.13776       4.11716
Nuclear contribution   :      3.21232      -4.14901      -4.67790
                        -----------------------------------------
Total Dipole Moment    :      0.00105      -0.01125      -0.56074
                        -----------------------------------------
Magnitude (a.u.)       :      0.56086
Magnitude (Debye)      :      1.42559

Rotational constants in cm-1:     0.027169     0.011721     0.009599
Rotational constants in MHz :   814.501514   351.384728   287.773193

                             ****ORCA TERMINATED NORMALLY****
TOTAL RUN TIME: 0 days 0 hours 14 minutes 22 seconds 850 msec
