                         Program Version 5.0.4 -  RELEASE  -
|  1> ! nofrozencore ReducedPop printbasis
|  2> ! B3LYP TZVP
|  3>
|  4> %basis
|  5> newgto V "CP(PPP)" end
|  6> end
|  7>
|  8> %pal
|  9> nprocs 4
| 10> end
| 11>
| 12> % sym SymThresh 1e-2 end
| 13> * xyz -2 2
| 14> V -0.11198847971477664 0.2412899312038033 -0.4135759163404428
| 15> S -1.6180843194085748 -1.7818832494875763 -0.6298453312565597
| 16> S -1.5904496278621802 0.6958023421056282 1.4833804750886987
| 17> S 1.8414308858858133 -1.2217617604230182 -0.8664225433671697
| 18> S 1.6632959294064729 1.6302257790125405 0.6394624610004972
| 19> O -0.5627488271755575 1.0894105913170855 -1.6968804817663772
| 20> C -1.0444004862228176 2.2857595484154825 2.2713025888355323
| 21> C 0.9339416050876327 3.2999917860808052 0.9768167944597166
| 22> C -0.5679257544565521 3.3500196109246736 1.2748527766903348
| 23> H 1.1462175737441995 3.958089577524468 0.12603405749693042
| 24> H 1.4794195228992502 3.7068353935260143 1.8384445186503147
| 25> H -1.1318721004871433 3.2338581350272784 0.34573434492499566
| 26> H -0.8010002900126464 4.358566540625426 1.662475515702761
| 27> H -0.24324736078936046 2.078336105979385 2.9883875504447976
| 28> H -1.9106131713881713 2.6623620653613282 2.8274369922252904
| 29> C -0.5794577748455483 -3.1234526729337193 0.135722088991618
| 30> C 1.1682322405239962 -2.689993479091389 -1.7742235761806033
| 31> C 0.4539266663747809 -3.762932575372194 -0.8798595048771497
| 32> H 2.0317841092175497 -3.2263376693993058 -2.1969186929820825
| 33> H 0.4129165616502861 -2.2949820040195643 -2.457416061298178
| 34> H 1.2790997064040803 -4.0695105085875785 -0.16000036895666445
| 35> H -0.21914457674384794 -4.232098982982585 -1.6675975957713909
| 36> H -1.3036371458714264 -4.010800523209732 0.1537985475247963
| 37> H 0.13334440901944564 -2.4890966067449143 0.761150454656112
| 38> *
| 39>
| 40> % eprnmr
| 41> gtensor true
| 42> Nuclei = all H {aiso,adip,aorb,fgrad,rho}
| 43> Nuclei = all V {aiso,adip,aorb,fgrad,rho}
| 44> end
| 45>
| 46>                          ****END OF INPUT****

CARTESIAN COORDINATES (ANGSTROEM)
---------------------------------
  V     -0.112146    0.241381   -0.414309
  S     -1.618241   -1.781793   -0.630578
  S     -1.590607    0.695893    1.482648
  S      1.841274   -1.221671   -0.867155
  S      1.663139    1.630316    0.638730
  O     -0.562906    1.089501   -1.697613
  C     -1.044558    2.285850    2.270570
  C      0.933784    3.300082    0.976084
  C     -0.568083    3.350110    1.274120
  H      1.146060    3.958180    0.125301
  H      1.479262    3.706926    1.837712
  H     -1.132029    3.233949    0.345001
  H     -0.801157    4.358657    1.661743
  H     -0.243404    2.078427    2.987655
  H     -1.910770    2.662453    2.826704
  C     -0.579615   -3.123362    0.134989
  C      1.168075   -2.689903   -1.774956
  C      0.453770   -3.762842   -0.880592
  H      2.031627   -3.226247   -2.197652
  H      0.412759   -2.294891   -2.458149
  H      1.278943   -4.069420   -0.160733
  H     -0.219302   -4.232008   -1.668331
  H     -1.303794   -4.010710    0.153066
  H      0.133187   -2.489006    0.760418

 Total Charge           Charge          ....   -2
 Multiplicity           Mult            ....    2
 Number of Electrons    NEL             ....  145
 Basis Dimension        Dim             ....  353

ORBITAL ENERGIES
----------------
                 SPIN UP ORBITALS
  NO   OCC          E(Eh)            E(eV)
   0   1.0000    -196.608396     -5349.9865
   1   1.0000     -88.565318     -2409.9848
   2   1.0000     -88.561905     -2409.8919
   3   1.0000     -88.560285     -2409.8479
   4   1.0000     -88.557149     -2409.7625
   5   1.0000     -21.983639      -598.2052
   6   1.0000     -18.826362      -512.2914
   7   1.0000     -18.491437      -503.1776
   8   1.0000     -18.484254      -502.9821
   9   1.0000     -18.484152      -502.9794
  10   1.0000      -9.945204      -270.6228
  11   1.0000      -9.943561      -270.5780
  12   1.0000      -9.938871      -270.4504
  13   1.0000      -9.935981      -270.3718
  14   1.0000      -9.935506      -270.3589
  15   1.0000      -9.929735      -270.2018
  16   1.0000      -7.619503      -207.3372
  17   1.0000      -7.615713      -207.2341
  18   1.0000      -7.614551      -207.2025
  19   1.0000      -7.611602      -207.1222
  20   1.0000      -5.584407      -151.9594
  21   1.0000      -5.581116      -151.8699
  22   1.0000      -5.580009      -151.8398
  23   1.0000      -5.578493      -151.7985
  24   1.0000      -5.577043      -151.7590
  25   1.0000      -5.576511      -151.7446
  26   1.0000      -5.574542      -151.6910
  27   1.0000      -5.573592      -151.6651
  28   1.0000      -5.572896      -151.6462
  29   1.0000      -5.571491      -151.6080
  30   1.0000      -5.570928      -151.5926
  31   1.0000      -5.568884      -151.5370
  32   1.0000      -2.376417       -64.6656
  33   1.0000      -1.419193       -38.6182
  34   1.0000      -1.404537       -38.2194
  35   1.0000      -1.403996       -38.2047
  36   1.0000      -0.588771       -16.0213
  37   1.0000      -0.552319       -15.0294
  38   1.0000      -0.547019       -14.8851
  39   1.0000      -0.470253       -12.7962
  40   1.0000      -0.462394       -12.5824
  41   1.0000      -0.402432       -10.9507
  42   1.0000      -0.393959       -10.7202
  43   1.0000      -0.335623        -9.1328
  44   1.0000      -0.327409        -8.9092
  45   1.0000      -0.305110        -8.3025
  46   1.0000      -0.262293        -7.1374
  47   1.0000      -0.243688        -6.6311
  48   1.0000      -0.208643        -5.6775
  49   1.0000      -0.203283        -5.5316
  50   1.0000      -0.198824        -5.4103
  51   1.0000      -0.161638        -4.3984
  52   1.0000      -0.148515        -4.0413
  53   1.0000      -0.113390        -3.0855
  54   1.0000      -0.112796        -3.0693
  55   1.0000      -0.106134        -2.8881
  56   1.0000      -0.090356        -2.4587
  57   1.0000      -0.078208        -2.1282
  58   1.0000      -0.065587        -1.7847
  59   1.0000      -0.063283        -1.7220
  60   1.0000      -0.048941        -1.3317
  61   1.0000      -0.047171        -1.2836
  62   1.0000      -0.040187        -1.0935
  63   1.0000      -0.029297        -0.7972
  64   1.0000      -0.002416        -0.0657
  65   1.0000       0.025388         0.6908
  66   1.0000       0.028512         0.7758
  67   1.0000       0.034379         0.9355
  68   1.0000       0.044265         1.2045
  69   1.0000       0.053996         1.4693
  70   1.0000       0.061853         1.6831
  71   1.0000       0.071097         1.9346
  72   1.0000       0.081964         2.2304
  73   0.0000       0.231648         6.3035
  74   0.0000       0.244698         6.6586
  75   0.0000       0.247491         6.7346
  76   0.0000       0.251095         6.8326
  77   0.0000       0.255994         6.9660

                 SPIN DOWN ORBITALS
  NO   OCC          E(Eh)            E(eV)
   0   1.0000    -196.608538     -5349.9903
   1   1.0000     -88.565475     -2409.9891
   2   1.0000     -88.562083     -2409.8968
   3   1.0000     -88.560389     -2409.8507
   4   1.0000     -88.557120     -2409.7617
   5   1.0000     -21.968602      -597.7961
   6   1.0000     -18.829846      -512.3862
   7   1.0000     -18.486236      -503.0360
   8   1.0000     -18.468205      -502.5454
   9   1.0000     -18.467709      -502.5319
  10   1.0000      -9.945154      -270.6214
  11   1.0000      -9.943383      -270.5732
  12   1.0000      -9.938823      -270.4491
  13   1.0000      -9.935851      -270.3682
  14   1.0000      -9.935340      -270.3544
  15   1.0000      -9.929755      -270.2024
  16   1.0000      -7.619651      -207.3412
  17   1.0000      -7.615887      -207.2388
  18   1.0000      -7.614648      -207.2051
  19   1.0000      -7.611576      -207.1215
  20   1.0000      -5.584560      -151.9636
  21   1.0000      -5.581283      -151.8744
  22   1.0000      -5.580131      -151.8431
  23   1.0000      -5.578898      -151.8095
  24   1.0000      -5.577163      -151.7623
  25   1.0000      -5.576529      -151.7451
  26   1.0000      -5.575002      -151.7035
  27   1.0000      -5.573996      -151.6762
  28   1.0000      -5.573033      -151.6499
  29   1.0000      -5.571416      -151.6059
  30   1.0000      -5.571262      -151.6018
  31   1.0000      -5.568406      -151.5240
  32   1.0000      -2.331533       -63.4442
  33   1.0000      -1.400197       -38.1013
  34   1.0000      -1.342964       -36.5439
  35   1.0000      -1.341157       -36.4947
  36   1.0000      -0.596238       -16.2245
  37   1.0000      -0.552225       -15.0268
  38   1.0000      -0.546851       -14.8806
  39   1.0000      -0.470206       -12.7949
  40   1.0000      -0.462273       -12.5791
  41   1.0000      -0.402572       -10.9545
  42   1.0000      -0.394018       -10.7218
  43   1.0000      -0.335806        -9.1378
  44   1.0000      -0.327749        -8.9185
  45   1.0000      -0.305104        -8.3023
  46   1.0000      -0.262203        -7.1349
  47   1.0000      -0.243634        -6.6296
  48   1.0000      -0.208582        -5.6758
  49   1.0000      -0.203213        -5.5297
  50   1.0000      -0.198646        -5.4054
  51   1.0000      -0.161509        -4.3949
  52   1.0000      -0.148334        -4.0364
  53   1.0000      -0.113383        -3.0853
  54   1.0000      -0.112366        -3.0576
  55   1.0000      -0.106032        -2.8853
  56   1.0000      -0.089794        -2.4434
  57   1.0000      -0.077418        -2.1066
  58   1.0000      -0.063932        -1.7397
  59   1.0000      -0.061770        -1.6808
  60   1.0000      -0.050611        -1.3772
  61   1.0000      -0.048405        -1.3172
  62   1.0000      -0.040050        -1.0898
  63   1.0000      -0.029733        -0.8091
  64   1.0000       0.002442         0.0665
  65   1.0000       0.026266         0.7147
  66   1.0000       0.031608         0.8601
  67   1.0000       0.042572         1.1584
  68   1.0000       0.044811         1.2194
  69   1.0000       0.059844         1.6284
  70   1.0000       0.070529         1.9192
  71   1.0000       0.072750         1.9796
  72   0.0000       0.232223         6.3191
  73   0.0000       0.245714         6.6862
  74   0.0000       0.254344         6.9211
  75   0.0000       0.259784         7.0691
  76   0.0000       0.262920         7.1544

MULLIKEN ATOMIC CHARGES AND SPIN POPULATIONS
--------------------------------------------
   0 V :    0.498706    1.190869
   1 S :   -0.420466   -0.001281
   2 S :   -0.344993   -0.033532
   3 S :   -0.417983   -0.028795
   4 S :   -0.382083   -0.021785
   5 O :   -0.542871   -0.134654
   6 C :   -0.247093    0.005631
   7 C :   -0.235169    0.006565
   8 C :   -0.158606    0.002974
   9 H :    0.075401   -0.000926
  10 H :    0.052005    0.002131
  11 H :    0.138405    0.000611
  12 H :    0.006184   -0.000052
  13 H :    0.095662   -0.000137
  14 H :    0.049747   -0.000067
  15 C :   -0.294003   -0.002523
  16 C :   -0.249322    0.002228
  17 C :   -0.116209    0.009473
  18 H :    0.053475   -0.000173
  19 H :    0.135588    0.000410
  20 H :    0.034733    0.002229
  21 H :    0.023478    0.000220
  22 H :    0.051062   -0.000481
  23 H :    0.194351    0.001063
Sum of atomic charges         :   -2.0000000

LOEWDIN ATOMIC CHARGES AND SPIN POPULATIONS
-------------------------------------------
   0 V :   -0.221919    1.147561
   1 S :   -0.079254    0.004269
   2 S :   -0.034031   -0.023077
   3 S :   -0.061897   -0.020004
   4 S :   -0.062151   -0.012640
   5 O :   -0.375672   -0.121253
   6 C :   -0.326266    0.005133
   7 C :   -0.313985    0.006896
   8 C :   -0.187493    0.000449
   9 H :    0.036275   -0.000004
  10 H :    0.029299    0.000634
  11 H :    0.069894    0.000312
  12 H :    0.031533    0.000147
  13 H :    0.045456   -0.000076
  14 H :    0.028058   -0.000541
  15 C :   -0.352504    0.002531
  16 C :   -0.336187    0.007236
  17 C :   -0.230964    0.001334
  18 H :    0.030532   -0.000176
  19 H :    0.055980   -0.000616
  20 H :    0.060821    0.000900
  21 H :    0.055657    0.000957
  22 H :    0.052864   -0.000449
  23 H :    0.085954    0.000477

  Mayer bond orders larger than 0.100000
B(  0-V ,  1-S ) :   0.7257 B(  0-V ,  2-S ) :   0.8668 B(  0-V ,  3-S ) :   0.7650
B(  0-V ,  4-S ) :   0.7820 B(  0-V ,  5-O ) :   2.0744 B(  1-S , 15-C ) :   1.0532
B(  2-S ,  6-C ) :   1.0122 B(  3-S , 16-C ) :   0.9938 B(  4-S ,  7-C ) :   1.0677
B(  6-C ,  8-C ) :   0.9008 B(  6-C , 13-H ) :   0.9745 B(  6-C , 14-H ) :   0.9685
B(  7-C ,  8-C ) :   0.9204 B(  7-C ,  9-H ) :   0.9764 B(  7-C , 10-H ) :   0.9691
B(  8-C , 11-H ) :   0.9877 B(  8-C , 12-H ) :   0.9452 B( 15-C , 17-C ) :   0.8702
B( 15-C , 22-H ) :   0.9775 B( 15-C , 23-H ) :   0.9428 B( 16-C , 17-C ) :   0.8923
B( 16-C , 18-H ) :   0.9706 B( 16-C , 19-H ) :   0.9697 B( 17-C , 20-H ) :   0.9487
B( 17-C , 21-H ) :   0.9537

FINAL SINGLE POINT ENERGY     -2847.656144996675

DIPOLE MOMENT
-------------
                                X             Y             Z
Electronic contribution:     -1.24297       1.63104      -5.44629
Nuclear contribution   :      1.31914      -1.38399       5.82470
                        -----------------------------------------
Total Dipole Moment    :      0.07617       0.24705       0.37841
                        -----------------------------------------
Magnitude (a.u.)       :      0.45829
Magnitude (Debye)      :      1.16487

Rotational constants in cm-1:     0.027186     0.011722     0.009596
Rotational constants in MHz :   815.001453   351.425972   287.692126

                             ****ORCA TERMINATED NORMALLY****
TOTAL RUN TIME: 0 days 0 hours 14 minutes 28 seconds 952 msec
