                         Program Version 5.0.4 -  RELEASE  -
|  1> ! nofrozencore ReducedPop printbasis
|  2> ! B3LYP TZVP
|  3>
|  4> %basis
|  5> newgto V "CP(PPP)" end
|  6> end
|  7>
|  8> %pal
|  9> nprocs 8
| 10> end
| 11>
| 12> % sym SymThresh 1e-2 end
| 13> * xyz -2 2
| 14> V 0.09962526354824035 0.10484835607154638 0.4701983770729519
| 15> S 0.38987365910090577 2.38598934008144 -0.5886196253124805
| 16> S -2.222990732781655 0.48010392033279975 -0.20453276251485086
| 17> S 2.2013098155274857 -0.6238450205628839 -0.6320636661612837
| 18> S -0.2976587125510486 -2.3512044201278592 0.4654909281958863
| 19> O 0.3035786347624842 0.46531720096250734 2.0183290023078904
| 20> C -3.2271365216275196 -0.9895133763168753 0.3283119851708296
| 21> C -1.741795821429342 -2.686757008028888 1.580114958098601
| 22> C -2.7710247496026765 -1.5672535648432462 1.6605559655553803
| 23> H -1.3826687726758553 -2.899255506680302 2.5470114407344133
| 24> H -2.1847654776194863 -3.536999521677359 1.2341385781338474
| 25> H -2.4027121604534973 -0.7315322063128538 2.3302302747209205
| 26> H -4.081901399319031 -2.20718942397809 2.4153005566276016
| 27> H -3.166399087797695 -1.7557180410844155 -0.4290460972711744
| 28> H -4.196291025406318 -0.6743019816141614 0.37478265350947826
| 29> C 1.1318866955345586 1.9539298797242912 -2.226417315275255
| 30> C 3.1429395113957415 0.929249488719303 -0.9846926963694884
| 31> C 2.650107814899007 1.7344865142185373 -2.1914215538280706
| 32> H 4.191758202198789 0.651891979672841 -1.139264667977287
| 33> H 3.0881490531733298 1.5607708357269492 -0.09839545692189379
| 34> H 2.9524338772922545 1.2282572526024913 -3.1187311883167173
| 35> H 3.155767459184795 2.710025687480249 -2.1793066174837685
| 36> H 0.8967558746359481 2.7566345063589375 -2.9339819716366926
| 37> H 0.6443837872109581 1.0484043277178592 -2.5879762500154686
| 38> *
| 39>
| 40> % eprnmr
| 41> gtensor true
| 42> Nuclei = all H {aiso,adip,aorb,fgrad,rho}
| 43> Nuclei = all V {aiso,adip,aorb,fgrad,rho}
| 44> end
| 45>
| 46>                          ****END OF INPUT****

CARTESIAN COORDINATES (ANGSTROEM)
---------------------------------
  V      0.099988    0.105165    0.470779
  S      0.390237    2.386306   -0.588039
  S     -2.222628    0.480421   -0.203952
  S      2.201673   -0.623528   -0.631483
  S     -0.297296   -2.350887    0.466072
  O      0.303942    0.465634    2.018910
  C     -3.226773   -0.989196    0.328893
  C     -1.741433   -2.686440    1.580696
  C     -2.770662   -1.566937    1.661137
  H     -1.382306   -2.898939    2.547592
  H     -2.184402   -3.536683    1.234720
  H     -2.402349   -0.731215    2.330811
  H     -4.081538   -2.206872    2.415882
  H     -3.166036   -1.755401   -0.428465
  H     -4.195928   -0.673985    0.375364
  C      1.132250    1.954247   -2.225836
  C      3.143303    0.929566   -0.984112
  C      2.650471    1.734803   -2.190841
  H      4.192121    0.652209   -1.138684
  H      3.088512    1.561088   -0.097814
  H      2.952797    1.228574   -3.118150
  H      3.156131    2.710343   -2.178726
  H      0.897119    2.756951   -2.933401
  H      0.644747    1.048721   -2.587395

 Total Charge           Charge          ....   -2
 Multiplicity           Mult            ....    2
 Number of Electrons    NEL             ....  145
 Basis Dimension        Dim             ....  353

ORBITAL ENERGIES
----------------
                 SPIN UP ORBITALS
  NO   OCC          E(Eh)            E(eV)
   0   1.0000    -196.613021     -5350.1123
   1   1.0000     -88.569684     -2410.1036
   2   1.0000     -88.567271     -2410.0380
   3   1.0000     -88.566231     -2410.0097
   4   1.0000     -88.562362     -2409.9044
   5   1.0000     -21.988352      -598.3335
   6   1.0000     -18.830720      -512.4099
   7   1.0000     -18.496132      -503.3053
   8   1.0000     -18.488967      -503.1104
   9   1.0000     -18.488882      -503.1081
  10   1.0000      -9.977874      -271.5118
  11   1.0000      -9.938219      -270.4327
  12   1.0000      -9.938174      -270.4315
  13   1.0000      -9.936485      -270.3855
  14   1.0000      -9.935077      -270.3472
  15   1.0000      -9.932934      -270.2889
  16   1.0000      -7.623487      -207.4456
  17   1.0000      -7.621551      -207.3929
  18   1.0000      -7.620423      -207.3623
  19   1.0000      -7.616671      -207.2601
  20   1.0000      -5.588974      -152.0837
  21   1.0000      -5.587067      -152.0318
  22   1.0000      -5.585587      -151.9916
  23   1.0000      -5.582299      -151.9021
  24   1.0000      -5.581871      -151.8904
  25   1.0000      -5.580617      -151.8563
  26   1.0000      -5.580588      -151.8555
  27   1.0000      -5.579427      -151.8239
  28   1.0000      -5.578360      -151.7949
  29   1.0000      -5.577662      -151.7759
  30   1.0000      -5.575912      -151.7283
  31   1.0000      -5.573753      -151.6695
  32   1.0000      -2.381042       -64.7915
  33   1.0000      -1.423690       -38.7406
  34   1.0000      -1.409170       -38.3455
  35   1.0000      -1.408708       -38.3329
  36   1.0000      -0.593088       -16.1388
  37   1.0000      -0.557670       -15.1750
  38   1.0000      -0.555079       -15.1045
  39   1.0000      -0.485544       -13.2123
  40   1.0000      -0.470299       -12.7975
  41   1.0000      -0.407308       -11.0834
  42   1.0000      -0.390142       -10.6163
  43   1.0000      -0.344906        -9.3854
  44   1.0000      -0.336636        -9.1603
  45   1.0000      -0.314867        -8.5680
  46   1.0000      -0.290668        -7.9095
  47   1.0000      -0.222881        -6.0649
  48   1.0000      -0.218330        -5.9411
  49   1.0000      -0.206911        -5.6303
  50   1.0000      -0.187363        -5.0984
  51   1.0000      -0.148881        -4.0512
  52   1.0000      -0.137460        -3.7405
  53   1.0000      -0.135636        -3.6908
  54   1.0000      -0.121028        -3.2933
  55   1.0000      -0.114921        -3.1272
  56   1.0000      -0.111942        -3.0461
  57   1.0000      -0.086272        -2.3476
  58   1.0000      -0.070834        -1.9275
  59   1.0000      -0.066629        -1.8131
  60   1.0000      -0.060042        -1.6338
  61   1.0000      -0.049950        -1.3592
  62   1.0000      -0.044310        -1.2057
  63   1.0000      -0.034106        -0.9281
  64   1.0000      -0.007066        -0.1923
  65   1.0000       0.020854         0.5675
  66   1.0000       0.024096         0.6557
  67   1.0000       0.031107         0.8465
  68   1.0000       0.039527         1.0756
  69   1.0000       0.047578         1.2947
  70   1.0000       0.057715         1.5705
  71   1.0000       0.065815         1.7909
  72   1.0000       0.075260         2.0479
  73   0.0000       0.206701         5.6246
  74   0.0000       0.228969         6.2306
  75   0.0000       0.240569         6.5462
  76   0.0000       0.244031         6.6404
  77   0.0000       0.255175         6.9437

                 SPIN DOWN ORBITALS
  NO   OCC          E(Eh)            E(eV)
   0   1.0000    -196.613164     -5350.1162
   1   1.0000     -88.569856     -2410.1083
   2   1.0000     -88.567375     -2410.0408
   3   1.0000     -88.566393     -2410.0141
   4   1.0000     -88.562333     -2409.9036
   5   1.0000     -21.973299      -597.9239
   6   1.0000     -18.834225      -512.5053
   7   1.0000     -18.490924      -503.1636
   8   1.0000     -18.472912      -502.6735
   9   1.0000     -18.472411      -502.6599
  10   1.0000      -9.977904      -271.5126
  11   1.0000      -9.938118      -270.4299
  12   1.0000      -9.938042      -270.4279
  13   1.0000      -9.936310      -270.3807
  14   1.0000      -9.935035      -270.3460
  15   1.0000      -9.932809      -270.2855
  16   1.0000      -7.623655      -207.4502
  17   1.0000      -7.621649      -207.3956
  18   1.0000      -7.620578      -207.3665
  19   1.0000      -7.616645      -207.2594
  20   1.0000      -5.589134      -152.0881
  21   1.0000      -5.587186      -152.0351
  22   1.0000      -5.585742      -151.9958
  23   1.0000      -5.582747      -151.9143
  24   1.0000      -5.581886      -151.8908
  25   1.0000      -5.581016      -151.8672
  26   1.0000      -5.580714      -151.8590
  27   1.0000      -5.579856      -151.8356
  28   1.0000      -5.578293      -151.7931
  29   1.0000      -5.577783      -151.7792
  30   1.0000      -5.576254      -151.7376
  31   1.0000      -5.573272      -151.6564
  32   1.0000      -2.336106       -63.5687
  33   1.0000      -1.404677       -38.2232
  34   1.0000      -1.347567       -36.6691
  35   1.0000      -1.345743       -36.6195
  36   1.0000      -0.600603       -16.3432
  37   1.0000      -0.557568       -15.1722
  38   1.0000      -0.554921       -15.1002
  39   1.0000      -0.485477       -13.2105
  40   1.0000      -0.470171       -12.7940
  41   1.0000      -0.407306       -11.0834
  42   1.0000      -0.390413       -10.6237
  43   1.0000      -0.345162        -9.3923
  44   1.0000      -0.336944        -9.1687
  45   1.0000      -0.314843        -8.5673
  46   1.0000      -0.290663        -7.9093
  47   1.0000      -0.222824        -6.0633
  48   1.0000      -0.218269        -5.9394
  49   1.0000      -0.206804        -5.6274
  50   1.0000      -0.187281        -5.0962
  51   1.0000      -0.148355        -4.0369
  52   1.0000      -0.137346        -3.7374
  53   1.0000      -0.135399        -3.6844
  54   1.0000      -0.120603        -3.2818
  55   1.0000      -0.114658        -3.1200
  56   1.0000      -0.111875        -3.0443
  57   1.0000      -0.085421        -2.3244
  58   1.0000      -0.069049        -1.8789
  59   1.0000      -0.066361        -1.8058
  60   1.0000      -0.059652        -1.6232
  61   1.0000      -0.051404        -1.3988
  62   1.0000      -0.046070        -1.2536
  63   1.0000      -0.033627        -0.9151
  64   1.0000      -0.002282        -0.0621
  65   1.0000       0.021945         0.5972
  66   1.0000       0.026886         0.7316
  67   1.0000       0.039143         1.0651
  68   1.0000       0.040797         1.1101
  69   1.0000       0.055018         1.4971
  70   1.0000       0.062882         1.7111
  71   1.0000       0.067105         1.8260
  72   0.0000       0.206710         5.6249
  73   0.0000       0.229453         6.2437
  74   0.0000       0.246068         6.6959
  75   0.0000       0.256490         6.9794
  76   0.0000       0.259545         7.0626

MULLIKEN ATOMIC CHARGES AND SPIN POPULATIONS
--------------------------------------------
   0 V :    0.530061    1.192383
   1 S :   -0.423628   -0.001185
   2 S :   -0.347891   -0.032463
   3 S :   -0.407962   -0.029822
   4 S :   -0.385750   -0.021790
   5 O :   -0.543229   -0.135229
   6 C :   -0.255970    0.005316
   7 C :   -0.241633    0.007264
   8 C :   -0.062796    0.002419
   9 H :    0.093287   -0.000826
  10 H :    0.091638    0.001367
  11 H :    0.138275    0.000269
  12 H :   -0.209453    0.001404
  13 H :    0.099765   -0.000092
  14 H :    0.097124   -0.000017
  15 C :   -0.257140   -0.002271
  16 C :   -0.253013    0.003462
  17 C :   -0.073733    0.008537
  18 H :    0.049974   -0.000104
  19 H :    0.132380   -0.000199
  20 H :    0.018332    0.001599
  21 H :    0.016457    0.000068
  22 H :    0.054794   -0.000581
  23 H :    0.140111    0.000492
Sum of atomic charges         :   -2.0000000

LOEWDIN ATOMIC CHARGES AND SPIN POPULATIONS
-------------------------------------------
   0 V :   -0.206961    1.148681
   1 S :   -0.068700    0.004175
   2 S :   -0.024502   -0.022054
   3 S :   -0.058816   -0.020910
   4 S :   -0.051095   -0.012453
   5 O :   -0.373645   -0.121948
   6 C :   -0.324868    0.004965
   7 C :   -0.312213    0.006945
   8 C :   -0.130516    0.000087
   9 H :    0.036940    0.000059
  10 H :    0.027239    0.000358
  11 H :    0.078919    0.000197
  12 H :   -0.079475    0.001208
  13 H :    0.046711   -0.000048
  14 H :    0.026563   -0.000405
  15 C :   -0.317047    0.002667
  16 C :   -0.323780    0.007381
  17 C :   -0.188089    0.001176
  18 H :    0.029041   -0.000215
  19 H :    0.054480   -0.000622
  20 H :    0.036746    0.000613
  21 H :    0.035808    0.000391
  22 H :    0.031014   -0.000605
  23 H :    0.056246    0.000354

  Mayer bond orders larger than 0.100000
B(  0-V ,  1-S ) :   0.7150 B(  0-V ,  2-S ) :   0.8445 B(  0-V ,  3-S ) :   0.7772
B(  0-V ,  4-S ) :   0.7682 B(  0-V ,  5-O ) :   2.0753 B(  1-S , 15-C ) :   1.0237
B(  2-S ,  6-C ) :   0.9706 B(  3-S , 16-C ) :   1.0218 B(  4-S ,  7-C ) :   1.0227
B(  6-C ,  8-C ) :   0.9222 B(  6-C , 13-H ) :   0.9797 B(  6-C , 14-H ) :   0.9666
B(  7-C ,  8-C ) :   0.9422 B(  7-C ,  9-H ) :   0.9817 B(  7-C , 10-H ) :   0.9740
B(  8-C , 11-H ) :   0.9734 B(  8-C , 12-H ) :   0.7866 B( 15-C , 17-C ) :   0.8956
B( 15-C , 22-H ) :   0.9687 B( 15-C , 23-H ) :   0.9795 B( 16-C , 17-C ) :   0.9028
B( 16-C , 18-H ) :   0.9638 B( 16-C , 19-H ) :   0.9760 B( 17-C , 20-H ) :   0.9593
B( 17-C , 21-H ) :   0.9609

FINAL SINGLE POINT ENERGY     -2847.650683268268

DIPOLE MOMENT
-------------
                                X             Y             Z
Electronic contribution:      3.12015       2.26486       4.74723
Nuclear contribution   :     -2.78763      -2.20736      -5.47614
                        -----------------------------------------
Total Dipole Moment    :      0.33253       0.05749      -0.72891
                        -----------------------------------------
Magnitude (a.u.)       :      0.80323
Magnitude (Debye)      :      2.04166

Rotational constants in cm-1:     0.027214     0.011714     0.009594
Rotational constants in MHz :   815.853717   351.175576   287.613239

                             ****ORCA TERMINATED NORMALLY****
TOTAL RUN TIME: 0 days 0 hours 9 minutes 36 seconds 267 msec
