                         Program Version 5.0.4 -  RELEASE  -
|  1> ! nofrozencore ReducedPop printbasis
|  2> ! B3LYP TZVP
|  3>
|  4> %basis
|  5> newgto V "CP(PPP)" end
|  6> end
|  7>
|  8> %pal
|  9> nprocs 8
| 10> end
| 11>
| 12> % sym SymThresh 1e-2 end
| 13> * xyz -2 2
| 14> V -0.41453732720892084 0.17924438910434584 0.19549113184769787
| 15> S -1.3612392057174474 -1.315405396634986 -1.6152992752209383
| 16> S 0.30952797917768227 -1.976154966535486 1.101191522051143
| 17> S 0.36258684289034376 1.7459054186726461 -1.5667879053085985
| 18> S 1.3982853840552016 1.3186938123655485 1.462499775586449
| 19> O -1.7609027326268176 0.6698074086542875 0.9121842528290186
| 20> C 1.2058501078209956 -1.6583655002790292 2.695806117704198
| 21> C 1.2046427490980065 0.8540302725529129 3.2461800270650105
| 22> C 0.6073778187673914 -0.5263150100553712 3.539271834369858
| 23> H 0.5931554545541665 1.6152289692407067 3.7446618560600693
| 24> H 2.208094146933213 0.9065464332904214 3.688507874997924
| 25> H -0.4719507499559044 -0.5018527285245808 3.368938665682635
| 26> H 0.7641094216003109 -0.736509660607605 4.612806252157498
| 27> H 2.2577801965622455 -1.4389843606490298 2.48402386074326
| 28> H 1.171438741154617 -2.5994938967473598 3.257148316647142
| 29> C -0.13984620651580493 -1.0800686854608437 -2.971248606938003
| 30> C -0.6933585127130343 1.3945731381769755 -3.0422079270215234
| 31> C -0.3399673611837527 0.14675814154944897 -3.8012617071624666
| 32> H -0.7102725935173463 2.2991397616359768 -3.6707356057227285
| 33> H -1.743917671216128 1.365575307836834 -2.737514786391747
| 34> H 0.4507410731555318 0.3013475210521082 -4.602900038452644
| 35> H -0.9861366571485989 -0.03731620596629227 -4.721436481287985
| 36> H 0.0939134435138863 -2.071436495692072 -3.499763412915409
| 37> H 0.9283957659260053 -1.2934756166871824 -2.6420885894143256
| 38> *
| 39>
| 40> % eprnmr
| 41> gtensor true
| 42> Nuclei = all H {aiso,adip,aorb,fgrad,rho}
| 43> Nuclei = all V {aiso,adip,aorb,fgrad,rho}
| 44> end
| 45>
| 46>                          ****END OF INPUT****

CARTESIAN COORDINATES (ANGSTROEM)
---------------------------------
  V     -0.415235    0.179532    0.195501
  S     -1.361937   -1.315118   -1.615290
  S      0.308830   -1.975867    1.101201
  S      0.361889    1.746193   -1.566778
  S      1.397587    1.318982    1.462509
  O     -1.761601    0.670095    0.912194
  C      1.205152   -1.658078    2.695816
  C      1.203945    0.854318    3.246190
  C      0.606680   -0.526027    3.539282
  H      0.592458    1.615517    3.744672
  H      2.207396    0.906834    3.688518
  H     -0.472649   -0.501565    3.368948
  H      0.763412   -0.736222    4.612816
  H      2.257082   -1.438697    2.484034
  H      1.170741   -2.599206    3.257158
  C     -0.140544   -1.079781   -2.971239
  C     -0.694056    1.394861   -3.042198
  C     -0.340665    0.147046   -3.801252
  H     -0.710971    2.299428   -3.670726
  H     -1.744616    1.365863   -2.737505
  H      0.450043    0.301635   -4.602890
  H     -0.986835   -0.037028   -4.721427
  H      0.093216   -2.071149   -3.499754
  H      0.927698   -1.293188   -2.642079

 Total Charge           Charge          ....   -2
 Multiplicity           Mult            ....    2
 Number of Electrons    NEL             ....  145
 Basis Dimension        Dim             ....  353

ORBITAL ENERGIES
----------------
                 SPIN UP ORBITALS
  NO   OCC          E(Eh)            E(eV)
   0   1.0000    -196.606939     -5349.9468
   1   1.0000     -88.561433     -2409.8791
   2   1.0000     -88.560792     -2409.8617
   3   1.0000     -88.560715     -2409.8596
   4   1.0000     -88.558803     -2409.8075
   5   1.0000     -21.982345      -598.1700
   6   1.0000     -18.824789      -512.2486
   7   1.0000     -18.490118      -503.1417
   8   1.0000     -18.482960      -502.9469
   9   1.0000     -18.482876      -502.9446
  10   1.0000      -9.944636      -270.6073
  11   1.0000      -9.942972      -270.5620
  12   1.0000      -9.942553      -270.5506
  13   1.0000      -9.937394      -270.4102
  14   1.0000      -9.935281      -270.3527
  15   1.0000      -9.928994      -270.1817
  16   1.0000      -7.615602      -207.2311
  17   1.0000      -7.614855      -207.2107
  18   1.0000      -7.614604      -207.2039
  19   1.0000      -7.613098      -207.1629
  20   1.0000      -5.580964      -151.8658
  21   1.0000      -5.580309      -151.8479
  22   1.0000      -5.580005      -151.8396
  23   1.0000      -5.578547      -151.8000
  24   1.0000      -5.574538      -151.6909
  25   1.0000      -5.573955      -151.6750
  26   1.0000      -5.573425      -151.6606
  27   1.0000      -5.572703      -151.6410
  28   1.0000      -5.572148      -151.6258
  29   1.0000      -5.571871      -151.6183
  30   1.0000      -5.571789      -151.6161
  31   1.0000      -5.570021      -151.5680
  32   1.0000      -2.374998       -64.6270
  33   1.0000      -1.417659       -38.5765
  34   1.0000      -1.403098       -38.1802
  35   1.0000      -1.402651       -38.1681
  36   1.0000      -0.587397       -15.9839
  37   1.0000      -0.555764       -15.1231
  38   1.0000      -0.551471       -15.0063
  39   1.0000      -0.469772       -12.7832
  40   1.0000      -0.468491       -12.7483
  41   1.0000      -0.408377       -11.1125
  42   1.0000      -0.398008       -10.8303
  43   1.0000      -0.342038        -9.3073
  44   1.0000      -0.328408        -8.9364
  45   1.0000      -0.307421        -8.3654
  46   1.0000      -0.298895        -8.1333
  47   1.0000      -0.227975        -6.2035
  48   1.0000      -0.207317        -5.6414
  49   1.0000      -0.198541        -5.4026
  50   1.0000      -0.184720        -5.0265
  51   1.0000      -0.160973        -4.3803
  52   1.0000      -0.139704        -3.8015
  53   1.0000      -0.123653        -3.3648
  54   1.0000      -0.112019        -3.0482
  55   1.0000      -0.106024        -2.8851
  56   1.0000      -0.090956        -2.4750
  57   1.0000      -0.077094        -2.0978
  58   1.0000      -0.071869        -1.9557
  59   1.0000      -0.063304        -1.7226
  60   1.0000      -0.048743        -1.3264
  61   1.0000      -0.045684        -1.2431
  62   1.0000      -0.039957        -1.0873
  63   1.0000      -0.037810        -1.0289
  64   1.0000       0.001102         0.0300
  65   1.0000       0.029151         0.7932
  66   1.0000       0.031260         0.8506
  67   1.0000       0.037333         1.0159
  68   1.0000       0.047863         1.3024
  69   1.0000       0.052126         1.4184
  70   1.0000       0.064234         1.7479
  71   1.0000       0.072188         1.9643
  72   1.0000       0.079343         2.1590
  73   0.0000       0.234713         6.3869
  74   0.0000       0.244355         6.6492
  75   0.0000       0.246662         6.7120
  76   0.0000       0.250902         6.8274
  77   0.0000       0.251887         6.8542

                 SPIN DOWN ORBITALS
  NO   OCC          E(Eh)            E(eV)
   0   1.0000    -196.607081     -5349.9507
   1   1.0000     -88.561594     -2409.8835
   2   1.0000     -88.560891     -2409.8644
   3   1.0000     -88.560780     -2409.8613
   4   1.0000     -88.558907     -2409.8104
   5   1.0000     -21.967284      -597.7602
   6   1.0000     -18.828264      -512.3431
   7   1.0000     -18.484912      -503.0000
   8   1.0000     -18.466888      -502.5096
   9   1.0000     -18.466401      -502.4963
  10   1.0000      -9.944575      -270.6056
  11   1.0000      -9.942936      -270.5610
  12   1.0000      -9.942370      -270.5456
  13   1.0000      -9.937211      -270.4053
  14   1.0000      -9.935146      -270.3491
  15   1.0000      -9.929014      -270.1822
  16   1.0000      -7.615756      -207.2353
  17   1.0000      -7.614845      -207.2105
  18   1.0000      -7.614776      -207.2086
  19   1.0000      -7.613196      -207.1656
  20   1.0000      -5.581117      -151.8699
  21   1.0000      -5.580332      -151.8486
  22   1.0000      -5.580171      -151.8442
  23   1.0000      -5.578670      -151.8033
  24   1.0000      -5.574965      -151.7025
  25   1.0000      -5.574307      -151.6846
  26   1.0000      -5.573879      -151.6730
  27   1.0000      -5.572823      -151.6442
  28   1.0000      -5.572553      -151.6369
  29   1.0000      -5.571921      -151.6197
  30   1.0000      -5.571444      -151.6067
  31   1.0000      -5.569945      -151.5659
  32   1.0000      -2.330030       -63.4033
  33   1.0000      -1.398644       -38.0590
  34   1.0000      -1.341453       -36.5028
  35   1.0000      -1.339624       -36.4530
  36   1.0000      -0.594828       -16.1861
  37   1.0000      -0.555615       -15.1191
  38   1.0000      -0.551370       -15.0035
  39   1.0000      -0.469684       -12.7807
  40   1.0000      -0.468398       -12.7458
  41   1.0000      -0.408385       -11.1127
  42   1.0000      -0.398188       -10.8352
  43   1.0000      -0.342196        -9.3116
  44   1.0000      -0.328832        -8.9480
  45   1.0000      -0.307364        -8.3638
  46   1.0000      -0.299003        -8.1363
  47   1.0000      -0.227828        -6.1995
  48   1.0000      -0.207253        -5.6396
  49   1.0000      -0.198360        -5.3977
  50   1.0000      -0.184640        -5.0243
  51   1.0000      -0.160847        -4.3769
  52   1.0000      -0.139552        -3.7974
  53   1.0000      -0.123456        -3.3594
  54   1.0000      -0.112006        -3.0478
  55   1.0000      -0.105851        -2.8804
  56   1.0000      -0.090093        -2.4516
  57   1.0000      -0.075866        -2.0644
  58   1.0000      -0.070464        -1.9174
  59   1.0000      -0.062311        -1.6956
  60   1.0000      -0.049062        -1.3350
  61   1.0000      -0.047120        -1.2822
  62   1.0000      -0.040834        -1.1112
  63   1.0000      -0.038175        -1.0388
  64   1.0000       0.005584         0.1519
  65   1.0000       0.030095         0.8189
  66   1.0000       0.034288         0.9330
  67   1.0000       0.046378         1.2620
  68   1.0000       0.048395         1.3169
  69   1.0000       0.060371         1.6428
  70   1.0000       0.065724         1.7884
  71   1.0000       0.074183         2.0186
  72   0.0000       0.233302         6.3485
  73   0.0000       0.242879         6.6091
  74   0.0000       0.255040         6.9400
  75   0.0000       0.255795         6.9605
  76   0.0000       0.264907         7.2085

MULLIKEN ATOMIC CHARGES AND SPIN POPULATIONS
--------------------------------------------
   0 V :    0.538982    1.194061
   1 S :   -0.400957   -0.004160
   2 S :   -0.357089   -0.033014
   3 S :   -0.398110   -0.029594
   4 S :   -0.386164   -0.021689
   5 O :   -0.548651   -0.134036
   6 C :   -0.245279    0.005860
   7 C :   -0.235716    0.006596
   8 C :   -0.158796    0.003176
   9 H :    0.075296   -0.000971
  10 H :    0.051395    0.002171
  11 H :    0.138685    0.000596
  12 H :    0.005649   -0.000058
  13 H :    0.094686   -0.000133
  14 H :    0.048746   -0.000041
  15 C :   -0.225301   -0.000199
  16 C :   -0.240060    0.004644
  17 C :   -0.053598    0.005007
  18 H :    0.042610   -0.000022
  19 H :    0.130718   -0.000552
  20 H :   -0.006979    0.002098
  21 H :   -0.002588    0.001073
  22 H :    0.025361   -0.001048
  23 H :    0.107160    0.000234
Sum of atomic charges         :   -2.0000000

LOEWDIN ATOMIC CHARGES AND SPIN POPULATIONS
-------------------------------------------
   0 V :   -0.202047    1.150350
   1 S :   -0.057000    0.001787
   2 S :   -0.039303   -0.022599
   3 S :   -0.054140   -0.020593
   4 S :   -0.062618   -0.012530
   5 O :   -0.377974   -0.120734
   6 C :   -0.326205    0.005338
   7 C :   -0.314189    0.007083
   8 C :   -0.187409    0.000504
   9 H :    0.036181   -0.000003
  10 H :    0.029157    0.000638
  11 H :    0.070240    0.000339
  12 H :    0.031576    0.000149
  13 H :    0.045069   -0.000064
  14 H :    0.027454   -0.000529
  15 C :   -0.345358    0.002981
  16 C :   -0.324610    0.007405
  17 C :   -0.192608    0.000889
  18 H :    0.030586   -0.000272
  19 H :    0.053391   -0.000623
  20 H :    0.033667    0.000689
  21 H :    0.031884    0.000412
  22 H :    0.036964   -0.000907
  23 H :    0.057294    0.000290

  Mayer bond orders larger than 0.100000
B(  0-V ,  1-S ) :   0.6964 B(  0-V ,  2-S ) :   0.8533 B(  0-V ,  3-S ) :   0.7718
B(  0-V ,  4-S ) :   0.7725 B(  0-V ,  5-O ) :   2.0701 B(  1-S , 15-C ) :   1.0266
B(  2-S ,  6-C ) :   1.0101 B(  3-S , 16-C ) :   1.0319 B(  4-S ,  7-C ) :   1.0715
B(  6-C ,  8-C ) :   0.9016 B(  6-C , 13-H ) :   0.9741 B(  6-C , 14-H ) :   0.9679
B(  7-C ,  8-C ) :   0.9192 B(  7-C ,  9-H ) :   0.9770 B(  7-C , 10-H ) :   0.9689
B(  8-C , 11-H ) :   0.9883 B(  8-C , 12-H ) :   0.9452 B( 15-C , 17-C ) :   0.9642
B( 15-C , 22-H ) :   0.9391 B( 15-C , 23-H ) :   0.9603 B( 16-C , 17-C ) :   0.9332
B( 16-C , 18-H ) :   0.9531 B( 16-C , 19-H ) :   0.9785 B( 17-C , 20-H ) :   0.9303
B( 17-C , 21-H ) :   0.9360

FINAL SINGLE POINT ENERGY     -2847.672726072778

DIPOLE MOMENT
-------------
                                X             Y             Z
Electronic contribution:     -5.73868       2.68000       1.73036
Nuclear contribution   :      6.13922      -2.86615      -1.54635
                        -----------------------------------------
Total Dipole Moment    :      0.40055      -0.18615       0.18401
                        -----------------------------------------
Magnitude (a.u.)       :      0.47849
Magnitude (Debye)      :      1.21621

Rotational constants in cm-1:     0.027201     0.011720     0.009601
Rotational constants in MHz :   815.470739   351.346709   287.822500

                             ****ORCA TERMINATED NORMALLY****
TOTAL RUN TIME: 0 days 0 hours 9 minutes 35 seconds 506 msec
