                         Program Version 5.0.4 -  RELEASE  -
|  1> ! nofrozencore ReducedPop printbasis
|  2> ! B3LYP TZVP
|  3>
|  4> %basis
|  5> newgto V "CP(PPP)" end
|  6> end
|  7>
|  8> %pal
|  9> nprocs 8
| 10> end
| 11>
| 12> % sym SymThresh 1e-2 end
| 13> * xyz -2 2
| 14> V -0.28478025757681763 0.5018279225112263 -0.25096219581950596
| 15> S -0.31881520314603756 0.9714359486220074 2.261516740064024
| 16> S 2.1675513076791777 0.6901322206735042 0.18692351521556766
| 17> S -1.9056168772896598 -1.3965842137789688 0.21637172362669263
| 18> S 0.2652073531607877 -1.068030896120331 -2.1477279645334164
| 19> O -0.7025523648097479 1.3632592709149511 -0.6737026787431286
| 20> C 3.03695461142432 0.3853593535953824 -1.4225775303793127
| 21> C 1.3530626700640362 -0.13260578750055751 -3.292282524205439
| 22> C 2.3077368457546426 0.9365330347292491 -2.6489431576153604
| 23> H 0.6952992598095015 0.3886326305120598 -4.001875586360804
| 24> H 1.9619087122621879 -0.8203482819850223 -3.9028956164970574
| 25> H 1.756466998135674 1.8299598969735118 -2.3404660698283895
| 26> H 3.035893422890329 1.2712813129639167 -3.4113782107333073
| 27> H 3.287135159316497 -0.6701111477085421 -1.6114795021917123
| 28> H 3.9842837170359635 0.9305779841401316 -1.3165439127434284
| 29> C -0.5664616095108514 -0.6664690264332601 3.0643821727791196
| 30> C -2.786947281493062 -0.8795439238729547 1.7668335011818739
| 31> C -2.0134980235876294 -1.1888946939153322 3.054288510325388
| 32> H -3.7138446962016047 -1.469497370178649 1.8112418404286177
| 33> H -3.0718827961238797 0.18081599437035958 1.8082248499531224
| 34> H -2.0905764304209336 -2.2482648356857777 3.361973527538292
| 35> H -2.5528525041333263 -0.59108611713904 3.8188112531453684
| 36> H -0.13767898149156704 -0.6707857071054893 4.075587516809623
| 37> H 0.04957355233729116 -1.3203192226911487 2.4390461042741487
| 38> *
| 39>
| 40> % eprnmr
| 41> gtensor true
| 42> Nuclei = all H {aiso,adip,aorb,fgrad,rho}
| 43> Nuclei = all V {aiso,adip,aorb,fgrad,rho}
| 44> end
| 45>
| 46>                          ****END OF INPUT****

CARTESIAN COORDINATES (ANGSTROEM)
---------------------------------
  V     -0.285304    0.502368   -0.251024
  S     -0.319339    0.971976    2.261455
  S      2.167028    0.690672    0.186861
  S     -1.906141   -1.396044    0.216310
  S      0.264684   -1.067491   -2.147790
  O     -0.703076    1.363799   -0.673765
  C      3.036431    0.385900   -1.422640
  C      1.352539   -0.132066   -3.292345
  C      2.307213    0.937073   -2.649005
  H      0.694776    0.389173   -4.001938
  H      1.961385   -0.819808   -3.902958
  H      1.755943    1.830500   -2.340528
  H      3.035370    1.271822   -3.411440
  H      3.286612   -0.669571   -1.611542
  H      3.983760    0.931118   -1.316606
  C     -0.566985   -0.665929    3.064320
  C     -2.787471   -0.879004    1.766771
  C     -2.014022   -1.188355    3.054226
  H     -3.714368   -1.468957    1.811180
  H     -3.072406    0.181356    1.808163
  H     -2.091100   -2.247725    3.361911
  H     -2.553376   -0.590546    3.818749
  H     -0.138203   -0.670246    4.075525
  H      0.049050   -1.319779    2.438984

 Total Charge           Charge          ....   -2
 Multiplicity           Mult            ....    2
 Number of Electrons    NEL             ....  145
 Basis Dimension        Dim             ....  353

ORBITAL ENERGIES
----------------
                 SPIN UP ORBITALS
  NO   OCC          E(Eh)            E(eV)
   0   1.0000    -196.522415     -5347.6468
   1   1.0000     -88.543046     -2409.3788
   2   1.0000     -88.541476     -2409.3360
   3   1.0000     -88.540255     -2409.3028
   4   1.0000     -88.538453     -2409.2538
   5   1.0000     -21.868587      -595.0745
   6   1.0000     -19.022500      -517.6285
   7   1.0000     -18.374412      -499.9932
   8   1.0000     -18.368524      -499.8329
   9   1.0000     -18.367851      -499.8146
  10   1.0000      -9.936830      -270.3949
  11   1.0000      -9.926365      -270.1101
  12   1.0000      -9.924366      -270.0557
  13   1.0000      -9.923104      -270.0214
  14   1.0000      -9.922264      -269.9985
  15   1.0000      -9.921906      -269.9888
  16   1.0000      -7.597722      -206.7445
  17   1.0000      -7.596429      -206.7093
  18   1.0000      -7.594463      -206.6558
  19   1.0000      -7.592458      -206.6013
  20   1.0000      -5.563362      -151.3868
  21   1.0000      -5.561735      -151.3425
  22   1.0000      -5.559964      -151.2943
  23   1.0000      -5.558201      -151.2463
  24   1.0000      -5.556665      -151.2045
  25   1.0000      -5.555235      -151.1656
  26   1.0000      -5.554508      -151.1459
  27   1.0000      -5.553856      -151.1281
  28   1.0000      -5.553436      -151.1167
  29   1.0000      -5.551465      -151.0630
  30   1.0000      -5.551239      -151.0569
  31   1.0000      -5.549406      -151.0070
  32   1.0000      -2.479310       -67.4654
  33   1.0000      -1.600995       -43.5653
  34   1.0000      -1.383940       -37.6589
  35   1.0000      -1.382490       -37.6195
  36   1.0000      -0.592568       -16.1246
  37   1.0000      -0.539832       -14.6896
  38   1.0000      -0.537910       -14.6373
  39   1.0000      -0.457341       -12.4449
  40   1.0000      -0.452002       -12.2996
  41   1.0000      -0.389280       -10.5929
  42   1.0000      -0.384171       -10.4538
  43   1.0000      -0.342573        -9.3219
  44   1.0000      -0.339730        -9.2445
  45   1.0000      -0.320592        -8.7238
  46   1.0000      -0.311718        -8.4823
  47   1.0000      -0.295576        -8.0430
  48   1.0000      -0.271625        -7.3913
  49   1.0000      -0.202320        -5.5054
  50   1.0000      -0.195513        -5.3202
  51   1.0000      -0.189611        -5.1596
  52   1.0000      -0.188405        -5.1268
  53   1.0000      -0.170422        -4.6374
  54   1.0000      -0.149057        -4.0561
  55   1.0000      -0.122134        -3.3234
  56   1.0000      -0.114956        -3.1281
  57   1.0000      -0.101827        -2.7708
  58   1.0000      -0.094834        -2.5806
  59   1.0000      -0.094780        -2.5791
  60   1.0000      -0.067502        -1.8368
  61   1.0000      -0.056332        -1.5329
  62   1.0000      -0.036583        -0.9955
  63   1.0000      -0.026570        -0.7230
  64   1.0000       0.024007         0.6533
  65   1.0000       0.047711         1.2983
  66   1.0000       0.052272         1.4224
  67   1.0000       0.056442         1.5359
  68   1.0000       0.064956         1.7675
  69   1.0000       0.073265         1.9936
  70   1.0000       0.080885         2.2010
  71   1.0000       0.090619         2.4659
  72   1.0000       0.106854         2.9076
  73   0.0000       0.237957         6.4751
  74   0.0000       0.256789         6.9876
  75   0.0000       0.264966         7.2101
  76   0.0000       0.279564         7.6073
  77   0.0000       0.280201         7.6247

                 SPIN DOWN ORBITALS
  NO   OCC          E(Eh)            E(eV)
   0   1.0000    -196.522589     -5347.6515
   1   1.0000     -88.543084     -2409.3798
   2   1.0000     -88.541407     -2409.3342
   3   1.0000     -88.540344     -2409.3053
   4   1.0000     -88.538543     -2409.2562
   5   1.0000     -21.856849      -594.7551
   6   1.0000     -19.023600      -517.6585
   7   1.0000     -18.371462      -499.9129
   8   1.0000     -18.355278      -499.4725
   9   1.0000     -18.354580      -499.4535
  10   1.0000      -9.936654      -270.3901
  11   1.0000      -9.926362      -270.1100
  12   1.0000      -9.924199      -270.0512
  13   1.0000      -9.923035      -270.0195
  14   1.0000      -9.922140      -269.9952
  15   1.0000      -9.921857      -269.9875
  16   1.0000      -7.597757      -206.7455
  17   1.0000      -7.596362      -206.7075
  18   1.0000      -7.594547      -206.6581
  19   1.0000      -7.592547      -206.6037
  20   1.0000      -5.563431      -151.3887
  21   1.0000      -5.561724      -151.3422
  22   1.0000      -5.560062      -151.2970
  23   1.0000      -5.558301      -151.2491
  24   1.0000      -5.556876      -151.2103
  25   1.0000      -5.555367      -151.1692
  26   1.0000      -5.554392      -151.1427
  27   1.0000      -5.553679      -151.1233
  28   1.0000      -5.553445      -151.1169
  29   1.0000      -5.551510      -151.0643
  30   1.0000      -5.551478      -151.0634
  31   1.0000      -5.549449      -151.0082
  32   1.0000      -2.451010       -66.6954
  33   1.0000      -1.585424       -43.1416
  34   1.0000      -1.333781       -36.2940
  35   1.0000      -1.332521       -36.2597
  36   1.0000      -0.591778       -16.1031
  37   1.0000      -0.539670       -14.6852
  38   1.0000      -0.537713       -14.6319
  39   1.0000      -0.457139       -12.4394
  40   1.0000      -0.451745       -12.2926
  41   1.0000      -0.389131       -10.5888
  42   1.0000      -0.383962       -10.4481
  43   1.0000      -0.337171        -9.1749
  44   1.0000      -0.333236        -9.0678
  45   1.0000      -0.319566        -8.6958
  46   1.0000      -0.311664        -8.4808
  47   1.0000      -0.295352        -8.0369
  48   1.0000      -0.271464        -7.3869
  49   1.0000      -0.202179        -5.5016
  50   1.0000      -0.195392        -5.3169
  51   1.0000      -0.189326        -5.1518
  52   1.0000      -0.188150        -5.1198
  53   1.0000      -0.153707        -4.1826
  54   1.0000      -0.148919        -4.0523
  55   1.0000      -0.121782        -3.3139
  56   1.0000      -0.114452        -3.1144
  57   1.0000      -0.101707        -2.7676
  58   1.0000      -0.094737        -2.5779
  59   1.0000      -0.094666        -2.5760
  60   1.0000      -0.066754        -1.8165
  61   1.0000      -0.054679        -1.4879
  62   1.0000      -0.035858        -0.9757
  63   1.0000      -0.026044        -0.7087
  64   1.0000       0.027042         0.7358
  65   1.0000       0.048908         1.3309
  66   1.0000       0.054041         1.4705
  67   1.0000       0.058897         1.6027
  68   1.0000       0.069715         1.8970
  69   1.0000       0.074925         2.0388
  70   1.0000       0.083592         2.2747
  71   1.0000       0.091144         2.4802
  72   0.0000       0.237598         6.4654
  73   0.0000       0.251464         6.8427
  74   0.0000       0.261448         7.1144
  75   0.0000       0.270057         7.3486
  76   0.0000       0.280092         7.6217

MULLIKEN ATOMIC CHARGES AND SPIN POPULATIONS
--------------------------------------------
   0 V :    0.490697    1.028341
   1 S :   -0.528468    0.005545
   2 S :   -0.429217   -0.017871
   3 S :   -0.483147   -0.016943
   4 S :   -0.424245   -0.009001
   5 O :   -0.085530   -0.027209
   6 C :   -0.209129    0.002339
   7 C :   -0.274402    0.002317
   8 C :   -0.152650    0.011711
   9 H :    0.060666   -0.001086
  10 H :    0.046446    0.004182
  11 H :    0.076440    0.002213
  12 H :   -0.002313    0.000874
  13 H :    0.080393    0.000003
  14 H :    0.038059    0.000644
  15 C :   -0.233524    0.000334
  16 C :   -0.239511    0.004556
  17 C :   -0.062579    0.005936
  18 H :    0.034035    0.000713
  19 H :    0.095563   -0.000250
  20 H :    0.020308    0.002607
  21 H :   -0.012032    0.000411
  22 H :    0.051753   -0.000616
  23 H :    0.142388    0.000251
Sum of atomic charges         :   -2.0000000

LOEWDIN ATOMIC CHARGES AND SPIN POPULATIONS
-------------------------------------------
   0 V :   -0.405617    0.995537
   1 S :   -0.127842    0.010149
   2 S :   -0.097432   -0.010057
   3 S :   -0.125766   -0.009999
   4 S :   -0.095866   -0.002436
   5 O :    0.149599   -0.013802
   6 C :   -0.334895    0.005044
   7 C :   -0.336940    0.007007
   8 C :   -0.193794    0.002406
   9 H :    0.024574    0.000208
  10 H :    0.026497    0.001395
  11 H :    0.049129    0.000971
  12 H :    0.027239    0.000301
  13 H :    0.041925    0.000040
  14 H :    0.021872   -0.000147
  15 C :   -0.316195    0.003383
  16 C :   -0.334581    0.007265
  17 C :   -0.192071    0.001389
  18 H :    0.023342    0.000259
  19 H :    0.041310   -0.000426
  20 H :    0.034278    0.000888
  21 H :    0.031101    0.000519
  22 H :    0.029301   -0.000440
  23 H :    0.060833    0.000546

  Mayer bond orders larger than 0.100000
B(  0-V ,  1-S ) :   0.6125 B(  0-V ,  2-S ) :   0.7059 B(  0-V ,  3-S ) :   0.6032
B(  0-V ,  4-S ) :   0.6372 B(  0-V ,  5-O ) :   2.3690 B(  1-S , 15-C ) :   1.0167
B(  2-S ,  6-C ) :   1.0250 B(  3-S , 16-C ) :   1.0811 B(  3-S , 17-C ) :  -0.1070
B(  4-S ,  7-C ) :   1.1348 B(  6-C ,  8-C ) :   0.9096 B(  6-C , 13-H ) :   0.9621
B(  6-C , 14-H ) :   0.9717 B(  7-C ,  8-C ) :   0.8994 B(  7-C ,  9-H ) :   0.9833
B(  7-C , 10-H ) :   0.9572 B(  8-C , 11-H ) :   0.9926 B(  8-C , 12-H ) :   0.9379
B( 15-C , 17-C ) :   0.9086 B( 15-C , 22-H ) :   0.9685 B( 15-C , 23-H ) :   0.9839
B( 16-C , 17-C ) :   0.9020 B( 16-C , 18-H ) :   0.9683 B( 16-C , 19-H ) :   0.9719
B( 17-C , 20-H ) :   0.9479 B( 17-C , 21-H ) :   0.9614

FINAL SINGLE POINT ENERGY     -2847.001454114501

DIPOLE MOMENT
-------------
                                X             Y             Z
Electronic contribution:     -4.70703       6.47778      -2.59950
Nuclear contribution   :      4.30251      -5.26527       1.82010
                        -----------------------------------------
Total Dipole Moment    :     -0.40452       1.21252      -0.77940
                        -----------------------------------------
Magnitude (a.u.)       :      1.49710
Magnitude (Debye)      :      3.80533

Rotational constants in cm-1:     0.027970     0.011875     0.009611
Rotational constants in MHz :   838.517490   356.001203   288.118703

                             ****ORCA TERMINATED NORMALLY****
TOTAL RUN TIME: 0 days 0 hours 9 minutes 31 seconds 748 msec
