                         Program Version 5.0.4 -  RELEASE  -
|  1> ! nofrozencore ReducedPop printbasis
|  2> ! B3LYP TZVP
|  3>
|  4> %basis
|  5> newgto V "CP(PPP)" end
|  6> end
|  7>
|  8> %pal
|  9> nprocs 4
| 10> end
| 11>
| 12> % sym SymThresh 1e-2 end
| 13> * xyz -2 2
| 14> V 0.4753565500827399 -0.07834498406026069 -0.09908949151162817
| 15> S 0.056296922251838466 -1.876754234599848 1.6326491766654916
| 16> S -1.0903403217548349 -1.4509136158833607 -1.3855969224362596
| 17> S 0.32034410816973347 1.626475925578331 1.6978079495576197
| 18> S -0.1170801839953284 1.8977913510955722 -1.4891389874580079
| 19> O 1.988198831857565 -0.40886088194360914 -0.5126049346207149
| 20> C -1.3124706216585384 -0.6615741527931659 -3.0512539963413814
| 21> C 0.16395412254361744 1.4337582906702429 -3.261215239375085
| 22> C -0.035362425058531904 -0.040353098458296495 -3.628894824903692
| 23> H 1.1787542554487078 1.7328836027966898 -3.548473445952488
| 24> H -0.5318581320425974 2.0427356368952805 -3.852988694086733
| 25> H 0.8208572010811109 -0.624036047907383 -3.28132593990576
| 26> H -0.051386333988727925 -0.11124584421548951 -4.731630373685268
| 27> H -2.0970044033707214 0.1004310312693931 -2.9905456375745163
| 28> H -1.6790710276793828 -1.4520968651223451 -3.7168995599434154
| 29> C -1.1191456631316339 -1.027534159678553 2.786760294058738
| 30> C 0.6482630574078577 0.7110128112815942 3.265789484993125
| 31> C -0.4666142147974428 -0.13068687717940547 3.840768451629056
| 32> H 1.3408335412364043 1.3475941508049196 3.9976523507577304
| 33> H 1.7560939494022298 0.31904397985133337 3.3151144829267207
| 34> H -1.271863932535243 0.6084881139145274 4.070366655495022
| 35> H 0.10189002520071709 -0.835054886009324 4.496777063446836
| 36> H -1.7805024519529333 -1.788454736202769 3.236183200813649
| 37> H -1.8661270486905992 -0.4946323416528212 2.187638139483164
| 38> *
| 39>
| 40> % eprnmr
| 41> gtensor true
| 42> Nuclei = all H {aiso,adip,aorb,fgrad,rho}
| 43> Nuclei = all V {aiso,adip,aorb,fgrad,rho}
| 44> end
| 45>
| 46>                          ****END OF INPUT****

CARTESIAN COORDINATES (ANGSTROEM)
---------------------------------
  V      0.476083   -0.078494   -0.098946
  S      0.057023   -1.876904    1.632793
  S     -1.089614   -1.451063   -1.385453
  S      0.321070    1.626326    1.697952
  S     -0.116354    1.897642   -1.488995
  O      1.988925   -0.409010   -0.512461
  C     -1.311745   -0.661724   -3.051110
  C      0.164680    1.433609   -3.261072
  C     -0.034636   -0.040503   -3.628751
  H      1.179480    1.732734   -3.548330
  H     -0.531132    2.042586   -3.852845
  H      0.821583   -0.624185   -3.281182
  H     -0.050660   -0.111395   -4.731487
  H     -2.096278    0.100282   -2.990402
  H     -1.678345   -1.452246   -3.716756
  C     -1.118420   -1.027684    2.786904
  C      0.648989    0.710863    3.265933
  C     -0.465888   -0.130836    3.840912
  H      1.341560    1.347445    3.997796
  H      1.756820    0.318895    3.315258
  H     -1.271138    0.608339    4.070510
  H      0.102616   -0.835204    4.496921
  H     -1.779776   -1.788604    3.236327
  H     -1.865401   -0.494782    2.187782

 Total Charge           Charge          ....   -2
 Multiplicity           Mult            ....    2
 Number of Electrons    NEL             ....  145
 Basis Dimension        Dim             ....  353

ORBITAL ENERGIES
----------------
                 SPIN UP ORBITALS
  NO   OCC          E(Eh)            E(eV)
   0   1.0000    -196.606492     -5349.9346
   1   1.0000     -88.566248     -2410.0101
   2   1.0000     -88.560572     -2409.8557
   3   1.0000     -88.559328     -2409.8218
   4   1.0000     -88.555982     -2409.7308
   5   1.0000     -21.981848      -598.1565
   6   1.0000     -18.824309      -512.2355
   7   1.0000     -18.489644      -503.1288
   8   1.0000     -18.482454      -502.9331
   9   1.0000     -18.482372      -502.9309
  10   1.0000      -9.951386      -270.7910
  11   1.0000      -9.943666      -270.5809
  12   1.0000      -9.942990      -270.5625
  13   1.0000      -9.935320      -270.3538
  14   1.0000      -9.935068      -270.3469
  15   1.0000      -9.929082      -270.1840
  16   1.0000      -7.619920      -207.3486
  17   1.0000      -7.614416      -207.1988
  18   1.0000      -7.613642      -207.1777
  19   1.0000      -7.610188      -207.0838
  20   1.0000      -5.585317      -151.9842
  21   1.0000      -5.579821      -151.8346
  22   1.0000      -5.579074      -151.8143
  23   1.0000      -5.578747      -151.8054
  24   1.0000      -5.577220      -151.7639
  25   1.0000      -5.575501      -151.7171
  26   1.0000      -5.573256      -151.6560
  27   1.0000      -5.572687      -151.6405
  28   1.0000      -5.571581      -151.6104
  29   1.0000      -5.570600      -151.5837
  30   1.0000      -5.569430      -151.5519
  31   1.0000      -5.567153      -151.4899
  32   1.0000      -2.374516       -64.6139
  33   1.0000      -1.417228       -38.5647
  34   1.0000      -1.402649       -38.1680
  35   1.0000      -1.402109       -38.1533
  36   1.0000      -0.586761       -15.9666
  37   1.0000      -0.555451       -15.1146
  38   1.0000      -0.551569       -15.0089
  39   1.0000      -0.469463       -12.7748
  40   1.0000      -0.465506       -12.6671
  41   1.0000      -0.404052       -10.9948
  42   1.0000      -0.396661       -10.7937
  43   1.0000      -0.343500        -9.3471
  44   1.0000      -0.328710        -8.9447
  45   1.0000      -0.306051        -8.3281
  46   1.0000      -0.297694        -8.1007
  47   1.0000      -0.228911        -6.2290
  48   1.0000      -0.207221        -5.6388
  49   1.0000      -0.198930        -5.4132
  50   1.0000      -0.183673        -4.9980
  51   1.0000      -0.161121        -4.3843
  52   1.0000      -0.146074        -3.9749
  53   1.0000      -0.127434        -3.4676
  54   1.0000      -0.111963        -3.0467
  55   1.0000      -0.106453        -2.8967
  56   1.0000      -0.084499        -2.2993
  57   1.0000      -0.074528        -2.0280
  58   1.0000      -0.063325        -1.7232
  59   1.0000      -0.061423        -1.6714
  60   1.0000      -0.052512        -1.4289
  61   1.0000      -0.046136        -1.2554
  62   1.0000      -0.042159        -1.1472
  63   1.0000      -0.033361        -0.9078
  64   1.0000       0.002956         0.0804
  65   1.0000       0.029404         0.8001
  66   1.0000       0.035643         0.9699
  67   1.0000       0.036709         0.9989
  68   1.0000       0.047392         1.2896
  69   1.0000       0.051922         1.4129
  70   1.0000       0.063058         1.7159
  71   1.0000       0.072645         1.9768
  72   1.0000       0.081339         2.2133
  73   0.0000       0.234181         6.3724
  74   0.0000       0.246489         6.7073
  75   0.0000       0.248300         6.7566
  76   0.0000       0.250834         6.8255
  77   0.0000       0.251716         6.8495

                 SPIN DOWN ORBITALS
  NO   OCC          E(Eh)            E(eV)
   0   1.0000    -196.606634     -5349.9385
   1   1.0000     -88.566408     -2410.0145
   2   1.0000     -88.560748     -2409.8605
   3   1.0000     -88.559430     -2409.8246
   4   1.0000     -88.555965     -2409.7303
   5   1.0000     -21.966788      -597.7467
   6   1.0000     -18.827796      -512.3304
   7   1.0000     -18.484435      -502.9870
   8   1.0000     -18.466378      -502.4957
   9   1.0000     -18.465909      -502.4829
  10   1.0000      -9.951199      -270.7859
  11   1.0000      -9.943621      -270.5797
  12   1.0000      -9.942805      -270.5575
  13   1.0000      -9.935262      -270.3522
  14   1.0000      -9.934936      -270.3434
  15   1.0000      -9.929101      -270.1846
  16   1.0000      -7.620071      -207.3527
  17   1.0000      -7.614588      -207.2035
  18   1.0000      -7.613739      -207.1804
  19   1.0000      -7.610174      -207.0834
  20   1.0000      -5.585467      -151.9883
  21   1.0000      -5.579986      -151.8391
  22   1.0000      -5.579196      -151.8176
  23   1.0000      -5.579176      -151.8171
  24   1.0000      -5.577334      -151.7670
  25   1.0000      -5.575524      -151.7177
  26   1.0000      -5.573711      -151.6684
  27   1.0000      -5.573088      -151.6514
  28   1.0000      -5.571713      -151.6140
  29   1.0000      -5.570523      -151.5816
  30   1.0000      -5.569777      -151.5613
  31   1.0000      -5.566709      -151.4779
  32   1.0000      -2.329558       -63.3905
  33   1.0000      -1.398196       -38.0468
  34   1.0000      -1.340987       -36.4901
  35   1.0000      -1.339143       -36.4399
  36   1.0000      -0.594230       -16.1698
  37   1.0000      -0.555294       -15.1103
  38   1.0000      -0.551467       -15.0062
  39   1.0000      -0.469402       -12.7731
  40   1.0000      -0.465396       -12.6641
  41   1.0000      -0.404116       -10.9965
  42   1.0000      -0.396796       -10.7974
  43   1.0000      -0.343664        -9.3516
  44   1.0000      -0.329137        -8.9563
  45   1.0000      -0.305988        -8.3264
  46   1.0000      -0.297733        -8.1017
  47   1.0000      -0.228843        -6.2271
  48   1.0000      -0.207158        -5.6371
  49   1.0000      -0.198711        -5.4072
  50   1.0000      -0.183487        -4.9929
  51   1.0000      -0.160997        -4.3809
  52   1.0000      -0.145882        -3.9696
  53   1.0000      -0.127139        -3.4596
  54   1.0000      -0.111948        -3.0463
  55   1.0000      -0.106294        -2.8924
  56   1.0000      -0.083627        -2.2756
  57   1.0000      -0.073451        -1.9987
  58   1.0000      -0.062446        -1.6993
  59   1.0000      -0.060115        -1.6358
  60   1.0000      -0.051915        -1.4127
  61   1.0000      -0.046958        -1.2778
  62   1.0000      -0.043785        -1.1914
  63   1.0000      -0.034076        -0.9273
  64   1.0000       0.006978         0.1899
  65   1.0000       0.031501         0.8572
  66   1.0000       0.037474         1.0197
  67   1.0000       0.042983         1.1696
  68   1.0000       0.048123         1.3095
  69   1.0000       0.061858         1.6833
  70   1.0000       0.068541         1.8651
  71   1.0000       0.073204         1.9920
  72   0.0000       0.232739         6.3331
  73   0.0000       0.245492         6.6802
  74   0.0000       0.255362         6.9488
  75   0.0000       0.257617         7.0101
  76   0.0000       0.264330         7.1928

MULLIKEN ATOMIC CHARGES AND SPIN POPULATIONS
--------------------------------------------
   0 V :    0.531933    1.193521
   1 S :   -0.420085   -0.002940
   2 S :   -0.352436   -0.033155
   3 S :   -0.374378   -0.029121
   4 S :   -0.389140   -0.021508
   5 O :   -0.547358   -0.134581
   6 C :   -0.247039    0.005761
   7 C :   -0.233756    0.006669
   8 C :   -0.157789    0.003061
   9 H :    0.075227   -0.000957
  10 H :    0.051436    0.002212
  11 H :    0.138418    0.000624
  12 H :    0.005645   -0.000044
  13 H :    0.094172   -0.000134
  14 H :    0.048836   -0.000058
  15 C :   -0.279072   -0.003622
  16 C :   -0.231232    0.002229
  17 C :   -0.007737    0.011903
  18 H :    0.003590   -0.000517
  19 H :    0.059013   -0.000933
  20 H :    0.030361    0.001807
  21 H :    0.016189   -0.000121
  22 H :    0.053397   -0.000594
  23 H :    0.131805    0.000497
Sum of atomic charges         :   -2.0000000

LOEWDIN ATOMIC CHARGES AND SPIN POPULATIONS
-------------------------------------------
   0 V :   -0.205608    1.149726
   1 S :   -0.070739    0.002497
   2 S :   -0.037832   -0.022666
   3 S :   -0.046682   -0.020410
   4 S :   -0.064523   -0.012348
   5 O :   -0.376859   -0.121246
   6 C :   -0.326888    0.005198
   7 C :   -0.313570    0.007173
   8 C :   -0.187329    0.000495
   9 H :    0.036281   -0.000003
  10 H :    0.029256    0.000661
  11 H :    0.070271    0.000328
  12 H :    0.031619    0.000153
  13 H :    0.044710   -0.000071
  14 H :    0.027355   -0.000538
  15 C :   -0.329314    0.002769
  16 C :   -0.375545    0.007331
  17 C :   -0.195095    0.001185
  18 H :    0.035967   -0.000503
  19 H :    0.054581   -0.000886
  20 H :    0.057649    0.000830
  21 H :    0.059337    0.000586
  22 H :    0.030200   -0.000599
  23 H :    0.052760    0.000337

  Mayer bond orders larger than 0.100000
B(  0-V ,  1-S ) :   0.7150 B(  0-V ,  2-S ) :   0.8586 B(  0-V ,  3-S ) :   0.7590
B(  0-V ,  4-S ) :   0.7732 B(  0-V ,  5-O ) :   2.0713 B(  1-S , 15-C ) :   1.0407
B(  1-S , 17-C ) :  -0.1002 B(  2-S ,  6-C ) :   1.0098 B(  3-S , 16-C ) :   1.0498
B(  4-S ,  7-C ) :   1.0693 B(  6-C ,  8-C ) :   0.9012 B(  6-C , 13-H ) :   0.9740
B(  6-C , 14-H ) :   0.9679 B(  7-C ,  8-C ) :   0.9194 B(  7-C ,  9-H ) :   0.9769
B(  7-C , 10-H ) :   0.9690 B(  8-C , 11-H ) :   0.9884 B(  8-C , 12-H ) :   0.9453
B( 15-C , 17-C ) :   0.8857 B( 15-C , 22-H ) :   0.9671 B( 15-C , 23-H ) :   0.9818
B( 16-C , 17-C ) :   0.9648 B( 16-C , 18-H ) :   0.9279 B( 16-C , 19-H ) :   0.9278
B( 17-C , 20-H ) :   0.9497 B( 17-C , 21-H ) :   0.9473

FINAL SINGLE POINT ENERGY     -2847.651981045969

DIPOLE MOMENT
-------------
                                X             Y             Z
Electronic contribution:      5.59874      -1.08026       0.03343
Nuclear contribution   :     -5.96682       1.14289      -0.32924
                        -----------------------------------------
Total Dipole Moment    :     -0.36808       0.06264      -0.29581
                        -----------------------------------------
Magnitude (a.u.)       :      0.47635
Magnitude (Debye)      :      1.21079

Rotational constants in cm-1:     0.027167     0.011717     0.009602
Rotational constants in MHz :   814.435853   351.276156   287.873524

                             ****ORCA TERMINATED NORMALLY****
TOTAL RUN TIME: 0 days 0 hours 14 minutes 22 seconds 876 msec
