                         Program Version 5.0.4 -  RELEASE  -
|  1> ! nofrozencore ReducedPop printbasis
|  2> ! B3LYP TZVP
|  3>
|  4> %basis
|  5> newgto V "CP(PPP)" end
|  6> end
|  7>
|  8> %pal
|  9> nprocs 4
| 10> end
| 11>
| 12> % sym SymThresh 1e-2 end
| 13> * xyz -2 2
| 14> V 0.25908353081930546 0.41580467820538186 0.04492220339343172
| 15> S -2.0963709033630185 1.2939828488031064 0.36464348442186734
| 16> S -0.2583176357193662 -0.714155217499619 2.1532697866137047
| 17> S -0.24718954252000858 0.06534152727907468 -2.363303212850731
| 18> S 1.971548014603617 -1.316318379205508 -0.46156704608466187
| 19> O 1.113383382101469 1.7446545253281565 0.3113002137829009
| 20> C 1.228476846202646 -1.7014393011268751 2.6577135438677155
| 21> C 3.1446068933006788 -1.3689433356662921 0.9719380197063501
| 22> C 2.5710051006397947 -1.0292619623208106 2.3469241066669952
| 23> H 3.988930255509201 -0.7073995335301001 0.7466743788383932
| 24> H 3.5435110294960595 -2.391392152614107 1.0253106549160826
| 25> H 2.4327890681691398 0.05244384800256261 2.420036771826497
| 26> H 3.3158542354320004 -1.3113680831710204 3.113076921496485
| 27> H 1.225314980465833 -2.6824804094221233 2.1678933778517644
| 28> H 1.1302517137100372 -1.873586300682243 3.736104446808246
| 29> C -3.098148776503477 0.2485081919572364 -0.8458461310404832
| 30> C -1.7086646769146654 1.1967218536096191 -2.7675682531056505
| 31> C -2.980447634604622 0.723429079220499 -2.2318264397053573
| 32> H -1.281391249184201 1.2648981821167458 -3.860649093481031
| 33> H -1.4768034162561312 2.100556437705396 -2.195691363663308
| 34> H -3.2566929398815723 -0.03749280550677709 -2.989514776896537
| 35> H -3.769008410020858 1.5083980518327527 -2.210592679133856
| 36> H -3.9879357131508497 0.2432700701394532 -0.0939286760013638
| 37> H -2.5812816594822556 -0.7168687727961441 -0.8449430149230676
| 38> *
| 39>
| 40> % eprnmr
| 41> gtensor true
| 42> Nuclei = all H {aiso,adip,aorb,fgrad,rho}
| 43> Nuclei = all V {aiso,adip,aorb,fgrad,rho}
| 44> end
| 45>
| 46>                          ****END OF INPUT****

CARTESIAN COORDINATES (ANGSTROEM)
---------------------------------
  V      0.259252    0.416534    0.044825
  S     -2.096202    1.294712    0.364546
  S     -0.258149   -0.713426    2.153173
  S     -0.247021    0.066071   -2.363400
  S      1.971717   -1.315589   -0.461664
  O      1.113552    1.745384    0.311203
  C      1.228646   -1.700710    2.657616
  C      3.144776   -1.368214    0.971841
  C      2.571174   -1.028533    2.346827
  H      3.989099   -0.706670    0.746577
  H      3.543680   -2.390663    1.025214
  H      2.432958    0.053173    2.419940
  H      3.316023   -1.310639    3.112980
  H      1.225484   -2.681751    2.167796
  H      1.130421   -1.872857    3.736007
  C     -3.097980    0.249237   -0.845943
  C     -1.708496    1.197451   -2.767665
  C     -2.980279    0.724158   -2.231924
  H     -1.281222    1.265627   -3.860746
  H     -1.476635    2.101286   -2.195789
  H     -3.256524   -0.036764   -2.989612
  H     -3.768840    1.509127   -2.210690
  H     -3.987767    0.243999   -0.094026
  H     -2.581113   -0.716139   -0.845040

 Total Charge           Charge          ....   -2
 Multiplicity           Mult            ....    2
 Number of Electrons    NEL             ....  145
 Basis Dimension        Dim             ....  353

ORBITAL ENERGIES
----------------
                 SPIN UP ORBITALS
  NO   OCC          E(Eh)            E(eV)
   0   1.0000    -196.605795     -5349.9157
   1   1.0000     -88.561410     -2409.8785
   2   1.0000     -88.560660     -2409.8581
   3   1.0000     -88.558081     -2409.7879
   4   1.0000     -88.557295     -2409.7665
   5   1.0000     -21.981266      -598.1407
   6   1.0000     -18.823734      -512.2198
   7   1.0000     -18.488999      -503.1112
   8   1.0000     -18.481900      -502.9181
   9   1.0000     -18.481815      -502.9157
  10   1.0000      -9.942044      -270.5368
  11   1.0000      -9.942013      -270.5359
  12   1.0000      -9.941570      -270.5239
  13   1.0000      -9.936294      -270.3803
  14   1.0000      -9.934888      -270.3420
  15   1.0000      -9.927575      -270.1431
  16   1.0000      -7.615606      -207.2312
  17   1.0000      -7.614484      -207.2006
  18   1.0000      -7.612412      -207.1443
  19   1.0000      -7.611611      -207.1225
  20   1.0000      -5.580745      -151.8598
  21   1.0000      -5.579912      -151.8371
  22   1.0000      -5.577869      -151.7815
  23   1.0000      -5.576833      -151.7533
  24   1.0000      -5.574494      -151.6897
  25   1.0000      -5.573307      -151.6574
  26   1.0000      -5.572925      -151.6470
  27   1.0000      -5.571678      -151.6131
  28   1.0000      -5.571416      -151.6059
  29   1.0000      -5.570738      -151.5875
  30   1.0000      -5.569327      -151.5491
  31   1.0000      -5.568740      -151.5331
  32   1.0000      -2.373923       -64.5977
  33   1.0000      -1.416588       -38.5473
  34   1.0000      -1.402049       -38.1517
  35   1.0000      -1.401573       -38.1387
  36   1.0000      -0.586324       -15.9547
  37   1.0000      -0.569970       -15.5097
  38   1.0000      -0.551446       -15.0056
  39   1.0000      -0.470102       -12.7921
  40   1.0000      -0.468447       -12.7471
  41   1.0000      -0.406665       -11.0659
  42   1.0000      -0.397007       -10.8031
  43   1.0000      -0.334857        -9.1119
  44   1.0000      -0.326443        -8.8830
  45   1.0000      -0.303910        -8.2698
  46   1.0000      -0.276002        -7.5104
  47   1.0000      -0.232307        -6.3214
  48   1.0000      -0.216900        -5.9022
  49   1.0000      -0.208034        -5.6609
  50   1.0000      -0.198104        -5.3907
  51   1.0000      -0.167183        -4.5493
  52   1.0000      -0.157607        -4.2887
  53   1.0000      -0.125741        -3.4216
  54   1.0000      -0.113285        -3.0826
  55   1.0000      -0.103019        -2.8033
  56   1.0000      -0.102693        -2.7944
  57   1.0000      -0.076957        -2.0941
  58   1.0000      -0.063343        -1.7236
  59   1.0000      -0.060550        -1.6476
  60   1.0000      -0.047881        -1.3029
  61   1.0000      -0.044694        -1.2162
  62   1.0000      -0.032927        -0.8960
  63   1.0000      -0.025856        -0.7036
  64   1.0000       0.001950         0.0531
  65   1.0000       0.029384         0.7996
  66   1.0000       0.032174         0.8755
  67   1.0000       0.039212         1.0670
  68   1.0000       0.047199         1.2844
  69   1.0000       0.052561         1.4302
  70   1.0000       0.063263         1.7215
  71   1.0000       0.072348         1.9687
  72   1.0000       0.080946         2.2027
  73   0.0000       0.235351         6.4042
  74   0.0000       0.246863         6.7175
  75   0.0000       0.250399         6.8137
  76   0.0000       0.252067         6.8591
  77   0.0000       0.256794         6.9877

                 SPIN DOWN ORBITALS
  NO   OCC          E(Eh)            E(eV)
   0   1.0000    -196.605937     -5349.9195
   1   1.0000     -88.561584     -2409.8832
   2   1.0000     -88.560836     -2409.8629
   3   1.0000     -88.558182     -2409.7906
   4   1.0000     -88.557295     -2409.7665
   5   1.0000     -21.966215      -597.7311
   6   1.0000     -18.827211      -512.3145
   7   1.0000     -18.483793      -502.9696
   8   1.0000     -18.465843      -502.4811
   9   1.0000     -18.465350      -502.4677
  10   1.0000      -9.941945      -270.5341
  11   1.0000      -9.941854      -270.5316
  12   1.0000      -9.941394      -270.5191
  13   1.0000      -9.936260      -270.3794
  14   1.0000      -9.934752      -270.3383
  15   1.0000      -9.927595      -270.1436
  16   1.0000      -7.615772      -207.2357
  17   1.0000      -7.614654      -207.2053
  18   1.0000      -7.612507      -207.1469
  19   1.0000      -7.611613      -207.1225
  20   1.0000      -5.580924      -151.8647
  21   1.0000      -5.580079      -151.8417
  22   1.0000      -5.577988      -151.7848
  23   1.0000      -5.576871      -151.7544
  24   1.0000      -5.574939      -151.7018
  25   1.0000      -5.573760      -151.6697
  26   1.0000      -5.573055      -151.6505
  27   1.0000      -5.571817      -151.6169
  28   1.0000      -5.571809      -151.6166
  29   1.0000      -5.571099      -151.5973
  30   1.0000      -5.569247      -151.5469
  31   1.0000      -5.568346      -151.5224
  32   1.0000      -2.328980       -63.3748
  33   1.0000      -1.397575       -38.0299
  34   1.0000      -1.340408       -36.4743
  35   1.0000      -1.338621       -36.4257
  36   1.0000      -0.593753       -16.1568
  37   1.0000      -0.569791       -15.5048
  38   1.0000      -0.551349       -15.0030
  39   1.0000      -0.469958       -12.7882
  40   1.0000      -0.468374       -12.7451
  41   1.0000      -0.406697       -11.0668
  42   1.0000      -0.397182       -10.8079
  43   1.0000      -0.335075        -9.1178
  44   1.0000      -0.326809        -8.8929
  45   1.0000      -0.303879        -8.2690
  46   1.0000      -0.276022        -7.5109
  47   1.0000      -0.232227        -6.3192
  48   1.0000      -0.216835        -5.9004
  49   1.0000      -0.207972        -5.6592
  50   1.0000      -0.197918        -5.3856
  51   1.0000      -0.167059        -4.5459
  52   1.0000      -0.157482        -4.2853
  53   1.0000      -0.125472        -3.4143
  54   1.0000      -0.113268        -3.0822
  55   1.0000      -0.102861        -2.7990
  56   1.0000      -0.102455        -2.7879
  57   1.0000      -0.076099        -2.0708
  58   1.0000      -0.061698        -1.6789
  59   1.0000      -0.058396        -1.5890
  60   1.0000      -0.049509        -1.3472
  61   1.0000      -0.046117        -1.2549
  62   1.0000      -0.032976        -0.8973
  63   1.0000      -0.025362        -0.6901
  64   1.0000       0.005806         0.1580
  65   1.0000       0.031283         0.8512
  66   1.0000       0.034591         0.9413
  67   1.0000       0.046166         1.2562
  68   1.0000       0.047747         1.2993
  69   1.0000       0.060246         1.6394
  70   1.0000       0.067720         1.8428
  71   1.0000       0.073978         2.0130
  72   0.0000       0.233425         6.3518
  73   0.0000       0.250001         6.8029
  74   0.0000       0.255708         6.9582
  75   0.0000       0.259484         7.0609
  76   0.0000       0.265062         7.2127

MULLIKEN ATOMIC CHARGES AND SPIN POPULATIONS
--------------------------------------------
   0 V :    0.549809    1.194302
   1 S :   -0.465850   -0.006237
   2 S :   -0.351386   -0.032877
   3 S :   -0.456909   -0.032290
   4 S :   -0.383366   -0.021320
   5 O :   -0.547155   -0.134264
   6 C :   -0.243151    0.005978
   7 C :   -0.233439    0.006212
   8 C :   -0.162178    0.003049
   9 H :    0.076554   -0.000892
  10 H :    0.048272    0.002203
  11 H :    0.138134    0.000703
  12 H :    0.005782   -0.000052
  13 H :    0.091793   -0.000139
  14 H :    0.048898   -0.000011
  15 C :   -0.304729   -0.004276
  16 C :   -0.282422    0.001887
  17 C :    0.017595    0.013732
  18 H :    0.072571    0.001521
  19 H :    0.140030   -0.000147
  20 H :    0.008698    0.001461
  21 H :    0.002238    0.000206
  22 H :    0.082998    0.000743
  23 H :    0.147213    0.000508
Sum of atomic charges         :   -2.0000000

LOEWDIN ATOMIC CHARGES AND SPIN POPULATIONS
-------------------------------------------
   0 V :   -0.211775    1.150280
   1 S :   -0.093508    0.000166
   2 S :   -0.037368   -0.022465
   3 S :   -0.083365   -0.022619
   4 S :   -0.063627   -0.012244
   5 O :   -0.377981   -0.120850
   6 C :   -0.326786    0.005369
   7 C :   -0.315097    0.006809
   8 C :   -0.188553    0.000489
   9 H :    0.036543   -0.000004
  10 H :    0.028516    0.000635
  11 H :    0.069447    0.000347
  12 H :    0.031434    0.000154
  13 H :    0.044585   -0.000055
  14 H :    0.027477   -0.000518
  15 C :   -0.325422    0.003189
  16 C :   -0.333041    0.008810
  17 C :   -0.197403    0.001048
  18 H :    0.058760    0.000208
  19 H :    0.057204   -0.000647
  20 H :    0.040583    0.000745
  21 H :    0.040617    0.000758
  22 H :    0.060409    0.000046
  23 H :    0.058349    0.000347

  Mayer bond orders larger than 0.100000
B(  0-V ,  1-S ) :   0.6986 B(  0-V ,  2-S ) :   0.8563 B(  0-V ,  3-S ) :   0.7591
B(  0-V ,  4-S ) :   0.7731 B(  0-V ,  5-O ) :   2.0715 B(  1-S , 15-C ) :   0.9892
B(  1-S , 17-C ) :  -0.1096 B(  2-S ,  6-C ) :   1.0133 B(  3-S , 16-C ) :   0.9671
B(  3-S , 17-C ) :  -0.1034 B(  4-S ,  7-C ) :   1.0708 B(  6-C ,  8-C ) :   0.9007
B(  6-C , 13-H ) :   0.9728 B(  6-C , 14-H ) :   0.9686 B(  7-C ,  8-C ) :   0.9198
B(  7-C ,  9-H ) :   0.9783 B(  7-C , 10-H ) :   0.9672 B(  8-C , 11-H ) :   0.9895
B(  8-C , 12-H ) :   0.9452 B( 15-C , 17-C ) :   0.8976 B( 15-C , 22-H ) :   0.9801
B( 15-C , 23-H ) :   0.9768 B( 16-C , 17-C ) :   0.9203 B( 16-C , 18-H ) :   0.9735
B( 16-C , 19-H ) :   0.9683 B( 17-C , 20-H ) :   0.9514 B( 17-C , 21-H ) :   0.9468

FINAL SINGLE POINT ENERGY     -2847.659257520726

DIPOLE MOMENT
-------------
                                X             Y             Z
Electronic contribution:      1.84026       5.72260      -0.59044
Nuclear contribution   :     -1.83423      -6.14216       0.75626
                        -----------------------------------------
Total Dipole Moment    :      0.00603      -0.41956       0.16582
                        -----------------------------------------
Magnitude (a.u.)       :      0.45117
Magnitude (Debye)      :      1.14679

Rotational constants in cm-1:     0.027165     0.011753     0.009600
Rotational constants in MHz :   814.400541   352.348241   287.809366

                             ****ORCA TERMINATED NORMALLY****
TOTAL RUN TIME: 0 days 0 hours 14 minutes 21 seconds 914 msec
