                         Program Version 5.0.4 -  RELEASE  -
|  1> ! nofrozencore ReducedPop printbasis
|  2> ! B3LYP TZVP
|  3>
|  4> %basis
|  5> newgto V "CP(PPP)" end
|  6> end
|  7>
|  8> %pal
|  9> nprocs 8
| 10> end
| 11>
| 12> % sym SymThresh 1e-2 end
| 13> * xyz -2 2
| 14> V -0.33430295947346667 -0.34248717858935185 -0.11391685873999106
| 15> S -1.151620294419483 0.3647628778656363 2.1753127395428367
| 16> S -0.9774142889686355 1.9546590747001857 -0.6616301476702449
| 17> S 1.5965051319192394 -1.4632206213967618 0.9718040940317171
| 18> S 1.237074590843889 -0.3606577164770381 -2.042691913660989
| 19> O -1.4885844480844033 -1.369169609125159 -0.5398198220511271
| 20> C -0.6384235983292529 2.232570045591496 -2.4656969768071493
| 21> C 0.2631556981179047 0.08437978417041864 -3.555117604129072
| 22> C -0.9339747313178683 1.0193388231576224 -3.3557938250156774
| 23> H -0.08707811366823902 -0.8402883986448764 -4.035975174223179
| 24> H 0.9733537405245231 0.560042493730909 -4.251208890488397
| 25> H -1.7657989186066796 0.4620271523605718 -2.9170031279815354
| 26> H -1.263816845990649 1.357714702946 -4.352164917115217
| 27> H 0.4078215381415866 2.533659626461555 -2.596625757698156
| 28> H -1.2715700155646565 3.07859534316412 -2.767895598467018
| 29> C 0.43873002747077633 0.6776721403366238 3.0612467146772198
| 30> C 1.0639351696227886 -1.7857040390132983 2.7120778084096924
| 31> C 1.101692226511167 -0.5793934016167768 3.679703232900557
| 32> H 1.7735454128297417 -2.6297803612237822 3.1477919133470835
| 33> H 0.03184989233131964 -2.1875654509638953 2.6830063298049844
| 34> H 1.86726350112335 -0.4021051767120556 3.853265828930952
| 35> H 0.7852402664901115 -0.7479128423648066 4.2403240971330645
| 36> H 0.227622239973174 1.4504471989519865 3.936183776507892
| 37> H 1.1294834557168338 1.1592502973630785 2.360606426732456
| 38> *
| 39>
| 40> % eprnmr
| 41> gtensor true
| 42> Nuclei = all H {aiso,adip,aorb,fgrad,rho}
| 43> Nuclei = all V {aiso,adip,aorb,fgrad,rho}
| 44> end
| 45>
| 46>                          ****END OF INPUT****

CARTESIAN COORDINATES (ANGSTROEM)
---------------------------------
  V     -0.334763   -0.343076   -0.113806
  S     -1.152080    0.364174    2.175423
  S     -0.977874    1.954070   -0.661519
  S      1.596045   -1.463809    0.971915
  S      1.236615   -0.361246   -2.042581
  O     -1.489044   -1.369758   -0.539709
  C     -0.638883    2.231981   -2.465586
  C      0.262696    0.083791   -3.555007
  C     -0.934435    1.018750   -3.355683
  H     -0.087538   -0.840877   -4.035864
  H      0.972894    0.559454   -4.251098
  H     -1.766259    0.461439   -2.916892
  H     -1.264277    1.357126   -4.352054
  H      0.407362    2.533071   -2.596515
  H     -1.272030    3.078007   -2.767785
  C      0.438270    0.677084    3.061357
  C      1.063475   -1.786293    2.712189
  C      1.101232   -0.579982    3.679814
  H      1.773086   -2.630369    3.147903
  H      0.031390   -2.188154    2.683117
  H      1.866804   -0.402694    3.853377
  H      0.784780   -0.748501    4.240435
  H      0.227162    1.449859    3.936294
  H      1.129024    1.158662    2.360717

 Total Charge           Charge          ....   -2
 Multiplicity           Mult            ....    2
 Number of Electrons    NEL             ....  145
 Basis Dimension        Dim             ....  353

ORBITAL ENERGIES
----------------
                 SPIN UP ORBITALS
  NO   OCC          E(Eh)            E(eV)
   0   1.0000    -196.605856     -5349.9173
   1   1.0000     -88.560431     -2409.8518
   2   1.0000     -88.559740     -2409.8331
   3   1.0000     -88.558114     -2409.7888
   4   1.0000     -88.556131     -2409.7348
   5   1.0000     -21.981155      -598.1376
   6   1.0000     -18.823715      -512.2193
   7   1.0000     -18.488952      -503.1100
   8   1.0000     -18.481767      -502.9144
   9   1.0000     -18.481670      -502.9118
  10   1.0000      -9.942790      -270.5571
  11   1.0000      -9.942622      -270.5525
  12   1.0000      -9.941634      -270.5256
  13   1.0000      -9.934687      -270.3366
  14   1.0000      -9.927943      -270.1531
  15   1.0000      -9.863001      -268.3859
  16   1.0000      -7.614580      -207.2033
  17   1.0000      -7.613588      -207.1763
  18   1.0000      -7.612398      -207.1439
  19   1.0000      -7.610455      -207.0910
  20   1.0000      -5.579758      -151.8329
  21   1.0000      -5.579000      -151.8123
  22   1.0000      -5.577854      -151.7811
  23   1.0000      -5.575692      -151.7223
  24   1.0000      -5.573612      -151.6657
  25   1.0000      -5.572411      -151.6330
  26   1.0000      -5.571772      -151.6156
  27   1.0000      -5.571443      -151.6067
  28   1.0000      -5.570764      -151.5882
  29   1.0000      -5.569719      -151.5598
  30   1.0000      -5.569330      -151.5492
  31   1.0000      -5.567487      -151.4990
  32   1.0000      -2.373848       -64.5957
  33   1.0000      -1.416562       -38.5466
  34   1.0000      -1.401937       -38.1486
  35   1.0000      -1.401470       -38.1360
  36   1.0000      -0.586887       -15.9700
  37   1.0000      -0.585817       -15.9409
  38   1.0000      -0.550534       -14.9808
  39   1.0000      -0.468028       -12.7357
  40   1.0000      -0.455879       -12.4051
  41   1.0000      -0.439969       -11.9722
  42   1.0000      -0.398324       -10.8390
  43   1.0000      -0.334133        -9.0922
  44   1.0000      -0.326075        -8.8730
  45   1.0000      -0.306795        -8.3483
  46   1.0000      -0.296576        -8.0702
  47   1.0000      -0.262654        -7.1472
  48   1.0000      -0.206352        -5.6151
  49   1.0000      -0.197602        -5.3770
  50   1.0000      -0.191749        -5.2178
  51   1.0000      -0.159829        -4.3492
  52   1.0000      -0.145378        -3.9559
  53   1.0000      -0.134532        -3.6608
  54   1.0000      -0.111251        -3.0273
  55   1.0000      -0.105135        -2.8609
  56   1.0000      -0.096629        -2.6294
  57   1.0000      -0.083287        -2.2664
  58   1.0000      -0.070357        -1.9145
  59   1.0000      -0.062791        -1.7086
  60   1.0000      -0.058256        -1.5852
  61   1.0000      -0.045279        -1.2321
  62   1.0000      -0.041690        -1.1344
  63   1.0000      -0.035958        -0.9785
  64   1.0000       0.000848         0.0231
  65   1.0000       0.028879         0.7858
  66   1.0000       0.031696         0.8625
  67   1.0000       0.038429         1.0457
  68   1.0000       0.046798         1.2734
  69   1.0000       0.054902         1.4940
  70   1.0000       0.065906         1.7934
  71   1.0000       0.074114         2.0167
  72   1.0000       0.082449         2.2436
  73   0.0000       0.235627         6.4117
  74   0.0000       0.247531         6.7357
  75   0.0000       0.251290         6.8380
  76   0.0000       0.252436         6.8691
  77   0.0000       0.262627         7.1465

                 SPIN DOWN ORBITALS
  NO   OCC          E(Eh)            E(eV)
   0   1.0000    -196.605998     -5349.9212
   1   1.0000     -88.560591     -2409.8562
   2   1.0000     -88.559917     -2409.8378
   3   1.0000     -88.558219     -2409.7916
   4   1.0000     -88.556095     -2409.7339
   5   1.0000     -21.966106      -597.7281
   6   1.0000     -18.827189      -512.3139
   7   1.0000     -18.483749      -502.9684
   8   1.0000     -18.465715      -502.4776
   9   1.0000     -18.465200      -502.4636
  10   1.0000      -9.942612      -270.5522
  11   1.0000      -9.942441      -270.5476
  12   1.0000      -9.941574      -270.5240
  13   1.0000      -9.934559      -270.3331
  14   1.0000      -9.927963      -270.1536
  15   1.0000      -9.862957      -268.3847
  16   1.0000      -7.614732      -207.2074
  17   1.0000      -7.613760      -207.1810
  18   1.0000      -7.612497      -207.1466
  19   1.0000      -7.610422      -207.0901
  20   1.0000      -5.579912      -151.8371
  21   1.0000      -5.579165      -151.8168
  22   1.0000      -5.577977      -151.7845
  23   1.0000      -5.575704      -151.7226
  24   1.0000      -5.574036      -151.6772
  25   1.0000      -5.572864      -151.6453
  26   1.0000      -5.571888      -151.6188
  27   1.0000      -5.571849      -151.6177
  28   1.0000      -5.570898      -151.5918
  29   1.0000      -5.570052      -151.5688
  30   1.0000      -5.569260      -151.5473
  31   1.0000      -5.566990      -151.4855
  32   1.0000      -2.328929       -63.3734
  33   1.0000      -1.397562       -38.0296
  34   1.0000      -1.340360       -36.4730
  35   1.0000      -1.338521       -36.4230
  36   1.0000      -0.593729       -16.1562
  37   1.0000      -0.586292       -15.9538
  38   1.0000      -0.550440       -14.9782
  39   1.0000      -0.467981       -12.7344
  40   1.0000      -0.455759       -12.4018
  41   1.0000      -0.439891       -11.9700
  42   1.0000      -0.398529       -10.8445
  43   1.0000      -0.334263        -9.0958
  44   1.0000      -0.326423        -8.8824
  45   1.0000      -0.306709        -8.3460
  46   1.0000      -0.296671        -8.0728
  47   1.0000      -0.262606        -7.1459
  48   1.0000      -0.206292        -5.6135
  49   1.0000      -0.197410        -5.3718
  50   1.0000      -0.191625        -5.2144
  51   1.0000      -0.159706        -4.3458
  52   1.0000      -0.145250        -3.9525
  53   1.0000      -0.134417        -3.6577
  54   1.0000      -0.111242        -3.0270
  55   1.0000      -0.104962        -2.8562
  56   1.0000      -0.096441        -2.6243
  57   1.0000      -0.082116        -2.2345
  58   1.0000      -0.068373        -1.8605
  59   1.0000      -0.061835        -1.6826
  60   1.0000      -0.057811        -1.5731
  61   1.0000      -0.046105        -1.2546
  62   1.0000      -0.042753        -1.1634
  63   1.0000      -0.037299        -1.0150
  64   1.0000       0.005409         0.1472
  65   1.0000       0.029991         0.8161
  66   1.0000       0.034615         0.9419
  67   1.0000       0.046676         1.2701
  68   1.0000       0.048157         1.3104
  69   1.0000       0.063336         1.7235
  70   1.0000       0.070039         1.9058
  71   1.0000       0.075209         2.0465
  72   0.0000       0.234019         6.3680
  73   0.0000       0.252191         6.8625
  74   0.0000       0.256171         6.9708
  75   0.0000       0.265368         7.2210
  76   0.0000       0.266938         7.2638

MULLIKEN ATOMIC CHARGES AND SPIN POPULATIONS
--------------------------------------------
   0 V :    0.522241    1.191523
   1 S :   -0.423200   -0.000043
   2 S :   -0.351784   -0.033071
   3 S :   -0.403709   -0.029151
   4 S :   -0.384491   -0.021745
   5 O :   -0.547638   -0.133961
   6 C :   -0.245721    0.005527
   7 C :   -0.234440    0.006484
   8 C :   -0.158366    0.003065
   9 H :    0.074121   -0.000927
  10 H :    0.049631    0.002164
  11 H :    0.138439    0.000611
  12 H :    0.006230   -0.000047
  13 H :    0.094424   -0.000130
  14 H :    0.047555   -0.000073
  15 C :   -0.253291   -0.002158
  16 C :   -0.251246    0.003582
  17 C :   -0.230651    0.010981
  18 H :    0.005628    0.000010
  19 H :    0.127808   -0.000374
  20 H :    0.099618    0.000583
  21 H :    0.168443   -0.002290
  22 H :    0.009086   -0.000978
  23 H :    0.141313    0.000417
Sum of atomic charges         :   -2.0000000

LOEWDIN ATOMIC CHARGES AND SPIN POPULATIONS
-------------------------------------------
   0 V :   -0.209569    1.148064
   1 S :   -0.071298    0.005211
   2 S :   -0.037704   -0.022647
   3 S :   -0.059482   -0.020409
   4 S :   -0.062875   -0.012703
   5 O :   -0.377555   -0.120716
   6 C :   -0.327108    0.005034
   7 C :   -0.314773    0.006977
   8 C :   -0.187941    0.000480
   9 H :    0.036269   -0.000011
  10 H :    0.029256    0.000636
  11 H :    0.070139    0.000321
  12 H :    0.031258    0.000145
  13 H :    0.045165   -0.000072
  14 H :    0.027643   -0.000546
  15 C :   -0.290072    0.002716
  16 C :   -0.298758    0.007363
  17 C :   -0.061939    0.001317
  18 H :    0.027094   -0.000344
  19 H :    0.055290   -0.000660
  20 H :   -0.005549    0.000271
  21 H :   -0.102510    0.000086
  22 H :    0.029483   -0.000860
  23 H :    0.055538    0.000347

  Mayer bond orders larger than 0.100000
B(  0-V ,  1-S ) :   0.7122 B(  0-V ,  2-S ) :   0.8577 B(  0-V ,  3-S ) :   0.7740
B(  0-V ,  4-S ) :   0.7752 B(  0-V ,  5-O ) :   2.0710 B(  1-S , 15-C ) :   1.0364
B(  1-S , 17-C ) :  -0.1187 B(  2-S ,  6-C ) :   1.0115 B(  3-S , 16-C ) :   1.0396
B(  3-S , 17-C ) :  -0.1369 B(  4-S ,  7-C ) :   1.0714 B(  6-C ,  8-C ) :   0.9009
B(  6-C , 13-H ) :   0.9740 B(  6-C , 14-H ) :   0.9678 B(  7-C ,  8-C ) :   0.9196
B(  7-C ,  9-H ) :   0.9761 B(  7-C , 10-H ) :   0.9683 B(  8-C , 11-H ) :   0.9881
B(  8-C , 12-H ) :   0.9453 B( 15-C , 17-C ) :   0.8321 B( 15-C , 22-H ) :   0.9615
B( 15-C , 23-H ) :   0.9846 B( 16-C , 17-C ) :   0.8299 B( 16-C , 18-H ) :   0.9556
B( 16-C , 19-H ) :   0.9840 B( 17-C , 20-H ) :   1.0244 B( 17-C , 21-H ) :   1.0073

FINAL SINGLE POINT ENERGY     -2847.326971197561

DIPOLE MOMENT
-------------
                                X             Y             Z
Electronic contribution:     -3.88306      -4.75064       0.10896
Nuclear contribution   :      4.13457       5.10458      -0.14982
                        -----------------------------------------
Total Dipole Moment    :      0.25151       0.35394      -0.04086
                        -----------------------------------------
Magnitude (a.u.)       :      0.43612
Magnitude (Debye)      :      1.10853

Rotational constants in cm-1:     0.027224     0.011730     0.009602
Rotational constants in MHz :   816.162769   351.670427   287.852766

                             ****ORCA TERMINATED NORMALLY****
TOTAL RUN TIME: 0 days 0 hours 9 minutes 42 seconds 741 msec
