                         Program Version 5.0.4 -  RELEASE  -
|  1> ! nofrozencore ReducedPop printbasis
|  2> ! B3LYP TZVP
|  3>
|  4> %basis
|  5> newgto V "CP(PPP)" end
|  6> end
|  7>
|  8> %pal
|  9> nprocs 8
| 10> end
| 11>
| 12> % sym SymThresh 1e-2 end
| 13> * xyz -2 2
| 14> V 0.23787089394549168 0.4080182779675245 0.13768311408443878
| 15> S 2.0879391866611643 -1.3081115715970524 0.347747605121309
| 16> S 0.4555823369882642 -0.17117038265348272 -2.231340539882376
| 17> S -0.8431858766110082 -0.579059834261079 2.141878771264438
| 18> S -2.0924681472419113 1.1716938455321027 -0.26474215676804524
| 19> O 1.0417094257086381 1.7552326337179907 0.46534830531891436
| 20> C -0.7769643931627658 0.8636831113329998 -3.2030427016912166
| 21> C -2.0320393484751182 2.4157371518634925 -1.5696558603169297
| 22> C -0.9427298254441424 2.309766141702136 -2.6590062121052838
| 23> H -1.919540349862595 3.50816976768076 -1.3176826934224741
| 24> H -2.877076563986918 2.511286351990178 -2.3498689898586056
| 25> H -0.07228148065692207 2.708598356318384 -2.105606202553885
| 26> H -1.0037321561254082 2.7928535559169085 -3.7018096311631314
| 27> H -1.6939901413542455 0.25485180958240644 -3.1935070167375863
| 28> H -0.3594121161057502 0.821494995804384 -4.218505613323958
| 29> C 1.1620596758437387 -2.7914678168392366 0.9563878252041547
| 30> C 0.5077528689934919 -1.4534364742114212 3.057191638561566
| 31> C 0.9267874202124387 -2.80612836241223 2.469778502077996
| 32> H 0.16526403733553757 -1.5961143406849359 4.089178575255115
| 33> H 1.374705721349463 -0.7932421199126314 3.073074507315365
| 34> H 0.15734975277175633 -3.5633993315104093 2.6884644754154436
| 35> H 1.8423232981699111 -3.1203744535689912 2.9970062227436842
| 36> H 1.7258847871115455 -3.6855523513489485 0.6659148470609249
| 37> H 0.2123363564849129 -2.8170417154411633 0.42152112182905027
| 38> *
| 39>
| 40> % eprnmr
| 41> gtensor true
| 42> Nuclei = all H {aiso,adip,aorb,fgrad,rho}
| 43> Nuclei = all V {aiso,adip,aorb,fgrad,rho}
| 44> end
| 45>
| 46>                          ****END OF INPUT****

CARTESIAN COORDINATES (ANGSTROEM)
---------------------------------
  V      0.238338    0.408448    0.138092
  S      2.088406   -1.307682    0.348157
  S      0.456049   -0.170741   -2.230931
  S     -0.842719   -0.578630    2.142288
  S     -2.092001    1.172124   -0.264333
  O      1.042176    1.755662    0.465758
  C     -0.776498    0.864113   -3.202633
  C     -2.031573    2.416167   -1.569247
  C     -0.942263    2.310196   -2.658597
  H     -1.919074    3.508600   -1.317273
  H     -2.876610    2.511716   -2.349460
  H     -0.071815    2.709028   -2.105197
  H     -1.003265    2.793283   -3.701400
  H     -1.693523    0.255282   -3.193098
  H     -0.358945    0.821925   -4.218096
  C      1.162526   -2.791038    0.956797
  C      0.508220   -1.453007    3.057601
  C      0.927254   -2.805699    2.470188
  H      0.165731   -1.595685    4.089588
  H      1.375172   -0.792812    3.073484
  H      0.157816   -3.562970    2.688874
  H      1.842790   -3.119945    2.997416
  H      1.726352   -3.685123    0.666324
  H      0.212803   -2.816612    0.421930

 Total Charge           Charge          ....   -2
 Multiplicity           Mult            ....    2
 Number of Electrons    NEL             ....  145
 Basis Dimension        Dim             ....  353

ORBITAL ENERGIES
----------------
                 SPIN UP ORBITALS
  NO   OCC          E(Eh)            E(eV)
   0   1.0000    -196.608933     -5350.0011
   1   1.0000     -88.569999     -2410.1122
   2   1.0000     -88.563572     -2409.9373
   3   1.0000     -88.558209     -2409.7914
   4   1.0000     -88.558108     -2409.7886
   5   1.0000     -21.984251      -598.2219
   6   1.0000     -18.826668      -512.2997
   7   1.0000     -18.492018      -503.1934
   8   1.0000     -18.484911      -503.0000
   9   1.0000     -18.484754      -502.9957
  10   1.0000      -9.950865      -270.7768
  11   1.0000      -9.936937      -270.3978
  12   1.0000      -9.936487      -270.3856
  13   1.0000      -9.935361      -270.3549
  14   1.0000      -9.935130      -270.3486
  15   1.0000      -9.933745      -270.3110
  16   1.0000      -7.624274      -207.4670
  17   1.0000      -7.617846      -207.2921
  18   1.0000      -7.612490      -207.1464
  19   1.0000      -7.611853      -207.1290
  20   1.0000      -5.590075      -152.1137
  21   1.0000      -5.583048      -151.9224
  22   1.0000      -5.582991      -151.9209
  23   1.0000      -5.581073      -151.8687
  24   1.0000      -5.577728      -151.7777
  25   1.0000      -5.577071      -151.7598
  26   1.0000      -5.576820      -151.7530
  27   1.0000      -5.575113      -151.7065
  28   1.0000      -5.571746      -151.6149
  29   1.0000      -5.570823      -151.5898
  30   1.0000      -5.569530      -151.5546
  31   1.0000      -5.569101      -151.5429
  32   1.0000      -2.376977       -64.6808
  33   1.0000      -1.419619       -38.6298
  34   1.0000      -1.405271       -38.2394
  35   1.0000      -1.404511       -38.2187
  36   1.0000      -0.589131       -16.0311
  37   1.0000      -0.552525       -15.0350
  38   1.0000      -0.549600       -14.9554
  39   1.0000      -0.469078       -12.7643
  40   1.0000      -0.467223       -12.7138
  41   1.0000      -0.406154       -11.0520
  42   1.0000      -0.398671       -10.8484
  43   1.0000      -0.339675        -9.2430
  44   1.0000      -0.331051        -9.0083
  45   1.0000      -0.299556        -8.1513
  46   1.0000      -0.287027        -7.8104
  47   1.0000      -0.215063        -5.8522
  48   1.0000      -0.204599        -5.5674
  49   1.0000      -0.202936        -5.5222
  50   1.0000      -0.199325        -5.4239
  51   1.0000      -0.145831        -3.9683
  52   1.0000      -0.135202        -3.6790
  53   1.0000      -0.134978        -3.6729
  54   1.0000      -0.109957        -2.9921
  55   1.0000      -0.108823        -2.9612
  56   1.0000      -0.095899        -2.6095
  57   1.0000      -0.087823        -2.3898
  58   1.0000      -0.066421        -1.8074
  59   1.0000      -0.061933        -1.6853
  60   1.0000      -0.055752        -1.5171
  61   1.0000      -0.046358        -1.2615
  62   1.0000      -0.045699        -1.2435
  63   1.0000      -0.034379        -0.9355
  64   1.0000      -0.002802        -0.0763
  65   1.0000       0.025420         0.6917
  66   1.0000       0.028481         0.7750
  67   1.0000       0.035679         0.9709
  68   1.0000       0.045315         1.2331
  69   1.0000       0.051944         1.4135
  70   1.0000       0.064282         1.7492
  71   1.0000       0.069951         1.9035
  72   1.0000       0.078503         2.1362
  73   0.0000       0.232227         6.3192
  74   0.0000       0.244764         6.6604
  75   0.0000       0.247047         6.7225
  76   0.0000       0.248693         6.7673
  77   0.0000       0.257391         7.0040

                 SPIN DOWN ORBITALS
  NO   OCC          E(Eh)            E(eV)
   0   1.0000    -196.609076     -5350.0049
   1   1.0000     -88.570093     -2410.1148
   2   1.0000     -88.563730     -2409.9416
   3   1.0000     -88.558295     -2409.7937
   4   1.0000     -88.558186     -2409.7907
   5   1.0000     -21.969203      -597.8124
   6   1.0000     -18.830148      -512.3944
   7   1.0000     -18.486811      -503.0517
   8   1.0000     -18.468804      -502.5617
   9   1.0000     -18.468347      -502.5493
  10   1.0000      -9.950687      -270.7720
  11   1.0000      -9.936802      -270.3941
  12   1.0000      -9.936303      -270.3806
  13   1.0000      -9.935304      -270.3534
  14   1.0000      -9.935156      -270.3493
  15   1.0000      -9.933704      -270.3098
  16   1.0000      -7.624362      -207.4694
  17   1.0000      -7.617996      -207.2962
  18   1.0000      -7.612470      -207.1458
  19   1.0000      -7.612035      -207.1340
  20   1.0000      -5.590179      -152.1165
  21   1.0000      -5.583424      -151.9327
  22   1.0000      -5.583145      -151.9251
  23   1.0000      -5.581006      -151.8669
  24   1.0000      -5.577747      -151.7782
  25   1.0000      -5.577251      -151.7647
  26   1.0000      -5.577238      -151.7644
  27   1.0000      -5.575229      -151.7097
  28   1.0000      -5.572094      -151.6244
  29   1.0000      -5.571296      -151.6027
  30   1.0000      -5.569245      -151.5469
  31   1.0000      -5.569062      -151.5419
  32   1.0000      -2.332048       -63.4583
  33   1.0000      -1.400590       -38.1120
  34   1.0000      -1.343521       -36.5591
  35   1.0000      -1.341731       -36.5103
  36   1.0000      -0.596586       -16.2339
  37   1.0000      -0.552365       -15.0306
  38   1.0000      -0.549513       -14.9530
  39   1.0000      -0.469030       -12.7629
  40   1.0000      -0.467107       -12.7106
  41   1.0000      -0.406211       -11.0536
  42   1.0000      -0.398811       -10.8522
  43   1.0000      -0.339849        -9.2478
  44   1.0000      -0.331436        -9.0188
  45   1.0000      -0.299508        -8.1500
  46   1.0000      -0.287042        -7.8108
  47   1.0000      -0.214995        -5.8503
  48   1.0000      -0.204446        -5.5632
  49   1.0000      -0.202871        -5.5204
  50   1.0000      -0.199234        -5.4214
  51   1.0000      -0.145396        -3.9564
  52   1.0000      -0.135075        -3.6756
  53   1.0000      -0.134752        -3.6668
  54   1.0000      -0.109794        -2.9876
  55   1.0000      -0.108759        -2.9595
  56   1.0000      -0.095049        -2.5864
  57   1.0000      -0.087380        -2.3777
  58   1.0000      -0.064980        -1.7682
  59   1.0000      -0.061893        -1.6842
  60   1.0000      -0.054789        -1.4909
  61   1.0000      -0.047580        -1.2947
  62   1.0000      -0.046432        -1.2635
  63   1.0000      -0.034829        -0.9478
  64   1.0000       0.001793         0.0488
  65   1.0000       0.026384         0.7179
  66   1.0000       0.032479         0.8838
  67   1.0000       0.041757         1.1363
  68   1.0000       0.046717         1.2712
  69   1.0000       0.062325         1.6959
  70   1.0000       0.067875         1.8470
  71   1.0000       0.069834         1.9003
  72   0.0000       0.230642         6.2761
  73   0.0000       0.248549         6.7634
  74   0.0000       0.251821         6.8524
  75   0.0000       0.259549         7.0627
  76   0.0000       0.262708         7.1486

MULLIKEN ATOMIC CHARGES AND SPIN POPULATIONS
--------------------------------------------
   0 V :    0.522180    1.192917
   1 S :   -0.423975   -0.001998
   2 S :   -0.375606   -0.035071
   3 S :   -0.416585   -0.029280
   4 S :   -0.325549   -0.019701
   5 O :   -0.545299   -0.134434
   6 C :   -0.251971    0.006491
   7 C :   -0.200697    0.004777
   8 C :   -0.183335    0.003658
   9 H :    0.058419   -0.000877
  10 H :    0.009622    0.002374
  11 H :    0.143442   -0.000045
  12 H :    0.003115   -0.000049
  13 H :    0.102608   -0.000219
  14 H :    0.053685    0.000014
  15 C :   -0.256058   -0.002275
  16 C :   -0.250321    0.004033
  17 C :   -0.069749    0.008406
  18 H :    0.048499   -0.000072
  19 H :    0.132183   -0.000266
  20 H :    0.015590    0.001632
  21 H :    0.014555    0.000123
  22 H :    0.053234   -0.000573
  23 H :    0.142012    0.000435
Sum of atomic charges         :   -2.0000000

LOEWDIN ATOMIC CHARGES AND SPIN POPULATIONS
-------------------------------------------
   0 V :   -0.209480    1.149210
   1 S :   -0.070252    0.003419
   2 S :   -0.053179   -0.024434
   3 S :   -0.063737   -0.020221
   4 S :   -0.014128   -0.010881
   5 O :   -0.375136   -0.121144
   6 C :   -0.327971    0.005629
   7 C :   -0.344231    0.006318
   8 C :   -0.202968    0.000071
   9 H :    0.030120   -0.000139
  10 H :    0.028325    0.000769
  11 H :    0.069792    0.000319
  12 H :    0.040547    0.000164
  13 H :    0.050220   -0.000130
  14 H :    0.026131   -0.000486
  15 C :   -0.316908    0.002730
  16 C :   -0.323152    0.007719
  17 C :   -0.188103    0.001127
  18 H :    0.028845   -0.000186
  19 H :    0.054686   -0.000612
  20 H :    0.036497    0.000624
  21 H :    0.036008    0.000399
  22 H :    0.031030   -0.000607
  23 H :    0.057042    0.000342

  Mayer bond orders larger than 0.100000
B(  0-V ,  1-S ) :   0.7159 B(  0-V ,  2-S ) :   0.8805 B(  0-V ,  3-S ) :   0.7712
B(  0-V ,  4-S ) :   0.7489 B(  0-V ,  5-O ) :   2.0711 B(  1-S , 15-C ) :   1.0240
B(  2-S ,  6-C ) :   0.9572 B(  3-S , 16-C ) :   1.0216 B(  4-S ,  7-C ) :   1.0914
B(  6-C ,  8-C ) :   0.9021 B(  6-C , 13-H ) :   0.9640 B(  6-C , 14-H ) :   0.9811
B(  7-C ,  8-C ) :   0.8795 B(  7-C ,  9-H ) :   0.9729 B(  7-C , 10-H ) :   0.9500
B(  8-C , 11-H ) :   0.9910 B(  8-C , 12-H ) :   0.9578 B( 15-C , 17-C ) :   0.8994
B( 15-C , 22-H ) :   0.9682 B( 15-C , 23-H ) :   0.9789 B( 16-C , 17-C ) :   0.9040
B( 16-C , 18-H ) :   0.9633 B( 16-C , 19-H ) :   0.9759 B( 17-C , 20-H ) :   0.9573
B( 17-C , 21-H ) :   0.9598

FINAL SINGLE POINT ENERGY     -2847.680409745544

DIPOLE MOMENT
-------------
                                X             Y             Z
Electronic contribution:      3.16423       4.30564       3.21435
Nuclear contribution   :     -3.36681      -4.62639      -3.39617
                        -----------------------------------------
Total Dipole Moment    :     -0.20259      -0.32074      -0.18182
                        -----------------------------------------
Magnitude (a.u.)       :      0.42068
Magnitude (Debye)      :      1.06929

Rotational constants in cm-1:     0.027202     0.011715     0.009599
Rotational constants in MHz :   815.503327   351.204168   287.766029

                             ****ORCA TERMINATED NORMALLY****
TOTAL RUN TIME: 0 days 0 hours 9 minutes 41 seconds 943 msec
