                         Program Version 5.0.4 -  RELEASE  -
|  1> ! nofrozencore ReducedPop printbasis
|  2> ! B3LYP TZVP
|  3>
|  4> %basis
|  5> newgto V "CP(PPP)" end
|  6> end
|  7>
|  8> %pal
|  9> nprocs 4
| 10> end
| 11>
| 12> % sym SymThresh 1e-2 end
| 13> * xyz -2 2
| 14> V 0.4112683645427751 -0.07033490846086302 0.19724815560890066
| 15> S -0.7501472375077732 -2.2724198436334215 0.7097161921152086
| 16> S 0.14445358955033377 -0.8501399168648263 -2.100539344001938
| 17> S -1.1243220395952078 1.0592238300569163 1.7851460101837693
| 18> S 0.7391720492998739 2.2654869759903695 -0.6186299891476621
| 19> O 1.857014692850096 -0.42287559907834416 0.7937335761129146
| 20> C 0.9614834975941778 0.3855518763292684 -3.2194590987558835
| 21> C 2.133799256728183 2.222931425947693 -1.8408027282309234
| 22> C 2.2863545546850577 0.9397989474055399 -2.6718425557997114
| 23> H 3.0780811418248595 2.413872140961414 -1.31072869824519
| 24> H 1.9696946548326808 3.0722789844563976 -2.521178561424623
| 25> H 2.76222671288183 0.16233132678808798 -2.0659213327767976
| 26> H 2.975670814732505 1.161171862336219 -3.507009618734005
| 27> H 0.2699533789909017 1.215108304320677 -3.412394244550199
| 28> H 1.1383787130175433 -0.13599851898239937 -4.169186387435937
| 29> C -2.487437887440037 -1.7698680038089347 1.107774730227326
| 30> C -1.5776719701608526 -0.2721190912391451 3.0019991787875218
| 31> C -2.67655034941813 -1.2445930620627497 2.5372881977396564
| 32> H -1.8987645995847475 0.22085790405209016 3.927837387790194
| 33> H -0.6710266332019986 -0.8423083165071937 3.2243138831437315
| 34> H -3.6636219064126014 -0.7489537254977245 2.5980248639544956
| 35> H -2.6998528489122493 -2.0994598635065915 3.242013479123475
| 36> H -3.145915905003307 -2.6361900529296394 0.9505039366315383
| 37> H -2.7874080307140323 -0.9951786642239132 0.3957454192298768
| 38> *
| 39>
| 40> % eprnmr
| 41> gtensor true
| 42> Nuclei = all H {aiso,adip,aorb,fgrad,rho}
| 43> Nuclei = all V {aiso,adip,aorb,fgrad,rho}
| 44> end
| 45>
| 46>                          ****END OF INPUT****

CARTESIAN COORDINATES (ANGSTROEM)
---------------------------------
  V      0.411753   -0.070584    0.197771
  S     -0.749663   -2.272669    0.710239
  S      0.144938   -0.850389   -2.100016
  S     -1.123838    1.058974    1.785669
  S      0.739656    2.265238   -0.618107
  O      1.857499   -0.423125    0.794257
  C      0.961968    0.385303   -3.218936
  C      2.134283    2.222682   -1.840280
  C      2.286839    0.939550   -2.671319
  H      3.078565    2.413623   -1.310206
  H      1.970179    3.072030   -2.520655
  H      2.762711    0.162082   -2.065398
  H      2.976155    1.160923   -3.506486
  H      0.270438    1.214859   -3.411871
  H      1.138863   -0.136248   -4.168663
  C     -2.486954   -1.770117    1.108298
  C     -1.577188   -0.272368    3.002522
  C     -2.676066   -1.244842    2.537811
  H     -1.898280    0.220609    3.928361
  H     -0.670542   -0.842558    3.224837
  H     -3.663138   -0.749203    2.598548
  H     -2.699369   -2.099709    3.242537
  H     -3.145432   -2.636439    0.951027
  H     -2.786924   -0.995428    0.396269

 Total Charge           Charge          ....   -2
 Multiplicity           Mult            ....    2
 Number of Electrons    NEL             ....  145
 Basis Dimension        Dim             ....  353

ORBITAL ENERGIES
----------------
                 SPIN UP ORBITALS
  NO   OCC          E(Eh)            E(eV)
   0   1.0000    -196.607632     -5349.9656
   1   1.0000     -88.563179     -2409.9266
   2   1.0000     -88.562176     -2409.8993
   3   1.0000     -88.558602     -2409.8021
   4   1.0000     -88.556494     -2409.7447
   5   1.0000     -21.983053      -598.1893
   6   1.0000     -18.824704      -512.2462
   7   1.0000     -18.490771      -503.1595
   8   1.0000     -18.483705      -502.9672
   9   1.0000     -18.483596      -502.9642
  10   1.0000      -9.943515      -270.5768
  11   1.0000      -9.936545      -270.3871
  12   1.0000      -9.936140      -270.3761
  13   1.0000      -9.934588      -270.3339
  14   1.0000      -9.933965      -270.3169
  15   1.0000      -9.929867      -270.2054
  16   1.0000      -7.617198      -207.2745
  17   1.0000      -7.616018      -207.2424
  18   1.0000      -7.612836      -207.1558
  19   1.0000      -7.610668      -207.0968
  20   1.0000      -5.582419      -151.9053
  21   1.0000      -5.581404      -151.8777
  22   1.0000      -5.578306      -151.7934
  23   1.0000      -5.576206      -151.7363
  24   1.0000      -5.575942      -151.7291
  25   1.0000      -5.574856      -151.6995
  26   1.0000      -5.574435      -151.6881
  27   1.0000      -5.573221      -151.6551
  28   1.0000      -5.571875      -151.6184
  29   1.0000      -5.569893      -151.5645
  30   1.0000      -5.569762      -151.5609
  31   1.0000      -5.567727      -151.5056
  32   1.0000      -2.375673       -64.6453
  33   1.0000      -1.418094       -38.5883
  34   1.0000      -1.403866       -38.2011
  35   1.0000      -1.403339       -38.1868
  36   1.0000      -0.587354       -15.9827
  37   1.0000      -0.550415       -14.9775
  38   1.0000      -0.549085       -14.9414
  39   1.0000      -0.468979       -12.7616
  40   1.0000      -0.464455       -12.6385
  41   1.0000      -0.403252       -10.9730
  42   1.0000      -0.396507       -10.7895
  43   1.0000      -0.337454        -9.1826
  44   1.0000      -0.328052        -8.9267
  45   1.0000      -0.304027        -8.2730
  46   1.0000      -0.285715        -7.7747
  47   1.0000      -0.212814        -5.7910
  48   1.0000      -0.206600        -5.6219
  49   1.0000      -0.201854        -5.4927
  50   1.0000      -0.198467        -5.4006
  51   1.0000      -0.160023        -4.3545
  52   1.0000      -0.133347        -3.6286
  53   1.0000      -0.131180        -3.5696
  54   1.0000      -0.112247        -3.0544
  55   1.0000      -0.107110        -2.9146
  56   1.0000      -0.106179        -2.8893
  57   1.0000      -0.080991        -2.2039
  58   1.0000      -0.069372        -1.8877
  59   1.0000      -0.064192        -1.7468
  60   1.0000      -0.055732        -1.5165
  61   1.0000      -0.047483        -1.2921
  62   1.0000      -0.041473        -1.1285
  63   1.0000      -0.034783        -0.9465
  64   1.0000      -0.000610        -0.0166
  65   1.0000       0.027130         0.7382
  66   1.0000       0.030087         0.8187
  67   1.0000       0.035960         0.9785
  68   1.0000       0.046390         1.2623
  69   1.0000       0.054231         1.4757
  70   1.0000       0.063788         1.7358
  71   1.0000       0.071764         1.9528
  72   1.0000       0.080490         2.1902
  73   0.0000       0.232959         6.3391
  74   0.0000       0.246260         6.7011
  75   0.0000       0.247359         6.7310
  76   0.0000       0.251951         6.8559
  77   0.0000       0.258456         7.0329

                 SPIN DOWN ORBITALS
  NO   OCC          E(Eh)            E(eV)
   0   1.0000    -196.607773     -5349.9695
   1   1.0000     -88.563332     -2409.9308
   2   1.0000     -88.562354     -2409.9042
   3   1.0000     -88.558714     -2409.8051
   4   1.0000     -88.556481     -2409.7444
   5   1.0000     -21.967969      -597.7788
   6   1.0000     -18.828215      -512.3418
   7   1.0000     -18.485545      -503.0172
   8   1.0000     -18.467640      -502.5300
   9   1.0000     -18.467075      -502.5147
  10   1.0000      -9.943330      -270.5718
  11   1.0000      -9.936368      -270.3823
  12   1.0000      -9.936002      -270.3724
  13   1.0000      -9.934527      -270.3322
  14   1.0000      -9.933917      -270.3156
  15   1.0000      -9.929887      -270.2060
  16   1.0000      -7.617343      -207.2784
  17   1.0000      -7.616191      -207.2471
  18   1.0000      -7.612942      -207.1587
  19   1.0000      -7.610657      -207.0965
  20   1.0000      -5.582565      -151.9093
  21   1.0000      -5.581572      -151.8823
  22   1.0000      -5.578433      -151.7969
  23   1.0000      -5.576628      -151.7478
  24   1.0000      -5.575968      -151.7298
  25   1.0000      -5.575311      -151.7119
  26   1.0000      -5.574528      -151.6906
  27   1.0000      -5.573359      -151.6588
  28   1.0000      -5.572282      -151.6295
  29   1.0000      -5.570238      -151.5739
  30   1.0000      -5.569715      -151.5597
  31   1.0000      -5.567304      -151.4940
  32   1.0000      -2.330638       -63.4199
  33   1.0000      -1.399006       -38.0689
  34   1.0000      -1.342207       -36.5233
  35   1.0000      -1.340208       -36.4689
  36   1.0000      -0.594890       -16.1878
  37   1.0000      -0.550319       -14.9749
  38   1.0000      -0.548922       -14.9369
  39   1.0000      -0.468928       -12.7602
  40   1.0000      -0.464330       -12.6351
  41   1.0000      -0.403325       -10.9750
  42   1.0000      -0.396648       -10.7933
  43   1.0000      -0.337623        -9.1872
  44   1.0000      -0.328469        -8.9381
  45   1.0000      -0.304008        -8.2725
  46   1.0000      -0.285736        -7.7753
  47   1.0000      -0.212742        -5.7890
  48   1.0000      -0.206539        -5.6202
  49   1.0000      -0.201710        -5.4888
  50   1.0000      -0.198331        -5.3969
  51   1.0000      -0.159901        -4.3511
  52   1.0000      -0.133184        -3.6241
  53   1.0000      -0.130905        -3.5621
  54   1.0000      -0.112232        -3.0540
  55   1.0000      -0.107041        -2.9127
  56   1.0000      -0.106009        -2.8847
  57   1.0000      -0.079837        -2.1725
  58   1.0000      -0.067316        -1.8318
  59   1.0000      -0.063131        -1.7179
  60   1.0000      -0.055906        -1.5213
  61   1.0000      -0.047997        -1.3061
  62   1.0000      -0.042553        -1.1579
  63   1.0000      -0.036121        -0.9829
  64   1.0000       0.004120         0.1121
  65   1.0000       0.028035         0.7629
  66   1.0000       0.032953         0.8967
  67   1.0000       0.044446         1.2094
  68   1.0000       0.047816         1.3012
  69   1.0000       0.061000         1.6599
  70   1.0000       0.068315         1.8589
  71   1.0000       0.073614         2.0032
  72   0.0000       0.232954         6.3390
  73   0.0000       0.249465         6.7883
  74   0.0000       0.255600         6.9552
  75   0.0000       0.258842         7.0435
  76   0.0000       0.263336         7.1657

MULLIKEN ATOMIC CHARGES AND SPIN POPULATIONS
--------------------------------------------
   0 V :    0.529049    1.194376
   1 S :   -0.423720   -0.003945
   2 S :   -0.351717   -0.033084
   3 S :   -0.415121   -0.027778
   4 S :   -0.390531   -0.022601
   5 O :   -0.543886   -0.135546
   6 C :   -0.245916    0.005822
   7 C :   -0.233433    0.006777
   8 C :   -0.159546    0.002633
   9 H :    0.074776   -0.000979
  10 H :    0.050944    0.002190
  11 H :    0.137040    0.000533
  12 H :    0.006301   -0.000046
  13 H :    0.098770   -0.000132
  14 H :    0.048251    0.000010
  15 C :   -0.253692   -0.001622
  16 C :   -0.253395    0.003168
  17 C :   -0.068680    0.008151
  18 H :    0.048421    0.000129
  19 H :    0.136638   -0.000408
  20 H :    0.013141    0.001886
  21 H :    0.012549    0.000477
  22 H :    0.049786   -0.000624
  23 H :    0.133970    0.000612
Sum of atomic charges         :   -2.0000000

LOEWDIN ATOMIC CHARGES AND SPIN POPULATIONS
-------------------------------------------
   0 V :   -0.206254    1.151178
   1 S :   -0.075901    0.001740
   2 S :   -0.033380   -0.022789
   3 S :   -0.064704   -0.019371
   4 S :   -0.067472   -0.013694
   5 O :   -0.377364   -0.122223
   6 C :   -0.326571    0.005413
   7 C :   -0.314180    0.007138
   8 C :   -0.187949    0.000393
   9 H :    0.037072   -0.000021
  10 H :    0.029221    0.000614
  11 H :    0.069545    0.000288
  12 H :    0.031432    0.000147
  13 H :    0.046495   -0.000086
  14 H :    0.027630   -0.000519
  15 C :   -0.320189    0.002978
  16 C :   -0.320762    0.007379
  17 C :   -0.189341    0.001225
  18 H :    0.028578   -0.000148
  19 H :    0.056949   -0.000571
  20 H :    0.035555    0.000702
  21 H :    0.036113    0.000516
  22 H :    0.029733   -0.000621
  23 H :    0.055742    0.000331

  Mayer bond orders larger than 0.100000
B(  0-V ,  1-S ) :   0.7040 B(  0-V ,  2-S ) :   0.8666 B(  0-V ,  3-S ) :   0.7742
B(  0-V ,  4-S ) :   0.7675 B(  0-V ,  5-O ) :   2.0717 B(  1-S , 15-C ) :   1.0346
B(  2-S ,  6-C ) :   1.0057 B(  3-S , 16-C ) :   1.0159 B(  4-S ,  7-C ) :   1.0728
B(  6-C ,  8-C ) :   0.9002 B(  6-C , 13-H ) :   0.9739 B(  6-C , 14-H ) :   0.9669
B(  7-C ,  8-C ) :   0.9190 B(  7-C ,  9-H ) :   0.9764 B(  7-C , 10-H ) :   0.9688
B(  8-C , 11-H ) :   0.9887 B(  8-C , 12-H ) :   0.9451 B( 15-C , 17-C ) :   0.8969
B( 15-C , 22-H ) :   0.9666 B( 15-C , 23-H ) :   0.9783 B( 16-C , 17-C ) :   0.9039
B( 16-C , 18-H ) :   0.9639 B( 16-C , 19-H ) :   0.9773 B( 17-C , 20-H ) :   0.9566
B( 17-C , 21-H ) :   0.9586

FINAL SINGLE POINT ENERGY     -2847.717581893982

DIPOLE MOMENT
-------------
                                X             Y             Z
Electronic contribution:      4.24288      -0.92439       3.03385
Nuclear contribution   :     -4.34956       1.05030      -3.37461
                        -----------------------------------------
Total Dipole Moment    :     -0.10668       0.12591      -0.34076
                        -----------------------------------------
Magnitude (a.u.)       :      0.37861
Magnitude (Debye)      :      0.96236

Rotational constants in cm-1:     0.027474     0.011584     0.009509
Rotational constants in MHz :   823.660828   347.271750   285.076377

                             ****ORCA TERMINATED NORMALLY****
TOTAL RUN TIME: 0 days 0 hours 14 minutes 23 seconds 260 msec
