                         Program Version 5.0.4 -  RELEASE  -
|  1> ! nofrozencore ReducedPop printbasis
|  2> ! B3LYP TZVP
|  3>
|  4> %basis
|  5> newgto V "CP(PPP)" end
|  6> end
|  7>
|  8> %pal
|  9> nprocs 4
| 10> end
| 11>
| 12> % sym SymThresh 1e-2 end
| 13> * xyz -2 2
| 14> V -0.2514401697620809 0.29547938887088815 -0.30245537130707795
| 15> S -0.7482314741244699 1.3804795636510767 1.9302251070153078
| 16> S 2.0136548783873813 1.0503498756247005 0.23623990809106962
| 17> S -1.7209764137821884 -1.598587172988168 0.3423139232314337
| 18> S 0.6895321124061754 -1.4522791907880777 -1.8023815673629167
| 19> O -0.9672668050743983 1.3242855972234155 -1.3011489420342266
| 20> C 3.1224832787941676 0.5588773813511858 -1.164245497426923
| 21> C 1.7878294344001728 -0.5973299307705967 -3.0249386870789547
| 22> C 2.4904361530536763 0.676077380391204 -2.549369217004782
| 23> H 1.2051937402429929 -0.36664776013201544 -3.9245686071596815
| 24> H 2.5762815446845018 -1.3579309237639838 -3.3281126029468306
| 25> H 1.7683446133699423 1.5132913338514629 -2.533398536442612
| 26> H 3.2802891535608456 0.9393097019416218 -3.315837297250788
| 27> H 3.49511883171837 -0.5342246282770367 -0.9966317305799974
| 28> H 4.0985024108790045 1.2953056112908419 -1.0915038677963753
| 29> C -0.8611926639060024 -0.08363550378519037 3.0663302300603696
| 30> C -2.8190770816253936 -0.9093731653245711 1.6427391403214395
| 31> C -2.240045269623186 -0.7718596328156585 3.031559033069365
| 32> H -4.140614705429529 -1.9381905445840535 1.7215421613851642
| 33> H -3.2328238924205626 0.16711683637355523 1.264875002224432
| 34> H -2.13013107899006 -1.8362549902701584 3.5338430941252312
| 35> H -2.946939970961441 -0.19222767283136824 3.6638765920305807
| 36> H -0.6875655997136285 0.15096810537546987 3.8256586397539154
| 37> H -0.14869296006798954 -0.7568379873055123 2.775455002858371
| 38> *
| 39>
| 40> % eprnmr
| 41> gtensor true
| 42> Nuclei = all H {aiso,adip,aorb,fgrad,rho}
| 43> Nuclei = all V {aiso,adip,aorb,fgrad,rho}
| 44> end
| 45>
| 46>                          ****END OF INPUT****

CARTESIAN COORDINATES (ANGSTROEM)
---------------------------------
  V     -0.252017    0.295903   -0.302695
  S     -0.748809    1.380903    1.929986
  S      2.013078    1.050774    0.236001
  S     -1.721554   -1.598163    0.342075
  S      0.688955   -1.451855   -1.802621
  O     -0.967844    1.324709   -1.301388
  C      3.121906    0.559301   -1.164485
  C      1.787252   -0.596906   -3.025178
  C      2.489859    0.676501   -2.549608
  H      1.204616   -0.366224   -3.924808
  H      2.575704   -1.357507   -3.328352
  H      1.767767    1.513715   -2.533638
  H      3.279712    0.939734   -3.316077
  H      3.494542   -0.533801   -0.996871
  H      4.097925    1.295729   -1.091743
  C     -0.861770   -0.083212    3.066091
  C     -2.819654   -0.908949    1.642500
  C     -2.240623   -0.771436    3.031320
  H     -4.141192   -1.937767    1.721303
  H     -3.233401    0.167541    1.264636
  H     -2.130708   -1.835831    3.533604
  H     -2.947517   -0.191804    3.663637
  H     -0.688143    0.151392    3.825419
  H     -0.149270   -0.756414    2.775216

 Total Charge           Charge          ....   -2
 Multiplicity           Mult            ....    2
 Number of Electrons    NEL             ....  145
 Basis Dimension        Dim             ....  353

ORBITAL ENERGIES
----------------
                 SPIN UP ORBITALS
  NO   OCC          E(Eh)            E(eV)
   0   1.0000    -196.614695     -5350.1578
   1   1.0000     -88.574433     -2410.2328
   2   1.0000     -88.568450     -2410.0701
   3   1.0000     -88.566066     -2410.0052
   4   1.0000     -88.564941     -2409.9746
   5   1.0000     -21.989876      -598.3749
   6   1.0000     -18.832356      -512.4544
   7   1.0000     -18.497638      -503.3463
   8   1.0000     -18.490507      -503.1523
   9   1.0000     -18.490433      -503.1503
  10   1.0000      -9.993465      -271.9360
  11   1.0000      -9.960283      -271.0331
  12   1.0000      -9.952648      -270.8253
  13   1.0000      -9.949386      -270.7366
  14   1.0000      -9.939265      -270.4611
  15   1.0000      -9.906283      -269.5637
  16   1.0000      -7.628326      -207.5773
  17   1.0000      -7.622218      -207.4111
  18   1.0000      -7.620324      -207.3596
  19   1.0000      -7.619178      -207.3284
  20   1.0000      -5.593720      -152.2129
  21   1.0000      -5.587683      -152.0486
  22   1.0000      -5.587328      -152.0389
  23   1.0000      -5.585756      -151.9961
  24   1.0000      -5.585359      -151.9853
  25   1.0000      -5.584357      -151.9581
  26   1.0000      -5.581040      -151.8678
  27   1.0000      -5.579384      -151.8228
  28   1.0000      -5.579351      -151.8218
  29   1.0000      -5.578395      -151.7958
  30   1.0000      -5.577262      -151.7650
  31   1.0000      -5.576342      -151.7400
  32   1.0000      -2.382611       -64.8341
  33   1.0000      -1.425273       -38.7837
  34   1.0000      -1.410786       -38.3894
  35   1.0000      -1.410284       -38.3758
  36   1.0000      -0.594581       -16.1794
  37   1.0000      -0.565642       -15.3919
  38   1.0000      -0.554321       -15.0838
  39   1.0000      -0.480116       -13.0646
  40   1.0000      -0.469060       -12.7638
  41   1.0000      -0.410137       -11.1604
  42   1.0000      -0.401750       -10.9322
  43   1.0000      -0.355111        -9.6631
  44   1.0000      -0.331365        -9.0169
  45   1.0000      -0.299705        -8.1554
  46   1.0000      -0.277640        -7.5550
  47   1.0000      -0.235294        -6.4027
  48   1.0000      -0.204836        -5.5739
  49   1.0000      -0.200318        -5.4509
  50   1.0000      -0.188196        -5.1211
  51   1.0000      -0.160923        -4.3789
  52   1.0000      -0.148074        -4.0293
  53   1.0000      -0.136253        -3.7076
  54   1.0000      -0.111705        -3.0396
  55   1.0000      -0.108663        -2.9569
  56   1.0000      -0.095088        -2.5875
  57   1.0000      -0.080981        -2.2036
  58   1.0000      -0.071041        -1.9331
  59   1.0000      -0.064851        -1.7647
  60   1.0000      -0.061176        -1.6647
  61   1.0000      -0.052472        -1.4278
  62   1.0000      -0.048420        -1.3176
  63   1.0000      -0.042679        -1.1614
  64   1.0000      -0.005947        -0.1618
  65   1.0000       0.020580         0.5600
  66   1.0000       0.024565         0.6684
  67   1.0000       0.029148         0.7932
  68   1.0000       0.038014         1.0344
  69   1.0000       0.046151         1.2558
  70   1.0000       0.056217         1.5297
  71   1.0000       0.065447         1.7809
  72   1.0000       0.073937         2.0119
  73   0.0000       0.207953         5.6587
  74   0.0000       0.228260         6.2113
  75   0.0000       0.239998         6.5307
  76   0.0000       0.242716         6.6046
  77   0.0000       0.244010         6.6399

                 SPIN DOWN ORBITALS
  NO   OCC          E(Eh)            E(eV)
   0   1.0000    -196.614836     -5350.1617
   1   1.0000     -88.574579     -2410.2368
   2   1.0000     -88.568628     -2410.0749
   3   1.0000     -88.566170     -2410.0080
   4   1.0000     -88.564901     -2409.9735
   5   1.0000     -21.974860      -597.9664
   6   1.0000     -18.835823      -512.5488
   7   1.0000     -18.492443      -503.2050
   8   1.0000     -18.474477      -502.7161
   9   1.0000     -18.474019      -502.7036
  10   1.0000      -9.993268      -271.9306
  11   1.0000      -9.960150      -271.0295
  12   1.0000      -9.952462      -270.8202
  13   1.0000      -9.949341      -270.7353
  14   1.0000      -9.939283      -270.4616
  15   1.0000      -9.906233      -269.5623
  16   1.0000      -7.628464      -207.5811
  17   1.0000      -7.622392      -207.4158
  18   1.0000      -7.620422      -207.3622
  19   1.0000      -7.619142      -207.3274
  20   1.0000      -5.593869      -152.2169
  21   1.0000      -5.587849      -152.0531
  22   1.0000      -5.587705      -152.0492
  23   1.0000      -5.585878      -151.9995
  24   1.0000      -5.585470      -151.9884
  25   1.0000      -5.584366      -151.9583
  26   1.0000      -5.581502      -151.8804
  27   1.0000      -5.579794      -151.8339
  28   1.0000      -5.579484      -151.8255
  29   1.0000      -5.578719      -151.8047
  30   1.0000      -5.577185      -151.7629
  31   1.0000      -5.575837      -151.7262
  32   1.0000      -2.337777       -63.6141
  33   1.0000      -1.406284       -38.2669
  34   1.0000      -1.349293       -36.7161
  35   1.0000      -1.347526       -36.6680
  36   1.0000      -0.602014       -16.3816
  37   1.0000      -0.565493       -15.3878
  38   1.0000      -0.554218       -15.0810
  39   1.0000      -0.479997       -13.0614
  40   1.0000      -0.469035       -12.7631
  41   1.0000      -0.410207       -11.1623
  42   1.0000      -0.401954       -10.9377
  43   1.0000      -0.355010        -9.6603
  44   1.0000      -0.331738        -9.0271
  45   1.0000      -0.299660        -8.1542
  46   1.0000      -0.277622        -7.5545
  47   1.0000      -0.235258        -6.4017
  48   1.0000      -0.204762        -5.5719
  49   1.0000      -0.200100        -5.4450
  50   1.0000      -0.187962        -5.1147
  51   1.0000      -0.160799        -4.3756
  52   1.0000      -0.147908        -4.0248
  53   1.0000      -0.135986        -3.7004
  54   1.0000      -0.111486        -3.0337
  55   1.0000      -0.108610        -2.9554
  56   1.0000      -0.093940        -2.5562
  57   1.0000      -0.080365        -2.1869
  58   1.0000      -0.069933        -1.9030
  59   1.0000      -0.064180        -1.7464
  60   1.0000      -0.060256        -1.6396
  61   1.0000      -0.054019        -1.4699
  62   1.0000      -0.048995        -1.3332
  63   1.0000      -0.043501        -1.1837
  64   1.0000      -0.001837        -0.0500
  65   1.0000       0.022077         0.6007
  66   1.0000       0.026992         0.7345
  67   1.0000       0.037530         1.0212
  68   1.0000       0.039257         1.0682
  69   1.0000       0.053901         1.4667
  70   1.0000       0.061358         1.6696
  71   1.0000       0.066869         1.8196
  72   0.0000       0.206631         5.6227
  73   0.0000       0.228370         6.2143
  74   0.0000       0.246752         6.7145
  75   0.0000       0.247276         6.7287
  76   0.0000       0.256685         6.9848

MULLIKEN ATOMIC CHARGES AND SPIN POPULATIONS
--------------------------------------------
   0 V :    0.515708    1.190315
   1 S :   -0.440105    0.000573
   2 S :   -0.333141   -0.033358
   3 S :   -0.344089   -0.026273
   4 S :   -0.378749   -0.021866
   5 O :   -0.539754   -0.134526
   6 C :   -0.217672    0.005741
   7 C :   -0.229220    0.006652
   8 C :   -0.153018    0.003267
   9 H :    0.080080   -0.000979
  10 H :    0.043226    0.002307
  11 H :    0.138159    0.000588
  12 H :    0.005631   -0.000069
  13 H :    0.083196   -0.000114
  14 H :    0.010889   -0.000679
  15 C :   -0.317857   -0.002617
  16 C :   -0.143671    0.003872
  17 C :   -0.078838    0.009586
  18 H :   -0.163433   -0.003513
  19 H :    0.123610   -0.000223
  20 H :    0.013097    0.001316
  21 H :    0.024964   -0.000048
  22 H :    0.155854   -0.000103
  23 H :    0.145134    0.000153
Sum of atomic charges         :   -2.0000000

LOEWDIN ATOMIC CHARGES AND SPIN POPULATIONS
-------------------------------------------
   0 V :   -0.210769    1.146895
   1 S :   -0.065284    0.005811
   2 S :   -0.030141   -0.022984
   3 S :   -0.024630   -0.018051
   4 S :   -0.058269   -0.012642
   5 O :   -0.371613   -0.121232
   6 C :   -0.339292    0.005232
   7 C :   -0.316788    0.007197
   8 C :   -0.197016    0.000537
   9 H :    0.037411   -0.000029
  10 H :    0.033085    0.000706
  11 H :    0.072788    0.000315
  12 H :    0.035438    0.000147
  13 H :    0.052318   -0.000091
  14 H :    0.031329   -0.000969
  15 C :   -0.253141    0.002399
  16 C :   -0.308284    0.008283
  17 C :   -0.192787    0.001215
  18 H :   -0.071287   -0.003095
  19 H :    0.075557   -0.000641
  20 H :    0.047111    0.000601
  21 H :    0.041059    0.000357
  22 H :   -0.039834   -0.000224
  23 H :    0.053038    0.000265

  Mayer bond orders larger than 0.100000
B(  0-V ,  1-S ) :   0.7085 B(  0-V ,  2-S ) :   0.8608 B(  0-V ,  3-S ) :   0.7492
B(  0-V ,  4-S ) :   0.7817 B(  0-V ,  5-O ) :   2.0793 B(  1-S , 15-C ) :   0.9875
B(  2-S ,  6-C ) :   1.0164 B(  3-S , 16-C ) :   1.0468 B(  4-S ,  7-C ) :   1.0666
B(  6-C ,  8-C ) :   0.9092 B(  6-C , 13-H ) :   0.9612 B(  6-C , 14-H ) :   0.9511
B(  7-C ,  8-C ) :   0.9195 B(  7-C ,  9-H ) :   0.9739 B(  7-C , 10-H ) :   0.9649
B(  8-C , 11-H ) :   0.9860 B(  8-C , 12-H ) :   0.9409 B( 15-C , 17-C ) :   0.8691
B( 15-C , 22-H ) :   0.9725 B( 15-C , 23-H ) :   0.9929 B( 16-C , 17-C ) :   0.9384
B( 16-C , 18-H ) :   0.8357 B( 16-C , 19-H ) :   0.9421 B( 17-C , 20-H ) :   0.9448
B( 17-C , 21-H ) :   0.9626

FINAL SINGLE POINT ENERGY     -2847.539634431885

DIPOLE MOMENT
-------------
                                X             Y             Z
Electronic contribution:     -3.02207       4.20449      -2.87857
Nuclear contribution   :      4.08072      -4.06188       2.85374
                        -----------------------------------------
Total Dipole Moment    :      1.05865       0.14261      -0.02484
                        -----------------------------------------
Magnitude (a.u.)       :      1.06850
Magnitude (Debye)      :      2.71592

Rotational constants in cm-1:     0.027145     0.011715     0.009592
Rotational constants in MHz :   813.792385   351.195724   287.550842

                             ****ORCA TERMINATED NORMALLY****
TOTAL RUN TIME: 0 days 0 hours 14 minutes 18 seconds 707 msec
