                         Program Version 5.0.4 -  RELEASE  -
|  1> ! nofrozencore ReducedPop printbasis
|  2> ! B3LYP TZVP
|  3>
|  4> %basis
|  5> newgto V "CP(PPP)" end
|  6> end
|  7>
|  8> %pal
|  9> nprocs 8
| 10> end
| 11>
| 12> % sym SymThresh 1e-2 end
| 13> * xyz -2 2
| 14> V 0.3712640854653178 0.31550419572127786 0.06796655380310819
| 15> S -0.7654359598221397 1.3576380459224355 -1.939657824076729
| 16> S -1.734924045071807 0.9481050033809785 1.1422596410911283
| 17> S 1.166229759867232 -1.5258074831650466 -1.3950677391813509
| 18> S 0.7304879160383306 -1.4302075867477415 1.8038994453073538
| 19> O 1.5078008305172106 1.4048912503589455 0.367433315659439
| 20> C -1.6474137078061268 0.4929351885773773 2.9349602859329553
| 21> C 0.6472345963883527 -0.5949572196775472 3.4561522916666405
| 22> C -0.2643040153615255 0.6295415377020345 3.569085578885092
| 23> H 1.671739460383717 -0.30736348618426834 3.761916325089862
| 24> H 0.30469433036590704 -1.3527453798402145 4.167110035766494
| 25> H 0.2601524928090122 1.5592327499726704 3.056557714109603
| 26> H -0.36863229134909703 0.8692342424836279 4.610073346049022
| 27> H -2.077263407526781 -1.0208008415890513 3.057252122876573
| 28> H -2.2125726434865314 0.9251549333720449 3.3382985955382107
| 29> C -1.322218207580954 -0.1347070647482765 -2.8790493662272123
| 30> C 1.1437960952654807 -0.841094910575519 -3.113702094153742
| 31> C -0.2389204326076313 -0.7590811754392153 -3.768075836561335
| 32> H 1.7986395739589902 -1.4703095498243102 -3.728852435245736
| 33> H 1.5733616034339097 0.16053616860093514 -3.0792021593594354
| 34> H -0.56636127926301 -1.7686590491961696 -4.06435175196452
| 35> H -0.14434483686487545 -0.1677188626706256 -4.693135428428198
| 36> H -2.18273673855858 0.14831280729379834 -3.4978081104800887
| 37> H -1.669272810754885 -0.8753618020114244 -2.1585355722201567
| 38> *
| 39>
| 40> % eprnmr
| 41> gtensor true
| 42> Nuclei = all H {aiso,adip,aorb,fgrad,rho}
| 43> Nuclei = all V {aiso,adip,aorb,fgrad,rho}
| 44> end
| 45>
| 46>                          ****END OF INPUT****

CARTESIAN COORDINATES (ANGSTROEM)
---------------------------------
  V      0.371834    0.315961    0.067775
  S     -0.764866    1.358095   -1.939849
  S     -1.734354    0.948562    1.142068
  S      1.166800   -1.525351   -1.395259
  S      0.731058   -1.429751    1.803708
  O      1.508371    1.405348    0.367242
  C     -1.646844    0.493392    2.934769
  C      0.647804   -0.594500    3.455961
  C     -0.263734    0.629998    3.568894
  H      1.672309   -0.306907    3.761725
  H      0.305264   -1.352289    4.166919
  H      0.260722    1.559690    3.056366
  H     -0.368062    0.869691    4.609882
  H     -2.076694   -1.020344    3.057061
  H     -2.212003    0.925612    3.338107
  C     -1.321648   -0.134250   -2.879241
  C      1.144366   -0.840638   -3.113893
  C     -0.238351   -0.758624   -3.768267
  H      1.799209   -1.469853   -3.729044
  H      1.573931    0.160993   -3.079394
  H     -0.565791   -1.768202   -4.064543
  H     -0.143775   -0.167262   -4.693327
  H     -2.182167    0.148770   -3.497999
  H     -1.668703   -0.874905   -2.158727

 Total Charge           Charge          ....   -2
 Multiplicity           Mult            ....    2
 Number of Electrons    NEL             ....  145
 Basis Dimension        Dim             ....  353

ORBITAL ENERGIES
----------------
                 SPIN UP ORBITALS
  NO   OCC          E(Eh)            E(eV)
   0   1.0000    -196.609600     -5350.0192
   1   1.0000     -88.569037     -2410.0860
   2   1.0000     -88.563012     -2409.9221
   3   1.0000     -88.559565     -2409.8283
   4   1.0000     -88.559425     -2409.8245
   5   1.0000     -21.984886      -598.2392
   6   1.0000     -18.827560      -512.3240
   7   1.0000     -18.492680      -503.2114
   8   1.0000     -18.485494      -503.0159
   9   1.0000     -18.485409      -503.0135
  10   1.0000      -9.944004      -270.5901
  11   1.0000      -9.943152      -270.5669
  12   1.0000      -9.938776      -270.4478
  13   1.0000      -9.935880      -270.3690
  14   1.0000      -9.935584      -270.3610
  15   1.0000      -9.933278      -270.2982
  16   1.0000      -7.622541      -207.4199
  17   1.0000      -7.617162      -207.2735
  18   1.0000      -7.613933      -207.1857
  19   1.0000      -7.613601      -207.1766
  20   1.0000      -5.587890      -152.0542
  21   1.0000      -5.582356      -151.9036
  22   1.0000      -5.581236      -151.8731
  23   1.0000      -5.579999      -151.8395
  24   1.0000      -5.579153      -151.8165
  25   1.0000      -5.579001      -151.8123
  26   1.0000      -5.576174      -151.7354
  27   1.0000      -5.574385      -151.6867
  28   1.0000      -5.573153      -151.6532
  29   1.0000      -5.572656      -151.6397
  30   1.0000      -5.570997      -151.5945
  31   1.0000      -5.570557      -151.5826
  32   1.0000      -2.377555       -64.6966
  33   1.0000      -1.420290       -38.6481
  34   1.0000      -1.405712       -38.2514
  35   1.0000      -1.405071       -38.2339
  36   1.0000      -0.589882       -16.0515
  37   1.0000      -0.556519       -15.1437
  38   1.0000      -0.552329       -15.0296
  39   1.0000      -0.482772       -13.1369
  40   1.0000      -0.467517       -12.7218
  41   1.0000      -0.406197       -11.0532
  42   1.0000      -0.399076       -10.8594
  43   1.0000      -0.345954        -9.4139
  44   1.0000      -0.335955        -9.1418
  45   1.0000      -0.308964        -8.4073
  46   1.0000      -0.287533        -7.8242
  47   1.0000      -0.215552        -5.8655
  48   1.0000      -0.212459        -5.7813
  49   1.0000      -0.204276        -5.5586
  50   1.0000      -0.200216        -5.4482
  51   1.0000      -0.143446        -3.9034
  52   1.0000      -0.135374        -3.6837
  53   1.0000      -0.133034        -3.6200
  54   1.0000      -0.115068        -3.1312
  55   1.0000      -0.109327        -2.9749
  56   1.0000      -0.095043        -2.5862
  57   1.0000      -0.079420        -2.1611
  58   1.0000      -0.066620        -1.8128
  59   1.0000      -0.062061        -1.6888
  60   1.0000      -0.054706        -1.4886
  61   1.0000      -0.048567        -1.3216
  62   1.0000      -0.042941        -1.1685
  63   1.0000      -0.038528        -1.0484
  64   1.0000      -0.003044        -0.0828
  65   1.0000       0.023881         0.6498
  66   1.0000       0.028964         0.7882
  67   1.0000       0.034827         0.9477
  68   1.0000       0.043702         1.1892
  69   1.0000       0.052625         1.4320
  70   1.0000       0.061309         1.6683
  71   1.0000       0.070013         1.9052
  72   1.0000       0.079953         2.1756
  73   0.0000       0.231542         6.3006
  74   0.0000       0.239540         6.5182
  75   0.0000       0.245383         6.6772
  76   0.0000       0.248043         6.7496
  77   0.0000       0.257313         7.0018

                 SPIN DOWN ORBITALS
  NO   OCC          E(Eh)            E(eV)
   0   1.0000    -196.609741     -5350.0230
   1   1.0000     -88.569207     -2410.0906
   2   1.0000     -88.563174     -2409.9265
   3   1.0000     -88.559537     -2409.8275
   4   1.0000     -88.559529     -2409.8273
   5   1.0000     -21.969839      -597.8297
   6   1.0000     -18.831055      -512.4191
   7   1.0000     -18.487476      -503.0698
   8   1.0000     -18.469451      -502.5793
   9   1.0000     -18.468937      -502.5653
  10   1.0000      -9.943821      -270.5851
  11   1.0000      -9.943028      -270.5635
  12   1.0000      -9.938793      -270.4483
  13   1.0000      -9.935823      -270.3675
  14   1.0000      -9.935409      -270.3562
  15   1.0000      -9.933236      -270.2971
  16   1.0000      -7.622707      -207.4244
  17   1.0000      -7.617317      -207.2777
  18   1.0000      -7.613908      -207.1850
  19   1.0000      -7.613699      -207.1793
  20   1.0000      -5.588050      -152.0586
  21   1.0000      -5.582511      -151.9078
  22   1.0000      -5.581667      -151.8849
  23   1.0000      -5.580133      -151.8431
  24   1.0000      -5.579168      -151.8169
  25   1.0000      -5.579124      -151.8157
  26   1.0000      -5.576601      -151.7470
  27   1.0000      -5.574507      -151.6900
  28   1.0000      -5.573489      -151.6623
  29   1.0000      -5.573068      -151.6509
  30   1.0000      -5.570527      -151.5817
  31   1.0000      -5.570477      -151.5804
  32   1.0000      -2.332646       -63.4745
  33   1.0000      -1.401301       -38.1313
  34   1.0000      -1.344125       -36.5755
  35   1.0000      -1.342155       -36.5219
  36   1.0000      -0.597371       -16.2553
  37   1.0000      -0.556430       -15.1412
  38   1.0000      -0.552174       -15.0254
  39   1.0000      -0.482683       -13.1345
  40   1.0000      -0.467390       -12.7183
  41   1.0000      -0.406254       -11.0547
  42   1.0000      -0.399192       -10.8626
  43   1.0000      -0.346317        -9.4238
  44   1.0000      -0.336158        -9.1473
  45   1.0000      -0.308977        -8.4077
  46   1.0000      -0.287537        -7.8243
  47   1.0000      -0.215489        -5.8637
  48   1.0000      -0.212318        -5.7775
  49   1.0000      -0.204155        -5.5554
  50   1.0000      -0.200073        -5.4443
  51   1.0000      -0.143411        -3.9024
  52   1.0000      -0.135210        -3.6793
  53   1.0000      -0.132770        -3.6129
  54   1.0000      -0.114961        -3.1282
  55   1.0000      -0.109264        -2.9732
  56   1.0000      -0.094321        -2.5666
  57   1.0000      -0.077121        -2.0986
  58   1.0000      -0.065503        -1.7824
  59   1.0000      -0.062234        -1.6935
  60   1.0000      -0.054580        -1.4852
  61   1.0000      -0.049668        -1.3515
  62   1.0000      -0.043606        -1.1866
  63   1.0000      -0.039696        -1.0802
  64   1.0000       0.001725         0.0469
  65   1.0000       0.025149         0.6844
  66   1.0000       0.031475         0.8565
  67   1.0000       0.044028         1.1981
  68   1.0000       0.045671         1.2428
  69   1.0000       0.058944         1.6039
  70   1.0000       0.065322         1.7775
  71   1.0000       0.073090         1.9889
  72   0.0000       0.231928         6.3111
  73   0.0000       0.240853         6.5540
  74   0.0000       0.249616         6.7924
  75   0.0000       0.259417         7.0591
  76   0.0000       0.260616         7.0917

MULLIKEN ATOMIC CHARGES AND SPIN POPULATIONS
--------------------------------------------
   0 V :    0.525674    1.191427
   1 S :   -0.428843   -0.001410
   2 S :   -0.327821   -0.032169
   3 S :   -0.406131   -0.029660
   4 S :   -0.373089   -0.021797
   5 O :   -0.544058   -0.134765
   6 C :   -0.267766    0.004844
   7 C :   -0.200271    0.006125
   8 C :   -0.177957    0.003175
   9 H :    0.067751   -0.000887
  10 H :    0.054905    0.002272
  11 H :    0.121972    0.000649
  12 H :    0.020976    0.000049
  13 H :   -0.070063   -0.000059
  14 H :    0.180895    0.001312
  15 C :   -0.257489   -0.002196
  16 C :   -0.253508    0.003339
  17 C :   -0.070240    0.008448
  18 H :    0.048618   -0.000077
  19 H :    0.131343   -0.000194
  20 H :    0.016998    0.001587
  21 H :    0.013737    0.000076
  22 H :    0.053266   -0.000575
  23 H :    0.141101    0.000484
Sum of atomic charges         :   -2.0000000

LOEWDIN ATOMIC CHARGES AND SPIN POPULATIONS
-------------------------------------------
   0 V :   -0.210789    1.148206
   1 S :   -0.072758    0.003957
   2 S :   -0.007688   -0.021684
   3 S :   -0.057616   -0.020811
   4 S :   -0.053317   -0.012746
   5 O :   -0.374967   -0.121507
   6 C :   -0.257582    0.004775
   7 C :   -0.313453    0.007083
   8 C :   -0.187429    0.000581
   9 H :    0.036390   -0.000006
  10 H :    0.030929    0.000624
  11 H :    0.084904    0.000316
  12 H :    0.030526    0.000173
  13 H :   -0.005481   -0.000095
  14 H :   -0.053225    0.000077
  15 C :   -0.317242    0.002692
  16 C :   -0.325060    0.007285
  17 C :   -0.188605    0.001154
  18 H :    0.028697   -0.000215
  19 H :    0.054190   -0.000621
  20 H :    0.036760    0.000613
  21 H :    0.035357    0.000387
  22 H :    0.030829   -0.000593
  23 H :    0.056631    0.000356

  Mayer bond orders larger than 0.100000
B(  0-V ,  1-S ) :   0.7113 B(  0-V ,  2-S ) :   0.8315 B(  0-V ,  3-S ) :   0.7762
B(  0-V ,  4-S ) :   0.7903 B(  0-V ,  5-O ) :   2.0730 B(  1-S , 15-C ) :   1.0233
B(  2-S ,  6-C ) :   1.0457 B(  3-S , 16-C ) :   1.0240 B(  4-S ,  7-C ) :   1.0672
B(  6-C ,  8-C ) :   0.9276 B(  6-C , 13-H ) :   0.8963 B(  6-C , 14-H ) :   0.9444
B(  7-C ,  8-C ) :   0.9156 B(  7-C ,  9-H ) :   0.9726 B(  7-C , 10-H ) :   0.9681
B(  8-C , 11-H ) :   0.9765 B(  8-C , 12-H ) :   0.9502 B( 15-C , 17-C ) :   0.8961
B( 15-C , 22-H ) :   0.9684 B( 15-C , 23-H ) :   0.9797 B( 16-C , 17-C ) :   0.9027
B( 16-C , 18-H ) :   0.9638 B( 16-C , 19-H ) :   0.9759 B( 17-C , 20-H ) :   0.9585
B( 17-C , 21-H ) :   0.9597

FINAL SINGLE POINT ENERGY     -2847.577996965126

DIPOLE MOMENT
-------------
                                X             Y             Z
Electronic contribution:      4.88356       4.60663      -0.36763
Nuclear contribution   :     -5.06231      -4.51260       0.42295
                        -----------------------------------------
Total Dipole Moment    :     -0.17875       0.09403       0.05531
                        -----------------------------------------
Magnitude (a.u.)       :      0.20941
Magnitude (Debye)      :      0.53228

Rotational constants in cm-1:     0.027158     0.011716     0.009601
Rotational constants in MHz :   814.185782   351.222139   287.834103

                             ****ORCA TERMINATED NORMALLY****
TOTAL RUN TIME: 0 days 0 hours 9 minutes 46 seconds 222 msec
