                         Program Version 5.0.4 -  RELEASE  -
|  1> ! nofrozencore ReducedPop printbasis
|  2> ! B3LYP TZVP
|  3>
|  4> %basis
|  5> newgto V "CP(PPP)" end
|  6> end
|  7>
|  8> %pal
|  9> nprocs 8
| 10> end
| 11>
| 12> % sym SymThresh 1e-2 end
| 13> * xyz -2 2
| 14> V -0.20831611028547015 -0.4128373129013774 0.16789164108704782
| 15> S -1.2799493995110067 1.3033648414773855 1.689621162820247
| 16> S -1.5100145938920364 0.7921201843571556 -1.5186304284901098
| 17> S 1.936591521116277 -0.07310865317507918 1.3706814955296762
| 18> S 1.3555119179096211 -1.1963544952257812 -1.6013631781142115
| 19> O -0.9748030215510871 -1.742289700242245 0.6294850816450372
| 20> C -1.2132242744850776 -0.01854448313434437 -3.1623844264509393
| 21> C 0.34310783392422783 -2.0494513823500053 -2.898174786048708
| 22> C -1.0901639810310104 -1.5458289031572028 -3.097321729923357
| 23> H 0.3113019347334077 -3.121912274040267 -2.6731529351417525
| 24> H 0.8923710762834255 -1.9359939548155096 -3.841974193469754
| 25> H -1.7233193427512419 -1.9101640917830038 -2.2849901056011683
| 26> H -1.4756009237625096 -1.9929156228483402 -4.0315561796599395
| 27> H -0.3088263335558379 0.3995727607799274 -3.615068333309229
| 28> H -2.063353871971684 0.25834696929487044 -3.795609681451007
| 29> C 0.12630323591587453 2.499884151143511 1.904308826825541
| 30> C 1.4742007907014512 0.611527613486238 3.02660724041575
| 31> C 1.1005725638449941 2.0975086089320567 3.035155931014511
| 32> H 2.327017012946021 0.45032547732745276 3.7002680280361555
| 33> H 0.6507184273909945 0.04738283241504977 3.3955219246054233
| 34> H 1.9843094809481965 2.6960205685119805 2.9340393401219815
| 35> H 0.6531105363401202 2.337184366483097 4.054210072369897
| 36> H -0.37027810273955547 3.576328750692824 2.2068220656338604
| 37> H 0.3959758048107085 2.569976115440193 1.4337912606713177
| 38> *
| 39>
| 40> % eprnmr
| 41> gtensor true
| 42> Nuclei = all H {aiso,adip,aorb,fgrad,rho}
| 43> Nuclei = all V {aiso,adip,aorb,fgrad,rho}
| 44> end
| 45>
| 46>                          ****END OF INPUT****

CARTESIAN COORDINATES (ANGSTROEM)
---------------------------------
  V     -0.208575   -0.413329    0.168403
  S     -1.280209    1.302873    1.690132
  S     -1.510274    0.791629   -1.518119
  S      1.936332   -0.073600    1.371193
  S      1.355253   -1.196846   -1.600852
  O     -0.975062   -1.742781    0.629996
  C     -1.213483   -0.019036   -3.161873
  C      0.342849   -2.049943   -2.897664
  C     -1.090423   -1.546320   -3.096810
  H      0.311043   -3.122404   -2.672642
  H      0.892112   -1.936485   -3.841463
  H     -1.723579   -1.910656   -2.284479
  H     -1.475860   -1.993407   -4.031045
  H     -0.309086    0.399081   -3.614557
  H     -2.063613    0.257856   -3.795098
  C      0.126044    2.499393    1.904820
  C      1.473942    0.611036    3.027119
  C      1.100313    2.097017    3.035667
  H      2.326758    0.449834    3.700779
  H      0.650459    0.046891    3.396033
  H      1.984050    2.695529    2.934551
  H      0.652851    2.336693    4.054721
  H     -0.370537    3.575837    2.207333
  H      0.395717    2.569485    1.434303

 Total Charge           Charge          ....   -2
 Multiplicity           Mult            ....    2
 Number of Electrons    NEL             ....  145
 Basis Dimension        Dim             ....  353

ORBITAL ENERGIES
----------------
                 SPIN UP ORBITALS
  NO   OCC          E(Eh)            E(eV)
   0   1.0000    -196.606980     -5349.9479
   1   1.0000     -88.562291     -2409.9025
   2   1.0000     -88.560252     -2409.8470
   3   1.0000     -88.559044     -2409.8141
   4   1.0000     -88.558794     -2409.8073
   5   1.0000     -21.982350      -598.1701
   6   1.0000     -18.824837      -512.2499
   7   1.0000     -18.490129      -503.1420
   8   1.0000     -18.482950      -502.9466
   9   1.0000     -18.482896      -502.9452
  10   1.0000      -9.942500      -270.5492
  11   1.0000      -9.942408      -270.5467
  12   1.0000      -9.934602      -270.3343
  13   1.0000      -9.933973      -270.3171
  14   1.0000      -9.932388      -270.2740
  15   1.0000      -9.928676      -270.1730
  16   1.0000      -7.616460      -207.2544
  17   1.0000      -7.614118      -207.1907
  18   1.0000      -7.613108      -207.1632
  19   1.0000      -7.613003      -207.1603
  20   1.0000      -5.581651      -151.8844
  21   1.0000      -5.579526      -151.8266
  22   1.0000      -5.578538      -151.7997
  23   1.0000      -5.578375      -151.7953
  24   1.0000      -5.575417      -151.7148
  25   1.0000      -5.573733      -151.6690
  26   1.0000      -5.572946      -151.6476
  27   1.0000      -5.572236      -151.6282
  28   1.0000      -5.572156      -151.6261
  29   1.0000      -5.571288      -151.6025
  30   1.0000      -5.570032      -151.5683
  31   1.0000      -5.569996      -151.5673
  32   1.0000      -2.374967       -64.6261
  33   1.0000      -1.417640       -38.5759
  34   1.0000      -1.403043       -38.1787
  35   1.0000      -1.402609       -38.1669
  36   1.0000      -0.587435       -15.9849
  37   1.0000      -0.571848       -15.5608
  38   1.0000      -0.551264       -15.0007
  39   1.0000      -0.494273       -13.4498
  40   1.0000      -0.469020       -12.7627
  41   1.0000      -0.406427       -11.0594
  42   1.0000      -0.397844       -10.8259
  43   1.0000      -0.362733        -9.8705
  44   1.0000      -0.329315        -8.9611
  45   1.0000      -0.314357        -8.5541
  46   1.0000      -0.302354        -8.2275
  47   1.0000      -0.222947        -6.0667
  48   1.0000      -0.207326        -5.6416
  49   1.0000      -0.198252        -5.3947
  50   1.0000      -0.197168        -5.3652
  51   1.0000      -0.162638        -4.4256
  52   1.0000      -0.157983        -4.2989
  53   1.0000      -0.136167        -3.7053
  54   1.0000      -0.112069        -3.0495
  55   1.0000      -0.105910        -2.8820
  56   1.0000      -0.101485        -2.7616
  57   1.0000      -0.082410        -2.2425
  58   1.0000      -0.069171        -1.8822
  59   1.0000      -0.064136        -1.7452
  60   1.0000      -0.059291        -1.6134
  61   1.0000      -0.046241        -1.2583
  62   1.0000      -0.041193        -1.1209
  63   1.0000      -0.036956        -1.0056
  64   1.0000      -0.001377        -0.0375
  65   1.0000       0.026412         0.7187
  66   1.0000       0.029634         0.8064
  67   1.0000       0.037262         1.0140
  68   1.0000       0.043697         1.1891
  69   1.0000       0.052763         1.4358
  70   1.0000       0.064343         1.7509
  71   1.0000       0.073057         1.9880
  72   1.0000       0.080491         2.1903
  73   0.0000       0.234876         6.3913
  74   0.0000       0.246482         6.7071
  75   0.0000       0.250085         6.8052
  76   0.0000       0.251941         6.8557
  77   0.0000       0.254598         6.9280

                 SPIN DOWN ORBITALS
  NO   OCC          E(Eh)            E(eV)
   0   1.0000    -196.607122     -5349.9518
   1   1.0000     -88.562449     -2409.9068
   2   1.0000     -88.560429     -2409.8518
   3   1.0000     -88.559016     -2409.8133
   4   1.0000     -88.558898     -2409.8101
   5   1.0000     -21.967310      -597.7609
   6   1.0000     -18.828290      -512.3438
   7   1.0000     -18.484939      -503.0008
   8   1.0000     -18.466899      -502.5099
   9   1.0000     -18.466438      -502.4973
  10   1.0000      -9.942343      -270.5449
  11   1.0000      -9.942319      -270.5442
  12   1.0000      -9.934474      -270.3308
  13   1.0000      -9.933934      -270.3161
  14   1.0000      -9.932211      -270.2692
  15   1.0000      -9.928695      -270.1735
  16   1.0000      -7.616610      -207.2585
  17   1.0000      -7.614290      -207.1954
  18   1.0000      -7.613206      -207.1659
  19   1.0000      -7.612978      -207.1597
  20   1.0000      -5.581804      -151.8886
  21   1.0000      -5.579692      -151.8311
  22   1.0000      -5.578660      -151.8031
  23   1.0000      -5.578392      -151.7958
  24   1.0000      -5.575833      -151.7261
  25   1.0000      -5.573847      -151.6721
  26   1.0000      -5.573402      -151.6600
  27   1.0000      -5.572570      -151.6373
  28   1.0000      -5.572561      -151.6371
  29   1.0000      -5.571420      -151.6061
  30   1.0000      -5.569959      -151.5663
  31   1.0000      -5.569525      -151.5545
  32   1.0000      -2.330077       -63.4046
  33   1.0000      -1.398684       -38.0601
  34   1.0000      -1.341471       -36.5033
  35   1.0000      -1.339708       -36.4553
  36   1.0000      -0.594812       -16.1857
  37   1.0000      -0.571718       -15.5572
  38   1.0000      -0.551168       -14.9980
  39   1.0000      -0.494135       -13.4461
  40   1.0000      -0.468971       -12.7613
  41   1.0000      -0.406507       -11.0616
  42   1.0000      -0.398037       -10.8311
  43   1.0000      -0.362552        -9.8655
  44   1.0000      -0.329728        -8.9724
  45   1.0000      -0.314481        -8.5575
  46   1.0000      -0.302420        -8.2293
  47   1.0000      -0.222856        -6.0642
  48   1.0000      -0.207266        -5.6400
  49   1.0000      -0.198043        -5.3890
  50   1.0000      -0.197134        -5.3643
  51   1.0000      -0.162395        -4.4190
  52   1.0000      -0.157872        -4.2959
  53   1.0000      -0.136011        -3.7010
  54   1.0000      -0.112059        -3.0493
  55   1.0000      -0.105746        -2.8775
  56   1.0000      -0.101414        -2.7596
  57   1.0000      -0.081228        -2.2103
  58   1.0000      -0.067112        -1.8262
  59   1.0000      -0.063233        -1.7207
  60   1.0000      -0.058868        -1.6019
  61   1.0000      -0.047206        -1.2845
  62   1.0000      -0.042098        -1.1455
  63   1.0000      -0.038269        -1.0414
  64   1.0000       0.003101         0.0844
  65   1.0000       0.027738         0.7548
  66   1.0000       0.032402         0.8817
  67   1.0000       0.043477         1.1831
  68   1.0000       0.047017         1.2794
  69   1.0000       0.061723         1.6796
  70   1.0000       0.067126         1.8266
  71   1.0000       0.074237         2.0201
  72   0.0000       0.233355         6.3499
  73   0.0000       0.249331         6.7846
  74   0.0000       0.255634         6.9561
  75   0.0000       0.258978         7.0472
  76   0.0000       0.264928         7.2091

MULLIKEN ATOMIC CHARGES AND SPIN POPULATIONS
--------------------------------------------
   0 V :    0.532249    1.191557
   1 S :   -0.440390   -0.001378
   2 S :   -0.351313   -0.033216
   3 S :   -0.411615   -0.028830
   4 S :   -0.385123   -0.021766
   5 O :   -0.548329   -0.133565
   6 C :   -0.245738    0.005512
   7 C :   -0.235331    0.006571
   8 C :   -0.159080    0.003122
   9 H :    0.074993   -0.000944
  10 H :    0.051550    0.002152
  11 H :    0.138682    0.000606
  12 H :    0.005400   -0.000045
  13 H :    0.094728   -0.000122
  14 H :    0.048801   -0.000067
  15 C :   -0.191105   -0.001023
  16 C :   -0.269993    0.003900
  17 C :   -0.078018    0.008395
  18 H :    0.045323   -0.000052
  19 H :    0.135624   -0.000288
  20 H :    0.020982    0.001364
  21 H :    0.005679    0.000124
  22 H :   -0.012944   -0.001095
  23 H :    0.174970   -0.000911
Sum of atomic charges         :   -2.0000000

LOEWDIN ATOMIC CHARGES AND SPIN POPULATIONS
-------------------------------------------
   0 V :   -0.202591    1.147701
   1 S :   -0.057667    0.004146
   2 S :   -0.037610   -0.022785
   3 S :   -0.057903   -0.020019
   4 S :   -0.062614   -0.012616
   5 O :   -0.378001   -0.120338
   6 C :   -0.326686    0.005056
   7 C :   -0.314245    0.007031
   8 C :   -0.187411    0.000483
   9 H :    0.036125   -0.000003
  10 H :    0.029150    0.000633
  11 H :    0.069983    0.000324
  12 H :    0.031379    0.000146
  13 H :    0.044970   -0.000065
  14 H :    0.027457   -0.000546
  15 C :   -0.101217    0.002683
  16 C :   -0.321386    0.007426
  17 C :   -0.158150    0.001055
  18 H :    0.028781   -0.000217
  19 H :    0.049502   -0.000553
  20 H :    0.033685    0.000558
  21 H :    0.039312    0.000396
  22 H :    0.052033   -0.000863
  23 H :   -0.236895    0.000366

  Mayer bond orders larger than 0.100000
B(  0-V ,  1-S ) :   0.7086 B(  0-V ,  2-S ) :   0.8594 B(  0-V ,  3-S ) :   0.7767
B(  0-V ,  4-S ) :   0.7746 B(  0-V ,  5-O ) :   2.0704 B(  1-S , 15-C ) :   0.9583
B(  2-S ,  6-C ) :   1.0108 B(  3-S , 16-C ) :   1.0249 B(  4-S ,  7-C ) :   1.0711
B(  6-C ,  8-C ) :   0.9008 B(  6-C , 13-H ) :   0.9743 B(  6-C , 14-H ) :   0.9681
B(  7-C ,  8-C ) :   0.9197 B(  7-C ,  9-H ) :   0.9770 B(  7-C , 10-H ) :   0.9689
B(  8-C , 11-H ) :   0.9883 B(  8-C , 12-H ) :   0.9449 B( 15-C , 17-C ) :   0.8989
B( 15-C , 22-H ) :   0.9712 B( 15-C , 23-H ) :   1.0401 B( 16-C , 17-C ) :   0.9048
B( 16-C , 18-H ) :   0.9640 B( 16-C , 19-H ) :   0.9780 B( 17-C , 20-H ) :   0.9663
B( 17-C , 21-H ) :   0.9570

FINAL SINGLE POINT ENERGY     -2847.042443604890

DIPOLE MOMENT
-------------
                                X             Y             Z
Electronic contribution:     -2.01844      -4.87309       2.72662
Nuclear contribution   :      2.12721       5.02143      -3.12392
                        -----------------------------------------
Total Dipole Moment    :      0.10877       0.14834      -0.39731
                        -----------------------------------------
Magnitude (a.u.)       :      0.43782
Magnitude (Debye)      :      1.11285

Rotational constants in cm-1:     0.027220     0.011729     0.009601
Rotational constants in MHz :   816.036569   351.630629   287.825292

                             ****ORCA TERMINATED NORMALLY****
TOTAL RUN TIME: 0 days 0 hours 9 minutes 32 seconds 812 msec
