                         Program Version 5.0.4 -  RELEASE  -
|  1> ! nofrozencore ReducedPop printbasis
|  2> ! B3LYP TZVP
|  3>
|  4> %basis
|  5> newgto V "CP(PPP)" end
|  6> end
|  7>
|  8> %pal
|  9> nprocs 8
| 10> end
| 11>
| 12> % sym SymThresh 1e-2 end
| 13> * xyz -2 2
| 14> V -0.15590858891230436 0.4585171925844943 -0.08484961353953129
| 15> S 0.9964619798287658 0.7664111030027437 2.1479685588506303
| 16> S 2.132393922955602 -0.01675628400909946 -0.8082087012951701
| 17> S -1.9691760258422528 -0.7798174735721997 1.071400675372469
| 18> S -1.0241561692758947 -0.838489181078576 -2.0249020628707712
| 19> O -0.5570136886502943 1.9728350205860796 -0.42644955142116725
| 20> C 2.1432079439773024 -0.3132492499845808 -2.6119255670860304
| 21> C -0.2712827934391055 -0.19289134681172246 -3.5309970702587723
| 22> C 1.1272954777244406 0.49225473095123423 -3.4401939747321157
| 23> H -0.9321602905816752 0.697714709034077 -3.7209547039836672
| 24> H -0.41969998921951024 -0.8965886846407193 -4.403325519705461
| 25> H 0.8840164862522325 1.434486274679841 -2.9111625083068464
| 26> H 1.487797477862399 0.7815427114061622 -4.4474508043713294
| 27> H 1.7102089286699054 -1.3489418652833243 -2.6325504581760026
| 28> H 3.1888383376600937 -0.37883652809195784 -3.0227529621891764
| 29> C 0.5992771987450611 -0.8247824256853985 3.001956692264361
| 30> C -1.9008488372001526 -0.22881529488818977 2.837041432060177
| 31> C -0.7790523404109193 -0.8526490024822049 3.6736861853467246
| 32> H -2.8691803348231337 -0.46506401228032973 3.2947330369054075
| 33> H -1.7789013766622446 0.8542670023449921 2.845210863157188
| 34> H -1.033338728376933 -1.8967127464330824 3.915075124746346
| 35> H -0.7244174172300601 -0.30608685567282323 4.629203906435214
| 36> H 1.3735313303634156 -1.0126106988838675 3.755108608013892
| 37> H 0.660347315611122 -1.626800797800302 2.265929392475742
| 38> *
| 39>
| 40> % eprnmr
| 41> gtensor true
| 42> Nuclei = all H {aiso,adip,aorb,fgrad,rho}
| 43> Nuclei = all V {aiso,adip,aorb,fgrad,rho}
| 44> end
| 45>
| 46>                          ****END OF INPUT****

CARTESIAN COORDINATES (ANGSTROEM)
---------------------------------
  V     -0.156209    0.459192   -0.084692
  S      0.996162    0.767085    2.148126
  S      2.132093   -0.016082   -0.808051
  S     -1.969476   -0.779143    1.071558
  S     -1.024457   -0.837815   -2.024745
  O     -0.557314    1.973509   -0.426292
  C      2.142907   -0.312575   -2.611768
  C     -0.271583   -0.192217   -3.530840
  C      1.126995    0.492929   -3.440037
  H     -0.932461    0.698389   -3.720797
  H     -0.420000   -0.895914   -4.403168
  H      0.883716    1.435161   -2.911005
  H      1.487497    0.782217   -4.447294
  H      1.709908   -1.348268   -2.632393
  H      3.188538   -0.378162   -3.022596
  C      0.598977   -0.824108    3.002114
  C     -1.901149   -0.228141    2.837199
  C     -0.779353   -0.851975    3.673843
  H     -2.869481   -0.464390    3.294890
  H     -1.779202    0.854941    2.845368
  H     -1.033639   -1.896038    3.915232
  H     -0.724718   -0.305412    4.629361
  H      1.373231   -1.011936    3.755266
  H      0.660047   -1.626126    2.266087

 Total Charge           Charge          ....   -2
 Multiplicity           Mult            ....    2
 Number of Electrons    NEL             ....  145
 Basis Dimension        Dim             ....  353

ORBITAL ENERGIES
----------------
                 SPIN UP ORBITALS
  NO   OCC          E(Eh)            E(eV)
   0   1.0000    -196.608891     -5349.9999
   1   1.0000     -88.562431     -2409.9063
   2   1.0000     -88.560066     -2409.8419
   3   1.0000     -88.559764     -2409.8337
   4   1.0000     -88.558163     -2409.7901
   5   1.0000     -21.984139      -598.2188
   6   1.0000     -18.826095      -512.2841
   7   1.0000     -18.491885      -503.1898
   8   1.0000     -18.484790      -502.9967
   9   1.0000     -18.484676      -502.9936
  10   1.0000      -9.947045      -270.6729
  11   1.0000      -9.937546      -270.4144
  12   1.0000      -9.935201      -270.3506
  13   1.0000      -9.934539      -270.3325
  14   1.0000      -9.933275      -270.2982
  15   1.0000      -9.932449      -270.2757
  16   1.0000      -7.616624      -207.2589
  17   1.0000      -7.614871      -207.2112
  18   1.0000      -7.614405      -207.1985
  19   1.0000      -7.612474      -207.1460
  20   1.0000      -5.581789      -151.8882
  21   1.0000      -5.580144      -151.8434
  22   1.0000      -5.579694      -151.8312
  23   1.0000      -5.577714      -151.7773
  24   1.0000      -5.575654      -151.7212
  25   1.0000      -5.573930      -151.6744
  26   1.0000      -5.573848      -151.6721
  27   1.0000      -5.573305      -151.6573
  28   1.0000      -5.571765      -151.6154
  29   1.0000      -5.571694      -151.6135
  30   1.0000      -5.571524      -151.6089
  31   1.0000      -5.569541      -151.5549
  32   1.0000      -2.376712       -64.6736
  33   1.0000      -1.419216       -38.6188
  34   1.0000      -1.404863       -38.2283
  35   1.0000      -1.404367       -38.2148
  36   1.0000      -0.588612       -16.0170
  37   1.0000      -0.551613       -15.0102
  38   1.0000      -0.549043       -14.9402
  39   1.0000      -0.472331       -12.8528
  40   1.0000      -0.466578       -12.6962
  41   1.0000      -0.407031       -11.0759
  42   1.0000      -0.400137       -10.8883
  43   1.0000      -0.337737        -9.1903
  44   1.0000      -0.323724        -8.8090
  45   1.0000      -0.297306        -8.0901
  46   1.0000      -0.285519        -7.7694
  47   1.0000      -0.214837        -5.8460
  48   1.0000      -0.207883        -5.6568
  49   1.0000      -0.203377        -5.5342
  50   1.0000      -0.196002        -5.3335
  51   1.0000      -0.152337        -4.1453
  52   1.0000      -0.134665        -3.6644
  53   1.0000      -0.132242        -3.5985
  54   1.0000      -0.108603        -2.9552
  55   1.0000      -0.108071        -2.9408
  56   1.0000      -0.102481        -2.7887
  57   1.0000      -0.084163        -2.2902
  58   1.0000      -0.067927        -1.8484
  59   1.0000      -0.064838        -1.7643
  60   1.0000      -0.056530        -1.5382
  61   1.0000      -0.049239        -1.3399
  62   1.0000      -0.044383        -1.2077
  63   1.0000      -0.037130        -1.0104
  64   1.0000      -0.002061        -0.0561
  65   1.0000       0.026249         0.7143
  66   1.0000       0.029381         0.7995
  67   1.0000       0.036468         0.9923
  68   1.0000       0.045663         1.2425
  69   1.0000       0.054260         1.4765
  70   1.0000       0.066697         1.8149
  71   1.0000       0.073357         1.9961
  72   1.0000       0.080115         2.1801
  73   0.0000       0.232927         6.3383
  74   0.0000       0.244657         6.6575
  75   0.0000       0.248409         6.7596
  76   0.0000       0.253450         6.8967
  77   0.0000       0.258088         7.0229

                 SPIN DOWN ORBITALS
  NO   OCC          E(Eh)            E(eV)
   0   1.0000    -196.609032     -5350.0037
   1   1.0000     -88.562590     -2409.9106
   2   1.0000     -88.560231     -2409.8464
   3   1.0000     -88.559880     -2409.8369
   4   1.0000     -88.558134     -2409.7893
   5   1.0000     -21.969107      -597.8098
   6   1.0000     -18.829567      -512.3786
   7   1.0000     -18.486681      -503.0482
   8   1.0000     -18.468730      -502.5597
   9   1.0000     -18.468258      -502.5468
  10   1.0000      -9.946866      -270.6680
  11   1.0000      -9.937415      -270.4108
  12   1.0000      -9.935014      -270.3455
  13   1.0000      -9.934484      -270.3311
  14   1.0000      -9.933288      -270.2985
  15   1.0000      -9.932407      -270.2745
  16   1.0000      -7.616774      -207.2630
  17   1.0000      -7.614981      -207.2142
  18   1.0000      -7.614567      -207.2029
  19   1.0000      -7.612448      -207.1453
  20   1.0000      -5.581944      -151.8924
  21   1.0000      -5.580271      -151.8469
  22   1.0000      -5.579851      -151.8355
  23   1.0000      -5.577728      -151.7777
  24   1.0000      -5.576075      -151.7327
  25   1.0000      -5.574326      -151.6851
  26   1.0000      -5.573964      -151.6753
  27   1.0000      -5.573740      -151.6692
  28   1.0000      -5.572031      -151.6227
  29   1.0000      -5.571750      -151.6150
  30   1.0000      -5.571635      -151.6119
  31   1.0000      -5.569066      -151.5420
  32   1.0000      -2.331833       -63.4524
  33   1.0000      -1.400214       -38.1018
  34   1.0000      -1.343320       -36.5536
  35   1.0000      -1.341517       -36.5045
  36   1.0000      -0.596054       -16.2195
  37   1.0000      -0.551451       -15.0058
  38   1.0000      -0.548957       -14.9379
  39   1.0000      -0.472323       -12.8526
  40   1.0000      -0.466439       -12.6925
  41   1.0000      -0.407158       -11.0793
  42   1.0000      -0.400207       -10.8902
  43   1.0000      -0.337851        -9.1934
  44   1.0000      -0.324110        -8.8195
  45   1.0000      -0.297253        -8.0887
  46   1.0000      -0.285557        -7.7704
  47   1.0000      -0.214769        -5.8442
  48   1.0000      -0.207760        -5.6534
  49   1.0000      -0.203288        -5.5317
  50   1.0000      -0.195914        -5.3311
  51   1.0000      -0.152237        -4.1426
  52   1.0000      -0.134490        -3.6597
  53   1.0000      -0.131960        -3.5908
  54   1.0000      -0.108515        -2.9528
  55   1.0000      -0.107879        -2.9355
  56   1.0000      -0.102349        -2.7851
  57   1.0000      -0.082413        -2.2426
  58   1.0000      -0.066520        -1.8101
  59   1.0000      -0.063966        -1.7406
  60   1.0000      -0.056708        -1.5431
  61   1.0000      -0.049348        -1.3428
  62   1.0000      -0.045514        -1.2385
  63   1.0000      -0.038673        -1.0523
  64   1.0000       0.002916         0.0794
  65   1.0000       0.027257         0.7417
  66   1.0000       0.032369         0.8808
  67   1.0000       0.045918         1.2495
  68   1.0000       0.046668         1.2699
  69   1.0000       0.064894         1.7659
  70   1.0000       0.067416         1.8345
  71   1.0000       0.075158         2.0451
  72   0.0000       0.231518         6.2999
  73   0.0000       0.249398         6.7865
  74   0.0000       0.256472         6.9790
  75   0.0000       0.260322         7.0837
  76   0.0000       0.263464         7.1692

MULLIKEN ATOMIC CHARGES AND SPIN POPULATIONS
--------------------------------------------
   0 V :    0.510820    1.190787
   1 S :   -0.423646   -0.001148
   2 S :   -0.342349   -0.030807
   3 S :   -0.409604   -0.029190
   4 S :   -0.369525   -0.022459
   5 O :   -0.545985   -0.134124
   6 C :   -0.272702    0.006495
   7 C :   -0.240040    0.006483
   8 C :   -0.172037    0.000221
   9 H :    0.071631   -0.000678
  10 H :    0.047448    0.002230
  11 H :    0.150645    0.001255
  12 H :    0.011892   -0.000036
  13 H :    0.111032   -0.000291
  14 H :    0.050178   -0.000281
  15 C :   -0.258706   -0.002594
  16 C :   -0.252188    0.003910
  17 C :   -0.069352    0.008650
  18 H :    0.047869   -0.000048
  19 H :    0.131340   -0.000206
  20 H :    0.015906    0.001634
  21 H :    0.013171    0.000124
  22 H :    0.052689   -0.000569
  23 H :    0.141511    0.000644
Sum of atomic charges         :   -2.0000000

LOEWDIN ATOMIC CHARGES AND SPIN POPULATIONS
-------------------------------------------
   0 V :   -0.212313    1.147771
   1 S :   -0.069301    0.004227
   2 S :   -0.025382   -0.020783
   3 S :   -0.059832   -0.020271
   4 S :   -0.042218   -0.013919
   5 O :   -0.377579   -0.120833
   6 C :   -0.351123    0.005085
   7 C :   -0.343158    0.006536
   8 C :   -0.194063    0.000544
   9 H :    0.043074    0.000109
  10 H :    0.028876    0.000435
  11 H :    0.073384    0.000421
  12 H :    0.034946    0.000098
  13 H :    0.054047   -0.000311
  14 H :    0.030670   -0.000726
  15 C :   -0.318157    0.002614
  16 C :   -0.324288    0.007816
  17 C :   -0.188767    0.001150
  18 H :    0.028533   -0.000186
  19 H :    0.054124   -0.000616
  20 H :    0.036201    0.000618
  21 H :    0.035358    0.000422
  22 H :    0.030510   -0.000596
  23 H :    0.056456    0.000399

  Mayer bond orders larger than 0.100000
B(  0-V ,  1-S ) :   0.7152 B(  0-V ,  2-S ) :   0.8658 B(  0-V ,  3-S ) :   0.7747
B(  0-V ,  4-S ) :   0.7715 B(  0-V ,  5-O ) :   2.0678 B(  1-S , 15-C ) :   1.0247
B(  2-S ,  6-C ) :   0.9867 B(  3-S , 16-C ) :   1.0237 B(  4-S ,  7-C ) :   1.0702
B(  6-C ,  8-C ) :   0.8836 B(  6-C , 13-H ) :   0.9955 B(  6-C , 14-H ) :   0.9467
B(  7-C ,  8-C ) :   0.9080 B(  7-C ,  9-H ) :   0.9940 B(  7-C , 10-H ) :   0.9420
B(  8-C , 11-H ) :   1.0064 B(  8-C , 12-H ) :   0.9309 B( 15-C , 17-C ) :   0.8948
B( 15-C , 22-H ) :   0.9685 B( 15-C , 23-H ) :   0.9799 B( 16-C , 17-C ) :   0.9037
B( 16-C , 18-H ) :   0.9636 B( 16-C , 19-H ) :   0.9757 B( 17-C , 20-H ) :   0.9574
B( 17-C , 21-H ) :   0.9603

FINAL SINGLE POINT ENERGY     -2847.699965186173

DIPOLE MOMENT
-------------
                                X             Y             Z
Electronic contribution:     -2.01052       5.63334      -0.09398
Nuclear contribution   :      2.15812      -5.96747      -0.03033
                        -----------------------------------------
Total Dipole Moment    :      0.14760      -0.33412      -0.12431
                        -----------------------------------------
Magnitude (a.u.)       :      0.38585
Magnitude (Debye)      :      0.98075

Rotational constants in cm-1:     0.027210     0.011735     0.009600
Rotational constants in MHz :   815.737531   351.803021   287.807100

                             ****ORCA TERMINATED NORMALLY****
TOTAL RUN TIME: 0 days 0 hours 9 minutes 36 seconds 381 msec
