                         Program Version 5.0.4 -  RELEASE  -
|  1> ! nofrozencore ReducedPop printbasis
|  2> ! B3LYP TZVP
|  3>
|  4> %basis
|  5> newgto V "CP(PPP)" end
|  6> end
|  7>
|  8> %pal
|  9> nprocs 4
| 10> end
| 11>
| 12> % sym SymThresh 1e-2 end
| 13> * xyz -2 2
| 14> V -0.015166871626200583 -0.2858493485246351 0.4018243956134521
| 15> S -2.191957714409776 -0.9353721103770817 -0.7166093100129213
| 16> S 1.0026836447759153 -1.3455649593707395 -1.6074240806699105
| 17> S -1.0168099626107703 1.9111609722322467 0.9744997961045337
| 18> S 2.142190097027489 0.9906000561010573 0.6708580704537587
| 19> O 0.0034197843323354646 -1.3042998662027085 1.6381714051587264
| 20> C 2.5998665961647323 -1.2673534175551477 -1.4142263632021919
| 21> C 3.344963626706644 -0.1258439130608841 0.6841279131836827
| 22> C 3.242379763976021 -1.4040122213686566 -0.07948543670545638
| 23> H 3.6817670470426833 -0.37908931169900084 1.7094251712432984
| 24> H 4.216887518561121 0.36885972716910187 0.21909159167154157
| 25> H 2.847099943292325 -2.3053835521191517 0.5161848285481881
| 26> H 4.366196041401988 -1.6038502226337092 -0.3308730085220256
| 27> H 3.0208829263305694 -0.3470935739468155 -1.8581830621320072
| 28> H 3.020431781995904 -2.0927931567682276 -2.012865673859815
| 29> C -2.744163134493829 0.6731742762815408 -1.43619620396756
| 30> C -2.849791792527284 1.644887262203262 0.9482192755368288
| 31> C -3.4797054451048255 1.586670774010841 -0.4474048837213012
| 32> H -3.3119403221833084 2.4584962192199145 1.5205697889803396
| 33> H -3.0579042665926077 0.707667776914588 1.4642152244391848
| 34> H -3.5244958240560997 2.601613784776784 -0.8730451895157179
| 35> H -4.519527108648792 1.237825332478184 -0.3385417802723299
| 36> H -3.398581741699027 0.4622121807886781 -2.2903202238627203
| 37> H -1.8656670755447635 1.1919178956009007 -1.8213781873629569
| 38> *
| 39>
| 40> % eprnmr
| 41> gtensor true
| 42> Nuclei = all H {aiso,adip,aorb,fgrad,rho}
| 43> Nuclei = all V {aiso,adip,aorb,fgrad,rho}
| 44> end
| 45>
| 46>                          ****END OF INPUT****

CARTESIAN COORDINATES (ANGSTROEM)
---------------------------------
  V     -0.015469   -0.286194    0.402424
  S     -2.192260   -0.935716   -0.716009
  S      1.002381   -1.345909   -1.606824
  S     -1.017112    1.910817    0.975100
  S      2.141888    0.990256    0.671458
  O      0.003117   -1.304644    1.638771
  C      2.599564   -1.267698   -1.413626
  C      3.344661   -0.126188    0.684728
  C      3.242077   -1.404357   -0.078886
  H      3.681465   -0.379434    1.710025
  H      4.216585    0.368515    0.219691
  H      2.846798   -2.305728    0.516785
  H      4.365894   -1.604195   -0.330273
  H      3.020581   -0.347438   -1.857583
  H      3.020129   -2.093138   -2.012266
  C     -2.744466    0.672830   -1.435596
  C     -2.850094    1.644543    0.948819
  C     -3.480008    1.586326   -0.446805
  H     -3.312243    2.458152    1.521170
  H     -3.058207    0.707323    1.464815
  H     -3.524798    2.601269   -0.872445
  H     -4.519829    1.237481   -0.337942
  H     -3.398884    0.461868   -2.289720
  H     -1.865969    1.191574   -1.820778

 Total Charge           Charge          ....   -2
 Multiplicity           Mult            ....    2
 Number of Electrons    NEL             ....  145
 Basis Dimension        Dim             ....  353

ORBITAL ENERGIES
----------------
                 SPIN UP ORBITALS
  NO   OCC          E(Eh)            E(eV)
   0   1.0000    -196.607580     -5349.9642
   1   1.0000     -88.562078     -2409.8967
   2   1.0000     -88.556224     -2409.7374
   3   1.0000     -88.547935     -2409.5118
   4   1.0000     -88.547858     -2409.5097
   5   1.0000     -21.982582      -598.1765
   6   1.0000     -18.825745      -512.2746
   7   1.0000     -18.490454      -503.1508
   8   1.0000     -18.483156      -502.9522
   9   1.0000     -18.483083      -502.9503
  10   1.0000      -9.934589      -270.3339
  11   1.0000      -9.934017      -270.3183
  12   1.0000      -9.931855      -270.2595
  13   1.0000      -9.931596      -270.2525
  14   1.0000      -9.928057      -270.1562
  15   1.0000      -9.920701      -269.9560
  16   1.0000      -7.616175      -207.2467
  17   1.0000      -7.610606      -207.0951
  18   1.0000      -7.608423      -207.0357
  19   1.0000      -7.607857      -207.0203
  20   1.0000      -5.581357      -151.8764
  21   1.0000      -5.575878      -151.7274
  22   1.0000      -5.575170      -151.7081
  23   1.0000      -5.573450      -151.6613
  24   1.0000      -5.572554      -151.6369
  25   1.0000      -5.572197      -151.6272
  26   1.0000      -5.569833      -151.5629
  27   1.0000      -5.567624      -151.5028
  28   1.0000      -5.567246      -151.4925
  29   1.0000      -5.566871      -151.4823
  30   1.0000      -5.565452      -151.4436
  31   1.0000      -5.564734      -151.4241
  32   1.0000      -2.375382       -64.6374
  33   1.0000      -1.418288       -38.5936
  34   1.0000      -1.403133       -38.1812
  35   1.0000      -1.403093       -38.1801
  36   1.0000      -0.588485       -16.0135
  37   1.0000      -0.581717       -15.8293
  38   1.0000      -0.550855       -14.9895
  39   1.0000      -0.516336       -14.0502
  40   1.0000      -0.465928       -12.6786
  41   1.0000      -0.425733       -11.5848
  42   1.0000      -0.401257       -10.9188
  43   1.0000      -0.336522        -9.1572
  44   1.0000      -0.326383        -8.8813
  45   1.0000      -0.288992        -7.8639
  46   1.0000      -0.281388        -7.6570
  47   1.0000      -0.220976        -6.0131
  48   1.0000      -0.214127        -5.8267
  49   1.0000      -0.202799        -5.5184
  50   1.0000      -0.193244        -5.2584
  51   1.0000      -0.164502        -4.4763
  52   1.0000      -0.134105        -3.6492
  53   1.0000      -0.131338        -3.5739
  54   1.0000      -0.119005        -3.2383
  55   1.0000      -0.111566        -3.0359
  56   1.0000      -0.107967        -2.9379
  57   1.0000      -0.096110        -2.6153
  58   1.0000      -0.070955        -1.9308
  59   1.0000      -0.064720        -1.7611
  60   1.0000      -0.057481        -1.5641
  61   1.0000      -0.048725        -1.3259
  62   1.0000      -0.044647        -1.2149
  63   1.0000      -0.038133        -1.0376
  64   1.0000       0.002272         0.0618
  65   1.0000       0.029329         0.7981
  66   1.0000       0.033619         0.9148
  67   1.0000       0.037226         1.0130
  68   1.0000       0.049870         1.3570
  69   1.0000       0.055376         1.5068
  70   1.0000       0.067433         1.8349
  71   1.0000       0.076967         2.0944
  72   1.0000       0.081935         2.2296
  73   0.0000       0.234397         6.3783
  74   0.0000       0.245247         6.6735
  75   0.0000       0.247351         6.7308
  76   0.0000       0.248071         6.7504
  77   0.0000       0.258432         7.0323

                 SPIN DOWN ORBITALS
  NO   OCC          E(Eh)            E(eV)
   0   1.0000    -196.607723     -5349.9681
   1   1.0000     -88.562240     -2409.9011
   2   1.0000     -88.556209     -2409.7370
   3   1.0000     -88.548043     -2409.5147
   4   1.0000     -88.548031     -2409.5144
   5   1.0000     -21.967390      -597.7631
   6   1.0000     -18.829253      -512.3700
   7   1.0000     -18.485190      -503.0076
   8   1.0000     -18.466921      -502.5105
   9   1.0000     -18.466503      -502.4991
  10   1.0000      -9.934406      -270.3289
  11   1.0000      -9.933959      -270.3168
  12   1.0000      -9.931814      -270.2584
  13   1.0000      -9.931641      -270.2537
  14   1.0000      -9.927944      -270.1531
  15   1.0000      -9.920614      -269.9536
  16   1.0000      -7.616328      -207.2508
  17   1.0000      -7.610593      -207.0948
  18   1.0000      -7.608592      -207.0403
  19   1.0000      -7.607960      -207.0231
  20   1.0000      -5.581514      -151.8807
  21   1.0000      -5.575902      -151.7280
  22   1.0000      -5.575594      -151.7196
  23   1.0000      -5.573569      -151.6645
  24   1.0000      -5.572706      -151.6410
  25   1.0000      -5.572307      -151.6302
  26   1.0000      -5.570181      -151.5723
  27   1.0000      -5.567701      -151.5049
  28   1.0000      -5.567278      -151.4933
  29   1.0000      -5.567187      -151.4909
  30   1.0000      -5.565579      -151.4471
  31   1.0000      -5.564680      -151.4226
  32   1.0000      -2.330046       -63.4038
  33   1.0000      -1.399048       -38.0700
  34   1.0000      -1.340898       -36.4877
  35   1.0000      -1.339690       -36.4548
  36   1.0000      -0.595792       -16.2123
  37   1.0000      -0.581964       -15.8360
  38   1.0000      -0.550699       -14.9853
  39   1.0000      -0.516458       -14.0535
  40   1.0000      -0.465804       -12.6752
  41   1.0000      -0.425983       -11.5916
  42   1.0000      -0.401269       -10.9191
  43   1.0000      -0.336675        -9.1614
  44   1.0000      -0.326768        -8.8918
  45   1.0000      -0.288934        -7.8623
  46   1.0000      -0.281482        -7.6595
  47   1.0000      -0.221025        -6.0144
  48   1.0000      -0.214066        -5.8250
  49   1.0000      -0.202681        -5.5152
  50   1.0000      -0.193139        -5.2556
  51   1.0000      -0.164432        -4.4744
  52   1.0000      -0.133940        -3.6447
  53   1.0000      -0.131077        -3.5668
  54   1.0000      -0.119100        -3.2409
  55   1.0000      -0.111370        -3.0305
  56   1.0000      -0.107900        -2.9361
  57   1.0000      -0.095539        -2.5997
  58   1.0000      -0.069229        -1.8838
  59   1.0000      -0.063668        -1.7325
  60   1.0000      -0.057765        -1.5719
  61   1.0000      -0.048718        -1.3257
  62   1.0000      -0.046212        -1.2575
  63   1.0000      -0.039873        -1.0850
  64   1.0000       0.006803         0.1851
  65   1.0000       0.030383         0.8268
  66   1.0000       0.036739         0.9997
  67   1.0000       0.048087         1.3085
  68   1.0000       0.050606         1.3771
  69   1.0000       0.065111         1.7718
  70   1.0000       0.069684         1.8962
  71   1.0000       0.078197         2.1279
  72   0.0000       0.234724         6.3872
  73   0.0000       0.251100         6.8328
  74   0.0000       0.251933         6.8555
  75   0.0000       0.260651         7.0927
  76   0.0000       0.263815         7.1788

MULLIKEN ATOMIC CHARGES AND SPIN POPULATIONS
--------------------------------------------
   0 V :    0.491928    1.201624
   1 S :   -0.430262   -0.003376
   2 S :   -0.324398   -0.030095
   3 S :   -0.410353   -0.029444
   4 S :   -0.355058   -0.021049
   5 O :   -0.543300   -0.135774
   6 C :   -0.257436    0.001528
   7 C :   -0.224273    0.000201
   8 C :   -0.034511    0.004192
   9 H :    0.054533   -0.000742
  10 H :    0.042340    0.002635
  11 H :    0.082080    0.000117
  12 H :   -0.023588   -0.000294
  13 H :    0.072337    0.000056
  14 H :    0.040960   -0.001012
  15 C :   -0.258339   -0.002195
  16 C :   -0.251113    0.003819
  17 C :   -0.068742    0.008364
  18 H :    0.047244   -0.000096
  19 H :    0.131526   -0.000201
  20 H :    0.014717    0.001688
  21 H :    0.012732    0.000146
  22 H :    0.052117   -0.000575
  23 H :    0.138860    0.000483
Sum of atomic charges         :   -2.0000000

LOEWDIN ATOMIC CHARGES AND SPIN POPULATIONS
-------------------------------------------
   0 V :   -0.178254    1.158214
   1 S :   -0.075716    0.002388
   2 S :    0.046734   -0.021227
   3 S :   -0.061609   -0.020526
   4 S :    0.013331   -0.012705
   5 O :   -0.375437   -0.122255
   6 C :   -0.407381    0.002268
   7 C :   -0.386998    0.003434
   8 C :   -0.190497   -0.000102
   9 H :    0.025175    0.000106
  10 H :    0.024276    0.000545
  11 H :    0.064549   -0.000011
  12 H :    0.034194   -0.000000
  13 H :    0.035873   -0.000058
  14 H :    0.024765   -0.001520
  15 C :   -0.319114    0.002715
  16 C :   -0.324044    0.007646
  17 C :   -0.189005    0.001135
  18 H :    0.028297   -0.000208
  19 H :    0.054222   -0.000616
  20 H :    0.035890    0.000634
  21 H :    0.035117    0.000421
  22 H :    0.030246   -0.000606
  23 H :    0.055385    0.000328

  Mayer bond orders larger than 0.100000
B(  0-V ,  1-S ) :   0.7185 B(  0-V ,  2-S ) :   0.8579 B(  0-V ,  3-S ) :   0.7784
B(  0-V ,  4-S ) :   0.7775 B(  0-V ,  5-O ) :   2.0814 B(  1-S , 15-C ) :   1.0302
B(  2-S ,  6-C ) :   1.1545 B(  2-S ,  8-C ) :  -0.1024 B(  3-S , 16-C ) :   1.0224
B(  4-S ,  7-C ) :   1.2064 B(  4-S ,  8-C ) :  -0.1593 B(  6-C ,  8-C ) :   0.8915
B(  6-C , 13-H ) :   0.9513 B(  6-C , 14-H ) :   0.9588 B(  7-C ,  8-C ) :   0.8933
B(  7-C ,  9-H ) :   0.9567 B(  7-C , 10-H ) :   0.9618 B(  8-C , 11-H ) :   0.9492
B(  8-C , 12-H ) :   0.9684 B( 15-C , 17-C ) :   0.8945 B( 15-C , 22-H ) :   0.9684
B( 15-C , 23-H ) :   0.9796 B( 16-C , 17-C ) :   0.9038 B( 16-C , 18-H ) :   0.9630
B( 16-C , 19-H ) :   0.9758 B( 17-C , 20-H ) :   0.9576 B( 17-C , 21-H ) :   0.9596

FINAL SINGLE POINT ENERGY     -2847.657955157845

DIPOLE MOMENT
-------------
                                X             Y             Z
Electronic contribution:     -1.28776      -3.25070       5.27956
Nuclear contribution   :      1.45400       3.44029      -5.65257
                        -----------------------------------------
Total Dipole Moment    :      0.16624       0.18959      -0.37301
                        -----------------------------------------
Magnitude (a.u.)       :      0.45024
Magnitude (Debye)      :      1.14443

Rotational constants in cm-1:     0.027522     0.011879     0.009723
Rotational constants in MHz :   825.082315   356.132763   291.495914

                             ****ORCA TERMINATED NORMALLY****
TOTAL RUN TIME: 0 days 0 hours 14 minutes 16 seconds 277 msec
