                         Program Version 5.0.4 -  RELEASE  -
|  1> ! nofrozencore ReducedPop printbasis
|  2> ! B3LYP TZVP
|  3>
|  4> %basis
|  5> newgto V "CP(PPP)" end
|  6> end
|  7>
|  8> %pal
|  9> nprocs 4
| 10> end
| 11>
| 12> % sym SymThresh 1e-2 end
| 13> * xyz -2 2
| 14> V 0.002239618840107091 -0.444171450770945 -0.050498187358409476
| 15> S -1.7748392638139734 -0.35784984373204914 1.5408402308575742
| 16> S -1.6935018270565922 0.7063259540182251 -1.5052027985202625
| 17> S 1.7443706249491215 0.1524284827788844 1.7776176021713275
| 18> S 1.8162272165318003 0.3217070341770009 -1.413097085091179
| 19> O -0.07765351578752383 -2.0162703295802333 -0.33472308950273155
| 20> C -0.9250825257719004 0.9711000345638122 -3.1723836784731203
| 21> C 1.4300085986876376 -0.10544950782996936 -3.1771240528938804
| 22> C -0.037940498196294754 -0.19576994192112962 -3.618814896960442
| 23> H 1.9126266180291038 -1.063288625668987 -3.4050113302116207
| 24> H 1.931413973237792 0.6566362926671117 -3.7891851183333864
| 25> H -0.4807475097538038 -1.122516681871959 -3.2421791062022907
| 26> H -0.036703449597284006 -0.26419755009397733 -4.724060523850007
| 27> H -0.34106395155788893 1.898631369782888 -3.172887832964959
| 28> H -1.7521288323691482 1.0996123025927613 -3.881856288071903
| 29> C -1.179167441858784 1.0530274018129007 2.567339037530568
| 30> C 0.8744069716095242 -0.31240504999996854 3.345216261748884
| 31> C -0.3020150725802377 0.6046175546394205 3.7458884264917987
| 32> H 1.6185010151610189 -0.3198249501063963 4.156943622706735
| 33> H 0.5010829046824049 -1.334215323018371 3.2218063291054646
| 34> H 0.09819091070887596 1.5079179224855155 4.258349810408386
| 35> H -0.9405770191249876 0.0706136985430095 4.484372562603159
| 36> H -2.0525274258858146 1.6129668865499476 2.946994710731582
| 37> H -0.6056855732526105 1.7336468293817258 1.9233222939804828
| 38> *
| 39>
| 40> % eprnmr
| 41> gtensor true
| 42> Nuclei = all H {aiso,adip,aorb,fgrad,rho}
| 43> Nuclei = all V {aiso,adip,aorb,fgrad,rho}
| 44> end
| 45>
| 46>                          ****END OF INPUT****

CARTESIAN COORDINATES (ANGSTROEM)
---------------------------------
  V      0.002234   -0.444901   -0.050306
  S     -1.774845   -0.358580    1.541032
  S     -1.693508    0.705596   -1.505011
  S      1.744365    0.151698    1.777810
  S      1.816221    0.320977   -1.412905
  O     -0.077659   -2.017000   -0.334531
  C     -0.925088    0.970370   -3.172192
  C      1.430003   -0.106180   -3.176932
  C     -0.037946   -0.196500   -3.618623
  H      1.912621   -1.064019   -3.404819
  H      1.931408    0.655906   -3.788993
  H     -0.480753   -1.123247   -3.241987
  H     -0.036709   -0.264928   -4.723868
  H     -0.341070    1.897901   -3.172696
  H     -1.752135    1.098882   -3.881664
  C     -1.179173    1.052297    2.567531
  C      0.874401   -0.313135    3.345408
  C     -0.302021    0.603888    3.746081
  H      1.618495   -0.320555    4.157136
  H      0.501077   -1.334945    3.221999
  H      0.098185    1.507188    4.258542
  H     -0.940583    0.069884    4.484565
  H     -2.052533    1.612237    2.947187
  H     -0.605691    1.732917    1.923514

 Total Charge           Charge          ....   -2
 Multiplicity           Mult            ....    2
 Number of Electrons    NEL             ....  145
 Basis Dimension        Dim             ....  353

ORBITAL ENERGIES
----------------
                 SPIN UP ORBITALS
  NO   OCC          E(Eh)            E(eV)
   0   1.0000    -196.603333     -5349.8487
   1   1.0000     -88.559251     -2409.8197
   2   1.0000     -88.558655     -2409.8035
   3   1.0000     -88.558399     -2409.7965
   4   1.0000     -88.557650     -2409.7762
   5   1.0000     -21.978690      -598.0706
   6   1.0000     -18.823956      -512.2259
   7   1.0000     -18.486593      -503.0458
   8   1.0000     -18.479280      -502.8468
   9   1.0000     -18.479088      -502.8415
  10   1.0000      -9.942363      -270.5455
  11   1.0000      -9.935505      -270.3588
  12   1.0000      -9.935198      -270.3505
  13   1.0000      -9.934632      -270.3351
  14   1.0000      -9.933834      -270.3134
  15   1.0000      -9.929430      -270.1935
  16   1.0000      -7.613499      -207.1738
  17   1.0000      -7.613101      -207.1630
  18   1.0000      -7.612777      -207.1542
  19   1.0000      -7.612164      -207.1375
  20   1.0000      -5.578925      -151.8103
  21   1.0000      -5.578262      -151.7922
  22   1.0000      -5.578262      -151.7922
  23   1.0000      -5.577461      -151.7704
  24   1.0000      -5.572293      -151.6298
  25   1.0000      -5.572091      -151.6243
  26   1.0000      -5.571706      -151.6138
  27   1.0000      -5.571264      -151.6018
  28   1.0000      -5.570589      -151.5834
  29   1.0000      -5.570302      -151.5756
  30   1.0000      -5.569868      -151.5638
  31   1.0000      -5.569251      -151.5470
  32   1.0000      -2.372174       -64.5501
  33   1.0000      -1.415815       -38.5263
  34   1.0000      -1.400259       -38.1030
  35   1.0000      -1.399695       -38.0876
  36   1.0000      -0.586479       -15.9589
  37   1.0000      -0.550258       -14.9733
  38   1.0000      -0.547428       -14.8963
  39   1.0000      -0.469753       -12.7826
  40   1.0000      -0.464522       -12.6403
  41   1.0000      -0.403199       -10.9716
  42   1.0000      -0.395439       -10.7604
  43   1.0000      -0.337016        -9.1707
  44   1.0000      -0.327032        -8.8990
  45   1.0000      -0.304521        -8.2864
  46   1.0000      -0.283802        -7.7226
  47   1.0000      -0.210311        -5.7229
  48   1.0000      -0.206513        -5.6195
  49   1.0000      -0.200698        -5.4613
  50   1.0000      -0.196431        -5.3452
  51   1.0000      -0.162286        -4.4160
  52   1.0000      -0.132705        -3.6111
  53   1.0000      -0.128798        -3.5048
  54   1.0000      -0.111954        -3.0464
  55   1.0000      -0.106480        -2.8975
  56   1.0000      -0.104622        -2.8469
  57   1.0000      -0.083009        -2.2588
  58   1.0000      -0.070893        -1.9291
  59   1.0000      -0.062483        -1.7002
  60   1.0000      -0.057317        -1.5597
  61   1.0000      -0.044092        -1.1998
  62   1.0000      -0.040092        -1.0910
  63   1.0000      -0.033265        -0.9052
  64   1.0000      -0.001133        -0.0308
  65   1.0000       0.025510         0.6942
  66   1.0000       0.032411         0.8819
  67   1.0000       0.035886         0.9765
  68   1.0000       0.043435         1.1819
  69   1.0000       0.054056         1.4709
  70   1.0000       0.066760         1.8166
  71   1.0000       0.074059         2.0152
  72   1.0000       0.086239         2.3467
  73   0.0000       0.236798         6.4436
  74   0.0000       0.244854         6.6628
  75   0.0000       0.249634         6.7929
  76   0.0000       0.251388         6.8406
  77   0.0000       0.259880         7.0717

                 SPIN DOWN ORBITALS
  NO   OCC          E(Eh)            E(eV)
   0   1.0000    -196.603471     -5349.8524
   1   1.0000     -88.559422     -2409.8244
   2   1.0000     -88.558745     -2409.8060
   3   1.0000     -88.558548     -2409.8006
   4   1.0000     -88.557526     -2409.7728
   5   1.0000     -21.963841      -597.6665
   6   1.0000     -18.827368      -512.3187
   7   1.0000     -18.481485      -502.9068
   8   1.0000     -18.463422      -502.4152
   9   1.0000     -18.462830      -502.3991
  10   1.0000      -9.942105      -270.5384
  11   1.0000      -9.935438      -270.3570
  12   1.0000      -9.935096      -270.3477
  13   1.0000      -9.934544      -270.3327
  14   1.0000      -9.933780      -270.3119
  15   1.0000      -9.929449      -270.1940
  16   1.0000      -7.613582      -207.1761
  17   1.0000      -7.612985      -207.1599
  18   1.0000      -7.612945      -207.1588
  19   1.0000      -7.612306      -207.1414
  20   1.0000      -5.579058      -151.8139
  21   1.0000      -5.578406      -151.7961
  22   1.0000      -5.578226      -151.7913
  23   1.0000      -5.577582      -151.7737
  24   1.0000      -5.572643      -151.6393
  25   1.0000      -5.572342      -151.6311
  26   1.0000      -5.572160      -151.6262
  27   1.0000      -5.571685      -151.6133
  28   1.0000      -5.570500      -151.5810
  29   1.0000      -5.569997      -151.5673
  30   1.0000      -5.569552      -151.5552
  31   1.0000      -5.569356      -151.5499
  32   1.0000      -2.327921       -63.3459
  33   1.0000      -1.397168       -38.0189
  34   1.0000      -1.339600       -36.4524
  35   1.0000      -1.337672       -36.3999
  36   1.0000      -0.593759       -16.1570
  37   1.0000      -0.550148       -14.9703
  38   1.0000      -0.547239       -14.8911
  39   1.0000      -0.469656       -12.7800
  40   1.0000      -0.464303       -12.6343
  41   1.0000      -0.403145       -10.9701
  42   1.0000      -0.395435       -10.7603
  43   1.0000      -0.336997        -9.1702
  44   1.0000      -0.327346        -8.9075
  45   1.0000      -0.304451        -8.2845
  46   1.0000      -0.283764        -7.7216
  47   1.0000      -0.210205        -5.7200
  48   1.0000      -0.206454        -5.6179
  49   1.0000      -0.200530        -5.4567
  50   1.0000      -0.196246        -5.3401
  51   1.0000      -0.162126        -4.4117
  52   1.0000      -0.132437        -3.6038
  53   1.0000      -0.128591        -3.4991
  54   1.0000      -0.111919        -3.0455
  55   1.0000      -0.106360        -2.8942
  56   1.0000      -0.104498        -2.8435
  57   1.0000      -0.081582        -2.2200
  58   1.0000      -0.069321        -1.8863
  59   1.0000      -0.061524        -1.6742
  60   1.0000      -0.056785        -1.5452
  61   1.0000      -0.045665        -1.2426
  62   1.0000      -0.040156        -1.0927
  63   1.0000      -0.034488        -0.9385
  64   1.0000       0.003178         0.0865
  65   1.0000       0.028355         0.7716
  66   1.0000       0.034749         0.9456
  67   1.0000       0.042844         1.1658
  68   1.0000       0.049205         1.3389
  69   1.0000       0.062429         1.6988
  70   1.0000       0.068399         1.8612
  71   1.0000       0.075086         2.0432
  72   0.0000       0.236073         6.4239
  73   0.0000       0.251572         6.8456
  74   0.0000       0.255337         6.9481
  75   0.0000       0.260777         7.0961
  76   0.0000       0.264766         7.2047

MULLIKEN ATOMIC CHARGES AND SPIN POPULATIONS
--------------------------------------------
   0 V :    0.507792    1.172118
   1 S :   -0.382725    0.013639
   2 S :   -0.372171   -0.033194
   3 S :   -0.444821   -0.028013
   4 S :   -0.361194   -0.019368
   5 O :   -0.532851   -0.132154
   6 C :   -0.249677    0.002818
   7 C :   -0.234809    0.010033
   8 C :   -0.146160    0.002954
   9 H :    0.075382   -0.001230
  10 H :    0.050943    0.002657
  11 H :    0.132432    0.000243
  12 H :    0.003464   -0.000116
  13 H :    0.088881   -0.000043
  14 H :    0.049056   -0.000285
  15 C :   -0.268599   -0.003390
  16 C :   -0.255092   -0.001344
  17 C :   -0.061967    0.012030
  18 H :    0.046230   -0.000446
  19 H :    0.125194    0.000682
  20 H :    0.006816    0.003198
  21 H :    0.017100   -0.000608
  22 H :    0.054811   -0.000502
  23 H :    0.151963    0.000321
Sum of atomic charges         :   -2.0000000

LOEWDIN ATOMIC CHARGES AND SPIN POPULATIONS
-------------------------------------------
   0 V :   -0.230115    1.127128
   1 S :   -0.012294    0.020465
   2 S :   -0.066113   -0.023218
   3 S :   -0.108622   -0.020755
   4 S :   -0.030744   -0.008897
   5 O :   -0.369088   -0.118748
   6 C :   -0.326937    0.002524
   7 C :   -0.313757    0.009983
   8 C :   -0.186900    0.000407
   9 H :    0.037412   -0.000038
  10 H :    0.029361    0.001028
  11 H :    0.069160    0.000184
  12 H :    0.031601    0.000150
  13 H :    0.043018   -0.000069
  14 H :    0.027667   -0.000593
  15 C :   -0.318302    0.003787
  16 C :   -0.327496    0.004369
  17 C :   -0.190928    0.001617
  18 H :    0.027780   -0.000172
  19 H :    0.052778   -0.000448
  20 H :    0.034096    0.001264
  21 H :    0.037845    0.000256
  22 H :    0.031472   -0.000563
  23 H :    0.059106    0.000341

  Mayer bond orders larger than 0.100000
B(  0-V ,  1-S ) :   0.7943 B(  0-V ,  2-S ) :   0.8188 B(  0-V ,  3-S ) :   0.6889
B(  0-V ,  4-S ) :   0.8250 B(  0-V ,  5-O ) :   2.0878 B(  1-S , 15-C ) :   0.9974
B(  2-S ,  6-C ) :   1.0287 B(  3-S , 16-C ) :   1.0499 B(  4-S ,  7-C ) :   1.0525
B(  6-C ,  8-C ) :   0.8998 B(  6-C , 13-H ) :   0.9735 B(  6-C , 14-H ) :   0.9694
B(  7-C ,  8-C ) :   0.9170 B(  7-C ,  9-H ) :   0.9768 B(  7-C , 10-H ) :   0.9707
B(  8-C , 11-H ) :   0.9876 B(  8-C , 12-H ) :   0.9445 B( 15-C , 17-C ) :   0.8968
B( 15-C , 22-H ) :   0.9644 B( 15-C , 23-H ) :   0.9733 B( 16-C , 17-C ) :   0.8977
B( 16-C , 18-H ) :   0.9641 B( 16-C , 19-H ) :   0.9790 B( 17-C , 20-H ) :   0.9499
B( 17-C , 21-H ) :   0.9612

FINAL SINGLE POINT ENERGY     -2847.711152803522

DIPOLE MOMENT
-------------
                                X             Y             Z
Electronic contribution:      0.06409      -5.84935       0.63700
Nuclear contribution   :     -0.15270       6.19450      -0.92955
                        -----------------------------------------
Total Dipole Moment    :     -0.08861       0.34515      -0.29256
                        -----------------------------------------
Magnitude (a.u.)       :      0.46106
Magnitude (Debye)      :      1.17191

Rotational constants in cm-1:     0.027019     0.011982     0.009680
Rotational constants in MHz :   810.024229   359.201776   290.196917

                             ****ORCA TERMINATED NORMALLY****
TOTAL RUN TIME: 0 days 0 hours 14 minutes 35 seconds 998 msec
