                         Program Version 5.0.4 -  RELEASE  -
|  1> ! nofrozencore ReducedPop printbasis
|  2> ! B3LYP TZVP
|  3>
|  4> %basis
|  5> newgto V "CP(PPP)" end
|  6> end
|  7>
|  8> %pal
|  9> nprocs 8
| 10> end
| 11>
| 12> % sym SymThresh 1e-2 end
| 13> * xyz -2 2
| 14> V 0.051388233961951205 0.1628964145648255 -0.4627933595085352
| 15> S -2.3034821368283143 -0.7162772542191045 -0.7827911741340742
| 16> S -0.9777701011313356 1.928892162836083 0.8961063810112933
| 17> S 0.8151091268743134 -2.173701688034284 -0.11624967865374605
| 18> S 2.1837223132863444 0.4748174327635237 0.7768585654468853
| 19> O 0.34907194380879886 0.7303883055913392 -1.9315859431397195
| 20> C 0.4051978653675734 2.9845950322404704 1.5581012207934586
| 21> C 2.6716989370064446 2.250836273943574 0.5750699382965865
| 22> C 1.5199062968650965 3.2680216937722326 0.5410950816343618
| 23> H 3.271141424239683 2.3559285684312803 -0.340962109916214
| 24> H 3.334992158813163 2.4886035716325074 1.422389092305845
| 25> H 1.0754869070534114 3.2857407114098254 -0.45933422233787224
| 26> H 1.9463627981913163 4.2724763520910765 0.7228581497565011
| 27> H 0.8361126807014492 2.49850171236746 2.443343080520848
| 28> H -0.05651354259128658 3.9297854079340704 1.8787837406208396
| 29> C -2.3548034478115016 -2.124293576589336 0.41891627013802324
| 30> C -0.45409905124445316 -3.269154419485405 -0.8987333090471998
| 31> C -1.753793239266309 -3.4382368928120317 -0.10590176752090537
| 32> H 0.00838080736027127 -4.253931303095207 -1.0522580149961822
| 33> H -0.6963035182572551 -2.854469823595031 -1.8787493465273433
| 34> H -1.5756518173026608 -4.106684099538963 0.7519389086851908
| 35> H -2.489945304302219 -3.9402948168953436 -0.7571633054797513
| 36> H -3.4007827146516227 -2.292650972814225 0.7041324301342238
| 37> H -1.8175934400630518 -1.8167943180782993 1.31799477025638
| 38> *
| 39>
| 40> % eprnmr
| 41> gtensor true
| 42> Nuclei = all H {aiso,adip,aorb,fgrad,rho}
| 43> Nuclei = all V {aiso,adip,aorb,fgrad,rho}
| 44> end
| 45>
| 46>                          ****END OF INPUT****

CARTESIAN COORDINATES (ANGSTROEM)
---------------------------------
  V      0.051399    0.162846   -0.463547
  S     -2.303471   -0.716327   -0.783544
  S     -0.977759    1.928842    0.895353
  S      0.815120   -2.173752   -0.117003
  S      2.183733    0.474767    0.776105
  O      0.349083    0.730338   -1.932339
  C      0.405209    2.984545    1.557348
  C      2.671710    2.250786    0.574317
  C      1.519917    3.267972    0.540342
  H      3.271152    2.355879   -0.341715
  H      3.335003    2.488554    1.421636
  H      1.075498    3.285691   -0.460087
  H      1.946374    4.272426    0.722105
  H      0.836124    2.498452    2.442590
  H     -0.056503    3.929735    1.878031
  C     -2.354793   -2.124344    0.418163
  C     -0.454088   -3.269204   -0.899487
  C     -1.753782   -3.438287   -0.106655
  H      0.008392   -4.253981   -1.053011
  H     -0.696293   -2.854520   -1.879503
  H     -1.575641   -4.106734    0.751186
  H     -2.489934   -3.940345   -0.757917
  H     -3.400772   -2.292701    0.703379
  H     -1.817582   -1.816844    1.317242

 Total Charge           Charge          ....   -2
 Multiplicity           Mult            ....    2
 Number of Electrons    NEL             ....  145
 Basis Dimension        Dim             ....  353

ORBITAL ENERGIES
----------------
                 SPIN UP ORBITALS
  NO   OCC          E(Eh)            E(eV)
   0   1.0000    -196.606917     -5349.9462
   1   1.0000     -88.561630     -2409.8845
   2   1.0000     -88.560679     -2409.8586
   3   1.0000     -88.558774     -2409.8067
   4   1.0000     -88.558038     -2409.7867
   5   1.0000     -21.982157      -598.1649
   6   1.0000     -18.825132      -512.2579
   7   1.0000     -18.490024      -503.1391
   8   1.0000     -18.482739      -502.9409
   9   1.0000     -18.482639      -502.9382
  10   1.0000      -9.942965      -270.5618
  11   1.0000      -9.936652      -270.3900
  12   1.0000      -9.935087      -270.3475
  13   1.0000      -9.933966      -270.3170
  14   1.0000      -9.932367      -270.2734
  15   1.0000      -9.929375      -270.1920
  16   1.0000      -7.615404      -207.2257
  17   1.0000      -7.614841      -207.2104
  18   1.0000      -7.613103      -207.1631
  19   1.0000      -7.612232      -207.1394
  20   1.0000      -5.580780      -151.8607
  21   1.0000      -5.580076      -151.8416
  22   1.0000      -5.578570      -151.8006
  23   1.0000      -5.577496      -151.7714
  24   1.0000      -5.574304      -151.6845
  25   1.0000      -5.573796      -151.6707
  26   1.0000      -5.572617      -151.6386
  27   1.0000      -5.572126      -151.6252
  28   1.0000      -5.572049      -151.6232
  29   1.0000      -5.571426      -151.6062
  30   1.0000      -5.570002      -151.5675
  31   1.0000      -5.569364      -151.5501
  32   1.0000      -2.374863       -64.6233
  33   1.0000      -1.417715       -38.5780
  34   1.0000      -1.402898       -38.1748
  35   1.0000      -1.402373       -38.1605
  36   1.0000      -0.587585       -15.9890
  37   1.0000      -0.550293       -14.9742
  38   1.0000      -0.549905       -14.9637
  39   1.0000      -0.468066       -12.7367
  40   1.0000      -0.465323       -12.6621
  41   1.0000      -0.403957       -10.9922
  42   1.0000      -0.396476       -10.7887
  43   1.0000      -0.337513        -9.1842
  44   1.0000      -0.327858        -8.9215
  45   1.0000      -0.303295        -8.2531
  46   1.0000      -0.285333        -7.7643
  47   1.0000      -0.214010        -5.8235
  48   1.0000      -0.206003        -5.6056
  49   1.0000      -0.202181        -5.5016
  50   1.0000      -0.199377        -5.4253
  51   1.0000      -0.158600        -4.3157
  52   1.0000      -0.133726        -3.6389
  53   1.0000      -0.131076        -3.5668
  54   1.0000      -0.111586        -3.0364
  55   1.0000      -0.107664        -2.9297
  56   1.0000      -0.105947        -2.8830
  57   1.0000      -0.083432        -2.2703
  58   1.0000      -0.067791        -1.8447
  59   1.0000      -0.063468        -1.7270
  60   1.0000      -0.056728        -1.5436
  61   1.0000      -0.045874        -1.2483
  62   1.0000      -0.038538        -1.0487
  63   1.0000      -0.036230        -0.9859
  64   1.0000      -0.000847        -0.0231
  65   1.0000       0.026646         0.7251
  66   1.0000       0.031639         0.8609
  67   1.0000       0.035822         0.9748
  68   1.0000       0.045682         1.2431
  69   1.0000       0.052349         1.4245
  70   1.0000       0.064543         1.7563
  71   1.0000       0.072758         1.9798
  72   1.0000       0.082214         2.2372
  73   0.0000       0.234472         6.3803
  74   0.0000       0.246278         6.7016
  75   0.0000       0.250162         6.8072
  76   0.0000       0.252364         6.8672
  77   0.0000       0.258252         7.0274

                 SPIN DOWN ORBITALS
  NO   OCC          E(Eh)            E(eV)
   0   1.0000    -196.607058     -5349.9500
   1   1.0000     -88.561803     -2409.8892
   2   1.0000     -88.560842     -2409.8630
   3   1.0000     -88.558867     -2409.8093
   4   1.0000     -88.557991     -2409.7854
   5   1.0000     -21.967088      -597.7549
   6   1.0000     -18.828632      -512.3531
   7   1.0000     -18.484818      -502.9975
   8   1.0000     -18.466617      -502.5022
   9   1.0000     -18.466193      -502.4906
  10   1.0000      -9.942817      -270.5578
  11   1.0000      -9.936487      -270.3856
  12   1.0000      -9.935039      -270.3461
  13   1.0000      -9.933823      -270.3131
  14   1.0000      -9.932321      -270.2722
  15   1.0000      -9.929394      -270.1925
  16   1.0000      -7.615572      -207.2303
  17   1.0000      -7.614996      -207.2146
  18   1.0000      -7.613191      -207.1655
  19   1.0000      -7.612189      -207.1382
  20   1.0000      -5.580951      -151.8654
  21   1.0000      -5.580224      -151.8456
  22   1.0000      -5.578676      -151.8035
  23   1.0000      -5.577499      -151.7715
  24   1.0000      -5.574737      -151.6963
  25   1.0000      -5.574234      -151.6826
  26   1.0000      -5.572754      -151.6423
  27   1.0000      -5.572543      -151.6366
  28   1.0000      -5.572169      -151.6264
  29   1.0000      -5.571739      -151.6147
  30   1.0000      -5.569885      -151.5643
  31   1.0000      -5.568844      -151.5360
  32   1.0000      -2.329916       -63.4002
  33   1.0000      -1.398744       -38.0618
  34   1.0000      -1.341117       -36.4936
  35   1.0000      -1.339522       -36.4503
  36   1.0000      -0.595088       -16.1932
  37   1.0000      -0.550183       -14.9712
  38   1.0000      -0.549772       -14.9601
  39   1.0000      -0.467995       -12.7348
  40   1.0000      -0.465220       -12.6593
  41   1.0000      -0.404002       -10.9935
  42   1.0000      -0.396600       -10.7920
  43   1.0000      -0.337644        -9.1878
  44   1.0000      -0.328224        -8.9314
  45   1.0000      -0.303254        -8.2520
  46   1.0000      -0.285351        -7.7648
  47   1.0000      -0.213959        -5.8221
  48   1.0000      -0.205926        -5.6035
  49   1.0000      -0.202043        -5.4979
  50   1.0000      -0.199255        -5.4220
  51   1.0000      -0.158458        -4.3119
  52   1.0000      -0.133569        -3.6346
  53   1.0000      -0.130840        -3.5603
  54   1.0000      -0.111573        -3.0361
  55   1.0000      -0.107605        -2.9281
  56   1.0000      -0.105760        -2.8779
  57   1.0000      -0.082271        -2.2387
  58   1.0000      -0.065903        -1.7933
  59   1.0000      -0.062751        -1.7075
  60   1.0000      -0.056537        -1.5384
  61   1.0000      -0.047064        -1.2807
  62   1.0000      -0.040241        -1.0950
  63   1.0000      -0.036431        -0.9914
  64   1.0000       0.003628         0.0987
  65   1.0000       0.028090         0.7644
  66   1.0000       0.034557         0.9403
  67   1.0000       0.044871         1.2210
  68   1.0000       0.046794         1.2733
  69   1.0000       0.060434         1.6445
  70   1.0000       0.067848         1.8463
  71   1.0000       0.074694         2.0325
  72   0.0000       0.234805         6.3894
  73   0.0000       0.250535         6.8174
  74   0.0000       0.255965         6.9652
  75   0.0000       0.260982         7.1017
  76   0.0000       0.265056         7.2126

MULLIKEN ATOMIC CHARGES AND SPIN POPULATIONS
--------------------------------------------
   0 V :    0.534554    1.190273
   1 S :   -0.434058    0.001158
   2 S :   -0.365787   -0.031650
   3 S :   -0.400707   -0.030335
   4 S :   -0.374276   -0.020874
   5 O :   -0.548607   -0.135022
   6 C :   -0.245620    0.006627
   7 C :   -0.237284    0.005472
   8 C :   -0.159984    0.003101
   9 H :    0.076380   -0.000790
  10 H :    0.050515    0.002165
  11 H :    0.137045    0.000614
  12 H :    0.006344   -0.000155
  13 H :    0.102851   -0.000132
  14 H :    0.046201   -0.000019
  15 C :   -0.258366   -0.002542
  16 C :   -0.253637    0.002095
  17 C :   -0.070373    0.008537
  18 H :    0.047246   -0.000339
  19 H :    0.127374    0.000191
  20 H :    0.016269    0.001843
  21 H :    0.012048   -0.000096
  22 H :    0.051924   -0.000559
  23 H :    0.139949    0.000436
Sum of atomic charges         :   -2.0000000

LOEWDIN ATOMIC CHARGES AND SPIN POPULATIONS
-------------------------------------------
   0 V :   -0.204690    1.146963
   1 S :   -0.079949    0.006639
   2 S :   -0.045806   -0.021653
   3 S :   -0.057269   -0.021535
   4 S :   -0.055843   -0.011629
   5 O :   -0.376474   -0.121693
   6 C :   -0.324484    0.006535
   7 C :   -0.315633    0.005746
   8 C :   -0.189151    0.000456
   9 H :    0.037893    0.000104
  10 H :    0.029235    0.000667
  11 H :    0.069788    0.000287
  12 H :    0.031259    0.000120
  13 H :    0.047282   -0.000098
  14 H :    0.027506   -0.000532
  15 C :   -0.317773    0.002399
  16 C :   -0.327277    0.006071
  17 C :   -0.188626    0.001292
  18 H :    0.028595   -0.000260
  19 H :    0.053371   -0.000564
  20 H :    0.036611    0.000667
  21 H :    0.034726    0.000337
  22 H :    0.030282   -0.000604
  23 H :    0.056427    0.000288

  Mayer bond orders larger than 0.100000
B(  0-V ,  1-S ) :   0.7145 B(  0-V ,  2-S ) :   0.8541 B(  0-V ,  3-S ) :   0.7675
B(  0-V ,  4-S ) :   0.7704 B(  0-V ,  5-O ) :   2.0715 B(  1-S , 15-C ) :   1.0298
B(  2-S ,  6-C ) :   1.0088 B(  3-S , 16-C ) :   1.0287 B(  4-S ,  7-C ) :   1.0740
B(  6-C ,  8-C ) :   0.8973 B(  6-C , 13-H ) :   0.9764 B(  6-C , 14-H ) :   0.9645
B(  7-C ,  8-C ) :   0.9181 B(  7-C ,  9-H ) :   0.9770 B(  7-C , 10-H ) :   0.9677
B(  8-C , 11-H ) :   0.9890 B(  8-C , 12-H ) :   0.9460 B( 15-C , 17-C ) :   0.8959
B( 15-C , 22-H ) :   0.9685 B( 15-C , 23-H ) :   0.9800 B( 16-C , 17-C ) :   0.9022
B( 16-C , 18-H ) :   0.9642 B( 16-C , 19-H ) :   0.9757 B( 17-C , 20-H ) :   0.9595
B( 17-C , 21-H ) :   0.9588

FINAL SINGLE POINT ENERGY     -2847.717064475678

DIPOLE MOMENT
-------------
                                X             Y             Z
Electronic contribution:     -0.03795       1.22989      -6.11317
Nuclear contribution   :      0.18456      -1.13558       6.54298
                        -----------------------------------------
Total Dipole Moment    :      0.14661       0.09431       0.42981
                        -----------------------------------------
Magnitude (a.u.)       :      0.46382
Magnitude (Debye)      :      1.17893

Rotational constants in cm-1:     0.027201     0.011671     0.009590
Rotational constants in MHz :   815.465920   349.878004   287.490166

                             ****ORCA TERMINATED NORMALLY****
TOTAL RUN TIME: 0 days 0 hours 9 minutes 33 seconds 118 msec
