                         Program Version 5.0.4 -  RELEASE  -
|  1> ! nofrozencore ReducedPop printbasis
|  2> ! B3LYP TZVP
|  3>
|  4> %basis
|  5> newgto V "CP(PPP)" end
|  6> end
|  7>
|  8> %pal
|  9> nprocs 8
| 10> end
| 11>
| 12> % sym SymThresh 1e-2 end
| 13> * xyz -2 2
| 14> V 0.37440319250933213 -0.23916748710017086 -0.1225342997042441
| 15> S -1.4294194594298977 -1.7864338526569494 -0.9678196600634787
| 16> S -0.5209805158371428 1.1923504689321907 -1.8160631276297228
| 17> S -0.15143240301398744 -0.9037385288190881 2.1076000904873577
| 18> S 1.3258181534243827 1.7248089106545639 1.1107549820351812
| 19> O 1.655317709677892 -1.0068026648505342 -0.702152059219084
| 20> C 0.43819850039893216 2.786099268488195 -1.926491921262498
| 21> C 2.3647012844346187 2.6217852020360253 -0.1407876275358744
| 22> C 1.9361458435731647 2.6637250769236673 -1.6271135086119102
| 23> H 3.3825971452001196 2.2042380836700786 -0.10644896935367386
| 24> H 2.436566277229558 3.657920519407556 0.22961009634344556
| 25> H 2.301648139713009 1.760415627307214 -2.1421679182300797
| 26> H 2.469261053386022 3.5291959935025337 -2.0821235034607373
| 27> H -0.012943382600829108 3.549430506923775 -1.2675112303505163
| 28> H 0.30917552376481033 3.128342084243396 -2.968876851754791
| 29> C -2.703475371588669 -1.5754227723736804 0.34975406665961034
| 30> C -1.0383129793932062 -2.531747194333823 2.0651218389202657
| 31> C -2.4855379484037656 -2.5074230201301093 1.5426591054294527
| 32> H -1.0306937455807164 -2.926875971456234 3.0934101645672403
| 33> H -0.4498674540998729 -3.2107665393291183 1.439248240699017
| 34> H -3.1716554891340265 -2.2091895655337415 2.357034923365972
| 35> H -2.760472165017618 -3.5366176557120994 1.2513380460908228
| 36> H -3.6970691739657418 -1.7542031585246014 -0.08183240643888413
| 37> H -2.676629523567112 -0.5386211990334014 0.6917160106681883
| 38> *
| 39>
| 40> % eprnmr
| 41> gtensor true
| 42> Nuclei = all H {aiso,adip,aorb,fgrad,rho}
| 43> Nuclei = all V {aiso,adip,aorb,fgrad,rho}
| 44> end
| 45>
| 46>                          ****END OF INPUT****

CARTESIAN COORDINATES (ANGSTROEM)
---------------------------------
  V      0.374842   -0.239772   -0.122645
  S     -1.428981   -1.787038   -0.967930
  S     -0.520542    1.191746   -1.816174
  S     -0.150994   -0.904343    2.107490
  S      1.326257    1.724204    1.110645
  O      1.655756   -1.007407   -0.702263
  C      0.438637    2.785495   -1.926602
  C      2.365140    2.621181   -0.140898
  C      1.936584    2.663120   -1.627224
  H      3.383036    2.203633   -0.106559
  H      2.437005    3.657316    0.229500
  H      2.302087    1.759811   -2.142278
  H      2.469700    3.528591   -2.082234
  H     -0.012505    3.548826   -1.267622
  H      0.309614    3.127737   -2.968987
  C     -2.703037   -1.576027    0.349644
  C     -1.037874   -2.532352    2.065011
  C     -2.485099   -2.508028    1.542549
  H     -1.030255   -2.927481    3.093300
  H     -0.449429   -3.211371    1.439138
  H     -3.171217   -2.209794    2.356924
  H     -2.760034   -3.537222    1.251228
  H     -3.696631   -1.754808   -0.081943
  H     -2.676191   -0.539226    0.691606

 Total Charge           Charge          ....   -2
 Multiplicity           Mult            ....    2
 Number of Electrons    NEL             ....  145
 Basis Dimension        Dim             ....  353

ORBITAL ENERGIES
----------------
                 SPIN UP ORBITALS
  NO   OCC          E(Eh)            E(eV)
   0   1.0000    -196.599433     -5349.7425
   1   1.0000     -88.561120     -2409.8706
   2   1.0000     -88.559188     -2409.8180
   3   1.0000     -88.557573     -2409.7741
   4   1.0000     -88.555321     -2409.7128
   5   1.0000     -21.975347      -597.9796
   6   1.0000     -18.819235      -512.0974
   7   1.0000     -18.483050      -502.9493
   8   1.0000     -18.475993      -502.7573
   9   1.0000     -18.475835      -502.7530
  10   1.0000      -9.942642      -270.5531
  11   1.0000      -9.938728      -270.4465
  12   1.0000      -9.937042      -270.4007
  13   1.0000      -9.933190      -270.2958
  14   1.0000      -9.933095      -270.2932
  15   1.0000      -9.932761      -270.2842
  16   1.0000      -7.615939      -207.2402
  17   1.0000      -7.613309      -207.1687
  18   1.0000      -7.611637      -207.1232
  19   1.0000      -7.609811      -207.0735
  20   1.0000      -5.581162      -151.8711
  21   1.0000      -5.578818      -151.8073
  22   1.0000      -5.577153      -151.7620
  23   1.0000      -5.575055      -151.7050
  24   1.0000      -5.574630      -151.6934
  25   1.0000      -5.573284      -151.6568
  26   1.0000      -5.571947      -151.6204
  27   1.0000      -5.570684      -151.5860
  28   1.0000      -5.570534      -151.5819
  29   1.0000      -5.569019      -151.5407
  30   1.0000      -5.568534      -151.5275
  31   1.0000      -5.566863      -151.4820
  32   1.0000      -2.368829       -64.4591
  33   1.0000      -1.411702       -38.4144
  34   1.0000      -1.397451       -38.0266
  35   1.0000      -1.396631       -38.0043
  36   1.0000      -0.582010       -15.8373
  37   1.0000      -0.550649       -14.9839
  38   1.0000      -0.546554       -14.8725
  39   1.0000      -0.468349       -12.7444
  40   1.0000      -0.465283       -12.6610
  41   1.0000      -0.404794       -11.0150
  42   1.0000      -0.396257       -10.7827
  43   1.0000      -0.337982        -9.1970
  44   1.0000      -0.327734        -8.9181
  45   1.0000      -0.299254        -8.1431
  46   1.0000      -0.285283        -7.7629
  47   1.0000      -0.214270        -5.8306
  48   1.0000      -0.205400        -5.5892
  49   1.0000      -0.201980        -5.4962
  50   1.0000      -0.195336        -5.3154
  51   1.0000      -0.160213        -4.3596
  52   1.0000      -0.135650        -3.6912
  53   1.0000      -0.130490        -3.5508
  54   1.0000      -0.111616        -3.0372
  55   1.0000      -0.106938        -2.9099
  56   1.0000      -0.103367        -2.8128
  57   1.0000      -0.082181        -2.2363
  58   1.0000      -0.069639        -1.8950
  59   1.0000      -0.059142        -1.6093
  60   1.0000      -0.055704        -1.5158
  61   1.0000      -0.044007        -1.1975
  62   1.0000      -0.037689        -1.0256
  63   1.0000      -0.031985        -0.8704
  64   1.0000      -0.001208        -0.0329
  65   1.0000       0.027403         0.7457
  66   1.0000       0.029356         0.7988
  67   1.0000       0.038181         1.0390
  68   1.0000       0.048433         1.3179
  69   1.0000       0.055861         1.5201
  70   1.0000       0.064999         1.7687
  71   1.0000       0.074546         2.0285
  72   1.0000       0.084219         2.2917
  73   0.0000       0.238364         6.4862
  74   0.0000       0.250745         6.8231
  75   0.0000       0.253251         6.8913
  76   0.0000       0.257869         7.0170
  77   0.0000       0.260704         7.0941

                 SPIN DOWN ORBITALS
  NO   OCC          E(Eh)            E(eV)
   0   1.0000    -196.599572     -5349.7463
   1   1.0000     -88.561274     -2409.8748
   2   1.0000     -88.559354     -2409.8225
   3   1.0000     -88.557669     -2409.7767
   4   1.0000     -88.555280     -2409.7117
   5   1.0000     -21.960542      -597.5767
   6   1.0000     -18.822649      -512.1903
   7   1.0000     -18.477961      -502.8109
   8   1.0000     -18.460141      -502.3260
   9   1.0000     -18.459664      -502.3130
  10   1.0000      -9.942476      -270.5485
  11   1.0000      -9.938546      -270.4416
  12   1.0000      -9.936792      -270.3939
  13   1.0000      -9.933211      -270.2964
  14   1.0000      -9.933049      -270.2920
  15   1.0000      -9.932709      -270.2828
  16   1.0000      -7.616084      -207.2442
  17   1.0000      -7.613470      -207.1730
  18   1.0000      -7.611728      -207.1256
  19   1.0000      -7.609775      -207.0725
  20   1.0000      -5.581340      -151.8760
  21   1.0000      -5.578991      -151.8121
  22   1.0000      -5.577259      -151.7649
  23   1.0000      -5.575060      -151.7051
  24   1.0000      -5.575004      -151.7036
  25   1.0000      -5.573402      -151.6600
  26   1.0000      -5.572358      -151.6316
  27   1.0000      -5.571080      -151.5968
  28   1.0000      -5.570657      -151.5853
  29   1.0000      -5.569337      -151.5494
  30   1.0000      -5.568450      -151.5252
  31   1.0000      -5.566364      -151.4685
  32   1.0000      -2.324593       -63.2554
  33   1.0000      -1.393143       -37.9094
  34   1.0000      -1.336757       -36.3750
  35   1.0000      -1.334569       -36.3155
  36   1.0000      -0.589310       -16.0359
  37   1.0000      -0.550443       -14.9783
  38   1.0000      -0.546435       -14.8692
  39   1.0000      -0.468216       -12.7408
  40   1.0000      -0.465070       -12.6552
  41   1.0000      -0.404761       -11.0141
  42   1.0000      -0.396342       -10.7850
  43   1.0000      -0.338015        -9.1979
  44   1.0000      -0.328033        -8.9262
  45   1.0000      -0.299150        -8.1403
  46   1.0000      -0.285243        -7.7619
  47   1.0000      -0.214181        -5.8282
  48   1.0000      -0.205317        -5.5869
  49   1.0000      -0.201828        -5.4920
  50   1.0000      -0.195155        -5.3104
  51   1.0000      -0.160055        -4.3553
  52   1.0000      -0.135341        -3.6828
  53   1.0000      -0.130213        -3.5433
  54   1.0000      -0.111520        -3.0346
  55   1.0000      -0.106848        -2.9075
  56   1.0000      -0.103172        -2.8074
  57   1.0000      -0.080834        -2.1996
  58   1.0000      -0.067292        -1.8311
  59   1.0000      -0.058047        -1.5795
  60   1.0000      -0.055353        -1.5062
  61   1.0000      -0.044132        -1.2009
  62   1.0000      -0.038500        -1.0476
  63   1.0000      -0.033847        -0.9210
  64   1.0000       0.003912         0.1065
  65   1.0000       0.028443         0.7740
  66   1.0000       0.032470         0.8835
  67   1.0000       0.044215         1.2032
  68   1.0000       0.049040         1.3344
  69   1.0000       0.063400         1.7252
  70   1.0000       0.069436         1.8895
  71   1.0000       0.075994         2.0679
  72   0.0000       0.235455         6.4071
  73   0.0000       0.251674         6.8484
  74   0.0000       0.255134         6.9425
  75   0.0000       0.263164         7.1611
  76   0.0000       0.272310         7.4099

MULLIKEN ATOMIC CHARGES AND SPIN POPULATIONS
--------------------------------------------
   0 V :    0.497859    1.179095
   1 S :   -0.420062    0.001218
   2 S :   -0.336738   -0.031527
   3 S :   -0.382468   -0.027180
   4 S :   -0.392211   -0.021155
   5 O :   -0.545400   -0.132170
   6 C :   -0.232360    0.007283
   7 C :   -0.233639    0.005956
   8 C :   -0.138197    0.003080
   9 H :    0.075876   -0.000735
  10 H :    0.047991    0.002295
  11 H :    0.113380    0.000403
  12 H :    0.002732    0.000027
  13 H :    0.076989   -0.000138
  14 H :    0.049382    0.000223
  15 C :   -0.259349   -0.003693
  16 C :   -0.239950    0.006095
  17 C :   -0.075612    0.009296
  18 H :    0.046030   -0.000078
  19 H :    0.122805   -0.000459
  20 H :    0.009362    0.002167
  21 H :    0.018097   -0.000081
  22 H :    0.052051   -0.000564
  23 H :    0.143431    0.000644
Sum of atomic charges         :   -2.0000000

LOEWDIN ATOMIC CHARGES AND SPIN POPULATIONS
-------------------------------------------
   0 V :   -0.262265    1.132896
   1 S :   -0.064967    0.006220
   2 S :   -0.019194   -0.019958
   3 S :   -0.019934   -0.017451
   4 S :   -0.075970   -0.012111
   5 O :   -0.378380   -0.118725
   6 C :   -0.323546    0.007234
   7 C :   -0.318427    0.006535
   8 C :   -0.185850    0.000376
   9 H :    0.038933    0.000092
  10 H :    0.028688    0.000869
  11 H :    0.067023    0.000202
  12 H :    0.032684    0.000197
  13 H :    0.042057    0.000036
  14 H :    0.030452   -0.000433
  15 C :   -0.319880    0.002481
  16 C :   -0.322866    0.010226
  17 C :   -0.189360    0.001225
  18 H :    0.029436   -0.000283
  19 H :    0.053781   -0.000592
  20 H :    0.033563    0.000777
  21 H :    0.037434    0.000492
  22 H :    0.029992   -0.000595
  23 H :    0.056598    0.000291

  Mayer bond orders larger than 0.100000
B(  0-V ,  1-S ) :   0.7117 B(  0-V ,  2-S ) :   0.8782 B(  0-V ,  3-S ) :   0.8159
B(  0-V ,  4-S ) :   0.7558 B(  0-V ,  5-O ) :   2.0686 B(  1-S , 15-C ) :   1.0256
B(  2-S ,  6-C ) :   1.0102 B(  3-S , 16-C ) :   1.0118 B(  4-S ,  7-C ) :   1.0869
B(  6-C ,  8-C ) :   0.9178 B(  6-C , 13-H ) :   0.9673 B(  6-C , 14-H ) :   0.9706
B(  7-C ,  8-C ) :   0.9096 B(  7-C ,  9-H ) :   0.9783 B(  7-C , 10-H ) :   0.9734
B(  8-C , 11-H ) :   0.9869 B(  8-C , 12-H ) :   0.9475 B( 15-C , 17-C ) :   0.8997
B( 15-C , 22-H ) :   0.9667 B( 15-C , 23-H ) :   0.9776 B( 16-C , 17-C ) :   0.9020
B( 16-C , 18-H ) :   0.9639 B( 16-C , 19-H ) :   0.9764 B( 17-C , 20-H ) :   0.9527
B( 17-C , 21-H ) :   0.9641

FINAL SINGLE POINT ENERGY     -2847.713976464421

DIPOLE MOMENT
-------------
                                X             Y             Z
Electronic contribution:      4.16874      -4.12588      -0.90438
Nuclear contribution   :     -4.40205       4.50780       0.93070
                        -----------------------------------------
Total Dipole Moment    :     -0.23331       0.38192       0.02632
                        -----------------------------------------
Magnitude (a.u.)       :      0.44832
Magnitude (Debye)      :      1.13954

Rotational constants in cm-1:     0.027603     0.011813     0.009647
Rotational constants in MHz :   827.505263   354.144127   289.200056

                             ****ORCA TERMINATED NORMALLY****
TOTAL RUN TIME: 0 days 0 hours 9 minutes 31 seconds 294 msec
