                         Program Version 5.0.4 -  RELEASE  -
|  1> ! nofrozencore ReducedPop printbasis
|  2> ! B3LYP TZVP
|  3>
|  4> %basis
|  5> newgto V "CP(PPP)" end
|  6> end
|  7>
|  8> %pal
|  9> nprocs 8
| 10> end
| 11>
| 12> % sym SymThresh 1e-2 end
| 13> * xyz -2 2
| 14> V 0.20829192409373903 0.13809375746046026 0.42377426208982966
| 15> S -1.0769672010209548 -1.9076015158734316 1.1800152140474613
| 16> S 1.4522940491739997 -1.5487825520821914 -0.8402025590799892
| 17> S -1.9467318002594571 1.346100758362823 0.18045158725709423
| 18> S 0.923063875287431 1.8805230087133231 -1.2019125317859618
| 19> O 0.9846523756665766 0.5194490882999752 1.7727368487422188
| 20> C 2.808743650770774 -0.7028984961116655 -1.811785027852869
| 21> C 2.7759695997052556 1.8413852345971922 -1.2871299752754906
| 22> C 3.4510563282368296 0.4825145396615184 -1.0347606518315047
| 23> H 3.167691451033242 2.545625573906556 -0.5880018971005347
| 24> H 3.029822226240176 2.1649898938971663 -2.214293935823823
| 25> H 3.4328293573306907 0.26258119419563186 0.0002955729132046078
| 26> H 4.431285271742729 0.567715363361814 -1.311213528011331
| 27> H 2.4914773158778734 -0.40701456146682025 -2.537928966276038
| 28> H 3.261816536813024 -1.149793259292124 -1.9405976049764893
| 29> C -2.607248848408714 -1.7996437916899706 0.14707188256488055
| 30> C -3.1372423398392275 0.4482806164441299 1.270429283274578
| 31> C -3.682772003652334 -0.8651868223037652 0.7146743179634228
| 32> H -4.072545925810423 1.2108213413368647 1.4893335690331817
| 33> H -2.6279781724389313 0.24590456286088921 2.2435717646344027
| 34> H -4.43087035998093 -0.6516583565517539 -0.09152831981261694
| 35> H -4.227435043651066 -1.3880554995396295 1.5291561529192168
| 36> H -3.018612700602123 -2.8025847845268546 0.03785329886703116
| 37> H -2.3190064829849026 -1.4570321309049228 -0.8450289984270664
| 38> *
| 39>
| 40> % eprnmr
| 41> gtensor true
| 42> Nuclei = all H {aiso,adip,aorb,fgrad,rho}
| 43> Nuclei = all V {aiso,adip,aorb,fgrad,rho}
| 44> end
| 45>
| 46>                          ****END OF INPUT****

CARTESIAN COORDINATES (ANGSTROEM)
---------------------------------
  V      0.208338    0.138235    0.424515
  S     -1.076921   -1.907460    1.180756
  S      1.452340   -1.548641   -0.839462
  S     -1.946686    1.346242    0.181192
  S      0.923110    1.880664   -1.201172
  O      0.984698    0.519590    1.773477
  C      2.808789   -0.702757   -1.811045
  C      2.776015    1.841526   -1.286390
  C      3.451102    0.482656   -1.034020
  H      3.167737    2.545767   -0.587262
  H      3.029868    2.165131   -2.213554
  H      3.432875    0.262722    0.001036
  H      4.431331    0.567857   -1.310473
  H      2.491523   -0.406873   -2.537189
  H      3.261862   -1.149652   -1.939857
  C     -2.607203   -1.799503    0.147812
  C     -3.137197    0.448422    1.271170
  C     -3.682726   -0.865046    0.715415
  H     -4.072500    1.210963    1.490074
  H     -2.627932    0.246046    2.244312
  H     -4.430825   -0.651517   -0.090788
  H     -4.227389   -1.387914    1.529896
  H     -3.018567   -2.802444    0.038594
  H     -2.318961   -1.456891   -0.844289

 Total Charge           Charge          ....   -2
 Multiplicity           Mult            ....    2
 Number of Electrons    NEL             ....  145
 Basis Dimension        Dim             ....  353

ORBITAL ENERGIES
----------------
                 SPIN UP ORBITALS
  NO   OCC          E(Eh)            E(eV)
   0   1.0000    -196.605558     -5349.9092
   1   1.0000     -88.561077     -2409.8694
   2   1.0000     -88.557167     -2409.7630
   3   1.0000     -88.556112     -2409.7343
   4   1.0000     -88.555960     -2409.7302
   5   1.0000     -21.980970      -598.1326
   6   1.0000     -18.823217      -512.2058
   7   1.0000     -18.488744      -503.1043
   8   1.0000     -18.481578      -502.9093
   9   1.0000     -18.481508      -502.9074
  10   1.0000      -9.948618      -270.7157
  11   1.0000      -9.934363      -270.3278
  12   1.0000      -9.932478      -270.2765
  13   1.0000      -9.928082      -270.1568
  14   1.0000      -9.912810      -269.7413
  15   1.0000      -9.872198      -268.6362
  16   1.0000      -7.615243      -207.2213
  17   1.0000      -7.610823      -207.1010
  18   1.0000      -7.610446      -207.0908
  19   1.0000      -7.610286      -207.0864
  20   1.0000      -5.580511      -151.8534
  21   1.0000      -5.576159      -151.7350
  22   1.0000      -5.575703      -151.7226
  23   1.0000      -5.575645      -151.7210
  24   1.0000      -5.574183      -151.6812
  25   1.0000      -5.572442      -151.6339
  26   1.0000      -5.569679      -151.5587
  27   1.0000      -5.569649      -151.5578
  28   1.0000      -5.569341      -151.5495
  29   1.0000      -5.568128      -151.5165
  30   1.0000      -5.567511      -151.4997
  31   1.0000      -5.567276      -151.4933
  32   1.0000      -2.373562       -64.5879
  33   1.0000      -1.416236       -38.5377
  34   1.0000      -1.401672       -38.1414
  35   1.0000      -1.401141       -38.1270
  36   1.0000      -0.585853       -15.9419
  37   1.0000      -0.576665       -15.6918
  38   1.0000      -0.548440       -14.9238
  39   1.0000      -0.503626       -13.7044
  40   1.0000      -0.460958       -12.5433
  41   1.0000      -0.406806       -11.0698
  42   1.0000      -0.398991       -10.8571
  43   1.0000      -0.354430        -9.6445
  44   1.0000      -0.332780        -9.0554
  45   1.0000      -0.320938        -8.7332
  46   1.0000      -0.278643        -7.5823
  47   1.0000      -0.255245        -6.9456
  48   1.0000      -0.211265        -5.7488
  49   1.0000      -0.207236        -5.6392
  50   1.0000      -0.195125        -5.3096
  51   1.0000      -0.176300        -4.7974
  52   1.0000      -0.132291        -3.5998
  53   1.0000      -0.129676        -3.5287
  54   1.0000      -0.126247        -3.4354
  55   1.0000      -0.107421        -2.9231
  56   1.0000      -0.101124        -2.7517
  57   1.0000      -0.079862        -2.1731
  58   1.0000      -0.069814        -1.8997
  59   1.0000      -0.062210        -1.6928
  60   1.0000      -0.054501        -1.4830
  61   1.0000      -0.045115        -1.2276
  62   1.0000      -0.040182        -1.0934
  63   1.0000      -0.034974        -0.9517
  64   1.0000       0.001721         0.0468
  65   1.0000       0.028519         0.7760
  66   1.0000       0.032251         0.8776
  67   1.0000       0.039153         1.0654
  68   1.0000       0.047408         1.2900
  69   1.0000       0.054851         1.4926
  70   1.0000       0.065716         1.7882
  71   1.0000       0.074710         2.0330
  72   1.0000       0.082724         2.2510
  73   0.0000       0.236060         6.4235
  74   0.0000       0.247704         6.7404
  75   0.0000       0.251331         6.8391
  76   0.0000       0.255897         6.9633
  77   0.0000       0.259283         7.0554

                 SPIN DOWN ORBITALS
  NO   OCC          E(Eh)            E(eV)
   0   1.0000    -196.605699     -5349.9131
   1   1.0000     -88.561236     -2409.8737
   2   1.0000     -88.557342     -2409.7678
   3   1.0000     -88.556086     -2409.7336
   4   1.0000     -88.556065     -2409.7330
   5   1.0000     -21.965915      -597.7229
   6   1.0000     -18.826694      -512.3004
   7   1.0000     -18.483542      -502.9628
   8   1.0000     -18.465499      -502.4718
   9   1.0000     -18.465050      -502.4596
  10   1.0000      -9.948440      -270.7108
  11   1.0000      -9.934321      -270.3266
  12   1.0000      -9.932421      -270.2749
  13   1.0000      -9.927904      -270.1520
  14   1.0000      -9.912833      -269.7419
  15   1.0000      -9.872072      -268.6327
  16   1.0000      -7.615394      -207.2254
  17   1.0000      -7.610995      -207.1057
  18   1.0000      -7.610423      -207.0902
  19   1.0000      -7.610385      -207.0891
  20   1.0000      -5.580663      -151.8576
  21   1.0000      -5.576328      -151.7396
  22   1.0000      -5.575770      -151.7244
  23   1.0000      -5.575720      -151.7231
  24   1.0000      -5.574601      -151.6926
  25   1.0000      -5.572559      -151.6370
  26   1.0000      -5.570127      -151.5709
  27   1.0000      -5.569983      -151.5669
  28   1.0000      -5.569749      -151.5606
  29   1.0000      -5.568262      -151.5201
  30   1.0000      -5.567201      -151.4913
  31   1.0000      -5.567049      -151.4871
  32   1.0000      -2.328627       -63.3652
  33   1.0000      -1.397244       -38.0209
  34   1.0000      -1.340010       -36.4635
  35   1.0000      -1.338219       -36.4148
  36   1.0000      -0.593252       -16.1432
  37   1.0000      -0.576604       -15.6902
  38   1.0000      -0.548285       -14.9196
  39   1.0000      -0.503477       -13.7003
  40   1.0000      -0.460842       -12.5402
  41   1.0000      -0.406873       -11.0716
  42   1.0000      -0.399001       -10.8574
  43   1.0000      -0.354975        -9.6594
  44   1.0000      -0.332855        -9.0574
  45   1.0000      -0.321085        -8.7372
  46   1.0000      -0.278633        -7.5820
  47   1.0000      -0.255183        -6.9439
  48   1.0000      -0.211224        -5.7477
  49   1.0000      -0.207099        -5.6355
  50   1.0000      -0.194995        -5.3061
  51   1.0000      -0.176107        -4.7921
  52   1.0000      -0.132061        -3.5936
  53   1.0000      -0.129448        -3.5225
  54   1.0000      -0.126218        -3.4346
  55   1.0000      -0.107360        -2.9214
  56   1.0000      -0.101058        -2.7499
  57   1.0000      -0.078686        -2.1412
  58   1.0000      -0.067454        -1.8355
  59   1.0000      -0.061257        -1.6669
  60   1.0000      -0.054586        -1.4854
  61   1.0000      -0.045995        -1.2516
  62   1.0000      -0.040916        -1.1134
  63   1.0000      -0.036321        -0.9883
  64   1.0000       0.006609         0.1798
  65   1.0000       0.029818         0.8114
  66   1.0000       0.035104         0.9552
  67   1.0000       0.046331         1.2607
  68   1.0000       0.048813         1.3283
  69   1.0000       0.062887         1.7112
  70   1.0000       0.070015         1.9052
  71   1.0000       0.076398         2.0789
  72   0.0000       0.235558         6.4099
  73   0.0000       0.251145         6.8340
  74   0.0000       0.260186         7.0800
  75   0.0000       0.261792         7.1237
  76   0.0000       0.266045         7.2394

MULLIKEN ATOMIC CHARGES AND SPIN POPULATIONS
--------------------------------------------
   0 V :    0.530679    1.191984
   1 S :   -0.426931   -0.001478
   2 S :   -0.395544   -0.033598
   3 S :   -0.397550   -0.028844
   4 S :   -0.397973   -0.022114
   5 O :   -0.548294   -0.134209
   6 C :   -0.389784    0.006721
   7 C :   -0.248640    0.007474
   8 C :   -0.197397    0.001790
   9 H :    0.079394   -0.000851
  10 H :    0.072941    0.001756
  11 H :    0.141351    0.000737
  12 H :    0.024524    0.000035
  13 H :    0.145341   -0.000073
  14 H :    0.204333    0.000093
  15 C :   -0.260750   -0.002340
  16 C :   -0.230642    0.003288
  17 C :   -0.060502    0.008586
  18 H :    0.002508   -0.000269
  19 H :    0.130759   -0.000250
  20 H :    0.012804    0.001594
  21 H :    0.012517    0.000097
  22 H :    0.054803   -0.000561
  23 H :    0.142052    0.000431
Sum of atomic charges         :   -2.0000000

LOEWDIN ATOMIC CHARGES AND SPIN POPULATIONS
-------------------------------------------
   0 V :   -0.204147    1.148634
   1 S :   -0.071569    0.003866
   2 S :   -0.036306   -0.022832
   3 S :   -0.057172   -0.020152
   4 S :   -0.067583   -0.012928
   5 O :   -0.377291   -0.120976
   6 C :   -0.162148    0.004692
   7 C :   -0.296341    0.006958
   8 C :   -0.141109    0.000245
   9 H :    0.033527    0.000084
  10 H :    0.018452    0.000524
  11 H :    0.064578    0.000335
  12 H :    0.022503    0.000155
  13 H :    0.010422    0.000189
  14 H :   -0.135393    0.000321
  15 C :   -0.318072    0.002679
  16 C :   -0.334754    0.007380
  17 C :   -0.195163    0.001153
  18 H :    0.029574   -0.000457
  19 H :    0.057668   -0.000642
  20 H :    0.037968    0.000629
  21 H :    0.036121    0.000397
  22 H :    0.029946   -0.000583
  23 H :    0.056289    0.000330

  Mayer bond orders larger than 0.100000
B(  0-V ,  1-S ) :   0.7077 B(  0-V ,  2-S ) :   0.8632 B(  0-V ,  3-S ) :   0.7659
B(  0-V ,  4-S ) :   0.7821 B(  0-V ,  5-O ) :   2.0710 B(  1-S , 15-C ) :   1.0244
B(  2-S ,  6-C ) :   0.9252 B(  3-S , 16-C ) :   1.0303 B(  4-S ,  7-C ) :   1.0640
B(  6-C ,  8-C ) :   0.8478 B(  6-C , 13-H ) :   1.0363 B(  6-C , 14-H ) :   0.9938
B(  7-C ,  8-C ) :   0.9151 B(  7-C ,  9-H ) :   0.9857 B(  7-C , 10-H ) :   0.9777
B(  8-C , 11-H ) :   0.9896 B(  8-C , 12-H ) :   0.9628 B( 15-C , 17-C ) :   0.8935
B( 15-C , 22-H ) :   0.9683 B( 15-C , 23-H ) :   0.9791 B( 16-C , 17-C ) :   0.9086
B( 16-C , 18-H ) :   0.9477 B( 16-C , 19-H ) :   0.9675 B( 17-C , 20-H ) :   0.9544
B( 17-C , 21-H ) :   0.9581

FINAL SINGLE POINT ENERGY     -2847.312980912234

DIPOLE MOMENT
-------------
                                X             Y             Z
Electronic contribution:      2.20743       1.30497       5.22027
Nuclear contribution   :     -1.75644      -1.42865      -5.87552
                        -----------------------------------------
Total Dipole Moment    :      0.45099      -0.12368      -0.65525
                        -----------------------------------------
Magnitude (a.u.)       :      0.80501
Magnitude (Debye)      :      2.04617

Rotational constants in cm-1:     0.027246     0.011730     0.009605
Rotational constants in MHz :   816.814426   351.656889   287.936945

                             ****ORCA TERMINATED NORMALLY****
TOTAL RUN TIME: 0 days 0 hours 9 minutes 42 seconds 584 msec
