                         Program Version 5.0.4 -  RELEASE  -
|  1> ! nofrozencore ReducedPop printbasis
|  2> ! B3LYP TZVP
|  3>
|  4> %basis
|  5> newgto V "CP(PPP)" end
|  6> end
|  7>
|  8> %pal
|  9> nprocs 4
| 10> end
| 11>
| 12> % sym SymThresh 1e-2 end
| 13> * xyz -2 2
| 14> V -0.4752261638053953 -0.07482896440782442 0.10235338446021293
| 15> S -0.12282726423160964 -1.789761323424971 -1.7285233841714363
| 16> S 1.0833155715153615 -1.5413467108635337 1.2901620833056253
| 17> S -0.3112327637186408 1.722943477382397 -1.6070006153998544
| 18> S 0.1773324101107283 1.8151248224661545 1.5833521499854453
| 19> O -1.9879938174560716 -0.397820473123968 0.5237896357325692
| 20> C 1.346832840159139 -0.8447286088575988 2.9906331052928192
| 21> C -0.08601411043890339 1.264376362287076 3.3331724122251916
| 22> C 0.0919838784514655 -0.23014169140486726 3.620832525304551
| 23> H -1.088963462769214 1.5663296395900328 3.657405823969284
| 24> H 0.6313977133131501 1.829061067145196 3.943053568114641
| 25> H -0.7813144099216289 -0.7781559594203533 3.2579060890408438
| 26> H 0.11853766906326658 -0.35712116920359005 4.7184290618497915
| 27> H 2.138683822295584 -0.08856213393092648 2.9587838829707978
| 28> H 1.7052454863279751 -1.6777229219748266 3.606628112917565
| 29> C 1.0848539611043313 -0.9149694832394665 -2.8247429199985166
| 30> C -0.7410879777974312 0.9015832538287933 -3.222008831996368
| 31> C 0.3740787989315433 0.06277162413458438 -3.816070406225551
| 32> H -1.061947720300549 1.7952842073040216 -3.792247340916364
| 33> H -1.5277880556864354 0.0671404083701089 -3.3370764534424073
| 34> H 1.3706678349837744 0.5015608373679522 -4.17689404967
| 35> H -0.1977748007850545 -0.33551134093561336 -4.70135944302656
| 36> H 1.6388285360753956 -1.6594678796362263 -3.4113561343350867
| 37> H 1.8630863921845342 -0.16062542649163963 -2.4511747505190637
| 38> *
| 39>
| 40> % eprnmr
| 41> gtensor true
| 42> Nuclei = all H {aiso,adip,aorb,fgrad,rho}
| 43> Nuclei = all V {aiso,adip,aorb,fgrad,rho}
| 44> end
| 45>
| 46>                          ****END OF INPUT****

CARTESIAN COORDINATES (ANGSTROEM)
---------------------------------
  V     -0.475957   -0.074957    0.102214
  S     -0.123558   -1.789889   -1.728663
  S      1.082585   -1.541475    1.290023
  S     -0.311964    1.722815   -1.607140
  S      0.176602    1.814997    1.583213
  O     -1.988725   -0.397949    0.523650
  C      1.346102   -0.844857    2.990494
  C     -0.086745    1.264248    3.333033
  C      0.091253   -0.230270    3.620693
  H     -1.089694    1.566202    3.657266
  H      0.630667    1.828933    3.942914
  H     -0.782045   -0.778284    3.257767
  H      0.117807   -0.357249    4.718290
  H      2.137953   -0.088690    2.958645
  H      1.704515   -1.677851    3.606489
  C      1.084123   -0.915098   -2.824882
  C     -0.741819    0.901455   -3.222148
  C      0.373348    0.062644   -3.816210
  H     -1.062679    1.795156   -3.792387
  H     -1.528519    0.067012   -3.337216
  H      1.369937    0.501433   -4.177033
  H     -0.198506   -0.335639   -4.701499
  H      1.638098   -1.659596   -3.411495
  H      1.862356   -0.160754   -2.451314

 Total Charge           Charge          ....   -2
 Multiplicity           Mult            ....    2
 Number of Electrons    NEL             ....  145
 Basis Dimension        Dim             ....  353

ORBITAL ENERGIES
----------------
                 SPIN UP ORBITALS
  NO   OCC          E(Eh)            E(eV)
   0   1.0000    -196.607785     -5349.9698
   1   1.0000     -88.564137     -2409.9527
   2   1.0000     -88.560880     -2409.8641
   3   1.0000     -88.560725     -2409.8598
   4   1.0000     -88.559365     -2409.8228
   5   1.0000     -21.983050      -598.1892
   6   1.0000     -18.825303      -512.2625
   7   1.0000     -18.490843      -503.1614
   8   1.0000     -18.483672      -502.9663
   9   1.0000     -18.483564      -502.9634
  10   1.0000      -9.945620      -270.6341
  11   1.0000      -9.944266      -270.5972
  12   1.0000      -9.942811      -270.5576
  13   1.0000      -9.937872      -270.4232
  14   1.0000      -9.935130      -270.3486
  15   1.0000      -9.928908      -270.1793
  16   1.0000      -7.618068      -207.2982
  17   1.0000      -7.614990      -207.2144
  18   1.0000      -7.614559      -207.2027
  19   1.0000      -7.613660      -207.1782
  20   1.0000      -5.583359      -151.9309
  21   1.0000      -5.580363      -151.8494
  22   1.0000      -5.579973      -151.8388
  23   1.0000      -5.579111      -151.8153
  24   1.0000      -5.577096      -151.7605
  25   1.0000      -5.575212      -151.7092
  26   1.0000      -5.574246      -151.6830
  27   1.0000      -5.573401      -151.6600
  28   1.0000      -5.572702      -151.6409
  29   1.0000      -5.571906      -151.6193
  30   1.0000      -5.571718      -151.6142
  31   1.0000      -5.570586      -151.5833
  32   1.0000      -2.375651       -64.6448
  33   1.0000      -1.418240       -38.5923
  34   1.0000      -1.403714       -38.1970
  35   1.0000      -1.403312       -38.1861
  36   1.0000      -0.587682       -15.9916
  37   1.0000      -0.551691       -15.0123
  38   1.0000      -0.551249       -15.0002
  39   1.0000      -0.469390       -12.7728
  40   1.0000      -0.464295       -12.6341
  41   1.0000      -0.402098       -10.9416
  42   1.0000      -0.394449       -10.7335
  43   1.0000      -0.348164        -9.4740
  44   1.0000      -0.329077        -8.9546
  45   1.0000      -0.304517        -8.2863
  46   1.0000      -0.276147        -7.5143
  47   1.0000      -0.208143        -5.6639
  48   1.0000      -0.206800        -5.6273
  49   1.0000      -0.201701        -5.4886
  50   1.0000      -0.198202        -5.3933
  51   1.0000      -0.160950        -4.3797
  52   1.0000      -0.130061        -3.5392
  53   1.0000      -0.124172        -3.3789
  54   1.0000      -0.112248        -3.0544
  55   1.0000      -0.105973        -2.8837
  56   1.0000      -0.100913        -2.7460
  57   1.0000      -0.079342        -2.1590
  58   1.0000      -0.064559        -1.7567
  59   1.0000      -0.062037        -1.6881
  60   1.0000      -0.054481        -1.4825
  61   1.0000      -0.046351        -1.2613
  62   1.0000      -0.039389        -1.0718
  63   1.0000      -0.035145        -0.9563
  64   1.0000      -0.000997        -0.0271
  65   1.0000       0.025666         0.6984
  66   1.0000       0.028674         0.7802
  67   1.0000       0.036052         0.9810
  68   1.0000       0.043353         1.1797
  69   1.0000       0.053888         1.4664
  70   1.0000       0.063550         1.7293
  71   1.0000       0.071876         1.9558
  72   1.0000       0.080730         2.1968
  73   0.0000       0.233889         6.3644
  74   0.0000       0.245989         6.6937
  75   0.0000       0.248990         6.7754
  76   0.0000       0.251710         6.8494
  77   0.0000       0.259766         7.0686

                 SPIN DOWN ORBITALS
  NO   OCC          E(Eh)            E(eV)
   0   1.0000    -196.607928     -5349.9737
   1   1.0000     -88.564299     -2409.9571
   2   1.0000     -88.560904     -2409.8647
   3   1.0000     -88.560855     -2409.8634
   4   1.0000     -88.559472     -2409.8258
   5   1.0000     -21.967960      -597.7786
   6   1.0000     -18.828812      -512.3580
   7   1.0000     -18.485619      -503.0193
   8   1.0000     -18.467608      -502.5292
   9   1.0000     -18.467028      -502.5134
  10   1.0000      -9.945564      -270.6326
  11   1.0000      -9.944087      -270.5924
  12   1.0000      -9.942635      -270.5528
  13   1.0000      -9.937825      -270.4220
  14   1.0000      -9.935000      -270.3451
  15   1.0000      -9.928928      -270.1799
  16   1.0000      -7.618221      -207.3023
  17   1.0000      -7.614968      -207.2138
  18   1.0000      -7.614734      -207.2074
  19   1.0000      -7.613762      -207.1810
  20   1.0000      -5.583509      -151.9350
  21   1.0000      -5.580376      -151.8497
  22   1.0000      -5.580141      -151.8433
  23   1.0000      -5.579236      -151.8187
  24   1.0000      -5.577529      -151.7723
  25   1.0000      -5.575329      -151.7124
  26   1.0000      -5.574575      -151.6919
  27   1.0000      -5.573861      -151.6725
  28   1.0000      -5.573113      -151.6521
  29   1.0000      -5.571856      -151.6179
  30   1.0000      -5.571456      -151.6070
  31   1.0000      -5.570518      -151.5815
  32   1.0000      -2.330618       -63.4193
  33   1.0000      -1.399159       -38.0730
  34   1.0000      -1.342075       -36.5197
  35   1.0000      -1.340149       -36.4673
  36   1.0000      -0.595214       -16.1966
  37   1.0000      -0.551592       -15.0096
  38   1.0000      -0.551094       -14.9960
  39   1.0000      -0.469348       -12.7716
  40   1.0000      -0.464169       -12.6307
  41   1.0000      -0.402227       -10.9452
  42   1.0000      -0.394545       -10.7361
  43   1.0000      -0.348253        -9.4765
  44   1.0000      -0.329519        -8.9667
  45   1.0000      -0.304513        -8.2862
  46   1.0000      -0.276145        -7.5143
  47   1.0000      -0.208081        -5.6622
  48   1.0000      -0.206751        -5.6260
  49   1.0000      -0.201568        -5.4849
  50   1.0000      -0.198054        -5.3893
  51   1.0000      -0.160826        -4.3763
  52   1.0000      -0.129696        -3.5292
  53   1.0000      -0.123964        -3.3732
  54   1.0000      -0.112240        -3.0542
  55   1.0000      -0.105810        -2.8792
  56   1.0000      -0.100771        -2.7421
  57   1.0000      -0.078344        -2.1319
  58   1.0000      -0.063180        -1.7192
  59   1.0000      -0.059958        -1.6315
  60   1.0000      -0.055100        -1.4993
  61   1.0000      -0.047449        -1.2912
  62   1.0000      -0.040174        -1.0932
  63   1.0000      -0.036033        -0.9805
  64   1.0000       0.002865         0.0780
  65   1.0000       0.027463         0.7473
  66   1.0000       0.031419         0.8549
  67   1.0000       0.043849         1.1932
  68   1.0000       0.045378         1.2348
  69   1.0000       0.060741         1.6528
  70   1.0000       0.068000         1.8504
  71   1.0000       0.073648         2.0041
  72   0.0000       0.233695         6.3592
  73   0.0000       0.250366         6.8128
  74   0.0000       0.255138         6.9427
  75   0.0000       0.260972         7.1014
  76   0.0000       0.263846         7.1796

MULLIKEN ATOMIC CHARGES AND SPIN POPULATIONS
--------------------------------------------
   0 V :    0.541578    1.193889
   1 S :   -0.419456   -0.001508
   2 S :   -0.348172   -0.033448
   3 S :   -0.412177   -0.029209
   4 S :   -0.386896   -0.022315
   5 O :   -0.547831   -0.135241
   6 C :   -0.245506    0.005529
   7 C :   -0.234211    0.006607
   8 C :   -0.159546    0.003002
   9 H :    0.074997   -0.000940
  10 H :    0.051280    0.002051
  11 H :    0.138396    0.000561
  12 H :    0.005467   -0.000070
  13 H :    0.094012   -0.000143
  14 H :    0.048876   -0.000027
  15 C :   -0.205662   -0.001939
  16 C :   -0.199354    0.001132
  17 C :   -0.090616    0.007078
  18 H :    0.058983    0.000715
  19 H :    0.084936    0.001153
  20 H :   -0.013830    0.002236
  21 H :   -0.000291    0.000254
  22 H :    0.059525   -0.000484
  23 H :    0.105498    0.001118
Sum of atomic charges         :   -2.0000000

LOEWDIN ATOMIC CHARGES AND SPIN POPULATIONS
-------------------------------------------
   0 V :   -0.197578    1.150494
   1 S :   -0.066600    0.003697
   2 S :   -0.035813   -0.023081
   3 S :   -0.059757   -0.020772
   4 S :   -0.063394   -0.013074
   5 O :   -0.376537   -0.122037
   6 C :   -0.326663    0.005109
   7 C :   -0.314142    0.006816
   8 C :   -0.187621    0.000457
   9 H :    0.036117   -0.000011
  10 H :    0.029058    0.000591
  11 H :    0.069943    0.000310
  12 H :    0.031515    0.000141
  13 H :    0.044923   -0.000073
  14 H :    0.027647   -0.000539
  15 C :   -0.324299    0.002499
  16 C :   -0.334261    0.007458
  17 C :   -0.202005    0.001261
  18 H :    0.034584    0.000113
  19 H :    0.060603   -0.000401
  20 H :    0.031408    0.000783
  21 H :    0.030154    0.000406
  22 H :    0.032158   -0.000561
  23 H :    0.060559    0.000413

  Mayer bond orders larger than 0.100000
B(  0-V ,  1-S ) :   0.6946 B(  0-V ,  2-S ) :   0.8613 B(  0-V ,  3-S ) :   0.7612
B(  0-V ,  4-S ) :   0.7723 B(  0-V ,  5-O ) :   2.0732 B(  1-S , 15-C ) :   1.0299
B(  2-S ,  6-C ) :   1.0121 B(  3-S , 16-C ) :   1.0144 B(  4-S ,  7-C ) :   1.0710
B(  6-C ,  8-C ) :   0.9016 B(  6-C , 13-H ) :   0.9739 B(  6-C , 14-H ) :   0.9683
B(  7-C ,  8-C ) :   0.9199 B(  7-C ,  9-H ) :   0.9766 B(  7-C , 10-H ) :   0.9691
B(  8-C , 11-H ) :   0.9884 B(  8-C , 12-H ) :   0.9449 B( 15-C , 17-C ) :   0.8827
B( 15-C , 22-H ) :   0.9698 B( 15-C , 23-H ) :   0.9637 B( 16-C , 17-C ) :   0.9166
B( 16-C , 18-H ) :   0.9744 B( 16-C , 19-H ) :   0.9388 B( 17-C , 20-H ) :   0.9487
B( 17-C , 21-H ) :   0.9583

FINAL SINGLE POINT ENERGY     -2847.676039929961

DIPOLE MOMENT
-------------
                                X             Y             Z
Electronic contribution:     -6.28642      -0.95369       0.50617
Nuclear contribution   :      6.65049       0.99206      -0.19775
                        -----------------------------------------
Total Dipole Moment    :      0.36407       0.03837       0.30842
                        -----------------------------------------
Magnitude (a.u.)       :      0.47869
Magnitude (Debye)      :      1.21674

Rotational constants in cm-1:     0.027121     0.011717     0.009602
Rotational constants in MHz :   813.075219   351.279995   287.850626

                             ****ORCA TERMINATED NORMALLY****
TOTAL RUN TIME: 0 days 0 hours 14 minutes 22 seconds 221 msec
