                         Program Version 5.0.4 -  RELEASE  -
|  1> ! nofrozencore ReducedPop printbasis
|  2> ! B3LYP TZVP
|  3>
|  4> %basis
|  5> newgto V "CP(PPP)" end
|  6> end
|  7>
|  8> %pal
|  9> nprocs 4
| 10> end
| 11>
| 12> % sym SymThresh 1e-2 end
| 13> * xyz -2 2
| 14> V 0.17953312767398116 -0.3887900943093698 0.24212294168770832
| 15> S 2.3185693313332245 0.8516715522936005 -0.30090767801904333
| 16> S -0.20553277719420635 1.599556497785307 1.6164888131671804
| 17> S -0.028188065497058858 -0.9886664433597291 -2.1577972545345765
| 18> S -2.2721451684024876 -0.8033901615407572 0.15805362757541172
| 19> O 0.7494191293919767 -1.59117955755315 1.1352164971208505
| 20> C -1.83492489556051 1.3939973294908288 2.48225804535602
| 21> C -2.881199478815513 -0.8841799373748875 1.9065054638248367
| 22> C -2.1279063376873935 -0.03998149190460537 2.9397163984862393
| 23> H -2.875660350659371 -1.9290436091932295 2.234644694948703
| 24> H -3.9294594461965957 -0.5613460432388382 1.8827029640366646
| 25> H -1.180251333284627 -0.5246282949941096 3.1892606747229735
| 26> H -2.7338296584956803 -0.022242004998498464 3.8638735543130855
| 27> H -2.6423469172159146 1.7381614952649227 1.8238704488318134
| 28> H -1.803780720876031 2.0630093400222784 3.352948392682146
| 29> C 1.947309804160661 1.5436566090101722 -1.9754751026226534
| 30> C 1.682924171457754 -0.8628287367855626 -2.8453033664038814
| 31> C 2.1271774857029486 0.5758766522935539 -3.156808243776402
| 32> H 1.70443551755124 -1.479294892352498 -3.842805271805956
| 33> H 2.342038755979108 -1.3231549555063447 -2.167854985637147
| 34> H 1.9129988332001755 0.7676839522309105 -3.6065127037062954
| 35> H 3.606394270357994 0.49646201834627807 -3.4277128298501864
| 36> H 2.553297833373497 2.418660426366856 -2.1239730350357795
| 37> H 0.8533821028109387 1.8792757174850745 -1.978644740019021
| 38> *
| 39>
| 40> % eprnmr
| 41> gtensor true
| 42> Nuclei = all H {aiso,adip,aorb,fgrad,rho}
| 43> Nuclei = all V {aiso,adip,aorb,fgrad,rho}
| 44> end
| 45>
| 46>                          ****END OF INPUT****

CARTESIAN COORDINATES (ANGSTROEM)
---------------------------------
  V      0.180002   -0.389363    0.242270
  S      2.319039    0.851099   -0.300760
  S     -0.205064    1.598984    1.616636
  S     -0.027719   -0.989239   -2.157650
  S     -2.271676   -0.803963    0.158201
  O      0.749888   -1.591752    1.135364
  C     -1.834456    1.393425    2.482406
  C     -2.880730   -0.884753    1.906653
  C     -2.127437   -0.040554    2.939864
  H     -2.875191   -1.929616    2.234792
  H     -3.928990   -0.561919    1.882850
  H     -1.179782   -0.525201    3.189408
  H     -2.733360   -0.022815    3.864021
  H     -2.641878    1.737589    1.824018
  H     -1.803312    2.062437    3.353096
  C      1.947779    1.543084   -1.975328
  C      1.683393   -0.863401   -2.845156
  C      2.127647    0.575304   -3.156661
  H      1.704905   -1.479868   -3.842658
  H      2.342508   -1.323728   -2.167707
  H      1.913468    0.767111   -3.606365
  H      3.606863    0.495889   -3.427565
  H      2.553767    2.418088   -2.123826
  H      0.853851    1.878703   -1.978497

 Total Charge           Charge          ....   -2
 Multiplicity           Mult            ....    2
 Number of Electrons    NEL             ....  145
 Basis Dimension        Dim             ....  353

ORBITAL ENERGIES
----------------
                 SPIN UP ORBITALS
  NO   OCC          E(Eh)            E(eV)
   0   1.0000    -196.609450     -5350.0151
   1   1.0000     -88.566296     -2410.0114
   2   1.0000     -88.562845     -2409.9175
   3   1.0000     -88.561312     -2409.8758
   4   1.0000     -88.560511     -2409.8540
   5   1.0000     -21.984847      -598.2381
   6   1.0000     -18.827350      -512.3182
   7   1.0000     -18.492635      -503.2102
   8   1.0000     -18.485460      -503.0149
   9   1.0000     -18.485374      -503.0126
  10   1.0000      -9.966651      -271.2064
  11   1.0000      -9.944328      -270.5989
  12   1.0000      -9.943535      -270.5773
  13   1.0000      -9.942757      -270.5562
  14   1.0000      -9.937333      -270.4086
  15   1.0000      -9.930688      -270.2278
  16   1.0000      -7.620533      -207.3653
  17   1.0000      -7.616670      -207.2601
  18   1.0000      -7.615613      -207.2314
  19   1.0000      -7.614634      -207.2047
  20   1.0000      -5.585800      -151.9973
  21   1.0000      -5.582077      -151.8960
  22   1.0000      -5.581040      -151.8678
  23   1.0000      -5.579962      -151.8385
  24   1.0000      -5.579386      -151.8228
  25   1.0000      -5.577803      -151.7797
  26   1.0000      -5.575502      -151.7171
  27   1.0000      -5.574658      -151.6941
  28   1.0000      -5.573901      -151.6736
  29   1.0000      -5.573861      -151.6725
  30   1.0000      -5.572558      -151.6370
  31   1.0000      -5.571609      -151.6112
  32   1.0000      -2.377488       -64.6947
  33   1.0000      -1.420183       -38.6451
  34   1.0000      -1.405600       -38.2483
  35   1.0000      -1.405108       -38.2349
  36   1.0000      -0.589820       -16.0498
  37   1.0000      -0.583912       -15.8891
  38   1.0000      -0.553232       -15.0542
  39   1.0000      -0.471199       -12.8220
  40   1.0000      -0.467378       -12.7180
  41   1.0000      -0.448852       -12.2139
  42   1.0000      -0.401149       -10.9158
  43   1.0000      -0.340500        -9.2655
  44   1.0000      -0.330436        -8.9916
  45   1.0000      -0.319135        -8.6841
  46   1.0000      -0.304226        -8.2784
  47   1.0000      -0.221361        -6.0235
  48   1.0000      -0.209173        -5.6919
  49   1.0000      -0.200168        -5.4468
  50   1.0000      -0.190712        -5.1895
  51   1.0000      -0.162626        -4.4253
  52   1.0000      -0.159386        -4.3371
  53   1.0000      -0.118321        -3.2197
  54   1.0000      -0.113838        -3.0977
  55   1.0000      -0.108570        -2.9543
  56   1.0000      -0.107070        -2.9135
  57   1.0000      -0.079057        -2.1513
  58   1.0000      -0.076246        -2.0748
  59   1.0000      -0.065704        -1.7879
  60   1.0000      -0.056025        -1.5245
  61   1.0000      -0.048318        -1.3148
  62   1.0000      -0.041784        -1.1370
  63   1.0000      -0.037731        -1.0267
  64   1.0000      -0.003060        -0.0833
  65   1.0000       0.024841         0.6760
  66   1.0000       0.027551         0.7497
  67   1.0000       0.034426         0.9368
  68   1.0000       0.043160         1.1744
  69   1.0000       0.050752         1.3810
  70   1.0000       0.060957         1.6587
  71   1.0000       0.070233         1.9111
  72   1.0000       0.078419         2.1339
  73   0.0000       0.228145         6.2082
  74   0.0000       0.233577         6.3560
  75   0.0000       0.243943         6.6380
  76   0.0000       0.247902         6.7457
  77   0.0000       0.250428         6.8145

                 SPIN DOWN ORBITALS
  NO   OCC          E(Eh)            E(eV)
   0   1.0000    -196.609593     -5350.0190
   1   1.0000     -88.566454     -2410.0157
   2   1.0000     -88.563022     -2409.9223
   3   1.0000     -88.561415     -2409.8786
   4   1.0000     -88.560485     -2409.8533
   5   1.0000     -21.969812      -597.8290
   6   1.0000     -18.830821      -512.4127
   7   1.0000     -18.487439      -503.0688
   8   1.0000     -18.469413      -502.5783
   9   1.0000     -18.468928      -502.5651
  10   1.0000      -9.966611      -271.2053
  11   1.0000      -9.944145      -270.5939
  12   1.0000      -9.943359      -270.5725
  13   1.0000      -9.942700      -270.5546
  14   1.0000      -9.937202      -270.4050
  15   1.0000      -9.930708      -270.2283
  16   1.0000      -7.620684      -207.3694
  17   1.0000      -7.616843      -207.2648
  18   1.0000      -7.615710      -207.2340
  19   1.0000      -7.614612      -207.2041
  20   1.0000      -5.585956      -152.0016
  21   1.0000      -5.582244      -151.9006
  22   1.0000      -5.581162      -151.8711
  23   1.0000      -5.579978      -151.8389
  24   1.0000      -5.579801      -151.8341
  25   1.0000      -5.577921      -151.7829
  26   1.0000      -5.575959      -151.7296
  27   1.0000      -5.575063      -151.7052
  28   1.0000      -5.574241      -151.6828
  29   1.0000      -5.573995      -151.6761
  30   1.0000      -5.572480      -151.6349
  31   1.0000      -5.571145      -151.5986
  32   1.0000      -2.332601       -63.4733
  33   1.0000      -1.401204       -38.1287
  34   1.0000      -1.344041       -36.5732
  35   1.0000      -1.342229       -36.5239
  36   1.0000      -0.597220       -16.2512
  37   1.0000      -0.583851       -15.8874
  38   1.0000      -0.553133       -15.0515
  39   1.0000      -0.471142       -12.8204
  40   1.0000      -0.467272       -12.7151
  41   1.0000      -0.448775       -12.2118
  42   1.0000      -0.401350       -10.9213
  43   1.0000      -0.340757        -9.2725
  44   1.0000      -0.330864        -9.0033
  45   1.0000      -0.318967        -8.6795
  46   1.0000      -0.304265        -8.2795
  47   1.0000      -0.221215        -6.0196
  48   1.0000      -0.209110        -5.6902
  49   1.0000      -0.199975        -5.4416
  50   1.0000      -0.190662        -5.1882
  51   1.0000      -0.162499        -4.4218
  52   1.0000      -0.159297        -4.3347
  53   1.0000      -0.117883        -3.2077
  54   1.0000      -0.113824        -3.0973
  55   1.0000      -0.108238        -2.9453
  56   1.0000      -0.106827        -2.9069
  57   1.0000      -0.078313        -2.1310
  58   1.0000      -0.074585        -2.0296
  59   1.0000      -0.064824        -1.7640
  60   1.0000      -0.055333        -1.5057
  61   1.0000      -0.049590        -1.3494
  62   1.0000      -0.043561        -1.1853
  63   1.0000      -0.037728        -1.0266
  64   1.0000       0.001563         0.0425
  65   1.0000       0.025816         0.7025
  66   1.0000       0.030622         0.8333
  67   1.0000       0.042352         1.1525
  68   1.0000       0.043835         1.1928
  69   1.0000       0.059032         1.6063
  70   1.0000       0.065762         1.7895
  71   1.0000       0.071321         1.9407
  72   0.0000       0.227985         6.2038
  73   0.0000       0.231542         6.3006
  74   0.0000       0.251663         6.8481
  75   0.0000       0.253634         6.9017
  76   0.0000       0.262102         7.1322

MULLIKEN ATOMIC CHARGES AND SPIN POPULATIONS
--------------------------------------------
   0 V :    0.524160    1.191463
   1 S :   -0.412487   -0.001674
   2 S :   -0.351757   -0.033343
   3 S :   -0.406195   -0.028980
   4 S :   -0.384336   -0.021643
   5 O :   -0.545784   -0.134130
   6 C :   -0.245180    0.005655
   7 C :   -0.235146    0.006718
   8 C :   -0.160007    0.003075
   9 H :    0.076240   -0.000941
  10 H :    0.052531    0.002165
  11 H :    0.138957    0.000603
  12 H :    0.006583   -0.000044
  13 H :    0.094585   -0.000127
  14 H :    0.049261   -0.000081
  15 C :   -0.276803   -0.001267
  16 C :   -0.246795    0.003649
  17 C :   -0.150540    0.004566
  18 H :    0.018461   -0.000017
  19 H :    0.151846    0.000019
  20 H :    0.234328    0.002463
  21 H :   -0.132321    0.002198
  22 H :    0.073258   -0.000488
  23 H :    0.127141    0.000162
Sum of atomic charges         :   -2.0000000

LOEWDIN ATOMIC CHARGES AND SPIN POPULATIONS
-------------------------------------------
   0 V :   -0.209146    1.148128
   1 S :   -0.063198    0.003697
   2 S :   -0.036408   -0.022880
   3 S :   -0.054171   -0.020162
   4 S :   -0.062298   -0.012504
   5 O :   -0.375535   -0.120891
   6 C :   -0.326680    0.005167
   7 C :   -0.313572    0.007107
   8 C :   -0.187399    0.000467
   9 H :    0.036426   -0.000004
  10 H :    0.029445    0.000647
  11 H :    0.070237    0.000329
  12 H :    0.031882    0.000152
  13 H :    0.045447   -0.000070
  14 H :    0.028138   -0.000548
  15 C :   -0.295541    0.002646
  16 C :   -0.294976    0.007258
  17 C :    0.044920    0.000983
  18 H :    0.033446   -0.000356
  19 H :    0.049927   -0.000521
  20 H :   -0.244393    0.000173
  21 H :   -0.007398    0.001490
  22 H :    0.031838   -0.000518
  23 H :    0.069009    0.000209

  Mayer bond orders larger than 0.100000
B(  0-V ,  1-S ) :   0.7162 B(  0-V ,  2-S ) :   0.8614 B(  0-V ,  3-S ) :   0.7590
B(  0-V ,  4-S ) :   0.7788 B(  0-V ,  5-O ) :   2.0739 B(  1-S , 15-C ) :   1.0369
B(  1-S , 17-C ) :  -0.1316 B(  2-S ,  6-C ) :   1.0090 B(  3-S , 16-C ) :   0.9959
B(  4-S ,  7-C ) :   1.0684 B(  6-C ,  8-C ) :   0.9008 B(  6-C , 13-H ) :   0.9740
B(  6-C , 14-H ) :   0.9679 B(  7-C ,  8-C ) :   0.9199 B(  7-C ,  9-H ) :   0.9768
B(  7-C , 10-H ) :   0.9692 B(  8-C , 11-H ) :   0.9882 B(  8-C , 12-H ) :   0.9454
B( 15-C , 17-C ) :   0.8611 B( 15-C , 22-H ) :   0.9691 B( 15-C , 23-H ) :   0.9756
B( 16-C , 17-C ) :   0.9249 B( 16-C , 18-H ) :   0.9599 B( 16-C , 19-H ) :   0.9697
B( 17-C , 20-H ) :   0.8816 B( 17-C , 21-H ) :   0.9113

FINAL SINGLE POINT ENERGY     -2846.939352066617

DIPOLE MOMENT
-------------
                                X             Y             Z
Electronic contribution:      2.15278      -4.71455       2.05736
Nuclear contribution   :     -2.86772       5.05694      -1.83264
                        -----------------------------------------
Total Dipole Moment    :     -0.71494       0.34239       0.22472
                        -----------------------------------------
Magnitude (a.u.)       :      0.82394
Magnitude (Debye)      :      2.09429

Rotational constants in cm-1:     0.027221     0.011722     0.009596
Rotational constants in MHz :   816.052091   351.411798   287.681391

                             ****ORCA TERMINATED NORMALLY****
TOTAL RUN TIME: 0 days 0 hours 14 minutes 30 seconds 861 msec
