                         Program Version 5.0.4 -  RELEASE  -
|  1> ! nofrozencore ReducedPop printbasis
|  2> ! B3LYP TZVP
|  3>
|  4> %basis
|  5> newgto V "CP(PPP)" end
|  6> end
|  7>
|  8> %pal
|  9> nprocs 4
| 10> end
| 11>
| 12> % sym SymThresh 1e-2 end
| 13> * xyz -2 2
| 14> V -0.12062310998086687 0.5997304007746301 0.003488237412412129
| 15> S 1.4008706580336683 0.19822598392190136 1.9490781147364287
| 16> S 1.8536813113419182 -0.1751304665161572 -1.2453433096285293
| 17> S -1.756966898227878 -0.7976310093961305 1.364801162555637
| 18> S -1.3939204295014842 -0.3817942874700298 -1.8218752656731607
| 19> O -0.3254457077045597 2.199525650385837 -0.0860413428732951
| 20> C 1.5680175970236403 -0.09008691849255353 -3.0881927594324035
| 21> C -0.9138653369356028 0.5193964054421822 -3.3702368192587473
| 22> C 0.548585242148957 0.9643588038178174 -3.516693830224553
| 23> H -1.5608656342724208 1.397806171675074 -3.479947052900579
| 24> H -1.1566660750660467 -0.16222497034497602 -4.196418361633868
| 25> H 0.7231687624048717 1.8708246304183576 -2.9277517307797503
| 26> H 0.7093668999090063 1.2313722857149496 -4.580087087891302
| 27> H 1.2533559066786941 -1.079934821008661 -3.4689249333968903
| 28> H 2.5511407046352144 0.14409129687161182 -3.5343612009318175
| 29> C 0.9526027260683839 -1.4482791811004978 2.669323834278815
| 30> C -1.394955715498489 -0.5903566441107484 3.176405331261486
| 31> C -0.18853989316679093 -1.3935491758168648 3.692939584251791
| 32> H -2.304011306109367 -0.8789658134589269 3.7263053970118567
| 33> H -1.2140799665128932 0.47316904881158794 3.3620767933092766
| 34> H -0.5004366960153156 -2.4302017097204707 3.938417188878163
| 35> H 0.17488766875430298 -0.9328019312238869 4.63403037653916
| 36> H 1.8577170776246938 -1.8602285548620219 3.137494159521978
| 37> H 0.6628440655220408 -2.107986193696595 1.8464441473385418
| 38> *
| 39>
| 40> % eprnmr
| 41> gtensor true
| 42> Nuclei = all H {aiso,adip,aorb,fgrad,rho}
| 43> Nuclei = all V {aiso,adip,aorb,fgrad,rho}
| 44> end
| 45>
| 46>                          ****END OF INPUT****

CARTESIAN COORDINATES (ANGSTROEM)
---------------------------------
  V     -0.120790    0.600396    0.003804
  S      1.400704    0.198891    1.949394
  S      1.853515   -0.174465   -1.245027
  S     -1.757134   -0.796966    1.365117
  S     -1.394087   -0.381129   -1.821559
  O     -0.325612    2.200191   -0.085725
  C      1.567851   -0.089422   -3.087877
  C     -0.914032    0.520062   -3.369921
  C      0.548419    0.965024   -3.516378
  H     -1.561032    1.398471   -3.479631
  H     -1.156833   -0.161560   -4.196102
  H      0.723002    1.871490   -2.927436
  H      0.709200    1.232038   -4.579771
  H      1.253189   -1.079270   -3.468609
  H      2.550974    0.144757   -3.534045
  C      0.952436   -1.447614    2.669640
  C     -1.395122   -0.589691    3.176721
  C     -0.188707   -1.392884    3.693256
  H     -2.304178   -0.878301    3.726621
  H     -1.214247    0.473834    3.362393
  H     -0.500603   -2.429536    3.938733
  H      0.174721   -0.932137    4.634346
  H      1.857550   -1.859563    3.137810
  H      0.662677   -2.107321    1.846760

 Total Charge           Charge          ....   -2
 Multiplicity           Mult            ....    2
 Number of Electrons    NEL             ....  145
 Basis Dimension        Dim             ....  353

ORBITAL ENERGIES
----------------
                 SPIN UP ORBITALS
  NO   OCC          E(Eh)            E(eV)
   0   1.0000    -196.607359     -5349.9582
   1   1.0000     -88.560313     -2409.8486
   2   1.0000     -88.560199     -2409.8455
   3   1.0000     -88.559643     -2409.8304
   4   1.0000     -88.557677     -2409.7769
   5   1.0000     -21.982442      -598.1727
   6   1.0000     -18.823009      -512.2001
   7   1.0000     -18.490467      -503.1512
   8   1.0000     -18.482988      -502.9477
   9   1.0000     -18.482862      -502.9442
  10   1.0000      -9.943791      -270.5843
  11   1.0000      -9.939391      -270.4646
  12   1.0000      -9.937066      -270.4013
  13   1.0000      -9.934888      -270.3420
  14   1.0000      -9.933614      -270.3074
  15   1.0000      -9.932004      -270.2636
  16   1.0000      -7.614894      -207.2118
  17   1.0000      -7.613739      -207.1804
  18   1.0000      -7.613442      -207.1723
  19   1.0000      -7.612047      -207.1343
  20   1.0000      -5.580312      -151.8480
  21   1.0000      -5.579269      -151.8196
  22   1.0000      -5.578752      -151.8056
  23   1.0000      -5.577263      -151.7650
  24   1.0000      -5.573958      -151.6751
  25   1.0000      -5.572660      -151.6398
  26   1.0000      -5.572414      -151.6331
  27   1.0000      -5.571747      -151.6149
  28   1.0000      -5.571129      -151.5981
  29   1.0000      -5.570730      -151.5873
  30   1.0000      -5.570634      -151.5847
  31   1.0000      -5.569282      -151.5479
  32   1.0000      -2.374774       -64.6209
  33   1.0000      -1.416163       -38.5357
  34   1.0000      -1.403235       -38.1840
  35   1.0000      -1.402645       -38.1679
  36   1.0000      -0.586154       -15.9501
  37   1.0000      -0.552403       -15.0316
  38   1.0000      -0.550006       -14.9664
  39   1.0000      -0.468556       -12.7500
  40   1.0000      -0.462124       -12.5750
  41   1.0000      -0.404603       -11.0098
  42   1.0000      -0.397752       -10.8234
  43   1.0000      -0.335948        -9.1416
  44   1.0000      -0.326443        -8.8830
  45   1.0000      -0.304946        -8.2980
  46   1.0000      -0.285451        -7.7675
  47   1.0000      -0.213870        -5.8197
  48   1.0000      -0.209230        -5.6934
  49   1.0000      -0.202304        -5.5050
  50   1.0000      -0.198324        -5.3967
  51   1.0000      -0.163400        -4.4463
  52   1.0000      -0.135601        -3.6899
  53   1.0000      -0.129080        -3.5124
  54   1.0000      -0.111698        -3.0395
  55   1.0000      -0.106740        -2.9045
  56   1.0000      -0.105198        -2.8626
  57   1.0000      -0.083174        -2.2633
  58   1.0000      -0.069388        -1.8881
  59   1.0000      -0.062339        -1.6963
  60   1.0000      -0.053595        -1.4584
  61   1.0000      -0.045265        -1.2317
  62   1.0000      -0.038832        -1.0567
  63   1.0000      -0.036623        -0.9966
  64   1.0000      -0.002826        -0.0769
  65   1.0000       0.023554         0.6409
  66   1.0000       0.032577         0.8865
  67   1.0000       0.036655         0.9974
  68   1.0000       0.047098         1.2816
  69   1.0000       0.056803         1.5457
  70   1.0000       0.065204         1.7743
  71   1.0000       0.077901         2.1198
  72   1.0000       0.083354         2.2682
  73   0.0000       0.237282         6.4568
  74   0.0000       0.243533         6.6269
  75   0.0000       0.246023         6.6946
  76   0.0000       0.250619         6.8197
  77   0.0000       0.257810         7.0154

                 SPIN DOWN ORBITALS
  NO   OCC          E(Eh)            E(eV)
   0   1.0000    -196.607502     -5349.9621
   1   1.0000     -88.560412     -2409.8513
   2   1.0000     -88.560384     -2409.8506
   3   1.0000     -88.559807     -2409.8349
   4   1.0000     -88.557642     -2409.7760
   5   1.0000     -21.967337      -597.7616
   6   1.0000     -18.826363      -512.2914
   7   1.0000     -18.485257      -503.0094
   8   1.0000     -18.466697      -502.5044
   9   1.0000     -18.466494      -502.4989
  10   1.0000      -9.943602      -270.5792
  11   1.0000      -9.939296      -270.4620
  12   1.0000      -9.936948      -270.3981
  13   1.0000      -9.934832      -270.3405
  14   1.0000      -9.933560      -270.3059
  15   1.0000      -9.932022      -270.2641
  16   1.0000      -7.614987      -207.2143
  17   1.0000      -7.613919      -207.1853
  18   1.0000      -7.613599      -207.1766
  19   1.0000      -7.612016      -207.1335
  20   1.0000      -5.580435      -151.8514
  21   1.0000      -5.579433      -151.8241
  22   1.0000      -5.578898      -151.8095
  23   1.0000      -5.577279      -151.7655
  24   1.0000      -5.574386      -151.6868
  25   1.0000      -5.573154      -151.6532
  26   1.0000      -5.572862      -151.6453
  27   1.0000      -5.571629      -151.6117
  28   1.0000      -5.571464      -151.6072
  29   1.0000      -5.570860      -151.5908
  30   1.0000      -5.570755      -151.5879
  31   1.0000      -5.568782      -151.5343
  32   1.0000      -2.329701       -63.3944
  33   1.0000      -1.397138       -38.0180
  34   1.0000      -1.341077       -36.4926
  35   1.0000      -1.339835       -36.4588
  36   1.0000      -0.593373       -16.1465
  37   1.0000      -0.552317       -15.0293
  38   1.0000      -0.549868       -14.9627
  39   1.0000      -0.468517       -12.7490
  40   1.0000      -0.462044       -12.5729
  41   1.0000      -0.404737       -11.0135
  42   1.0000      -0.397887       -10.8271
  43   1.0000      -0.336132        -9.1466
  44   1.0000      -0.326855        -8.8942
  45   1.0000      -0.304944        -8.2980
  46   1.0000      -0.285519        -7.7694
  47   1.0000      -0.213820        -5.8183
  48   1.0000      -0.209171        -5.6918
  49   1.0000      -0.202199        -5.5021
  50   1.0000      -0.198171        -5.3925
  51   1.0000      -0.163309        -4.4439
  52   1.0000      -0.135471        -3.6864
  53   1.0000      -0.128881        -3.5070
  54   1.0000      -0.111667        -3.0386
  55   1.0000      -0.106636        -2.9017
  56   1.0000      -0.105149        -2.8612
  57   1.0000      -0.081995        -2.2312
  58   1.0000      -0.067596        -1.8394
  59   1.0000      -0.061296        -1.6679
  60   1.0000      -0.053430        -1.4539
  61   1.0000      -0.045516        -1.2385
  62   1.0000      -0.040397        -1.0992
  63   1.0000      -0.037815        -1.0290
  64   1.0000       0.003245         0.0883
  65   1.0000       0.024293         0.6611
  66   1.0000       0.036715         0.9991
  67   1.0000       0.043116         1.1733
  68   1.0000       0.050428         1.3722
  69   1.0000       0.062992         1.7141
  70   1.0000       0.069163         1.8820
  71   1.0000       0.080532         2.1914
  72   0.0000       0.235110         6.3977
  73   0.0000       0.252106         6.8602
  74   0.0000       0.253230         6.8907
  75   0.0000       0.258513         7.0345
  76   0.0000       0.264155         7.1880

MULLIKEN ATOMIC CHARGES AND SPIN POPULATIONS
--------------------------------------------
   0 V :    0.529117    1.189381
   1 S :   -0.416467   -0.000663
   2 S :   -0.333459   -0.034343
   3 S :   -0.420353   -0.029244
   4 S :   -0.351829   -0.021253
   5 O :   -0.583834   -0.129305
   6 C :   -0.231706    0.005317
   7 C :   -0.231047    0.007968
   8 C :   -0.161077    0.002298
   9 H :    0.079740   -0.000762
  10 H :    0.051326    0.002002
  11 H :    0.129060    0.000447
  12 H :    0.005008   -0.000159
  13 H :    0.071668   -0.000061
  14 H :    0.052335   -0.000655
  15 C :   -0.248694   -0.000979
  16 C :   -0.255151    0.001014
  17 C :   -0.074878    0.008117
  18 H :    0.047171   -0.000721
  19 H :    0.122481   -0.000162
  20 H :    0.010973    0.002448
  21 H :    0.015901   -0.000329
  22 H :    0.052311   -0.000673
  23 H :    0.141402    0.000320
Sum of atomic charges         :   -2.0000000

LOEWDIN ATOMIC CHARGES AND SPIN POPULATIONS
-------------------------------------------
   0 V :   -0.209894    1.148266
   1 S :   -0.057021    0.005144
   2 S :   -0.037664   -0.024314
   3 S :   -0.082237   -0.022089
   4 S :   -0.029960   -0.011134
   5 O :   -0.403992   -0.116820
   6 C :   -0.324655    0.003722
   7 C :   -0.313820    0.007397
   8 C :   -0.186720    0.000435
   9 H :    0.038116    0.000119
  10 H :    0.030459    0.000602
  11 H :    0.069337    0.000240
  12 H :    0.032105    0.000192
  13 H :    0.041198    0.000052
  14 H :    0.029973   -0.000710
  15 C :   -0.319307    0.002799
  16 C :   -0.325518    0.004986
  17 C :   -0.191239    0.001654
  18 H :    0.028994   -0.000549
  19 H :    0.052284   -0.000660
  20 H :    0.034323    0.000936
  21 H :    0.036527    0.000298
  22 H :    0.030350   -0.000640
  23 H :    0.058361    0.000072

  Mayer bond orders larger than 0.100000
B(  0-V ,  1-S ) :   0.7373 B(  0-V ,  2-S ) :   0.8647 B(  0-V ,  3-S ) :   0.7208
B(  0-V ,  4-S ) :   0.8266 B(  0-V ,  5-O ) :   2.0278 B(  1-S , 15-C ) :   1.0160
B(  2-S ,  6-C ) :   1.0148 B(  3-S , 16-C ) :   1.0494 B(  4-S ,  7-C ) :   1.0668
B(  6-C ,  8-C ) :   0.9211 B(  6-C , 13-H ) :   0.9639 B(  6-C , 14-H ) :   0.9698
B(  7-C ,  8-C ) :   0.9177 B(  7-C ,  9-H ) :   0.9766 B(  7-C , 10-H ) :   0.9700
B(  8-C , 11-H ) :   0.9854 B(  8-C , 12-H ) :   0.9437 B( 15-C , 17-C ) :   0.9037
B( 15-C , 22-H ) :   0.9676 B( 15-C , 23-H ) :   0.9723 B( 16-C , 17-C ) :   0.9011
B( 16-C , 18-H ) :   0.9677 B( 16-C , 19-H ) :   0.9784 B( 17-C , 20-H ) :   0.9544
B( 17-C , 21-H ) :   0.9609

FINAL SINGLE POINT ENERGY     -2847.710812303339

DIPOLE MOMENT
-------------
                                X             Y             Z
Electronic contribution:     -1.56545       6.49743       1.10666
Nuclear contribution   :      1.67126      -6.76960      -1.46982
                        -----------------------------------------
Total Dipole Moment    :      0.10580      -0.27217      -0.36316
                        -----------------------------------------
Magnitude (a.u.)       :      0.46600
Magnitude (Debye)      :      1.18447

Rotational constants in cm-1:     0.028059     0.011331     0.009610
Rotational constants in MHz :   841.197283   339.707492   288.102080

                             ****ORCA TERMINATED NORMALLY****
TOTAL RUN TIME: 0 days 0 hours 14 minutes 20 seconds 527 msec
