                         Program Version 5.0.4 -  RELEASE  -
|  1> ! nofrozencore ReducedPop printbasis
|  2> ! B3LYP TZVP
|  3>
|  4> %basis
|  5> newgto V "CP(PPP)" end
|  6> end
|  7>
|  8> %pal
|  9> nprocs 4
| 10> end
| 11>
| 12> % sym SymThresh 1e-2 end
| 13> * xyz -2 2
| 14> V -0.20490954183366583 -0.0520595587334462 -0.43762083941009483
| 15> S 1.4407672128795082 1.9497035011435047 -0.712712727518019
| 16> S 1.96343974293229 -1.2720086616965511 -0.05970162406443129
| 17> S -1.6888487900984597 1.406848838024258 0.8608897297922445
| 18> S -1.4284025866533663 -1.6832153526288647 0.7207865000889373
| 19> O -0.8632365635684386 -0.3085881806628498 -1.8877486258767997
| 20> C 1.6174936664271387 -3.083944456067041 0.17037064131902194
| 21> C -0.978502720982625 -3.331388874441526 -0.008385270825913073
| 22> C 0.41088884572716405 -3.5771468012851475 -0.6304765034745031
| 23> H -1.7244873405121217 -3.56481947612347 -0.7780911640252817
| 24> H -1.1237083707656232 -4.056441612839286 0.805387113876348
| 25> H 0.4609799923313647 -3.114433696839778 -1.624084768959148
| 26> H 0.4904630464233285 -4.675973571359448 -0.7811693404032921
| 27> H 1.4806774720098899 -3.317910402114791 1.2408479030299668
| 28> H 2.520824031176773 -3.616936423232888 -0.1699421417717297
| 29> C 1.2684344241720733 2.8385564053774663 0.9070194760879258
| 30> C -1.244323542013377 3.127598924372071 0.3691508170327498
| 31> C -0.010434437150683856 3.6945157751569733 1.0721458574044946
| 32> H -2.1120866621109444 3.7684125228840264 0.5826992360943148
| 33> H -1.0674599652628562 3.13988571741071 -0.7096233417738274
| 34> H -0.22666481668501728 3.8102798392031243 2.1527074177974956
| 35> H 0.17695977956965578 4.714284662322924 0.6702640486371783
| 36> H 2.152911262404445 3.482966843091956 1.033483195565439
| 37> H 1.3046698190887662 2.0808129748628326 1.6995945840027185
| 38> *
| 39>
| 40> % eprnmr
| 41> gtensor true
| 42> Nuclei = all H {aiso,adip,aorb,fgrad,rho}
| 43> Nuclei = all V {aiso,adip,aorb,fgrad,rho}
| 44> end
| 45>
| 46>                          ****END OF INPUT****

CARTESIAN COORDINATES (ANGSTROEM)
---------------------------------
  V     -0.205185   -0.051814   -0.438280
  S      1.440492    1.949949   -0.713372
  S      1.963164   -1.271764   -0.060361
  S     -1.689124    1.407094    0.860231
  S     -1.428678   -1.682970    0.720128
  O     -0.863512   -0.308343   -1.888408
  C      1.617218   -3.083699    0.169712
  C     -0.978778   -3.331144   -0.009044
  C      0.410614   -3.576902   -0.631135
  H     -1.724763   -3.564574   -0.778750
  H     -1.123984   -4.056197    0.804728
  H      0.460705   -3.114189   -1.624744
  H      0.490188   -4.675728   -0.781828
  H      1.480402   -3.317665    1.240189
  H      2.520549   -3.616691   -0.170601
  C      1.268159    2.838801    0.906361
  C     -1.244599    3.127844    0.368492
  C     -0.010710    3.694761    1.071487
  H     -2.112362    3.768658    0.582040
  H     -1.067735    3.140131   -0.710282
  H     -0.226940    3.810525    2.152048
  H      0.176684    4.714530    0.669605
  H      2.152636    3.483212    1.032824
  H      1.304395    2.081058    1.698936

 Total Charge           Charge          ....   -2
 Multiplicity           Mult            ....    2
 Number of Electrons    NEL             ....  145
 Basis Dimension        Dim             ....  353

ORBITAL ENERGIES
----------------
                 SPIN UP ORBITALS
  NO   OCC          E(Eh)            E(eV)
   0   1.0000    -196.606391     -5349.9319
   1   1.0000     -88.561757     -2409.8879
   2   1.0000     -88.561402     -2409.8783
   3   1.0000     -88.559840     -2409.8358
   4   1.0000     -88.554860     -2409.7002
   5   1.0000     -21.981752      -598.1539
   6   1.0000     -18.821376      -512.1557
   7   1.0000     -18.489456      -503.1237
   8   1.0000     -18.482418      -502.9322
   9   1.0000     -18.482306      -502.9291
  10   1.0000      -9.944587      -270.6060
  11   1.0000      -9.940220      -270.4871
  12   1.0000      -9.936090      -270.3747
  13   1.0000      -9.933829      -270.3132
  14   1.0000      -9.933414      -270.3019
  15   1.0000      -9.933155      -270.2949
  16   1.0000      -7.616606      -207.2584
  17   1.0000      -7.616276      -207.2494
  18   1.0000      -7.613275      -207.1677
  19   1.0000      -7.608776      -207.0453
  20   1.0000      -5.582023      -151.8946
  21   1.0000      -5.581395      -151.8775
  22   1.0000      -5.578826      -151.8076
  23   1.0000      -5.575504      -151.7172
  24   1.0000      -5.575321      -151.7122
  25   1.0000      -5.574119      -151.6795
  26   1.0000      -5.573449      -151.6612
  27   1.0000      -5.573423      -151.6605
  28   1.0000      -5.572142      -151.6257
  29   1.0000      -5.570397      -151.5782
  30   1.0000      -5.567960      -151.5119
  31   1.0000      -5.565859      -151.4547
  32   1.0000      -2.374300       -64.6080
  33   1.0000      -1.415710       -38.5234
  34   1.0000      -1.402948       -38.1762
  35   1.0000      -1.402361       -38.1602
  36   1.0000      -0.583857       -15.8876
  37   1.0000      -0.550742       -14.9864
  38   1.0000      -0.547632       -14.9018
  39   1.0000      -0.471736       -12.8366
  40   1.0000      -0.464286       -12.6339
  41   1.0000      -0.404474       -11.0063
  42   1.0000      -0.396752       -10.7962
  43   1.0000      -0.337307        -9.1786
  44   1.0000      -0.328008        -8.9256
  45   1.0000      -0.304515        -8.2863
  46   1.0000      -0.283587        -7.7168
  47   1.0000      -0.211083        -5.7439
  48   1.0000      -0.207727        -5.6526
  49   1.0000      -0.200929        -5.4676
  50   1.0000      -0.196618        -5.3503
  51   1.0000      -0.165880        -4.5138
  52   1.0000      -0.133195        -3.6244
  53   1.0000      -0.128289        -3.4909
  54   1.0000      -0.113787        -3.0963
  55   1.0000      -0.106292        -2.8924
  56   1.0000      -0.105361        -2.8670
  57   1.0000      -0.087079        -2.3696
  58   1.0000      -0.067522        -1.8374
  59   1.0000      -0.060252        -1.6395
  60   1.0000      -0.052030        -1.4158
  61   1.0000      -0.043490        -1.1834
  62   1.0000      -0.040726        -1.1082
  63   1.0000      -0.035914        -0.9773
  64   1.0000      -0.001881        -0.0512
  65   1.0000       0.024859         0.6765
  66   1.0000       0.031913         0.8684
  67   1.0000       0.038461         1.0466
  68   1.0000       0.047009         1.2792
  69   1.0000       0.054222         1.4755
  70   1.0000       0.064192         1.7467
  71   1.0000       0.074171         2.0183
  72   1.0000       0.081954         2.2301
  73   0.0000       0.235239         6.4012
  74   0.0000       0.244407         6.6507
  75   0.0000       0.249099         6.7783
  76   0.0000       0.250179         6.8077
  77   0.0000       0.258316         7.0291

                 SPIN DOWN ORBITALS
  NO   OCC          E(Eh)            E(eV)
   0   1.0000    -196.606529     -5349.9356
   1   1.0000     -88.561929     -2409.8926
   2   1.0000     -88.561524     -2409.8816
   3   1.0000     -88.559994     -2409.8400
   4   1.0000     -88.554858     -2409.7002
   5   1.0000     -21.966746      -597.7455
   6   1.0000     -18.824914      -512.2519
   7   1.0000     -18.484226      -502.9814
   8   1.0000     -18.466530      -502.4998
   9   1.0000     -18.465809      -502.4802
  10   1.0000      -9.944255      -270.5969
  11   1.0000      -9.940117      -270.4843
  12   1.0000      -9.936038      -270.3733
  13   1.0000      -9.933854      -270.3139
  14   1.0000      -9.933362      -270.3005
  15   1.0000      -9.932978      -270.2901
  16   1.0000      -7.616719      -207.2615
  17   1.0000      -7.616439      -207.2538
  18   1.0000      -7.613425      -207.1718
  19   1.0000      -7.608776      -207.0453
  20   1.0000      -5.582194      -151.8992
  21   1.0000      -5.581559      -151.8820
  22   1.0000      -5.578969      -151.8115
  23   1.0000      -5.575916      -151.7284
  24   1.0000      -5.575768      -151.7244
  25   1.0000      -5.574147      -151.6803
  26   1.0000      -5.573555      -151.6641
  27   1.0000      -5.573401      -151.6600
  28   1.0000      -5.572565      -151.6372
  29   1.0000      -5.570492      -151.5808
  30   1.0000      -5.568280      -151.5206
  31   1.0000      -5.565504      -151.4451
  32   1.0000      -2.329435       -63.3872
  33   1.0000      -1.396542       -38.0018
  34   1.0000      -1.341906       -36.5151
  35   1.0000      -1.339272       -36.4434
  36   1.0000      -0.591551       -16.0969
  37   1.0000      -0.550588       -14.9823
  38   1.0000      -0.547487       -14.8979
  39   1.0000      -0.471532       -12.8310
  40   1.0000      -0.464181       -12.6310
  41   1.0000      -0.404546       -11.0082
  42   1.0000      -0.396829       -10.7983
  43   1.0000      -0.337506        -9.1840
  44   1.0000      -0.328361        -8.9352
  45   1.0000      -0.304414        -8.2835
  46   1.0000      -0.283597        -7.7171
  47   1.0000      -0.211030        -5.7424
  48   1.0000      -0.207649        -5.6504
  49   1.0000      -0.200785        -5.4636
  50   1.0000      -0.196375        -5.3436
  51   1.0000      -0.165679        -4.5083
  52   1.0000      -0.133066        -3.6209
  53   1.0000      -0.127929        -3.4811
  54   1.0000      -0.113703        -3.0940
  55   1.0000      -0.106229        -2.8906
  56   1.0000      -0.105234        -2.8636
  57   1.0000      -0.085146        -2.3170
  58   1.0000      -0.065658        -1.7866
  59   1.0000      -0.059224        -1.6116
  60   1.0000      -0.051992        -1.4148
  61   1.0000      -0.043921        -1.1952
  62   1.0000      -0.042573        -1.1585
  63   1.0000      -0.036532        -0.9941
  64   1.0000       0.002952         0.0803
  65   1.0000       0.026838         0.7303
  66   1.0000       0.034282         0.9329
  67   1.0000       0.044034         1.1982
  68   1.0000       0.047739         1.2991
  69   1.0000       0.063040         1.7154
  70   1.0000       0.069445         1.8897
  71   1.0000       0.076321         2.0768
  72   0.0000       0.231664         6.3039
  73   0.0000       0.250210         6.8085
  74   0.0000       0.254326         6.9206
  75   0.0000       0.261093         7.1047
  76   0.0000       0.263437         7.1685

MULLIKEN ATOMIC CHARGES AND SPIN POPULATIONS
--------------------------------------------
   0 V :    0.512667    1.194645
   1 S :   -0.458701   -0.004653
   2 S :   -0.377446   -0.028671
   3 S :   -0.392648   -0.032576
   4 S :   -0.324476   -0.025132
   5 O :   -0.543724   -0.137105
   6 C :   -0.237836    0.004570
   7 C :   -0.230378    0.013845
   8 C :   -0.140137    0.001062
   9 H :    0.077229   -0.001328
  10 H :    0.050679    0.003114
  11 H :    0.122170    0.000573
  12 H :    0.002432    0.000011
  13 H :    0.073852    0.000048
  14 H :    0.052670   -0.000255
  15 C :   -0.255281   -0.001034
  16 C :   -0.254271    0.006278
  17 C :   -0.066763    0.006077
  18 H :    0.046488    0.000480
  19 H :    0.134714   -0.000636
  20 H :    0.021458    0.000682
  21 H :    0.005649    0.000329
  22 H :    0.049904   -0.000520
  23 H :    0.131748    0.000194
Sum of atomic charges         :   -2.0000000

LOEWDIN ATOMIC CHARGES AND SPIN POPULATIONS
-------------------------------------------
   0 V :   -0.219624    1.148919
   1 S :   -0.113546    0.000141
   2 S :   -0.072565   -0.020297
   3 S :   -0.040744   -0.022081
   4 S :    0.007553   -0.012659
   5 O :   -0.386227   -0.123464
   6 C :   -0.324314    0.003973
   7 C :   -0.312491    0.012762
   8 C :   -0.185180    0.000191
   9 H :    0.039819   -0.000094
  10 H :    0.030669    0.001299
  11 H :    0.068354    0.000224
  12 H :    0.032848    0.000282
  13 H :    0.040486    0.000063
  14 H :    0.029809   -0.000607
  15 C :   -0.319465    0.002429
  16 C :   -0.327572    0.008303
  17 C :   -0.189643    0.000773
  18 H :    0.028300    0.000051
  19 H :    0.055729   -0.000660
  20 H :    0.039207    0.000316
  21 H :    0.033195    0.000384
  22 H :    0.030300   -0.000562
  23 H :    0.055100    0.000314

  Mayer bond orders larger than 0.100000
B(  0-V ,  1-S ) :   0.6456 B(  0-V ,  2-S ) :   0.7963 B(  0-V ,  3-S ) :   0.8003
B(  0-V ,  4-S ) :   0.8856 B(  0-V ,  5-O ) :   2.0772 B(  1-S , 15-C ) :   1.0489
B(  2-S ,  6-C ) :   1.0336 B(  3-S , 16-C ) :   1.0159 B(  4-S ,  7-C ) :   1.0505
B(  6-C ,  8-C ) :   0.9134 B(  6-C , 13-H ) :   0.9661 B(  6-C , 14-H ) :   0.9713
B(  7-C ,  8-C ) :   0.9155 B(  7-C ,  9-H ) :   0.9751 B(  7-C , 10-H ) :   0.9735
B(  8-C , 11-H ) :   0.9865 B(  8-C , 12-H ) :   0.9433 B( 15-C , 17-C ) :   0.8897
B( 15-C , 22-H ) :   0.9693 B( 15-C , 23-H ) :   0.9843 B( 16-C , 17-C ) :   0.9069
B( 16-C , 18-H ) :   0.9620 B( 16-C , 19-H ) :   0.9736 B( 17-C , 20-H ) :   0.9623
B( 17-C , 21-H ) :   0.9539

FINAL SINGLE POINT ENERGY     -2847.710208937990

DIPOLE MOMENT
-------------
                                X             Y             Z
Electronic contribution:     -3.10532       0.62232      -5.43830
Nuclear contribution   :      3.11337      -1.04030       5.83494
                        -----------------------------------------
Total Dipole Moment    :      0.00805      -0.41798       0.39663
                        -----------------------------------------
Magnitude (a.u.)       :      0.57628
Magnitude (Debye)      :      1.46478

Rotational constants in cm-1:     0.026868     0.011789     0.009542
Rotational constants in MHz :   805.468390   353.437781   286.057856

                             ****ORCA TERMINATED NORMALLY****
TOTAL RUN TIME: 0 days 0 hours 14 minutes 23 seconds 78 msec
