                         Program Version 5.0.4 -  RELEASE  -
|  1> ! nofrozencore ReducedPop printbasis
|  2> ! B3LYP TZVP
|  3>
|  4> %basis
|  5> newgto V "CP(PPP)" end
|  6> end
|  7>
|  8> %pal
|  9> nprocs 4
| 10> end
| 11>
| 12> % sym SymThresh 1e-2 end
| 13> * xyz -2 2
| 14> V -0.48077758657544817 -0.04290624332132511 -0.09532335146090205
| 15> S -0.5461448309793894 0.5997118092406756 2.3523494375346896
| 16> S 0.41640181127614334 2.22432879345117 -0.2996278244806539
| 17> S 0.39028593084260627 -2.2733457601391445 0.5605031187671454
| 18> S 0.623192492295686 -0.671060398362447 -2.235239500782841
| 19> O -2.0449954143783526 -0.06503004848248992 -0.44106245109493813
| 20> C 0.7117779909274834 2.5213560184661037 -2.0996077679740552
| 21> C 0.05482335978844191 0.51975217851303 -3.546866391555575
| 22> C -0.28784466267233094 1.9419546703507886 -3.043564799458656
| 23> H -0.9235113192567875 0.13647383285917358 -3.8931840171658103
| 24> H 0.967240814235304 0.6607461987360741 -4.151920450460275
| 25> H -1.2869403694443 1.9700439664882945 -2.595468116638622
| 26> H -0.42873585825898114 2.5827200749047585 -3.935396457965435
| 27> H 1.883488535853717 2.565499288312153 -2.352043041670041
| 28> H 1.1605061189346435 3.6178899805119884 -2.278965037325324
| 29> C 0.9459187397843342 -0.2704293527707589 3.0153635293247487
| 30> C -0.12498403628863745 -2.5098766305473226 2.3203913802674365
| 31> C 0.7054214604150357 -1.74767986055428 3.353443627125986
| 32> H -0.1026490894382014 -3.586125091576195 2.5371623431572403
| 33> H -1.1717674751197422 -2.217403756999795 2.413127901734323
| 34> H 1.6728815027589559 -2.2548568140214225 3.5120036233441025
| 35> H 0.21764347351497815 -1.8368844381904899 4.339984385614186
| 36> H 1.2501093125069223 0.2452416691744661 3.932334991128044
| 37> H 1.7156641890578705 -0.22253263785220811 2.2451365342020826
| 38> *
| 39>
| 40> % eprnmr
| 41> gtensor true
| 42> Nuclei = all H {aiso,adip,aorb,fgrad,rho}
| 43> Nuclei = all V {aiso,adip,aorb,fgrad,rho}
| 44> end
| 45>
| 46>                          ****END OF INPUT****

CARTESIAN COORDINATES (ANGSTROEM)
---------------------------------
  V     -0.481497   -0.043103   -0.095204
  S     -0.546864    0.599515    2.352469
  S      0.415683    2.224132   -0.299509
  S      0.389567   -2.273543    0.560622
  S      0.622474   -0.671257   -2.235120
  O     -2.045714   -0.065227   -0.440943
  C      0.711059    2.521159   -2.099489
  C      0.054104    0.519555   -3.546747
  C     -0.288564    1.941758   -3.043446
  H     -0.924230    0.136277   -3.893065
  H      0.966522    0.660549   -4.151801
  H     -1.287659    1.969847   -2.595349
  H     -0.429455    2.582523   -3.935277
  H      1.882770    2.565302   -2.351924
  H      1.159787    3.617693   -2.278846
  C      0.945200   -0.270626    3.015483
  C     -0.125703   -2.510074    2.320510
  C      0.704702   -1.747877    3.353563
  H     -0.103368   -3.586322    2.537281
  H     -1.172486   -2.217601    2.413247
  H      1.672163   -2.255054    3.512123
  H      0.216925   -1.837082    4.340103
  H      1.249390    0.245045    3.932454
  H      1.714945   -0.222730    2.245256

 Total Charge           Charge          ....   -2
 Multiplicity           Mult            ....    2
 Number of Electrons    NEL             ....  145
 Basis Dimension        Dim             ....  353

ORBITAL ENERGIES
----------------
                 SPIN UP ORBITALS
  NO   OCC          E(Eh)            E(eV)
   0   1.0000    -196.607438     -5349.9604
   1   1.0000     -88.565788     -2409.9976
   2   1.0000     -88.562085     -2409.8969
   3   1.0000     -88.557805     -2409.7804
   4   1.0000     -88.556272     -2409.7387
   5   1.0000     -21.982704      -598.1798
   6   1.0000     -18.825258      -512.2613
   7   1.0000     -18.490493      -503.1519
   8   1.0000     -18.483305      -502.9563
   9   1.0000     -18.483241      -502.9545
  10   1.0000      -9.954810      -270.8842
  11   1.0000      -9.946903      -270.6690
  12   1.0000      -9.935815      -270.3673
  13   1.0000      -9.935010      -270.3454
  14   1.0000      -9.934609      -270.3345
  15   1.0000      -9.932262      -270.2706
  16   1.0000      -7.619147      -207.3275
  17   1.0000      -7.616252      -207.2487
  18   1.0000      -7.612153      -207.1372
  19   1.0000      -7.610669      -207.0968
  20   1.0000      -5.584825      -151.9708
  21   1.0000      -5.581451      -151.8790
  22   1.0000      -5.577999      -151.7851
  23   1.0000      -5.577371      -151.7680
  24   1.0000      -5.576116      -151.7338
  25   1.0000      -5.576077      -151.7328
  26   1.0000      -5.575229      -151.7097
  27   1.0000      -5.573491      -151.6624
  28   1.0000      -5.571378      -151.6049
  29   1.0000      -5.569785      -151.5616
  30   1.0000      -5.569244      -151.5468
  31   1.0000      -5.567530      -151.5002
  32   1.0000      -2.375411       -64.6382
  33   1.0000      -1.418116       -38.5889
  34   1.0000      -1.403581       -38.1934
  35   1.0000      -1.402975       -38.1769
  36   1.0000      -0.587959       -15.9992
  37   1.0000      -0.554550       -15.0901
  38   1.0000      -0.551260       -15.0005
  39   1.0000      -0.469534       -12.7767
  40   1.0000      -0.466459       -12.6930
  41   1.0000      -0.405949       -11.0464
  42   1.0000      -0.399286       -10.8651
  43   1.0000      -0.339624        -9.2416
  44   1.0000      -0.333025        -9.0621
  45   1.0000      -0.308995        -8.4082
  46   1.0000      -0.286658        -7.8004
  47   1.0000      -0.222622        -6.0578
  48   1.0000      -0.213316        -5.8046
  49   1.0000      -0.204440        -5.5631
  50   1.0000      -0.201376        -5.4797
  51   1.0000      -0.149687        -4.0732
  52   1.0000      -0.136433        -3.7125
  53   1.0000      -0.129883        -3.5343
  54   1.0000      -0.126796        -3.4503
  55   1.0000      -0.107561        -2.9269
  56   1.0000      -0.084613        -2.3024
  57   1.0000      -0.073516        -2.0005
  58   1.0000      -0.064587        -1.7575
  59   1.0000      -0.056653        -1.5416
  60   1.0000      -0.052821        -1.4373
  61   1.0000      -0.044229        -1.2035
  62   1.0000      -0.039475        -1.0742
  63   1.0000      -0.036637        -0.9969
  64   1.0000       0.000365         0.0099
  65   1.0000       0.027714         0.7541
  66   1.0000       0.030847         0.8394
  67   1.0000       0.036331         0.9886
  68   1.0000       0.046009         1.2520
  69   1.0000       0.053858         1.4655
  70   1.0000       0.065132         1.7723
  71   1.0000       0.075228         2.0471
  72   1.0000       0.081426         2.2157
  73   0.0000       0.234232         6.3738
  74   0.0000       0.240787         6.5521
  75   0.0000       0.246184         6.6990
  76   0.0000       0.249351         6.7852
  77   0.0000       0.256953         6.9920

                 SPIN DOWN ORBITALS
  NO   OCC          E(Eh)            E(eV)
   0   1.0000    -196.607581     -5349.9643
   1   1.0000     -88.565961     -2410.0023
   2   1.0000     -88.562247     -2409.9012
   3   1.0000     -88.557773     -2409.7795
   4   1.0000     -88.556380     -2409.7416
   5   1.0000     -21.967674      -597.7708
   6   1.0000     -18.828710      -512.3553
   7   1.0000     -18.485299      -503.0106
   8   1.0000     -18.467262      -502.5197
   9   1.0000     -18.466803      -502.5072
  10   1.0000      -9.954676      -270.8805
  11   1.0000      -9.946718      -270.6640
  12   1.0000      -9.935833      -270.3678
  13   1.0000      -9.934953      -270.3438
  14   1.0000      -9.934435      -270.3297
  15   1.0000      -9.932219      -270.2694
  16   1.0000      -7.619315      -207.3321
  17   1.0000      -7.616405      -207.2529
  18   1.0000      -7.612125      -207.1364
  19   1.0000      -7.610772      -207.0996
  20   1.0000      -5.584979      -151.9750
  21   1.0000      -5.581604      -151.8832
  22   1.0000      -5.578445      -151.7972
  23   1.0000      -5.577385      -151.7684
  24   1.0000      -5.576253      -151.7376
  25   1.0000      -5.576206      -151.7363
  26   1.0000      -5.575654      -151.7212
  27   1.0000      -5.573612      -151.6657
  28   1.0000      -5.571710      -151.6139
  29   1.0000      -5.570202      -151.5729
  30   1.0000      -5.568763      -151.5337
  31   1.0000      -5.567457      -151.4982
  32   1.0000      -2.330539       -63.4172
  33   1.0000      -1.399152       -38.0729
  34   1.0000      -1.341990       -36.5174
  35   1.0000      -1.340156       -36.4675
  36   1.0000      -0.595336       -16.1999
  37   1.0000      -0.554455       -15.0875
  38   1.0000      -0.551102       -14.9963
  39   1.0000      -0.469477       -12.7751
  40   1.0000      -0.466333       -12.6896
  41   1.0000      -0.406021       -11.0484
  42   1.0000      -0.399376       -10.8676
  43   1.0000      -0.339863        -9.2481
  44   1.0000      -0.333309        -9.0698
  45   1.0000      -0.309047        -8.4096
  46   1.0000      -0.286648        -7.8001
  47   1.0000      -0.222549        -6.0559
  48   1.0000      -0.213288        -5.8039
  49   1.0000      -0.204249        -5.5579
  50   1.0000      -0.201239        -5.4760
  51   1.0000      -0.149594        -4.0706
  52   1.0000      -0.136279        -3.7083
  53   1.0000      -0.129612        -3.5269
  54   1.0000      -0.126654        -3.4464
  55   1.0000      -0.107483        -2.9248
  56   1.0000      -0.083784        -2.2799
  57   1.0000      -0.070830        -1.9274
  58   1.0000      -0.063529        -1.7287
  59   1.0000      -0.057035        -1.5520
  60   1.0000      -0.052610        -1.4316
  61   1.0000      -0.045825        -1.2470
  62   1.0000      -0.040761        -1.1092
  63   1.0000      -0.036705        -0.9988
  64   1.0000       0.004595         0.1250
  65   1.0000       0.029085         0.7914
  66   1.0000       0.033189         0.9031
  67   1.0000       0.045757         1.2451
  68   1.0000       0.047252         1.2858
  69   1.0000       0.062390         1.6977
  70   1.0000       0.069122         1.8809
  71   1.0000       0.076525         2.0823
  72   0.0000       0.229977         6.2580
  73   0.0000       0.246152         6.6981
  74   0.0000       0.251430         6.8418
  75   0.0000       0.259764         7.0685
  76   0.0000       0.263502         7.1702

MULLIKEN ATOMIC CHARGES AND SPIN POPULATIONS
--------------------------------------------
   0 V :    0.518887    1.190588
   1 S :   -0.427482   -0.000563
   2 S :   -0.310315   -0.032532
   3 S :   -0.406940   -0.029577
   4 S :   -0.386499   -0.023397
   5 O :   -0.547033   -0.133318
   6 C :   -0.206886    0.006511
   7 C :   -0.196392    0.008489
   8 C :   -0.142905    0.001746
   9 H :    0.075193   -0.001547
  10 H :    0.055604    0.002145
  11 H :    0.133687    0.000928
  12 H :    0.010220   -0.000107
  13 H :    0.012062    0.000329
  14 H :   -0.000867   -0.000596
  15 C :   -0.257488   -0.002282
  16 C :   -0.249131    0.003525
  17 C :   -0.073536    0.008168
  18 H :    0.046158   -0.000139
  19 H :    0.129295   -0.000268
  20 H :    0.015535    0.001650
  21 H :    0.010483    0.000246
  22 H :    0.053519   -0.000510
  23 H :    0.144830    0.000511
Sum of atomic charges         :   -2.0000000

LOEWDIN ATOMIC CHARGES AND SPIN POPULATIONS
-------------------------------------------
   0 V :   -0.210516    1.147482
   1 S :   -0.073014    0.004543
   2 S :   -0.019811   -0.021945
   3 S :   -0.057735   -0.020650
   4 S :   -0.068054   -0.013289
   5 O :   -0.378339   -0.120016
   6 C :   -0.372483    0.005029
   7 C :   -0.315782    0.007501
   8 C :   -0.189235    0.000463
   9 H :    0.049465    0.000012
  10 H :    0.043277    0.000514
  11 H :    0.072029    0.000229
  12 H :    0.035255    0.000149
  13 H :    0.043744   -0.000020
  14 H :    0.032480   -0.001143
  15 C :   -0.315958    0.002714
  16 C :   -0.325235    0.007250
  17 C :   -0.189437    0.001206
  18 H :    0.027929   -0.000224
  19 H :    0.053335   -0.000620
  20 H :    0.034445    0.000632
  21 H :    0.032948    0.000389
  22 H :    0.031992   -0.000568
  23 H :    0.058699    0.000364

  Mayer bond orders larger than 0.100000
B(  0-V ,  1-S ) :   0.7094 B(  0-V ,  2-S ) :   0.8514 B(  0-V ,  3-S ) :   0.7711
B(  0-V ,  4-S ) :   0.7888 B(  0-V ,  5-O ) :   2.0680 B(  1-S , 15-C ) :   1.0324
B(  2-S ,  6-C ) :   1.0436 B(  3-S , 16-C ) :   1.0210 B(  4-S ,  7-C ) :   1.1021
B(  4-S ,  8-C ) :  -0.1154 B(  6-C ,  8-C ) :   0.9881 B(  6-C , 13-H ) :   0.9028
B(  6-C , 14-H ) :   0.9177 B(  7-C ,  8-C ) :   0.8961 B(  7-C ,  9-H ) :   0.9686
B(  7-C , 10-H ) :   0.9714 B(  8-C , 11-H ) :   0.9889 B(  8-C , 12-H ) :   0.9392
B( 15-C , 17-C ) :   0.8931 B( 15-C , 22-H ) :   0.9693 B( 15-C , 23-H ) :   0.9779
B( 16-C , 17-C ) :   0.9073 B( 16-C , 18-H ) :   0.9617 B( 16-C , 19-H ) :   0.9769
B( 17-C , 20-H ) :   0.9574 B( 17-C , 21-H ) :   0.9576

FINAL SINGLE POINT ENERGY     -2847.650324920698

DIPOLE MOMENT
-------------
                                X             Y             Z
Electronic contribution:     -6.47262      -1.59758      -0.32397
Nuclear contribution   :      6.81003       1.75775       0.21086
                        -----------------------------------------
Total Dipole Moment    :      0.33742       0.16017      -0.11310
                        -----------------------------------------
Magnitude (a.u.)       :      0.39025
Magnitude (Debye)      :      0.99193

Rotational constants in cm-1:     0.027185     0.011715     0.009603
Rotational constants in MHz :   814.990819   351.197262   287.889459

                             ****ORCA TERMINATED NORMALLY****
TOTAL RUN TIME: 0 days 0 hours 14 minutes 27 seconds 561 msec
