                         Program Version 5.0.4 -  RELEASE  -
|  1> ! nofrozencore ReducedPop printbasis
|  2> ! B3LYP TZVP
|  3>
|  4> %basis
|  5> newgto V "CP(PPP)" end
|  6> end
|  7>
|  8> %pal
|  9> nprocs 8
| 10> end
| 11>
| 12> % sym SymThresh 1e-2 end
| 13> * xyz -2 2
| 14> V -0.23256161686925614 -0.41480864952038315 -0.1562808233764887
| 15> S -2.337369061559368 0.9644052268755724 -0.03535679558662694
| 16> S 0.5206134890272779 1.3446220014281978 -1.7535323269238787
| 17> S -0.1393910364011982 -0.7023661538530228 2.271868968490197
| 18> S 2.2280833330353413 -0.8310218494134638 0.08578196077002896
| 19> O -0.935413877128974 -1.7226454971388636 -0.7825019504395743
| 20> C 2.116422492541325 0.905501689121697 -2.6207711470855135
| 21> C 2.9752775599109946 -1.2551541947302483 -1.5576853403335793
| 22> C 2.3534921346409776 -0.596135679818544 -2.7911163429495978
| 23> H 2.959975986166443 -2.344679155821946 -1.6879826571327896
| 24> H 4.030014838667659 -0.955587056722894 -1.4961128265301902
| 25> H 1.3993010274871638 -1.0743797878134407 -3.0312633661015522
| 26> H 3.029176941107683 -0.7739623268363731 -3.648851133492366
| 27> H 2.9767320360151985 1.3518044594411385 -2.085799241198889
| 28> H 2.0537407980233624 1.383180088050554 -3.6144801637856343
| 29> C -2.013266012583547 1.8943401763152559 1.5285809985292993
| 30> C -1.8781254794957873 -0.36615808849906123 2.8021682503947605
| 31> C -2.2989085406170338 1.1065400874535154 2.8192125960667505
| 32> H -2.001886756435717 -0.781207586375498 3.8104132937843698
| 33> H -2.54167066414926 -0.911467967674078 2.130616379231171
| 34> H -1.7977371612603916 1.6183755102136437 3.65699227409536
| 35> H -3.382748449235806 1.1400262397713758 3.0265470356425137
| 36> H -2.6244712148691036 2.8057719197425253 1.525132782874931
| 37> H -0.9677131231364998 2.209790920314512 1.5192627187928827
| 38> *
| 39>
| 40> % eprnmr
| 41> gtensor true
| 42> Nuclei = all H {aiso,adip,aorb,fgrad,rho}
| 43> Nuclei = all V {aiso,adip,aorb,fgrad,rho}
| 44> end
| 45>
| 46>                          ****END OF INPUT****

CARTESIAN COORDINATES (ANGSTROEM)
---------------------------------
  V     -0.233049   -0.415377   -0.156375
  S     -2.337857    0.963837   -0.035451
  S      0.520126    1.344053   -1.753626
  S     -0.139879   -0.702935    2.271775
  S      2.227596   -0.831590    0.085688
  O     -0.935901   -1.723214   -0.782596
  C      2.115935    0.904933   -2.620865
  C      2.974790   -1.255723   -1.557779
  C      2.353005   -0.596704   -2.791210
  H      2.959488   -2.345248   -1.688077
  H      4.029527   -0.956156   -1.496207
  H      1.398813   -1.074948   -3.031357
  H      3.028689   -0.774531   -3.648945
  H      2.976244    1.351236   -2.085893
  H      2.053253    1.382612   -3.614574
  C     -2.013754    1.893772    1.528487
  C     -1.878613   -0.366727    2.802074
  C     -2.299396    1.105972    2.819119
  H     -2.002374   -0.781776    3.810319
  H     -2.542158   -0.912037    2.130522
  H     -1.798225    1.617807    3.656898
  H     -3.383236    1.139458    3.026453
  H     -2.624959    2.805203    1.525039
  H     -0.968201    2.209222    1.519169

 Total Charge           Charge          ....   -2
 Multiplicity           Mult            ....    2
 Number of Electrons    NEL             ....  145
 Basis Dimension        Dim             ....  353

ORBITAL ENERGIES
----------------
                 SPIN UP ORBITALS
  NO   OCC          E(Eh)            E(eV)
   0   1.0000    -196.608933     -5350.0011
   1   1.0000     -88.564062     -2409.9507
   2   1.0000     -88.559521     -2409.8271
   3   1.0000     -88.558406     -2409.7967
   4   1.0000     -88.556906     -2409.7559
   5   1.0000     -21.984073      -598.2170
   6   1.0000     -18.824190      -512.2323
   7   1.0000     -18.491800      -503.1875
   8   1.0000     -18.484700      -502.9943
   9   1.0000     -18.484676      -502.9936
  10   1.0000      -9.942953      -270.5615
  11   1.0000      -9.940174      -270.4859
  12   1.0000      -9.935601      -270.3614
  13   1.0000      -9.935100      -270.3478
  14   1.0000      -9.932852      -270.2867
  15   1.0000      -9.931727      -270.2560
  16   1.0000      -7.618381      -207.3067
  17   1.0000      -7.613016      -207.1607
  18   1.0000      -7.612754      -207.1536
  19   1.0000      -7.611209      -207.1115
  20   1.0000      -5.583526      -151.9355
  21   1.0000      -5.578562      -151.8004
  22   1.0000      -5.578012      -151.7854
  23   1.0000      -5.577407      -151.7689
  24   1.0000      -5.576698      -151.7497
  25   1.0000      -5.575588      -151.7195
  26   1.0000      -5.571996      -151.6217
  27   1.0000      -5.571872      -151.6183
  28   1.0000      -5.570296      -151.5755
  29   1.0000      -5.570111      -151.5704
  30   1.0000      -5.569741      -151.5604
  31   1.0000      -5.567999      -151.5130
  32   1.0000      -2.376330       -64.6632
  33   1.0000      -1.418109       -38.5887
  34   1.0000      -1.404563       -38.2201
  35   1.0000      -1.404113       -38.2079
  36   1.0000      -0.586085       -15.9482
  37   1.0000      -0.552885       -15.0448
  38   1.0000      -0.550489       -14.9796
  39   1.0000      -0.468520       -12.7491
  40   1.0000      -0.466715       -12.7000
  41   1.0000      -0.404734       -11.0134
  42   1.0000      -0.397292       -10.8109
  43   1.0000      -0.338593        -9.2136
  44   1.0000      -0.325973        -8.8702
  45   1.0000      -0.305080        -8.3017
  46   1.0000      -0.286462        -7.7950
  47   1.0000      -0.214102        -5.8260
  48   1.0000      -0.209210        -5.6929
  49   1.0000      -0.202849        -5.5198
  50   1.0000      -0.197985        -5.3874
  51   1.0000      -0.162691        -4.4270
  52   1.0000      -0.133969        -3.6455
  53   1.0000      -0.132237        -3.5983
  54   1.0000      -0.111263        -3.0276
  55   1.0000      -0.109710        -2.9854
  56   1.0000      -0.107036        -2.9126
  57   1.0000      -0.082333        -2.2404
  58   1.0000      -0.068125        -1.8538
  59   1.0000      -0.062967        -1.7134
  60   1.0000      -0.058154        -1.5824
  61   1.0000      -0.045272        -1.2319
  62   1.0000      -0.040522        -1.1027
  63   1.0000      -0.033063        -0.8997
  64   1.0000      -0.000104        -0.0028
  65   1.0000       0.024272         0.6605
  66   1.0000       0.028173         0.7666
  67   1.0000       0.036668         0.9978
  68   1.0000       0.047423         1.2904
  69   1.0000       0.052849         1.4381
  70   1.0000       0.064798         1.7632
  71   1.0000       0.076255         2.0750
  72   1.0000       0.082696         2.2503
  73   0.0000       0.231643         6.3033
  74   0.0000       0.242787         6.6066
  75   0.0000       0.247193         6.7265
  76   0.0000       0.250706         6.8221
  77   0.0000       0.257589         7.0094

                 SPIN DOWN ORBITALS
  NO   OCC          E(Eh)            E(eV)
   0   1.0000    -196.609073     -5350.0049
   1   1.0000     -88.564227     -2409.9551
   2   1.0000     -88.559696     -2409.8318
   3   1.0000     -88.558389     -2409.7963
   4   1.0000     -88.557037     -2409.7595
   5   1.0000     -21.968902      -597.8042
   6   1.0000     -18.827767      -512.3296
   7   1.0000     -18.486488      -503.0429
   8   1.0000     -18.468546      -502.5547
   9   1.0000     -18.468110      -502.5428
  10   1.0000      -9.942793      -270.5571
  11   1.0000      -9.940082      -270.4834
  12   1.0000      -9.935523      -270.3593
  13   1.0000      -9.934885      -270.3420
  14   1.0000      -9.932814      -270.2856
  15   1.0000      -9.931747      -270.2566
  16   1.0000      -7.618537      -207.3109
  17   1.0000      -7.613187      -207.1654
  18   1.0000      -7.612739      -207.1532
  19   1.0000      -7.611334      -207.1149
  20   1.0000      -5.583687      -151.9399
  21   1.0000      -5.578717      -151.8046
  22   1.0000      -5.578036      -151.7861
  23   1.0000      -5.577848      -151.7810
  24   1.0000      -5.576835      -151.7534
  25   1.0000      -5.575699      -151.7225
  26   1.0000      -5.572352      -151.6314
  27   1.0000      -5.572322      -151.6306
  28   1.0000      -5.570729      -151.5872
  29   1.0000      -5.570255      -151.5743
  30   1.0000      -5.569288      -151.5480
  31   1.0000      -5.567996      -151.5129
  32   1.0000      -2.331020       -63.4303
  33   1.0000      -1.398580       -38.0573
  34   1.0000      -1.342587       -36.5337
  35   1.0000      -1.340882       -36.4873
  36   1.0000      -0.593857       -16.1597
  37   1.0000      -0.552830       -15.0433
  38   1.0000      -0.550303       -14.9745
  39   1.0000      -0.468361       -12.7448
  40   1.0000      -0.466720       -12.7001
  41   1.0000      -0.404775       -11.0145
  42   1.0000      -0.397520       -10.8171
  43   1.0000      -0.338730        -9.2173
  44   1.0000      -0.326482        -8.8840
  45   1.0000      -0.305147        -8.3035
  46   1.0000      -0.286441        -7.7945
  47   1.0000      -0.214012        -5.8236
  48   1.0000      -0.209175        -5.6919
  49   1.0000      -0.202686        -5.5154
  50   1.0000      -0.197865        -5.3842
  51   1.0000      -0.162638        -4.4256
  52   1.0000      -0.133779        -3.6403
  53   1.0000      -0.131884        -3.5888
  54   1.0000      -0.111277        -3.0280
  55   1.0000      -0.109625        -2.9830
  56   1.0000      -0.106953        -2.9104
  57   1.0000      -0.080947        -2.2027
  58   1.0000      -0.066564        -1.8113
  59   1.0000      -0.062032        -1.6880
  60   1.0000      -0.057779        -1.5722
  61   1.0000      -0.045840        -1.2474
  62   1.0000      -0.041356        -1.1254
  63   1.0000      -0.035148        -0.9564
  64   1.0000       0.004823         0.1312
  65   1.0000       0.025679         0.6988
  66   1.0000       0.031355         0.8532
  67   1.0000       0.044284         1.2050
  68   1.0000       0.047923         1.3041
  69   1.0000       0.062763         1.7079
  70   1.0000       0.066542         1.8107
  71   1.0000       0.081257         2.2111
  72   0.0000       0.232896         6.3374
  73   0.0000       0.248182         6.7534
  74   0.0000       0.252409         6.8684
  75   0.0000       0.258510         7.0344
  76   0.0000       0.262617         7.1462

MULLIKEN ATOMIC CHARGES AND SPIN POPULATIONS
--------------------------------------------
   0 V :    0.513366    1.201470
   1 S :   -0.420173   -0.003415
   2 S :   -0.361583   -0.032107
   3 S :   -0.391776   -0.030838
   4 S :   -0.380510   -0.024748
   5 O :   -0.549834   -0.137825
   6 C :   -0.221475    0.004645
   7 C :   -0.232562    0.006024
   8 C :   -0.168029    0.002601
   9 H :    0.075925   -0.000735
  10 H :    0.052090    0.001130
  11 H :    0.128119    0.000202
  12 H :    0.004810   -0.000133
  13 H :    0.073378   -0.000159
  14 H :    0.052312   -0.000471
  15 C :   -0.259462   -0.001727
  16 C :   -0.247799    0.005158
  17 C :   -0.073837    0.008085
  18 H :    0.047710    0.000594
  19 H :    0.135128   -0.000226
  20 H :    0.018408    0.001676
  21 H :    0.012214    0.000552
  22 H :    0.052294   -0.000376
  23 H :    0.141285    0.000625
Sum of atomic charges         :   -2.0000000

LOEWDIN ATOMIC CHARGES AND SPIN POPULATIONS
-------------------------------------------
   0 V :   -0.202425    1.157730
   1 S :   -0.067153    0.002787
   2 S :   -0.061596   -0.023157
   3 S :   -0.039745   -0.020670
   4 S :   -0.068863   -0.016329
   5 O :   -0.383834   -0.124696
   6 C :   -0.323540    0.003560
   7 C :   -0.316529    0.006219
   8 C :   -0.186831    0.000297
   9 H :    0.034465   -0.000027
  10 H :    0.030227    0.000161
  11 H :    0.067480    0.000265
  12 H :    0.031430    0.000194
  13 H :    0.042268   -0.000048
  14 H :    0.029684   -0.000624
  15 C :   -0.319122    0.003522
  16 C :   -0.323940    0.008907
  17 C :   -0.187540    0.000935
  18 H :    0.028902    0.000151
  19 H :    0.056338   -0.000496
  20 H :    0.037678    0.000636
  21 H :    0.035472    0.000524
  22 H :    0.030694   -0.000466
  23 H :    0.056479    0.000624

  Mayer bond orders larger than 0.100000
B(  0-V ,  1-S ) :   0.7273 B(  0-V ,  2-S ) :   0.8236 B(  0-V ,  3-S ) :   0.8162
B(  0-V ,  4-S ) :   0.7659 B(  0-V ,  5-O ) :   2.0714 B(  1-S , 15-C ) :   1.0319
B(  2-S ,  6-C ) :   1.0118 B(  3-S , 16-C ) :   1.0097 B(  4-S ,  7-C ) :   1.0753
B(  6-C ,  8-C ) :   0.9169 B(  6-C , 13-H ) :   0.9646 B(  6-C , 14-H ) :   0.9709
B(  7-C ,  8-C ) :   0.9215 B(  7-C ,  9-H ) :   0.9755 B(  7-C , 10-H ) :   0.9693
B(  8-C , 11-H ) :   0.9856 B(  8-C , 12-H ) :   0.9451 B( 15-C , 17-C ) :   0.8943
B( 15-C , 22-H ) :   0.9662 B( 15-C , 23-H ) :   0.9817 B( 16-C , 17-C ) :   0.9044
B( 16-C , 18-H ) :   0.9612 B( 16-C , 19-H ) :   0.9755 B( 17-C , 20-H ) :   0.9593
B( 17-C , 21-H ) :   0.9593

FINAL SINGLE POINT ENERGY     -2847.712855897473

DIPOLE MOMENT
-------------
                                X             Y             Z
Electronic contribution:     -3.67022      -5.06003      -0.81124
Nuclear contribution   :      3.98941       5.30716       0.79193
                        -----------------------------------------
Total Dipole Moment    :      0.31919       0.24712      -0.01931
                        -----------------------------------------
Magnitude (a.u.)       :      0.40413
Magnitude (Debye)      :      1.02723

Rotational constants in cm-1:     0.027161     0.011565     0.009575
Rotational constants in MHz :   814.269804   346.713334   287.037245

                             ****ORCA TERMINATED NORMALLY****
TOTAL RUN TIME: 0 days 0 hours 9 minutes 39 seconds 235 msec
