                         Program Version 5.0.4 -  RELEASE  -
|  1> ! nofrozencore ReducedPop printbasis
|  2> ! B3LYP TZVP
|  3>
|  4> %basis
|  5> newgto V "CP(PPP)" end
|  6> end
|  7>
|  8> %pal
|  9> nprocs 8
| 10> end
| 11>
| 12> % sym SymThresh 1e-2 end
| 13> * xyz -2 2
| 14> V -0.1074441222633464 -0.3522965261371639 -0.42787456679352376
| 15> S -2.1936155537072053 -0.5543818645358908 1.1995440385719647
| 16> S -1.0698523351216014 2.0375754876867838 -0.6035544684813647
| 17> S 1.2884184251271422 -1.5690112663994993 1.351295450318077
| 18> S 2.2888459756196973 0.5196762972896933 -0.9824876093986075
| 19> O -0.6817850426089608 -1.2710424704097727 -1.6167811610225176
| 20> C 0.010455116350105332 2.9902912070002445 -1.7778305065025537
| 21> C 1.9151482038213565 1.3252397885613996 -2.631719838915147
| 22> C 0.5890511501128743 2.092500401772605 -2.8789154112813358
| 23> H 1.9682163191089668 0.5453783300889649 -3.417589899715956
| 24> H 2.7633410458975898 2.0182007438152922 -2.8204309226205155
| 25> H -0.1955425440428166 1.3766842323951398 -3.143963870486248
| 26> H 0.7746422497169395 2.700583191074451 -3.785909416503334
| 27> H 0.8136072119990266 3.507262734850873 -1.232049944338113
| 28> H -0.6277533891518451 3.759315344253386 -2.241496632416479
| 29> C -1.3573880244645313 -0.4265376088892877 2.8490262528297783
| 30> C 0.025500371071983614 -2.5355929514463442 2.305363094869832
| 31> C -0.7400343126047927 -1.735762075896436 3.362264144748185
| 32> H 0.5390961229535879 -3.3777017859267024 2.788755750999713
| 33> H -0.6922674960369488 -2.941805899480913 1.5913150459060672
| 34> H -0.06684786367062905 -1.4994098313353774 4.201375727225963
| 35> H -1.5397210935898544 -2.3800783540870265 3.763055135509424
| 36> H -2.0905147582868455 -0.06321157994017916 3.5799082366548665
| 37> H -0.5765710922430758 0.3306302339853525 2.768336458203449
| 38> *
| 39>
| 40> % eprnmr
| 41> gtensor true
| 42> Nuclei = all H {aiso,adip,aorb,fgrad,rho}
| 43> Nuclei = all V {aiso,adip,aorb,fgrad,rho}
| 44> end
| 45>
| 46>                          ****END OF INPUT****

CARTESIAN COORDINATES (ANGSTROEM)
---------------------------------
  V     -0.107713   -0.352927   -0.428190
  S     -2.193885   -0.555013    1.199229
  S     -1.070121    2.036945   -0.603870
  S      1.288149   -1.569642    1.350980
  S      2.288577    0.519045   -0.982803
  O     -0.682054   -1.271673   -1.617096
  C      0.010186    2.989660   -1.778146
  C      1.914879    1.324609   -2.632035
  C      0.588782    2.091869   -2.879231
  H      1.967947    0.544747   -3.417905
  H      2.763072    2.017570   -2.820746
  H     -0.195812    1.376053   -3.144279
  H      0.774373    2.699952   -3.786225
  H      0.813338    3.506632   -1.232365
  H     -0.628022    3.758684   -2.241812
  C     -1.357657   -0.427169    2.848711
  C      0.025231   -2.536224    2.305048
  C     -0.740303   -1.736393    3.361949
  H      0.538827   -3.378333    2.788440
  H     -0.692536   -2.942437    1.591000
  H     -0.067117   -1.500041    4.201060
  H     -1.539990   -2.380709    3.762740
  H     -2.090784   -0.063843    3.579593
  H     -0.576840    0.329999    2.768021

 Total Charge           Charge          ....   -2
 Multiplicity           Mult            ....    2
 Number of Electrons    NEL             ....  145
 Basis Dimension        Dim             ....  353

ORBITAL ENERGIES
----------------
                 SPIN UP ORBITALS
  NO   OCC          E(Eh)            E(eV)
   0   1.0000    -196.628165     -5350.5244
   1   1.0000     -88.568176     -2410.0626
   2   1.0000     -88.567188     -2410.0357
   3   1.0000     -88.564724     -2409.9687
   4   1.0000     -88.561098     -2409.8700
   5   1.0000     -22.001876      -598.7015
   6   1.0000     -18.839781      -512.6565
   7   1.0000     -18.509737      -503.6755
   8   1.0000     -18.502544      -503.4798
   9   1.0000     -18.502460      -503.4775
  10   1.0000      -9.949612      -270.7427
  11   1.0000      -9.941390      -270.5190
  12   1.0000      -9.936057      -270.3739
  13   1.0000      -9.934976      -270.3444
  14   1.0000      -9.933694      -270.3095
  15   1.0000      -9.932617      -270.2802
  16   1.0000      -7.621175      -207.3827
  17   1.0000      -7.620677      -207.3692
  18   1.0000      -7.617750      -207.2895
  19   1.0000      -7.614578      -207.2032
  20   1.0000      -5.586600      -152.0191
  21   1.0000      -5.585788      -151.9970
  22   1.0000      -5.583172      -151.9258
  23   1.0000      -5.580558      -151.8547
  24   1.0000      -5.579942      -151.8379
  25   1.0000      -5.579758      -151.8329
  26   1.0000      -5.578017      -151.7856
  27   1.0000      -5.577846      -151.7809
  28   1.0000      -5.576927      -151.7559
  29   1.0000      -5.574710      -151.6956
  30   1.0000      -5.574167      -151.6808
  31   1.0000      -5.571449      -151.6068
  32   1.0000      -2.393217       -65.1227
  33   1.0000      -1.434646       -39.0387
  34   1.0000      -1.420818       -38.6624
  35   1.0000      -1.420607       -38.6567
  36   1.0000      -0.600892       -16.3511
  37   1.0000      -0.551035       -14.9944
  38   1.0000      -0.548611       -14.9285
  39   1.0000      -0.471937       -12.8421
  40   1.0000      -0.466481       -12.6936
  41   1.0000      -0.403380       -10.9765
  42   1.0000      -0.397309       -10.8113
  43   1.0000      -0.339007        -9.2249
  44   1.0000      -0.330398        -8.9906
  45   1.0000      -0.302378        -8.2281
  46   1.0000      -0.286105        -7.7853
  47   1.0000      -0.213368        -5.8060
  48   1.0000      -0.204279        -5.5587
  49   1.0000      -0.204033        -5.5520
  50   1.0000      -0.198940        -5.4134
  51   1.0000      -0.163914        -4.4603
  52   1.0000      -0.133541        -3.6338
  53   1.0000      -0.131774        -3.5858
  54   1.0000      -0.114603        -3.1185
  55   1.0000      -0.109376        -2.9763
  56   1.0000      -0.105457        -2.8696
  57   1.0000      -0.081010        -2.2044
  58   1.0000      -0.076204        -2.0736
  59   1.0000      -0.068629        -1.8675
  60   1.0000      -0.060164        -1.6371
  61   1.0000      -0.055423        -1.5081
  62   1.0000      -0.044647        -1.2149
  63   1.0000      -0.041163        -1.1201
  64   1.0000       0.000596         0.0162
  65   1.0000       0.025924         0.7054
  66   1.0000       0.029068         0.7910
  67   1.0000       0.030842         0.8392
  68   1.0000       0.040948         1.1143
  69   1.0000       0.049774         1.3544
  70   1.0000       0.060862         1.6561
  71   1.0000       0.068050         1.8517
  72   1.0000       0.072209         1.9649
  73   0.0000       0.216790         5.8992
  74   0.0000       0.226651         6.1675
  75   0.0000       0.228092         6.2067
  76   0.0000       0.240705         6.5499
  77   0.0000       0.249228         6.7818

                 SPIN DOWN ORBITALS
  NO   OCC          E(Eh)            E(eV)
   0   1.0000    -196.628311     -5350.5284
   1   1.0000     -88.568319     -2410.0665
   2   1.0000     -88.567378     -2410.0409
   3   1.0000     -88.564938     -2409.9745
   4   1.0000     -88.561162     -2409.8717
   5   1.0000     -21.986008      -598.2697
   6   1.0000     -18.843668      -512.7623
   7   1.0000     -18.504080      -503.5216
   8   1.0000     -18.485866      -503.0260
   9   1.0000     -18.485019      -503.0030
  10   1.0000      -9.949495      -270.7395
  11   1.0000      -9.941294      -270.5164
  12   1.0000      -9.935943      -270.3708
  13   1.0000      -9.934938      -270.3434
  14   1.0000      -9.933710      -270.3100
  15   1.0000      -9.932585      -270.2794
  16   1.0000      -7.621312      -207.3864
  17   1.0000      -7.620860      -207.3741
  18   1.0000      -7.617956      -207.2951
  19   1.0000      -7.614641      -207.2049
  20   1.0000      -5.586715      -152.0222
  21   1.0000      -5.585943      -152.0012
  22   1.0000      -5.583353      -151.9308
  23   1.0000      -5.581089      -151.8692
  24   1.0000      -5.580468      -151.8523
  25   1.0000      -5.579826      -151.8348
  26   1.0000      -5.577988      -151.7848
  27   1.0000      -5.577982      -151.7846
  28   1.0000      -5.577509      -151.7717
  29   1.0000      -5.574870      -151.6999
  30   1.0000      -5.574684      -151.6949
  31   1.0000      -5.571141      -151.5984
  32   1.0000      -2.345869       -63.8343
  33   1.0000      -1.413937       -38.4752
  34   1.0000      -1.356402       -36.9096
  35   1.0000      -1.354459       -36.8567
  36   1.0000      -0.609366       -16.5817
  37   1.0000      -0.550983       -14.9930
  38   1.0000      -0.548597       -14.9281
  39   1.0000      -0.472052       -12.8452
  40   1.0000      -0.466576       -12.6962
  41   1.0000      -0.403731       -10.9861
  42   1.0000      -0.397707       -10.8222
  43   1.0000      -0.339507        -9.2385
  44   1.0000      -0.331083        -9.0092
  45   1.0000      -0.302508        -8.2317
  46   1.0000      -0.286325        -7.7913
  47   1.0000      -0.213370        -5.8061
  48   1.0000      -0.204257        -5.5581
  49   1.0000      -0.204029        -5.5519
  50   1.0000      -0.198854        -5.4111
  51   1.0000      -0.163879        -4.4594
  52   1.0000      -0.133459        -3.6316
  53   1.0000      -0.131669        -3.5829
  54   1.0000      -0.114617        -3.1189
  55   1.0000      -0.109376        -2.9763
  56   1.0000      -0.105375        -2.8674
  57   1.0000      -0.080305        -2.1852
  58   1.0000      -0.075436        -2.0527
  59   1.0000      -0.068350        -1.8599
  60   1.0000      -0.061575        -1.6755
  61   1.0000      -0.056850        -1.5470
  62   1.0000      -0.045603        -1.2409
  63   1.0000      -0.041431        -1.1274
  64   1.0000       0.003836         0.1044
  65   1.0000       0.029149         0.7932
  66   1.0000       0.033044         0.8992
  67   1.0000       0.040736         1.1085
  68   1.0000       0.043643         1.1876
  69   1.0000       0.059011         1.6058
  70   1.0000       0.066712         1.8153
  71   1.0000       0.068244         1.8570
  72   0.0000       0.226224         6.1559
  73   0.0000       0.235945         6.4204
  74   0.0000       0.244097         6.6422
  75   0.0000       0.249628         6.7927
  76   0.0000       0.251417         6.8414

MULLIKEN ATOMIC CHARGES AND SPIN POPULATIONS
--------------------------------------------
   0 V :    0.628272    1.246787
   1 S :   -0.445434   -0.016296
   2 S :   -0.381797   -0.040284
   3 S :   -0.427976   -0.033582
   4 S :   -0.412350   -0.029598
   5 O :   -0.547421   -0.148333
   6 C :   -0.233662    0.004705
   7 C :   -0.249306    0.004617
   8 C :   -0.152472    0.002911
   9 H :    0.081041   -0.000527
  10 H :    0.047260    0.002077
  11 H :    0.128896    0.000909
  12 H :    0.005822    0.000329
  13 H :    0.084922   -0.000165
  14 H :    0.051092   -0.000199
  15 C :   -0.265154   -0.002310
  16 C :   -0.262120    0.001245
  17 C :   -0.059558    0.007256
  18 H :    0.048798   -0.000182
  19 H :    0.136681   -0.000302
  20 H :    0.018095    0.001086
  21 H :    0.012243    0.000167
  22 H :    0.052757   -0.000665
  23 H :    0.141368    0.000353
Sum of atomic charges         :   -2.0000000

LOEWDIN ATOMIC CHARGES AND SPIN POPULATIONS
-------------------------------------------
   0 V :   -0.048481    1.207146
   1 S :   -0.106911   -0.011037
   2 S :   -0.084464   -0.030406
   3 S :   -0.089709   -0.026085
   4 S :   -0.115717   -0.020786
   5 O :   -0.373310   -0.135127
   6 C :   -0.323753    0.003783
   7 C :   -0.319688    0.004819
   8 C :   -0.190993    0.000607
   9 H :    0.042298    0.000122
  10 H :    0.029098    0.000724
  11 H :    0.067239    0.000332
  12 H :    0.033355    0.000167
  13 H :    0.042231   -0.000062
  14 H :    0.030059   -0.000554
  15 C :   -0.319823    0.001723
  16 C :   -0.326046    0.004788
  17 C :   -0.189189    0.000823
  18 H :    0.028516   -0.000399
  19 H :    0.055662   -0.000662
  20 H :    0.037098    0.000404
  21 H :    0.035207    0.000318
  22 H :    0.030371   -0.000728
  23 H :    0.056951    0.000090

  Mayer bond orders larger than 0.100000
B(  0-V ,  1-S ) :   0.6773 B(  0-V ,  2-S ) :   0.7982 B(  0-V ,  3-S ) :   0.7536
B(  0-V ,  4-S ) :   0.7305 B(  0-V ,  5-O ) :   2.0818 B(  1-S , 15-C ) :   1.0408
B(  2-S ,  6-C ) :   1.0392 B(  3-S , 16-C ) :   1.0251 B(  4-S ,  7-C ) :   1.0952
B(  6-C ,  8-C ) :   0.9095 B(  6-C , 13-H ) :   0.9670 B(  6-C , 14-H ) :   0.9691
B(  7-C ,  8-C ) :   0.8971 B(  7-C ,  9-H ) :   0.9799 B(  7-C , 10-H ) :   0.9720
B(  8-C , 11-H ) :   0.9922 B(  8-C , 12-H ) :   0.9440 B( 15-C , 17-C ) :   0.8910
B( 15-C , 22-H ) :   0.9686 B( 15-C , 23-H ) :   0.9801 B( 16-C , 17-C ) :   0.8987
B( 16-C , 18-H ) :   0.9644 B( 16-C , 19-H ) :   0.9769 B( 17-C , 20-H ) :   0.9593
B( 17-C , 21-H ) :   0.9580

FINAL SINGLE POINT ENERGY     -2847.706335050734

DIPOLE MOMENT
-------------
                                X             Y             Z
Electronic contribution:     -1.30051      -5.00422      -3.90563
Nuclear contribution   :      1.47940       5.32342       3.84888
                        -----------------------------------------
Total Dipole Moment    :      0.17889       0.31921      -0.05675
                        -----------------------------------------
Magnitude (a.u.)       :      0.37029
Magnitude (Debye)      :      0.94120

Rotational constants in cm-1:     0.024981     0.011494     0.009306
Rotational constants in MHz :   748.909148   344.567662   278.988704

                             ****ORCA TERMINATED NORMALLY****
TOTAL RUN TIME: 0 days 0 hours 9 minutes 39 seconds 842 msec
