                         Program Version 5.0.4 -  RELEASE  -
|  1> ! nofrozencore ReducedPop printbasis
|  2> ! B3LYP TZVP
|  3>
|  4> %basis
|  5> newgto V "CP(PPP)" end
|  6> end
|  7>
|  8> %pal
|  9> nprocs 8
| 10> end
| 11>
| 12> % sym SymThresh 1e-2 end
| 13> * xyz -2 2
| 14> V 0.2185350524591376 0.013102072770344562 -0.4402190016046588
| 15> S 1.4121610469343888 -1.9538708432100318 0.6167255068212207
| 16> S -1.6890507320710082 -1.5117850845456455 -0.2757899523363876
| 17> S 1.4532232881256848 1.5267506319005784 1.0915112286707631
| 18> S -1.3377119115017608 1.9535364561297064 -0.4764206067798655
| 19> O 0.8405835407480385 -0.01761477289475717 -1.9175415328884946
| 20> C -3.1793329016928173 -0.6541977883267753 -0.9786510144790586
| 21> C -2.5347879620670906 1.6757497731552151 -1.8623896249386198
| 22> C -2.875318090302899 0.22330770746948742 -2.204881437687889
| 23> H -2.1678005297422818 2.183847490217644 -2.7632274189845796
| 24> H -3.4570348073198844 2.2113334909194116 -1.596021696953378
| 25> H -2.041248473658005 -0.2270256991808639 -2.7491058149216996
| 26> H -3.7517693900007307 0.23369958661959994 -2.8775822976417853
| 27> H -3.6135676618145434 -0.010609808501833526 -0.20684101830326587
| 28> H -3.857849433834097 -1.4564997275564762 -1.2875273176413975
| 29> C 1.5250398708084547 -1.4277546044363918 2.391971726251215
| 30> C 2.94584149110886 0.583537534604788 1.615232823950126
| 31> C 2.7122645685040334 -0.49081182973491677 2.6514062167461057
| 32> H 3.786357457298426 1.286550233525149 1.8444166957978847
| 33> H 3.520264994735514 0.22059314347775236 0.7375217541146679
| 34> H 2.770515041749803 -0.09410628722766136 3.7155533043917317
| 35> H 3.6647350649604027 -1.0284139117501636 2.9491607050985547
| 36> H 1.8271034617752724 -2.355836213307791 2.925310115468516
| 37> H 0.6672228754495564 -0.7283732027821348 2.505054025102796
| 38> *
| 39>
| 40> % eprnmr
| 41> gtensor true
| 42> Nuclei = all H {aiso,adip,aorb,fgrad,rho}
| 43> Nuclei = all V {aiso,adip,aorb,fgrad,rho}
| 44> end
| 45>
| 46>                          ****END OF INPUT****

CARTESIAN COORDINATES (ANGSTROEM)
---------------------------------
  V      0.219102    0.013071   -0.440717
  S      1.412728   -1.953902    0.616228
  S     -1.688484   -1.511816   -0.276287
  S      1.453790    1.526720    1.091014
  S     -1.337145    1.953505   -0.476918
  O      0.841151   -0.017646   -1.918039
  C     -3.178766   -0.654229   -0.979149
  C     -2.534221    1.675719   -1.862887
  C     -2.874751    0.223277   -2.205379
  H     -2.167233    2.183816   -2.763725
  H     -3.456468    2.211302   -1.596519
  H     -2.040681   -0.227057   -2.749603
  H     -3.751202    0.233668   -2.878080
  H     -3.613001   -0.010641   -0.207339
  H     -3.857282   -1.456531   -1.288025
  C      1.525607   -1.427786    2.391474
  C      2.946409    0.583506    1.614735
  C      2.712832   -0.490843    2.650909
  H      3.786925    1.286519    1.843919
  H      3.520832    0.220562    0.737024
  H      2.771082   -0.094137    3.715056
  H      3.665302   -1.028445    2.948663
  H      1.827671   -2.355867    2.924813
  H      0.667790   -0.728404    2.504556

 Total Charge           Charge          ....   -2
 Multiplicity           Mult            ....    2
 Number of Electrons    NEL             ....  145
 Basis Dimension        Dim             ....  353

ORBITAL ENERGIES
----------------
                 SPIN UP ORBITALS
  NO   OCC          E(Eh)            E(eV)
   0   1.0000    -196.607641     -5349.9659
   1   1.0000     -88.566063     -2410.0051
   2   1.0000     -88.560948     -2409.8659
   3   1.0000     -88.560421     -2409.8516
   4   1.0000     -88.555692     -2409.7229
   5   1.0000     -21.982942      -598.1863
   6   1.0000     -18.825484      -512.2675
   7   1.0000     -18.490726      -503.1582
   8   1.0000     -18.483559      -502.9632
   9   1.0000     -18.483468      -502.9607
  10   1.0000      -9.943324      -270.5716
  11   1.0000      -9.941898      -270.5328
  12   1.0000      -9.940043      -270.4823
  13   1.0000      -9.938527      -270.4411
  14   1.0000      -9.935435      -270.3569
  15   1.0000      -9.928960      -270.1807
  16   1.0000      -7.620180      -207.3556
  17   1.0000      -7.614771      -207.2085
  18   1.0000      -7.614686      -207.2061
  19   1.0000      -7.610225      -207.0848
  20   1.0000      -5.585445      -151.9877
  21   1.0000      -5.580168      -151.8441
  22   1.0000      -5.580129      -151.8430
  23   1.0000      -5.579052      -151.8137
  24   1.0000      -5.577457      -151.7703
  25   1.0000      -5.575439      -151.7154
  26   1.0000      -5.573718      -151.6686
  27   1.0000      -5.573604      -151.6655
  28   1.0000      -5.571973      -151.6211
  29   1.0000      -5.571649      -151.6123
  30   1.0000      -5.569457      -151.5526
  31   1.0000      -5.567236      -151.4922
  32   1.0000      -2.375642       -64.6445
  33   1.0000      -1.418365       -38.5957
  34   1.0000      -1.403759       -38.1982
  35   1.0000      -1.403227       -38.1837
  36   1.0000      -0.587812       -15.9952
  37   1.0000      -0.552553       -15.0357
  38   1.0000      -0.551785       -15.0148
  39   1.0000      -0.469880       -12.7861
  40   1.0000      -0.467751       -12.7281
  41   1.0000      -0.407049       -11.0764
  42   1.0000      -0.398058       -10.8317
  43   1.0000      -0.339456        -9.2371
  44   1.0000      -0.328252        -8.9322
  45   1.0000      -0.304553        -8.2873
  46   1.0000      -0.288548        -7.8518
  47   1.0000      -0.230655        -6.2764
  48   1.0000      -0.210593        -5.7305
  49   1.0000      -0.198530        -5.4023
  50   1.0000      -0.186994        -5.0884
  51   1.0000      -0.159805        -4.3485
  52   1.0000      -0.146802        -3.9947
  53   1.0000      -0.119710        -3.2575
  54   1.0000      -0.115675        -3.1477
  55   1.0000      -0.104003        -2.8301
  56   1.0000      -0.090027        -2.4498
  57   1.0000      -0.081651        -2.2218
  58   1.0000      -0.068850        -1.8735
  59   1.0000      -0.064081        -1.7437
  60   1.0000      -0.047943        -1.3046
  61   1.0000      -0.046999        -1.2789
  62   1.0000      -0.043139        -1.1739
  63   1.0000      -0.032842        -0.8937
  64   1.0000      -0.000825        -0.0225
  65   1.0000       0.027151         0.7388
  66   1.0000       0.029945         0.8148
  67   1.0000       0.035534         0.9669
  68   1.0000       0.045124         1.2279
  69   1.0000       0.052788         1.4364
  70   1.0000       0.062152         1.6913
  71   1.0000       0.071779         1.9532
  72   1.0000       0.081679         2.2226
  73   0.0000       0.232961         6.3392
  74   0.0000       0.245312         6.6753
  75   0.0000       0.246024         6.6947
  76   0.0000       0.249316         6.7842
  77   0.0000       0.251582         6.8459

                 SPIN DOWN ORBITALS
  NO   OCC          E(Eh)            E(eV)
   0   1.0000    -196.607783     -5349.9698
   1   1.0000     -88.566220     -2410.0094
   2   1.0000     -88.561126     -2409.8708
   3   1.0000     -88.560525     -2409.8544
   4   1.0000     -88.555666     -2409.7222
   5   1.0000     -21.967887      -597.7766
   6   1.0000     -18.828975      -512.3625
   7   1.0000     -18.485514      -503.0164
   8   1.0000     -18.467504      -502.5263
   9   1.0000     -18.466997      -502.5125
  10   1.0000      -9.943141      -270.5666
  11   1.0000      -9.941845      -270.5314
  12   1.0000      -9.939866      -270.4775
  13   1.0000      -9.938478      -270.4397
  14   1.0000      -9.935306      -270.3534
  15   1.0000      -9.928979      -270.1813
  16   1.0000      -7.620329      -207.3597
  17   1.0000      -7.614945      -207.2132
  18   1.0000      -7.614783      -207.2088
  19   1.0000      -7.610203      -207.0841
  20   1.0000      -5.585591      -151.9917
  21   1.0000      -5.580336      -151.8487
  22   1.0000      -5.580251      -151.8464
  23   1.0000      -5.579467      -151.8250
  24   1.0000      -5.577576      -151.7735
  25   1.0000      -5.575457      -151.7159
  26   1.0000      -5.574122      -151.6796
  27   1.0000      -5.574064      -151.6780
  28   1.0000      -5.572109      -151.6248
  29   1.0000      -5.571575      -151.6103
  30   1.0000      -5.569803      -151.5621
  31   1.0000      -5.566763      -151.4793
  32   1.0000      -2.330698       -63.4215
  33   1.0000      -1.399315       -38.0773
  34   1.0000      -1.342148       -36.5217
  35   1.0000      -1.340288       -36.4711
  36   1.0000      -0.595299       -16.1989
  37   1.0000      -0.552409       -15.0318
  38   1.0000      -0.551680       -15.0120
  39   1.0000      -0.469820       -12.7845
  40   1.0000      -0.467638       -12.7251
  41   1.0000      -0.407063       -11.0767
  42   1.0000      -0.398235       -10.8365
  43   1.0000      -0.339625        -9.2417
  44   1.0000      -0.328675        -8.9437
  45   1.0000      -0.304509        -8.2861
  46   1.0000      -0.288512        -7.8508
  47   1.0000      -0.230637        -6.2759
  48   1.0000      -0.210537        -5.7290
  49   1.0000      -0.198340        -5.3971
  50   1.0000      -0.186868        -5.0849
  51   1.0000      -0.159664        -4.3447
  52   1.0000      -0.146677        -3.9913
  53   1.0000      -0.119316        -3.2468
  54   1.0000      -0.115662        -3.1473
  55   1.0000      -0.103810        -2.8248
  56   1.0000      -0.089569        -2.4373
  57   1.0000      -0.080318        -2.1856
  58   1.0000      -0.067107        -1.8261
  59   1.0000      -0.063079        -1.7165
  60   1.0000      -0.049654        -1.3511
  61   1.0000      -0.047676        -1.2973
  62   1.0000      -0.043479        -1.1831
  63   1.0000      -0.033392        -0.9087
  64   1.0000       0.003732         0.1015
  65   1.0000       0.028161         0.7663
  66   1.0000       0.032956         0.8968
  67   1.0000       0.042301         1.1511
  68   1.0000       0.045661         1.2425
  69   1.0000       0.060936         1.6582
  70   1.0000       0.070309         1.9132
  71   1.0000       0.072279         1.9668
  72   0.0000       0.232742         6.3332
  73   0.0000       0.242847         6.6082
  74   0.0000       0.254884         6.9358
  75   0.0000       0.255028         6.9397
  76   0.0000       0.263366         7.1666

MULLIKEN ATOMIC CHARGES AND SPIN POPULATIONS
--------------------------------------------
   0 V :    0.515418    1.192534
   1 S :   -0.411587   -0.001857
   2 S :   -0.349947   -0.033497
   3 S :   -0.399812   -0.028834
   4 S :   -0.384280   -0.021544
   5 O :   -0.545168   -0.134787
   6 C :   -0.245633    0.005575
   7 C :   -0.238393    0.006548
   8 C :   -0.159394    0.002946
   9 H :    0.074912   -0.000906
  10 H :    0.050828    0.002181
  11 H :    0.139162    0.000591
  12 H :    0.005668   -0.000046
  13 H :    0.097731   -0.000098
  14 H :    0.050155   -0.000026
  15 C :   -0.260606   -0.001458
  16 C :   -0.215087    0.004404
  17 C :   -0.090204    0.005375
  18 H :    0.031631   -0.000353
  19 H :    0.115782   -0.000638
  20 H :    0.001503    0.002378
  21 H :   -0.010722    0.001266
  22 H :    0.053617   -0.000446
  23 H :    0.174425    0.000693
Sum of atomic charges         :   -2.0000000

LOEWDIN ATOMIC CHARGES AND SPIN POPULATIONS
-------------------------------------------
   0 V :   -0.213146    1.148982
   1 S :   -0.072730    0.003752
   2 S :   -0.037055   -0.023046
   3 S :   -0.049873   -0.019924
   4 S :   -0.062378   -0.012515
   5 O :   -0.376028   -0.121434
   6 C :   -0.326894    0.005135
   7 C :   -0.315294    0.007063
   8 C :   -0.187980    0.000467
   9 H :    0.035348   -0.000013
  10 H :    0.028273    0.000659
  11 H :    0.070170    0.000330
  12 H :    0.031506    0.000148
  13 H :    0.047752   -0.000073
  14 H :    0.029590   -0.000525
  15 C :   -0.323009    0.002551
  16 C :   -0.334098    0.007106
  17 C :   -0.203631    0.001266
  18 H :    0.029055   -0.000339
  19 H :    0.051520   -0.000679
  20 H :    0.029867    0.000772
  21 H :    0.026725    0.000437
  22 H :    0.046089   -0.000508
  23 H :    0.076217    0.000388

  Mayer bond orders larger than 0.100000
B(  0-V ,  1-S ) :   0.7234 B(  0-V ,  2-S ) :   0.8648 B(  0-V ,  3-S ) :   0.7582
B(  0-V ,  4-S ) :   0.7759 B(  0-V ,  5-O ) :   2.0723 B(  1-S , 15-C ) :   1.0633
B(  2-S ,  6-C ) :   1.0128 B(  3-S , 16-C ) :   1.0083 B(  4-S ,  7-C ) :   1.0670
B(  6-C ,  8-C ) :   0.8959 B(  6-C , 13-H ) :   0.9749 B(  6-C , 14-H ) :   0.9701
B(  7-C ,  8-C ) :   0.9231 B(  7-C ,  9-H ) :   0.9760 B(  7-C , 10-H ) :   0.9682
B(  8-C , 11-H ) :   0.9867 B(  8-C , 12-H ) :   0.9456 B( 15-C , 17-C ) :   0.9067
B( 15-C , 22-H ) :   0.9666 B( 15-C , 23-H ) :   0.9567 B( 16-C , 17-C ) :   0.9510
B( 16-C , 18-H ) :   0.9460 B( 16-C , 19-H ) :   0.9739 B( 17-C , 20-H ) :   0.9361
B( 17-C , 21-H ) :   0.9379

FINAL SINGLE POINT ENERGY     -2847.676247922738

DIPOLE MOMENT
-------------
                                X             Y             Z
Electronic contribution:      3.07722      -0.10750      -4.89988
Nuclear contribution   :     -3.47865       0.15916       4.97516
                        -----------------------------------------
Total Dipole Moment    :     -0.40143       0.05166       0.07528
                        -----------------------------------------
Magnitude (a.u.)       :      0.41168
Magnitude (Debye)      :      1.04640

Rotational constants in cm-1:     0.027227     0.011722     0.009596
Rotational constants in MHz :   816.244118   351.427575   287.677043

                             ****ORCA TERMINATED NORMALLY****
TOTAL RUN TIME: 0 days 0 hours 9 minutes 33 seconds 463 msec
