                         Program Version 5.0.4 -  RELEASE  -
|  1> ! nofrozencore ReducedPop printbasis
|  2> ! B3LYP TZVP
|  3>
|  4> %basis
|  5> newgto V "CP(PPP)" end
|  6> end
|  7>
|  8> %pal
|  9> nprocs 4
| 10> end
| 11>
| 12> % sym SymThresh 1e-2 end
| 13> * xyz -2 2
| 14> V -0.1860854050942795 -0.03772933238170862 0.4541055698259254
| 15> S -0.7845793250747806 -2.3070258094675387 -0.5068580669643606
| 16> S 2.146082908442384 -0.8648988220012406 0.19538600529297454
| 17> S -1.9160439024296596 0.9777292634995417 -1.00418247695564
| 18> S 0.643441379967109 2.2569244351446915 0.3083015647622274
| 19> O -0.6748866075514166 -0.2158215126533684 1.9707331353899118
| 20> C 3.130719022937007 0.24176909715426287 0.7327246927015396
| 21> C 2.1406392994861343 2.5312293573304037 1.811698240065719
| 22> C 2.82311939262539 1.1152885533527437 1.9752747157605175
| 23> H 1.5864143380691234 2.769388768256932 2.7354406855874354
| 24> H 2.7706122420715733 3.380890897988732 1.5165072008091736
| 25> H 2.1111018420659713 0.5457090924001968 2.594360747686107
| 26> H 3.8202130784374964 1.1403069956586533 2.5386504891402533
| 27> H 3.4491803832107446 0.9274195343433951 -0.07265998211848201
| 28> H 4.044277971547016 -0.3069149900129743 1.0132379798610445
| 29> C -1.1875980247849018 -1.8891192084420172 -2.2395223159431574
| 30> C -3.086514937600252 -0.38539057897684736 -1.4098972393871134
| 31> C -2.609929812128646 -1.3768359495647033 -2.4689618586479605
| 32> H -4.024471718279849 0.07682485499391999 -1.741076796585895
| 33> H -3.2880898358786137 -0.9338268666812173 -0.48971138952355575
| 34> H -2.651805082441017 -0.9067421693529047 -3.464256730086293
| 35> H -3.3125175881406586 -2.2260662794507047 -2.482900140256811
| 36> H -1.017142582724642 -2.7763482527885333 -2.8614059081016983
| 37> H -0.48452653576496824 -1.125010574697724 -2.5737167241275594
| 38> *
| 39>
| 40> % eprnmr
| 41> gtensor true
| 42> Nuclei = all H {aiso,adip,aorb,fgrad,rho}
| 43> Nuclei = all V {aiso,adip,aorb,fgrad,rho}
| 44> end
| 45>
| 46>                          ****END OF INPUT****

CARTESIAN COORDINATES (ANGSTROEM)
---------------------------------
  V     -0.186584   -0.037917    0.454641
  S     -0.785078   -2.307213   -0.506323
  S      2.145584   -0.865086    0.195921
  S     -1.916542    0.977542   -1.003647
  S      0.642943    2.256737    0.308837
  O     -0.675385   -0.216009    1.971268
  C      3.130220    0.241582    0.733260
  C      2.140141    2.531042    1.812233
  C      2.822621    1.115101    1.975810
  H      1.585916    2.769202    2.735976
  H      2.770114    3.380704    1.517042
  H      2.110603    0.545522    2.594896
  H      3.819715    1.140120    2.539186
  H      3.448682    0.927232   -0.072125
  H      4.043779   -0.307102    1.013773
  C     -1.188097   -1.889306   -2.238987
  C     -3.087014   -0.385578   -1.409362
  C     -2.610428   -1.377023   -2.468427
  H     -4.024970    0.076638   -1.740542
  H     -3.288588   -0.934014   -0.489176
  H     -2.652304   -0.906929   -3.463722
  H     -3.313016   -2.226253   -2.482365
  H     -1.017641   -2.776535   -2.860871
  H     -0.485025   -1.125198   -2.573182

 Total Charge           Charge          ....   -2
 Multiplicity           Mult            ....    2
 Number of Electrons    NEL             ....  145
 Basis Dimension        Dim             ....  353

ORBITAL ENERGIES
----------------
                 SPIN UP ORBITALS
  NO   OCC          E(Eh)            E(eV)
   0   1.0000    -196.606742     -5349.9414
   1   1.0000     -88.570368     -2410.1222
   2   1.0000     -88.561887     -2409.8915
   3   1.0000     -88.554647     -2409.6944
   4   1.0000     -88.545967     -2409.4582
   5   1.0000     -21.982015      -598.1610
   6   1.0000     -18.824499      -512.2407
   7   1.0000     -18.489800      -503.1330
   8   1.0000     -18.482647      -502.9384
   9   1.0000     -18.482547      -502.9357
  10   1.0000      -9.961991      -271.0795
  11   1.0000      -9.938527      -270.4411
  12   1.0000      -9.933201      -270.2961
  13   1.0000      -9.931685      -270.2549
  14   1.0000      -9.930403      -270.2200
  15   1.0000      -9.923205      -270.0241
  16   1.0000      -7.621506      -207.3917
  17   1.0000      -7.616209      -207.2476
  18   1.0000      -7.609395      -207.0622
  19   1.0000      -7.607937      -207.0225
  20   1.0000      -5.587959      -152.0561
  21   1.0000      -5.581371      -151.8768
  22   1.0000      -5.580297      -151.8476
  23   1.0000      -5.578241      -151.7917
  24   1.0000      -5.575234      -151.7098
  25   1.0000      -5.574579      -151.6920
  26   1.0000      -5.573423      -151.6605
  27   1.0000      -5.571999      -151.6218
  28   1.0000      -5.568623      -151.5299
  29   1.0000      -5.566600      -151.4749
  30   1.0000      -5.566440      -151.4705
  31   1.0000      -5.564901      -151.4286
  32   1.0000      -2.374611       -64.6165
  33   1.0000      -1.417252       -38.5654
  34   1.0000      -1.402712       -38.1697
  35   1.0000      -1.402275       -38.1578
  36   1.0000      -0.587145       -15.9770
  37   1.0000      -0.562927       -15.3180
  38   1.0000      -0.552750       -15.0411
  39   1.0000      -0.484844       -13.1933
  40   1.0000      -0.467811       -12.7298
  41   1.0000      -0.404066       -10.9952
  42   1.0000      -0.391615       -10.6564
  43   1.0000      -0.341196        -9.2844
  44   1.0000      -0.331799        -9.0287
  45   1.0000      -0.298035        -8.1099
  46   1.0000      -0.283735        -7.7208
  47   1.0000      -0.214085        -5.8255
  48   1.0000      -0.205532        -5.5928
  49   1.0000      -0.203811        -5.5460
  50   1.0000      -0.195318        -5.3149
  51   1.0000      -0.164048        -4.4640
  52   1.0000      -0.133992        -3.6461
  53   1.0000      -0.131801        -3.5865
  54   1.0000      -0.121199        -3.2980
  55   1.0000      -0.109750        -2.9865
  56   1.0000      -0.107263        -2.9188
  57   1.0000      -0.083699        -2.2776
  58   1.0000      -0.072994        -1.9863
  59   1.0000      -0.063911        -1.7391
  60   1.0000      -0.058281        -1.5859
  61   1.0000      -0.044562        -1.2126
  62   1.0000      -0.038536        -1.0486
  63   1.0000      -0.028025        -0.7626
  64   1.0000       0.002604         0.0709
  65   1.0000       0.027810         0.7567
  66   1.0000       0.030998         0.8435
  67   1.0000       0.037095         1.0094
  68   1.0000       0.045113         1.2276
  69   1.0000       0.055028         1.4974
  70   1.0000       0.067815         1.8453
  71   1.0000       0.075227         2.0470
  72   1.0000       0.081874         2.2279
  73   0.0000       0.230178         6.2634
  74   0.0000       0.243395         6.6231
  75   0.0000       0.246576         6.7097
  76   0.0000       0.250201         6.8083
  77   0.0000       0.257362         7.0032

                 SPIN DOWN ORBITALS
  NO   OCC          E(Eh)            E(eV)
   0   1.0000    -196.606883     -5349.9453
   1   1.0000     -88.570502     -2410.1259
   2   1.0000     -88.562050     -2409.8959
   3   1.0000     -88.554628     -2409.6939
   4   1.0000     -88.546135     -2409.4628
   5   1.0000     -21.967048      -597.7538
   6   1.0000     -18.827908      -512.3334
   7   1.0000     -18.484621      -502.9921
   8   1.0000     -18.466686      -502.5041
   9   1.0000     -18.466172      -502.4901
  10   1.0000      -9.961561      -271.0679
  11   1.0000      -9.938562      -270.4420
  12   1.0000      -9.933031      -270.2915
  13   1.0000      -9.931630      -270.2534
  14   1.0000      -9.930362      -270.2189
  15   1.0000      -9.923117      -270.0217
  16   1.0000      -7.621629      -207.3951
  17   1.0000      -7.616363      -207.2518
  18   1.0000      -7.609379      -207.0617
  19   1.0000      -7.608102      -207.0270
  20   1.0000      -5.588221      -152.0632
  21   1.0000      -5.581520      -151.8809
  22   1.0000      -5.580719      -151.8591
  23   1.0000      -5.578154      -151.7893
  24   1.0000      -5.575662      -151.7215
  25   1.0000      -5.574600      -151.6926
  26   1.0000      -5.573547      -151.6639
  27   1.0000      -5.572154      -151.6260
  28   1.0000      -5.568960      -151.5391
  29   1.0000      -5.567032      -151.4866
  30   1.0000      -5.566002      -151.4586
  31   1.0000      -5.565033      -151.4322
  32   1.0000      -2.329922       -63.4004
  33   1.0000      -1.398318       -38.0502
  34   1.0000      -1.341486       -36.5037
  35   1.0000      -1.339669       -36.4542
  36   1.0000      -0.594421       -16.1750
  37   1.0000      -0.563018       -15.3205
  38   1.0000      -0.552603       -15.0371
  39   1.0000      -0.484577       -13.1860
  40   1.0000      -0.467699       -12.7267
  41   1.0000      -0.404078       -10.9955
  42   1.0000      -0.391608       -10.6562
  43   1.0000      -0.341406        -9.2901
  44   1.0000      -0.332066        -9.0360
  45   1.0000      -0.298104        -8.1118
  46   1.0000      -0.283754        -7.7213
  47   1.0000      -0.214032        -5.8241
  48   1.0000      -0.205469        -5.5911
  49   1.0000      -0.203735        -5.5439
  50   1.0000      -0.195110        -5.3092
  51   1.0000      -0.163876        -4.4593
  52   1.0000      -0.133821        -3.6415
  53   1.0000      -0.131530        -3.5791
  54   1.0000      -0.121090        -3.2950
  55   1.0000      -0.109445        -2.9782
  56   1.0000      -0.107198        -2.9170
  57   1.0000      -0.083246        -2.2652
  58   1.0000      -0.070533        -1.9193
  59   1.0000      -0.062706        -1.7063
  60   1.0000      -0.058531        -1.5927
  61   1.0000      -0.046151        -1.2558
  62   1.0000      -0.040338        -1.0976
  63   1.0000      -0.026881        -0.7315
  64   1.0000       0.007299         0.1986
  65   1.0000       0.029356         0.7988
  66   1.0000       0.035444         0.9645
  67   1.0000       0.044235         1.2037
  68   1.0000       0.045981         1.2512
  69   1.0000       0.065771         1.7897
  70   1.0000       0.070136         1.9085
  71   1.0000       0.075176         2.0456
  72   0.0000       0.222551         6.0559
  73   0.0000       0.249969         6.8020
  74   0.0000       0.254255         6.9186
  75   0.0000       0.258342         7.0298
  76   0.0000       0.261599         7.1185

MULLIKEN ATOMIC CHARGES AND SPIN POPULATIONS
--------------------------------------------
   0 V :    0.512223    1.185661
   1 S :   -0.430619   -0.002589
   2 S :   -0.336180   -0.029785
   3 S :   -0.406227   -0.030085
   4 S :   -0.391451   -0.028244
   5 O :   -0.548635   -0.131702
   6 C :   -0.177802    0.002289
   7 C :   -0.246709    0.025046
   8 C :   -0.167573    0.000118
   9 H :    0.080370   -0.001433
  10 H :    0.062139    0.000987
  11 H :    0.133224    0.000696
  12 H :   -0.007255    0.000266
  13 H :    0.071841    0.000024
  14 H :    0.034448   -0.001894
  15 C :   -0.261338   -0.002498
  16 C :   -0.254647    0.003556
  17 C :   -0.062779    0.008448
  18 H :    0.047640   -0.000040
  19 H :    0.131790   -0.000228
  20 H :    0.014033    0.001551
  21 H :    0.011407    0.000036
  22 H :    0.051752   -0.000639
  23 H :    0.140348    0.000460
Sum of atomic charges         :   -2.0000000

LOEWDIN ATOMIC CHARGES AND SPIN POPULATIONS
-------------------------------------------
   0 V :   -0.213162    1.142039
   1 S :   -0.070792    0.002992
   2 S :    0.065555   -0.020555
   3 S :   -0.055061   -0.020983
   4 S :   -0.116431   -0.017382
   5 O :   -0.379186   -0.118530
   6 C :   -0.414925    0.002242
   7 C :   -0.255815    0.020618
   8 C :   -0.193162   -0.000336
   9 H :    0.046736   -0.000145
  10 H :    0.032951    0.000674
  11 H :    0.072664    0.000246
  12 H :    0.032136    0.000444
  13 H :    0.030556   -0.000181
  14 H :    0.021986   -0.001740
  15 C :   -0.325790    0.002593
  16 C :   -0.327402    0.007086
  17 C :   -0.189080    0.001108
  18 H :    0.028339   -0.000167
  19 H :    0.054297   -0.000628
  20 H :    0.035966    0.000590
  21 H :    0.034781    0.000366
  22 H :    0.029653   -0.000658
  23 H :    0.055186    0.000307

  Mayer bond orders larger than 0.100000
B(  0-V ,  1-S ) :   0.7146 B(  0-V ,  2-S ) :   0.8513 B(  0-V ,  3-S ) :   0.7741
B(  0-V ,  4-S ) :   0.7956 B(  0-V ,  5-O ) :   2.0673 B(  1-S , 15-C ) :   1.0405
B(  2-S ,  6-C ) :   1.1407 B(  3-S , 16-C ) :   1.0211 B(  4-S ,  7-C ) :   0.9769
B(  6-C ,  8-C ) :   0.8543 B(  6-C , 13-H ) :   0.9453 B(  6-C , 14-H ) :   0.9601
B(  7-C ,  8-C ) :   0.9490 B(  7-C ,  9-H ) :   0.9760 B(  7-C , 10-H ) :   0.9580
B(  8-C , 11-H ) :   0.9970 B(  8-C , 12-H ) :   0.9380 B( 15-C , 17-C ) :   0.8923
B( 15-C , 22-H ) :   0.9687 B( 15-C , 23-H ) :   0.9804 B( 16-C , 17-C ) :   0.9035
B( 16-C , 18-H ) :   0.9638 B( 16-C , 19-H ) :   0.9758 B( 17-C , 20-H ) :   0.9584
B( 17-C , 21-H ) :   0.9578

FINAL SINGLE POINT ENERGY     -2847.653485273948

DIPOLE MOMENT
-------------
                                X             Y             Z
Electronic contribution:     -3.28483      -0.61341       4.89217
Nuclear contribution   :      3.66214       0.69887      -5.12206
                        -----------------------------------------
Total Dipole Moment    :      0.37730       0.08546      -0.22989
                        -----------------------------------------
Magnitude (a.u.)       :      0.45001
Magnitude (Debye)      :      1.14384

Rotational constants in cm-1:     0.027147     0.011724     0.009584
Rotational constants in MHz :   813.856332   351.468129   287.308973

                             ****ORCA TERMINATED NORMALLY****
TOTAL RUN TIME: 0 days 0 hours 14 minutes 23 seconds 233 msec
