                         Program Version 5.0.4 -  RELEASE  -
|  1> ! nofrozencore ReducedPop printbasis
|  2> ! B3LYP TZVP
|  3>
|  4> %basis
|  5> newgto V "CP(PPP)" end
|  6> end
|  7>
|  8> %pal
|  9> nprocs 4
| 10> end
| 11>
| 12> % sym SymThresh 1e-2 end
| 13> * xyz -2 2
| 14> V -0.4188649017683543 -0.24843208913060014 -0.06946522847290178
| 15> S -0.44369109669239976 1.2818723727045085 -2.0859859068015796
| 16> S 1.5317855534729081 -1.162296232876753 -1.2314791695644736
| 17> S -0.9027965069088392 1.7153999069925374 1.3699379269113592
| 18> S 0.4577305564576754 -1.1246558479895052 2.087699614196677
| 19> O -1.7174424781505155 -1.1427526904157015 -0.3563066318676807
| 20> C 2.2069767740499904 -2.559572892300832 -0.20810332786538638
| 21> C 0.7568074757387586 -2.9412777702829787 1.8735068903097514
| 22> C 1.1692923693085582 -3.4217445095549843 0.4953792926113243
| 23> H -0.20658131724370882 -3.515765712389005 2.2194359390344394
| 24> H 1.5004572513826409 -3.1949098950200887 2.5161502644311553
| 25> H -0.2665994403240099 -3.4314957694962076 -0.530049948022405
| 26> H 1.4623335664074628 -4.415306388240937 0.5474826139438593
| 27> H 2.8211121478061374 -2.2106422994555444 0.4721630642686314
| 28> H 2.805938485734986 -3.2002555061267923 -0.9219538630269957
| 29> C 0.2926881407160159 2.8317884960921282 -1.3967181198690317
| 30> C -1.6794197528166246 2.970741185525505 0.25458455852989886
| 31> C -0.707687902727014 3.7283933766343607 -0.655689365872186
| 32> H -2.2166075661997 3.6882221740309555 0.8875828980245228
| 33> H -2.4109535225726435 2.4564386929002873 -0.3677486949886929
| 34> H -0.14519483608177927 4.465523633130556 -0.061040030231513324
| 35> H -1.300845800213639 4.294957098737139 -1.392080867120871
| 36> H 0.7450906836691735 3.3952454582853235 -2.2216252212977516
| 37> H 1.0963122801834246 2.54883914533709 -0.716927062218544
| 38> *
| 39>
| 40> % eprnmr
| 41> gtensor true
| 42> Nuclei = all H {aiso,adip,aorb,fgrad,rho}
| 43> Nuclei = all V {aiso,adip,aorb,fgrad,rho}
| 44> end
| 45>
| 46>                          ****END OF INPUT****

CARTESIAN COORDINATES (ANGSTROEM)
---------------------------------
  V     -0.419592   -0.248537   -0.069641
  S     -0.444418    1.281767   -2.086162
  S      1.531059   -1.162401   -1.231655
  S     -0.903523    1.715295    1.369762
  S      0.457004   -1.124761    2.087524
  O     -1.718169   -1.142858   -0.356483
  C      2.206250   -2.559678   -0.208279
  C      0.756081   -2.941383    1.873331
  C      1.168566   -3.421850    0.495203
  H     -0.207308   -3.515871    2.219260
  H      1.499731   -3.195015    2.515974
  H     -0.267326   -3.431601   -0.530226
  H      1.461607   -4.415411    0.547307
  H      2.820385   -2.210747    0.471987
  H      2.805212   -3.200361   -0.922130
  C      0.291961    2.831683   -1.396894
  C     -1.680146    2.970636    0.254409
  C     -0.708415    3.728288   -0.655865
  H     -2.217334    3.688117    0.887407
  H     -2.411680    2.456334   -0.367925
  H     -0.145922    4.465419   -0.061216
  H     -1.301573    4.294852   -1.392257
  H      0.744364    3.395140   -2.221801
  H      1.095586    2.548734   -0.717103

 Total Charge           Charge          ....   -2
 Multiplicity           Mult            ....    2
 Number of Electrons    NEL             ....  145
 Basis Dimension        Dim             ....  353

ORBITAL ENERGIES
----------------
                 SPIN UP ORBITALS
  NO   OCC          E(Eh)            E(eV)
   0   1.0000    -196.607424     -5349.9600
   1   1.0000     -88.562822     -2409.9169
   2   1.0000     -88.562123     -2409.8979
   3   1.0000     -88.561265     -2409.8745
   4   1.0000     -88.558538     -2409.8003
   5   1.0000     -21.982679      -598.1791
   6   1.0000     -18.824559      -512.2423
   7   1.0000     -18.490412      -503.1497
   8   1.0000     -18.483321      -502.9567
   9   1.0000     -18.483248      -502.9547
  10   1.0000      -9.963148      -271.1110
  11   1.0000      -9.946976      -270.6710
  12   1.0000      -9.934892      -270.3421
  13   1.0000      -9.934744      -270.3381
  14   1.0000      -9.933635      -270.3080
  15   1.0000      -9.932536      -270.2781
  16   1.0000      -7.616545      -207.2567
  17   1.0000      -7.616326      -207.2508
  18   1.0000      -7.615594      -207.2308
  19   1.0000      -7.612799      -207.1548
  20   1.0000      -5.582250      -151.9008
  21   1.0000      -5.581507      -151.8805
  22   1.0000      -5.581125      -151.8701
  23   1.0000      -5.578023      -151.7857
  24   1.0000      -5.575315      -151.7120
  25   1.0000      -5.575190      -151.7086
  26   1.0000      -5.574596      -151.6925
  27   1.0000      -5.573598      -151.6653
  28   1.0000      -5.573575      -151.6647
  29   1.0000      -5.572457      -151.6343
  30   1.0000      -5.572033      -151.6227
  31   1.0000      -5.569888      -151.5644
  32   1.0000      -2.375320       -64.6358
  33   1.0000      -1.417861       -38.5820
  34   1.0000      -1.403560       -38.1928
  35   1.0000      -1.402965       -38.1766
  36   1.0000      -0.586621       -15.9628
  37   1.0000      -0.558286       -15.1917
  38   1.0000      -0.551523       -15.0077
  39   1.0000      -0.478304       -13.0153
  40   1.0000      -0.466620       -12.6974
  41   1.0000      -0.404870       -11.0171
  42   1.0000      -0.397236       -10.8093
  43   1.0000      -0.340803        -9.2737
  44   1.0000      -0.332713        -9.0536
  45   1.0000      -0.301942        -8.2163
  46   1.0000      -0.286152        -7.7866
  47   1.0000      -0.216397        -5.8885
  48   1.0000      -0.214718        -5.8428
  49   1.0000      -0.203379        -5.5342
  50   1.0000      -0.190916        -5.1951
  51   1.0000      -0.175408        -4.7731
  52   1.0000      -0.134677        -3.6647
  53   1.0000      -0.132300        -3.6001
  54   1.0000      -0.118149        -3.2150
  55   1.0000      -0.108502        -2.9525
  56   1.0000      -0.087191        -2.3726
  57   1.0000      -0.080373        -2.1871
  58   1.0000      -0.064239        -1.7480
  59   1.0000      -0.057743        -1.5713
  60   1.0000      -0.052170        -1.4196
  61   1.0000      -0.043566        -1.1855
  62   1.0000      -0.037725        -1.0265
  63   1.0000      -0.019638        -0.5344
  64   1.0000      -0.001353        -0.0368
  65   1.0000       0.026835         0.7302
  66   1.0000       0.029664         0.8072
  67   1.0000       0.036240         0.9861
  68   1.0000       0.044011         1.1976
  69   1.0000       0.052194         1.4203
  70   1.0000       0.063505         1.7281
  71   1.0000       0.071862         1.9555
  72   1.0000       0.079857         2.1730
  73   0.0000       0.216550         5.8926
  74   0.0000       0.234690         6.3862
  75   0.0000       0.246726         6.7138
  76   0.0000       0.249546         6.7905
  77   0.0000       0.256881         6.9901

                 SPIN DOWN ORBITALS
  NO   OCC          E(Eh)            E(eV)
   0   1.0000    -196.607568     -5349.9639
   1   1.0000     -88.562998     -2409.9217
   2   1.0000     -88.562284     -2409.9023
   3   1.0000     -88.561365     -2409.8773
   4   1.0000     -88.558505     -2409.7994
   5   1.0000     -21.967615      -597.7692
   6   1.0000     -18.828115      -512.3391
   7   1.0000     -18.485183      -503.0074
   8   1.0000     -18.467218      -502.5186
   9   1.0000     -18.466821      -502.5077
  10   1.0000      -9.963147      -271.1110
  11   1.0000      -9.946801      -270.6662
  12   1.0000      -9.934712      -270.3373
  13   1.0000      -9.934687      -270.3366
  14   1.0000      -9.933514      -270.3047
  15   1.0000      -9.932493      -270.2769
  16   1.0000      -7.616716      -207.2614
  17   1.0000      -7.616478      -207.2549
  18   1.0000      -7.615688      -207.2334
  19   1.0000      -7.612769      -207.1540
  20   1.0000      -5.582417      -151.9053
  21   1.0000      -5.581660      -151.8847
  22   1.0000      -5.581246      -151.8734
  23   1.0000      -5.578036      -151.7861
  24   1.0000      -5.575738      -151.7236
  25   1.0000      -5.575641      -151.7209
  26   1.0000      -5.574988      -151.7031
  27   1.0000      -5.573732      -151.6690
  28   1.0000      -5.573692      -151.6679
  29   1.0000      -5.572382      -151.6322
  30   1.0000      -5.572368      -151.6318
  31   1.0000      -5.569400      -151.5511
  32   1.0000      -2.330338       -63.4117
  33   1.0000      -1.398762       -38.0622
  34   1.0000      -1.341822       -36.5128
  35   1.0000      -1.340083       -36.4655
  36   1.0000      -0.594265       -16.1708
  37   1.0000      -0.558160       -15.1883
  38   1.0000      -0.551361       -15.0033
  39   1.0000      -0.478239       -13.0136
  40   1.0000      -0.466480       -12.6936
  41   1.0000      -0.404898       -11.0178
  42   1.0000      -0.397359       -10.8127
  43   1.0000      -0.341047        -9.2804
  44   1.0000      -0.333026        -9.0621
  45   1.0000      -0.301885        -8.2147
  46   1.0000      -0.286163        -7.7869
  47   1.0000      -0.216329        -5.8866
  48   1.0000      -0.214650        -5.8409
  49   1.0000      -0.203271        -5.5313
  50   1.0000      -0.190790        -5.1917
  51   1.0000      -0.175293        -4.7700
  52   1.0000      -0.134491        -3.6597
  53   1.0000      -0.132024        -3.5926
  54   1.0000      -0.118128        -3.2144
  55   1.0000      -0.108435        -2.9507
  56   1.0000      -0.086400        -2.3511
  57   1.0000      -0.077803        -2.1171
  58   1.0000      -0.063047        -1.7156
  59   1.0000      -0.058077        -1.5804
  60   1.0000      -0.052887        -1.4391
  61   1.0000      -0.044189        -1.2025
  62   1.0000      -0.039511        -1.0751
  63   1.0000      -0.019418        -0.5284
  64   1.0000       0.003020         0.0822
  65   1.0000       0.027617         0.7515
  66   1.0000       0.032835         0.8935
  67   1.0000       0.043481         1.1832
  68   1.0000       0.045811         1.2466
  69   1.0000       0.060440         1.6447
  70   1.0000       0.067630         1.8403
  71   1.0000       0.072782         1.9805
  72   0.0000       0.215001         5.8505
  73   0.0000       0.236872         6.4456
  74   0.0000       0.251445         6.8422
  75   0.0000       0.257432         7.0051
  76   0.0000       0.260730         7.0948

MULLIKEN ATOMIC CHARGES AND SPIN POPULATIONS
--------------------------------------------
   0 V :    0.532004    1.193565
   1 S :   -0.425846   -0.000697
   2 S :   -0.335929   -0.033067
   3 S :   -0.410443   -0.029459
   4 S :   -0.383048   -0.021077
   5 O :   -0.536600   -0.137155
   6 C :   -0.235214    0.005488
   7 C :   -0.231484    0.006993
   8 C :   -0.167536    0.003830
   9 H :    0.067112   -0.000975
  10 H :    0.084633    0.001270
  11 H :   -0.000606    0.000348
  12 H :    0.059862   -0.000211
  13 H :    0.125260    0.000108
  14 H :    0.034625   -0.000345
  15 C :   -0.255662   -0.002273
  16 C :   -0.252279    0.003646
  17 C :   -0.070624    0.008603
  18 H :    0.047771   -0.000064
  19 H :    0.131620   -0.000203
  20 H :    0.015683    0.001648
  21 H :    0.013608    0.000104
  22 H :    0.052653   -0.000582
  23 H :    0.140442    0.000503
Sum of atomic charges         :   -2.0000000

LOEWDIN ATOMIC CHARGES AND SPIN POPULATIONS
-------------------------------------------
   0 V :   -0.219614    1.150184
   1 S :   -0.069483    0.004679
   2 S :   -0.028146   -0.022671
   3 S :   -0.060732   -0.020474
   4 S :   -0.062229   -0.012050
   5 O :   -0.367921   -0.123788
   6 C :   -0.318069    0.004716
   7 C :   -0.318404    0.006803
   8 C :   -0.165481    0.001393
   9 H :    0.049537   -0.000198
  10 H :    0.022673    0.000287
  11 H :    0.039258    0.000050
  12 H :    0.026118    0.000174
  13 H :    0.027645    0.000058
  14 H :    0.034628   -0.000630
  15 C :   -0.317619    0.002742
  16 C :   -0.324559    0.007515
  17 C :   -0.188654    0.001197
  18 H :    0.028521   -0.000184
  19 H :    0.054226   -0.000615
  20 H :    0.036258    0.000634
  21 H :    0.035361    0.000406
  22 H :    0.030516   -0.000603
  23 H :    0.056172    0.000375

  Mayer bond orders larger than 0.100000
B(  0-V ,  1-S ) :   0.7085 B(  0-V ,  2-S ) :   0.8503 B(  0-V ,  3-S ) :   0.7720
B(  0-V ,  4-S ) :   0.7601 B(  0-V ,  5-O ) :   2.0766 B(  1-S , 15-C ) :   1.0241
B(  2-S ,  6-C ) :   0.9931 B(  3-S , 16-C ) :   1.0232 B(  4-S ,  7-C ) :   1.0812
B(  6-C ,  8-C ) :   0.9045 B(  6-C , 13-H ) :   0.9649 B(  6-C , 14-H ) :   0.9744
B(  7-C ,  8-C ) :   0.9158 B(  7-C ,  9-H ) :   0.9752 B(  7-C , 10-H ) :   0.9525
B(  8-C , 11-H ) :   0.9301 B(  8-C , 12-H ) :   0.9491 B( 15-C , 17-C ) :   0.8957
B( 15-C , 22-H ) :   0.9686 B( 15-C , 23-H ) :   0.9793 B( 16-C , 17-C ) :   0.9037
B( 16-C , 18-H ) :   0.9635 B( 16-C , 19-H ) :   0.9763 B( 17-C , 20-H ) :   0.9582
B( 17-C , 21-H ) :   0.9598

FINAL SINGLE POINT ENERGY     -2847.609430056844

DIPOLE MOMENT
-------------
                                X             Y             Z
Electronic contribution:     -4.83506      -1.83348      -0.41860
Nuclear contribution   :      5.53219       1.93688       0.71542
                        -----------------------------------------
Total Dipole Moment    :      0.69713       0.10340       0.29682
                        -----------------------------------------
Magnitude (a.u.)       :      0.76471
Magnitude (Debye)      :      1.94373

Rotational constants in cm-1:     0.027145     0.011712     0.009598
Rotational constants in MHz :   813.776956   351.116986   287.750693

                             ****ORCA TERMINATED NORMALLY****
TOTAL RUN TIME: 0 days 0 hours 14 minutes 31 seconds 206 msec
