                         Program Version 5.0.4 -  RELEASE  -
|  1> ! nofrozencore ReducedPop printbasis
|  2> ! B3LYP TZVP
|  3>
|  4> %basis
|  5> newgto V "CP(PPP)" end
|  6> end
|  7>
|  8> %pal
|  9> nprocs 8
| 10> end
| 11>
| 12> % sym SymThresh 1e-2 end
| 13> * xyz -2 2
| 14> V -0.43651666666084643 -0.22431109235262878 -0.00707200988927215
| 15> S 0.4263098841620023 -0.8101045532272582 -2.313425152097479
| 16> S 1.427469532281066 -1.6368301002987433 0.5987990573725721
| 17> S -0.7416652579387438 2.1200299547811956 -0.7670832940881317
| 18> S -0.37104506404764925 0.950875924904945 2.156321143148914
| 19> O -1.8102118640073765 -1.0501630495137504 0.01594623579154827
| 20> C 1.521372515026084 -1.7511284561878993 2.651336058806803
| 21> C -0.5441221599238515 -0.4398543890809193 3.619590287752476
| 22> C 0.05178158239470477 -1.8320591241292452 3.2208171660256473
| 23> H -1.6229840591955893 -0.5445229098284669 3.7896882264063554
| 24> H -0.08777224862037812 -0.0078081512227517365 4.5195837600015345
| 25> H -0.5681482993163051 -2.1620303472856186 2.3356306005466743
| 26> H -0.11376388143306893 -2.620047994417723 4.038354028752056
| 27> H 2.035941679554826 -0.84992502543039 2.996184916414143
| 28> H 2.130743246353453 -2.6335976087020168 2.874166601454266
| 29> C 1.3430048503984058 0.729131945115891 -2.7799306135340633
| 30> C -0.8708948263397394 2.03321365142643 -2.608848278157409
| 31> C 0.4540837899785385 1.8408449053250282 -3.352828975586231
| 32> H -1.3456834398455464 2.9613615497685326 -2.949776262928931
| 33> H -1.5340289734671504 1.2047971456550153 -2.8578303773052816
| 34> H 1.0221537302698023 2.7843159438463507 -3.343307202695788
| 35> H 0.224150714387988 1.614901108858876 -4.406750557457923
| 36> H 2.113399317509184 0.4630505567441736 -3.512992332332882
| 37> H 1.8531057763213805 1.0968869907713672 -1.889288920021199
| 38> *
| 39>
| 40> % eprnmr
| 41> gtensor true
| 42> Nuclei = all H {aiso,adip,aorb,fgrad,rho}
| 43> Nuclei = all V {aiso,adip,aorb,fgrad,rho}
| 44> end
| 45>
| 46>                          ****END OF INPUT****

CARTESIAN COORDINATES (ANGSTROEM)
---------------------------------
  V     -0.437179   -0.224535   -0.007356
  S      0.425647   -0.810328   -2.313709
  S      1.426807   -1.637054    0.598515
  S     -0.742328    2.119806   -0.767367
  S     -0.371708    0.950652    2.156038
  O     -1.810875   -1.050387    0.015663
  C      1.520710   -1.751352    2.651052
  C     -0.544785   -0.440078    3.619307
  C      0.051119   -1.832283    3.220534
  H     -1.623647   -0.544747    3.789405
  H     -0.088435   -0.008032    4.519300
  H     -0.568811   -2.162254    2.335347
  H     -0.114427   -2.620272    4.038070
  H      2.035279   -0.850149    2.995901
  H      2.130081   -2.633822    2.873883
  C      1.342342    0.728908   -2.780214
  C     -0.871558    2.032990   -2.609132
  C      0.453421    1.840621   -3.353113
  H     -1.346346    2.961138   -2.950060
  H     -1.534692    1.204573   -2.858114
  H      1.021491    2.784092   -3.343591
  H      0.223488    1.614677   -4.407034
  H      2.112737    0.462827   -3.513276
  H      1.852443    1.096663   -1.889573

 Total Charge           Charge          ....   -2
 Multiplicity           Mult            ....    2
 Number of Electrons    NEL             ....  145
 Basis Dimension        Dim             ....  353

ORBITAL ENERGIES
----------------
                 SPIN UP ORBITALS
  NO   OCC          E(Eh)            E(eV)
   0   1.0000    -196.607123     -5349.9518
   1   1.0000     -88.569038     -2410.0861
   2   1.0000     -88.566748     -2410.0237
   3   1.0000     -88.561997     -2409.8945
   4   1.0000     -88.560314     -2409.8487
   5   1.0000     -21.982717      -598.1801
   6   1.0000     -18.824905      -512.2517
   7   1.0000     -18.490422      -503.1500
   8   1.0000     -18.483370      -502.9581
   9   1.0000     -18.483277      -502.9555
  10   1.0000      -9.954333      -270.8712
  11   1.0000      -9.946543      -270.6592
  12   1.0000      -9.944585      -270.6059
  13   1.0000      -9.935411      -270.3563
  14   1.0000      -9.934901      -270.3424
  15   1.0000      -9.932933      -270.2888
  16   1.0000      -7.620388      -207.3613
  17   1.0000      -7.618679      -207.3148
  18   1.0000      -7.616224      -207.2480
  19   1.0000      -7.614538      -207.2021
  20   1.0000      -5.586563      -152.0181
  21   1.0000      -5.584825      -151.9708
  22   1.0000      -5.581436      -151.8786
  23   1.0000      -5.579725      -151.8320
  24   1.0000      -5.578997      -151.8122
  25   1.0000      -5.577575      -151.7735
  26   1.0000      -5.577474      -151.7708
  27   1.0000      -5.575453      -151.7158
  28   1.0000      -5.575217      -151.7094
  29   1.0000      -5.573751      -151.6695
  30   1.0000      -5.573429      -151.6607
  31   1.0000      -5.571692      -151.6134
  32   1.0000      -2.375300       -64.6352
  33   1.0000      -1.417832       -38.5812
  34   1.0000      -1.403650       -38.1953
  35   1.0000      -1.402950       -38.1762
  36   1.0000      -0.587531       -15.9875
  37   1.0000      -0.551974       -15.0200
  38   1.0000      -0.530556       -14.4372
  39   1.0000      -0.467149       -12.7118
  40   1.0000      -0.445082       -12.1113
  41   1.0000      -0.403999       -10.9934
  42   1.0000      -0.378312       -10.2944
  43   1.0000      -0.340750        -9.2723
  44   1.0000      -0.330233        -8.9861
  45   1.0000      -0.314452        -8.5567
  46   1.0000      -0.287019        -7.8102
  47   1.0000      -0.215119        -5.8537
  48   1.0000      -0.203933        -5.5493
  49   1.0000      -0.201481        -5.4826
  50   1.0000      -0.190952        -5.1961
  51   1.0000      -0.158180        -4.3043
  52   1.0000      -0.134796        -3.6680
  53   1.0000      -0.132704        -3.6111
  54   1.0000      -0.112737        -3.0677
  55   1.0000      -0.108889        -2.9630
  56   1.0000      -0.098701        -2.6858
  57   1.0000      -0.076025        -2.0687
  58   1.0000      -0.066643        -1.8135
  59   1.0000      -0.062140        -1.6909
  60   1.0000      -0.051054        -1.3892
  61   1.0000      -0.045275        -1.2320
  62   1.0000      -0.036161        -0.9840
  63   1.0000      -0.031123        -0.8469
  64   1.0000      -0.002756        -0.0750
  65   1.0000       0.025138         0.6840
  66   1.0000       0.028133         0.7655
  67   1.0000       0.036334         0.9887
  68   1.0000       0.043535         1.1846
  69   1.0000       0.051499         1.4014
  70   1.0000       0.062376         1.6973
  71   1.0000       0.070252         1.9116
  72   1.0000       0.080082         2.1791
  73   0.0000       0.232841         6.3359
  74   0.0000       0.246213         6.6998
  75   0.0000       0.249156         6.7799
  76   0.0000       0.251032         6.8309
  77   0.0000       0.258037         7.0215

                 SPIN DOWN ORBITALS
  NO   OCC          E(Eh)            E(eV)
   0   1.0000    -196.607263     -5349.9556
   1   1.0000     -88.569238     -2410.0915
   2   1.0000     -88.566868     -2410.0270
   3   1.0000     -88.562156     -2409.8988
   4   1.0000     -88.560265     -2409.8473
   5   1.0000     -21.967860      -597.7759
   6   1.0000     -18.828315      -512.3445
   7   1.0000     -18.485292      -503.0104
   8   1.0000     -18.467565      -502.5280
   9   1.0000     -18.466973      -502.5119
  10   1.0000      -9.954034      -270.8630
  11   1.0000      -9.946322      -270.6532
  12   1.0000      -9.944596      -270.6062
  13   1.0000      -9.935356      -270.3548
  14   1.0000      -9.934729      -270.3377
  15   1.0000      -9.932889      -270.2877
  16   1.0000      -7.620581      -207.3666
  17   1.0000      -7.618790      -207.3178
  18   1.0000      -7.616376      -207.2521
  19   1.0000      -7.614494      -207.2009
  20   1.0000      -5.586796      -152.0244
  21   1.0000      -5.585010      -151.9758
  22   1.0000      -5.581585      -151.8826
  23   1.0000      -5.579728      -151.8321
  24   1.0000      -5.579468      -151.8250
  25   1.0000      -5.577990      -151.7848
  26   1.0000      -5.577626      -151.7749
  27   1.0000      -5.575636      -151.7208
  28   1.0000      -5.575383      -151.7139
  29   1.0000      -5.574068      -151.6781
  30   1.0000      -5.573548      -151.6640
  31   1.0000      -5.571164      -151.5991
  32   1.0000      -2.330920       -63.4276
  33   1.0000      -1.399102       -38.0715
  34   1.0000      -1.342941       -36.5433
  35   1.0000      -1.340602       -36.4796
  36   1.0000      -0.594831       -16.1862
  37   1.0000      -0.551812       -15.0156
  38   1.0000      -0.530280       -14.4297
  39   1.0000      -0.467002       -12.7078
  40   1.0000      -0.444800       -12.1036
  41   1.0000      -0.403955       -10.9922
  42   1.0000      -0.378554       -10.3010
  43   1.0000      -0.340946        -9.2776
  44   1.0000      -0.330665        -8.9979
  45   1.0000      -0.314353        -8.5540
  46   1.0000      -0.287005        -7.8098
  47   1.0000      -0.215053        -5.8519
  48   1.0000      -0.203808        -5.5459
  49   1.0000      -0.201316        -5.4781
  50   1.0000      -0.190679        -5.1886
  51   1.0000      -0.157937        -4.2977
  52   1.0000      -0.134629        -3.6634
  53   1.0000      -0.132432        -3.6037
  54   1.0000      -0.112590        -3.0637
  55   1.0000      -0.108821        -2.9612
  56   1.0000      -0.098394        -2.6774
  57   1.0000      -0.074119        -2.0169
  58   1.0000      -0.065095        -1.7713
  59   1.0000      -0.061792        -1.6814
  60   1.0000      -0.050765        -1.3814
  61   1.0000      -0.046378        -1.2620
  62   1.0000      -0.036931        -1.0049
  63   1.0000      -0.030502        -0.8300
  64   1.0000       0.002018         0.0549
  65   1.0000       0.026547         0.7224
  66   1.0000       0.030665         0.8344
  67   1.0000       0.041765         1.1365
  68   1.0000       0.045329         1.2335
  69   1.0000       0.058889         1.6024
  70   1.0000       0.066948         1.8217
  71   1.0000       0.072420         1.9706
  72   0.0000       0.225603         6.1390
  73   0.0000       0.246618         6.7108
  74   0.0000       0.255982         6.9656
  75   0.0000       0.260146         7.0789
  76   0.0000       0.261838         7.1250

MULLIKEN ATOMIC CHARGES AND SPIN POPULATIONS
--------------------------------------------
   0 V :    0.543863    1.180448
   1 S :   -0.420398    0.002195
   2 S :   -0.357632   -0.039079
   3 S :   -0.409163   -0.029205
   4 S :   -0.391502   -0.025691
   5 O :   -0.548540   -0.131648
   6 C :   -0.253361    0.013515
   7 C :   -0.252497    0.015418
   8 C :   -0.208349    0.001204
   9 H :    0.083950   -0.001156
  10 H :    0.057358    0.001739
  11 H :    0.170914    0.001703
  12 H :    0.007341    0.000417
  13 H :    0.100551   -0.000452
  14 H :    0.052487   -0.000210
  15 C :   -0.254406   -0.002493
  16 C :   -0.253503    0.003277
  17 C :   -0.072383    0.008762
  18 H :    0.048209   -0.000060
  19 H :    0.131194   -0.000203
  20 H :    0.017041    0.001545
  21 H :    0.013686    0.000026
  22 H :    0.053524   -0.000566
  23 H :    0.141618    0.000515
Sum of atomic charges         :   -2.0000000

LOEWDIN ATOMIC CHARGES AND SPIN POPULATIONS
-------------------------------------------
   0 V :   -0.238264    1.136492
   1 S :   -0.064742    0.007039
   2 S :   -0.078180   -0.026691
   3 S :   -0.059391   -0.020388
   4 S :   -0.100354   -0.015253
   5 O :   -0.378016   -0.118526
   6 C :   -0.288265    0.010559
   7 C :   -0.277810    0.013164
   8 C :   -0.196955    0.000669
   9 H :    0.042641   -0.000087
  10 H :    0.030558    0.000637
  11 H :    0.084096    0.001055
  12 H :    0.033627    0.000588
  13 H :    0.049512   -0.000070
  14 H :    0.029696   -0.000247
  15 C :   -0.316412    0.002640
  16 C :   -0.325651    0.007209
  17 C :   -0.188507    0.001232
  18 H :    0.028565   -0.000194
  19 H :    0.054013   -0.000614
  20 H :    0.036647    0.000609
  21 H :    0.035315    0.000372
  22 H :    0.030703   -0.000589
  23 H :    0.057173    0.000392

  Mayer bond orders larger than 0.100000
B(  0-V ,  1-S ) :   0.7004 B(  0-V ,  2-S ) :   0.8671 B(  0-V ,  3-S ) :   0.7643
B(  0-V ,  4-S ) :   0.7792 B(  0-V ,  5-O ) :   2.0614 B(  1-S , 15-C ) :   1.0185
B(  2-S ,  6-C ) :   0.9424 B(  3-S , 16-C ) :   1.0247 B(  4-S ,  7-C ) :   0.9928
B(  6-C ,  8-C ) :   0.9086 B(  6-C , 13-H ) :   0.9684 B(  6-C , 14-H ) :   0.9604
B(  7-C ,  8-C ) :   0.9245 B(  7-C ,  9-H ) :   0.9793 B(  7-C , 10-H ) :   0.9638
B(  8-C , 11-H ) :   0.9956 B(  8-C , 12-H ) :   0.9249 B( 15-C , 17-C ) :   0.8970
B( 15-C , 22-H ) :   0.9686 B( 15-C , 23-H ) :   0.9791 B( 16-C , 17-C ) :   0.9029
B( 16-C , 18-H ) :   0.9640 B( 16-C , 19-H ) :   0.9761 B( 17-C , 20-H ) :   0.9588
B( 17-C , 21-H ) :   0.9597

FINAL SINGLE POINT ENERGY     -2847.695096307822

DIPOLE MOMENT
-------------
                                X             Y             Z
Electronic contribution:     -5.47710      -2.14300      -1.37585
Nuclear contribution   :      5.81890       2.22861       1.53564
                        -----------------------------------------
Total Dipole Moment    :      0.34179       0.08561       0.15979
                        -----------------------------------------
Magnitude (a.u.)       :      0.38689
Magnitude (Debye)      :      0.98339

Rotational constants in cm-1:     0.026929     0.011583     0.009493
Rotational constants in MHz :   807.318533   347.260076   284.607251

                             ****ORCA TERMINATED NORMALLY****
TOTAL RUN TIME: 0 days 0 hours 9 minutes 43 seconds 467 msec
