                         Program Version 5.0.4 -  RELEASE  -
|  1> ! nofrozencore ReducedPop printbasis
|  2> ! B3LYP TZVP
|  3>
|  4> %basis
|  5> newgto V "CP(PPP)" end
|  6> end
|  7>
|  8> %pal
|  9> nprocs 8
| 10> end
| 11>
| 12> % sym SymThresh 1e-2 end
| 13> * xyz -2 2
| 14> V -0.20060646182260253 0.2233083458903299 -0.398269326246375
| 15> S 1.5222408473022428 -1.083363292820975 -1.5960705024621071
| 16> S -1.0876765960996115 -1.9556135645928052 0.035499093337501085
| 17> S 1.6179178449507639 1.661115983680524 0.5548992679937146
| 18> S -1.4436964054276806 1.068653692494294 1.7287315343171432
| 19> O -0.9290464765830628 0.7949952858226949 -1.7153550536367936
| 20> C -2.6065457157254404 -1.727479793784115 1.0800969646744418
| 21> C -3.245140558923131 0.7019417430235129 1.4961563897264143
| 22> C -3.5054821586416383 -0.5513400096946645 0.6561297530245406
| 23> H -3.746079424806223 1.565102538908385 1.0418298537722004
| 24> H -3.6773836180779735 0.5648265170877423 2.4981468238314744
| 25> H -3.320348928086965 -0.33098021285970075 -0.40060882075671583
| 26> H -4.574004350658016 -0.8316254921459992 0.7483418740311617
| 27> H -2.2942459913254414 -1.582037376704015 2.1227359208402774
| 28> H -3.162923592589677 -2.674474107294281 1.0180862704963027
| 29> C 2.904285830768858 -1.0680941853817973 -0.37428838796019076
| 30> C 3.054279540519265 1.4875909607856683 -0.6065225844931068
| 31> C 3.8160252054913633 0.1528382684874898 -0.5295027130443692
| 32> H 3.747324768581294 2.313705032198354 -0.399213658818387
| 33> H 2.672860422837966 1.6162393955157337 -1.6214257860378272
| 34> H 4.526646838332751 0.17908161300112674 0.3194905620312217
| 35> H 4.417693671516194 0.04020104298173545 -1.4516560966409877
| 36> H 3.4919917748764315 -1.9904136647692596 -0.4927368751901472
| 37> H 2.475290497752194 -1.0759655551933813 0.6323157579999831
| 38> *
| 39>
| 40> % eprnmr
| 41> gtensor true
| 42> Nuclei = all H {aiso,adip,aorb,fgrad,rho}
| 43> Nuclei = all V {aiso,adip,aorb,fgrad,rho}
| 44> end
| 45>
| 46>                          ****END OF INPUT****

CARTESIAN COORDINATES (ANGSTROEM)
---------------------------------
  V     -0.200642    0.223696   -0.398916
  S      1.522205   -1.082976   -1.596717
  S     -1.087712   -1.955226    0.034852
  S      1.617882    1.661504    0.554252
  S     -1.443732    1.069041    1.728085
  O     -0.929082    0.795383   -1.716002
  C     -2.606581   -1.727092    1.079450
  C     -3.245176    0.702329    1.495510
  C     -3.505518   -0.550952    0.655483
  H     -3.746115    1.565490    1.041183
  H     -3.677419    0.565214    2.497500
  H     -3.320384   -0.330593   -0.401256
  H     -4.574040   -0.831238    0.747695
  H     -2.294281   -1.581650    2.122089
  H     -3.162959   -2.674086    1.017439
  C      2.904250   -1.067707   -0.374935
  C      3.054244    1.487979   -0.607169
  C      3.815990    0.153226   -0.530150
  H      3.747289    2.314093   -0.399860
  H      2.672825    1.616627   -1.622073
  H      4.526611    0.179469    0.318844
  H      4.417658    0.040589   -1.452303
  H      3.491956   -1.990026   -0.493384
  H      2.475255   -1.075578    0.631669

 Total Charge           Charge          ....   -2
 Multiplicity           Mult            ....    2
 Number of Electrons    NEL             ....  145
 Basis Dimension        Dim             ....  353

ORBITAL ENERGIES
----------------
                 SPIN UP ORBITALS
  NO   OCC          E(Eh)            E(eV)
   0   1.0000    -196.608425     -5349.9872
   1   1.0000     -88.562304     -2409.9028
   2   1.0000     -88.561883     -2409.8913
   3   1.0000     -88.559655     -2409.8307
   4   1.0000     -88.556834     -2409.7539
   5   1.0000     -21.983538      -598.2025
   6   1.0000     -18.824976      -512.2536
   7   1.0000     -18.491397      -503.1765
   8   1.0000     -18.484158      -502.9795
   9   1.0000     -18.483998      -502.9752
  10   1.0000      -9.942088      -270.5380
  11   1.0000      -9.936467      -270.3850
  12   1.0000      -9.934695      -270.3368
  13   1.0000      -9.934142      -270.3218
  14   1.0000      -9.932963      -270.2897
  15   1.0000      -9.927508      -270.1412
  16   1.0000      -7.616429      -207.2536
  17   1.0000      -7.615833      -207.2373
  18   1.0000      -7.614372      -207.1976
  19   1.0000      -7.610703      -207.0978
  20   1.0000      -5.581732      -151.8867
  21   1.0000      -5.581091      -151.8692
  22   1.0000      -5.579527      -151.8266
  23   1.0000      -5.576177      -151.7355
  24   1.0000      -5.575222      -151.7095
  25   1.0000      -5.574767      -151.6971
  26   1.0000      -5.573683      -151.6676
  27   1.0000      -5.573617      -151.6658
  28   1.0000      -5.573128      -151.6525
  29   1.0000      -5.571410      -151.6058
  30   1.0000      -5.569850      -151.5633
  31   1.0000      -5.567611      -151.5024
  32   1.0000      -2.376099       -64.6569
  33   1.0000      -1.418159       -38.5901
  34   1.0000      -1.404418       -38.2161
  35   1.0000      -1.403757       -38.1982
  36   1.0000      -0.587279       -15.9807
  37   1.0000      -0.551291       -15.0014
  38   1.0000      -0.550205       -14.9718
  39   1.0000      -0.466826       -12.7030
  40   1.0000      -0.465395       -12.6640
  41   1.0000      -0.403929       -10.9915
  42   1.0000      -0.394997       -10.7484
  43   1.0000      -0.338305        -9.2057
  44   1.0000      -0.327216        -8.9040
  45   1.0000      -0.303541        -8.2598
  46   1.0000      -0.286617        -7.7993
  47   1.0000      -0.214024        -5.8239
  48   1.0000      -0.206339        -5.6148
  49   1.0000      -0.203410        -5.5351
  50   1.0000      -0.197213        -5.3664
  51   1.0000      -0.155801        -4.2396
  52   1.0000      -0.135186        -3.6786
  53   1.0000      -0.131517        -3.5788
  54   1.0000      -0.112309        -3.0561
  55   1.0000      -0.107986        -2.9384
  56   1.0000      -0.104289        -2.8379
  57   1.0000      -0.078365        -2.1324
  58   1.0000      -0.071254        -1.9389
  59   1.0000      -0.062814        -1.7093
  60   1.0000      -0.058472        -1.5911
  61   1.0000      -0.045143        -1.2284
  62   1.0000      -0.041320        -1.1244
  63   1.0000      -0.032445        -0.8829
  64   1.0000      -0.000518        -0.0141
  65   1.0000       0.024275         0.6606
  66   1.0000       0.031207         0.8492
  67   1.0000       0.036894         1.0039
  68   1.0000       0.046514         1.2657
  69   1.0000       0.052840         1.4379
  70   1.0000       0.064373         1.7517
  71   1.0000       0.071094         1.9346
  72   1.0000       0.080755         2.1975
  73   0.0000       0.231261         6.2929
  74   0.0000       0.244464         6.6522
  75   0.0000       0.249559         6.7909
  76   0.0000       0.253186         6.8895
  77   0.0000       0.257098         6.9960

                 SPIN DOWN ORBITALS
  NO   OCC          E(Eh)            E(eV)
   0   1.0000    -196.608565     -5349.9910
   1   1.0000     -88.562499     -2409.9081
   2   1.0000     -88.562034     -2409.8955
   3   1.0000     -88.559604     -2409.8293
   4   1.0000     -88.556931     -2409.7566
   5   1.0000     -21.968429      -597.7913
   6   1.0000     -18.828530      -512.3503
   7   1.0000     -18.486144      -503.0336
   8   1.0000     -18.467948      -502.5384
   9   1.0000     -18.467587      -502.5286
  10   1.0000      -9.941981      -270.5351
  11   1.0000      -9.936313      -270.3808
  12   1.0000      -9.934636      -270.3352
  13   1.0000      -9.934089      -270.3203
  14   1.0000      -9.932807      -270.2854
  15   1.0000      -9.927523      -270.1416
  16   1.0000      -7.616619      -207.2587
  17   1.0000      -7.615976      -207.2412
  18   1.0000      -7.614325      -207.1963
  19   1.0000      -7.610796      -207.1003
  20   1.0000      -5.581919      -151.8917
  21   1.0000      -5.581234      -151.8731
  22   1.0000      -5.579531      -151.8268
  23   1.0000      -5.576278      -151.7382
  24   1.0000      -5.575701      -151.7225
  25   1.0000      -5.575172      -151.7082
  26   1.0000      -5.573964      -151.6753
  27   1.0000      -5.573848      -151.6721
  28   1.0000      -5.573233      -151.6554
  29   1.0000      -5.570838      -151.5902
  30   1.0000      -5.570250      -151.5742
  31   1.0000      -5.567533      -151.5003
  32   1.0000      -2.331004       -63.4298
  33   1.0000      -1.398966       -38.0678
  34   1.0000      -1.342394       -36.5284
  35   1.0000      -1.340935       -36.4887
  36   1.0000      -0.594981       -16.1902
  37   1.0000      -0.551128       -14.9969
  38   1.0000      -0.550129       -14.9698
  39   1.0000      -0.466759       -12.7012
  40   1.0000      -0.465327       -12.6622
  41   1.0000      -0.403917       -10.9911
  42   1.0000      -0.395208       -10.7542
  43   1.0000      -0.338381        -9.2078
  44   1.0000      -0.327627        -8.9152
  45   1.0000      -0.303556        -8.2602
  46   1.0000      -0.286626        -7.7995
  47   1.0000      -0.213940        -5.8216
  48   1.0000      -0.206274        -5.6130
  49   1.0000      -0.203297        -5.5320
  50   1.0000      -0.197090        -5.3631
  51   1.0000      -0.155696        -4.2367
  52   1.0000      -0.134960        -3.6724
  53   1.0000      -0.131319        -3.5734
  54   1.0000      -0.112280        -3.0553
  55   1.0000      -0.107914        -2.9365
  56   1.0000      -0.104095        -2.8326
  57   1.0000      -0.077560        -2.1105
  58   1.0000      -0.069229        -1.8838
  59   1.0000      -0.062064        -1.6888
  60   1.0000      -0.058126        -1.5817
  61   1.0000      -0.045919        -1.2495
  62   1.0000      -0.041974        -1.1422
  63   1.0000      -0.034489        -0.9385
  64   1.0000       0.003983         0.1084
  65   1.0000       0.026277         0.7150
  66   1.0000       0.034198         0.9306
  67   1.0000       0.046539         1.2664
  68   1.0000       0.047626         1.2960
  69   1.0000       0.059966         1.6318
  70   1.0000       0.067720         1.8428
  71   1.0000       0.072524         1.9735
  72   0.0000       0.233847         6.3633
  73   0.0000       0.248469         6.7612
  74   0.0000       0.256065         6.9679
  75   0.0000       0.259778         7.0689
  76   0.0000       0.263460         7.1691

MULLIKEN ATOMIC CHARGES AND SPIN POPULATIONS
--------------------------------------------
   0 V :    0.520783    1.193769
   1 S :   -0.394592    0.002228
   2 S :   -0.329284   -0.037283
   3 S :   -0.419043   -0.026865
   4 S :   -0.425372   -0.020018
   5 O :   -0.550023   -0.137197
   6 C :   -0.250067    0.007242
   7 C :   -0.237927    0.003325
   8 C :   -0.173595    0.003180
   9 H :    0.073911   -0.000662
  10 H :    0.051531    0.001387
  11 H :    0.151073    0.000855
  12 H :    0.005413   -0.000080
  13 H :    0.111759   -0.000205
  14 H :    0.043727    0.000079
  15 C :   -0.260292   -0.003513
  16 C :   -0.252391    0.001165
  17 C :   -0.070678    0.010218
  18 H :    0.048185   -0.000441
  19 H :    0.128699    0.000190
  20 H :    0.010233    0.002640
  21 H :    0.017851   -0.000077
  22 H :    0.053358   -0.000619
  23 H :    0.146739    0.000681
Sum of atomic charges         :   -2.0000000

LOEWDIN ATOMIC CHARGES AND SPIN POPULATIONS
-------------------------------------------
   0 V :   -0.202334    1.150748
   1 S :   -0.034439    0.007954
   2 S :   -0.007156   -0.024742
   3 S :   -0.073784   -0.019273
   4 S :   -0.109866   -0.012885
   5 O :   -0.384062   -0.123887
   6 C :   -0.331517    0.006287
   7 C :   -0.315481    0.004122
   8 C :   -0.190697    0.000613
   9 H :    0.033954    0.000024
  10 H :    0.028759    0.000184
  11 H :    0.072005    0.000421
  12 H :    0.030486    0.000089
  13 H :    0.048809   -0.000147
  14 H :    0.026140   -0.000439
  15 C :   -0.319223    0.002811
  16 C :   -0.324428    0.006472
  17 C :   -0.190193    0.001521
  18 H :    0.028613   -0.000372
  19 H :    0.053571   -0.000567
  20 H :    0.034184    0.000955
  21 H :    0.037558    0.000432
  22 H :    0.030744   -0.000640
  23 H :    0.058360    0.000320

  Mayer bond orders larger than 0.100000
B(  0-V ,  1-S ) :   0.7634 B(  0-V ,  2-S ) :   0.9146 B(  0-V ,  3-S ) :   0.7515
B(  0-V ,  4-S ) :   0.6974 B(  0-V ,  5-O ) :   2.0634 B(  1-S , 15-C ) :   1.0072
B(  2-S ,  6-C ) :   0.9881 B(  3-S , 16-C ) :   1.0292 B(  4-S ,  7-C ) :   1.0755
B(  6-C ,  8-C ) :   0.8894 B(  6-C , 13-H ) :   0.9787 B(  6-C , 14-H ) :   0.9609
B(  7-C ,  8-C ) :   0.9222 B(  7-C ,  9-H ) :   0.9758 B(  7-C , 10-H ) :   0.9657
B(  8-C , 11-H ) :   0.9887 B(  8-C , 12-H ) :   0.9426 B( 15-C , 17-C ) :   0.8992
B( 15-C , 22-H ) :   0.9661 B( 15-C , 23-H ) :   0.9743 B( 16-C , 17-C ) :   0.8977
B( 16-C , 18-H ) :   0.9646 B( 16-C , 19-H ) :   0.9777 B( 17-C , 20-H ) :   0.9523
B( 17-C , 21-H ) :   0.9626

FINAL SINGLE POINT ENERGY     -2847.713753141457

DIPOLE MOMENT
-------------
                                X             Y             Z
Electronic contribution:     -1.42811       2.74098      -5.31313
Nuclear contribution   :      1.41831      -3.07917       5.55795
                        -----------------------------------------
Total Dipole Moment    :     -0.00980      -0.33819       0.24482
                        -----------------------------------------
Magnitude (a.u.)       :      0.41762
Magnitude (Debye)      :      1.06150

Rotational constants in cm-1:     0.027393     0.011663     0.009623
Rotational constants in MHz :   821.213710   349.662133   288.495953

                             ****ORCA TERMINATED NORMALLY****
TOTAL RUN TIME: 0 days 0 hours 9 minutes 36 seconds 723 msec
