                         Program Version 5.0.4 -  RELEASE  -
|  1> ! nofrozencore ReducedPop printbasis
|  2> ! B3LYP TZVP
|  3>
|  4> %basis
|  5> newgto V "CP(PPP)" end
|  6> end
|  7>
|  8> %pal
|  9> nprocs 8
| 10> end
| 11>
| 12> % sym SymThresh 1e-2 end
| 13> * xyz -2 2
| 14> V -0.4494801183709132 0.12377256972460202 0.16762973257163644
| 15> S 0.8855866238523136 2.1683019212563157 0.8424710977618344
| 16> S 0.08821612886646908 0.9497097791979257 -2.0757013951632453
| 17> S 0.7255085582580427 -1.1668343080503196 1.935487021161358
| 18> S -0.7465545080439165 -2.1724696031587034 -0.7598106227184317
| 19> O -1.9120369836528348 0.5682502926896758 0.59871354110949
| 20> C -0.7187936121975297 -0.17459116250615914 -3.284545082185321
| 21> C -2.033298833752064 -1.982070223357778 -2.101429982632528
| 22> C -2.0463335194202266 -0.8004377995132861 -2.937582197415173
| 23> H -3.1080019881388203 -2.2539580204965746 -1.9014178971097595
| 24> H -1.5676288041674777 -2.8245976189941184 -2.687052472236484
| 25> H -2.393893513100463 -0.04713862837026601 -2.188062041465894
| 26> H -2.864301102759621 -0.8239064922861116 -3.7230178414118322
| 27> H 0.10436558483426368 -0.9153590900291926 -3.3710367818171507
| 28> H -0.8031454962300294 0.34536372859112313 -4.2473617059352335
| 29> C 2.516964086841887 1.419819157877511 1.2980575792025482
| 30> C 1.3274833623204183 0.08445916173920043 3.1523275023667496
| 31> C 2.5723861187101975 0.8758923761676948 2.73205333555833
| 32> H 1.5255125140604235 -0.42906175278477615 4.101409664750804
| 33> H 0.5042148707363274 0.7806568975495083 3.3126180259620526
| 34> H 3.44651599304806 0.2082574513927014 2.8030380013373635
| 35> H 2.7384394865593076 1.699898279684229 3.4447684450522056
| 36> H 3.276662062311658 2.2014229007602277 1.1797625433013779
| 37> H 2.7582628234282587 0.619858136906941 0.5968066196263461
| 38> *
| 39>
| 40> % eprnmr
| 41> gtensor true
| 42> Nuclei = all H {aiso,adip,aorb,fgrad,rho}
| 43> Nuclei = all V {aiso,adip,aorb,fgrad,rho}
| 44> end
| 45>
| 46>                          ****END OF INPUT****

CARTESIAN COORDINATES (ANGSTROEM)
---------------------------------
  V     -0.449991    0.124051    0.168110
  S      0.885075    2.168580    0.842952
  S      0.087705    0.949988   -2.075221
  S      0.724997   -1.166556    1.935968
  S     -0.747066   -2.172191   -0.759330
  O     -1.912548    0.568529    0.599194
  C     -0.719305   -0.174313   -3.284064
  C     -2.033810   -1.981792   -2.100949
  C     -2.046845   -0.800159   -2.937102
  H     -3.108513   -2.253680   -1.900937
  H     -1.568140   -2.824319   -2.686572
  H     -2.394405   -0.046860   -2.187581
  H     -2.864812   -0.823628   -3.722537
  H      0.103854   -0.915081   -3.370556
  H     -0.803657    0.345642   -4.246881
  C      2.516453    1.420098    1.298538
  C      1.326972    0.084738    3.152808
  C      2.571875    0.876171    2.732534
  H      1.525001   -0.428783    4.101890
  H      0.503704    0.780935    3.313099
  H      3.446005    0.208536    2.803519
  H      2.737928    1.700177    3.445249
  H      3.276151    2.201701    1.180243
  H      2.757752    0.620137    0.597287

 Total Charge           Charge          ....   -2
 Multiplicity           Mult            ....    2
 Number of Electrons    NEL             ....  145
 Basis Dimension        Dim             ....  353

ORBITAL ENERGIES
----------------
                 SPIN UP ORBITALS
  NO   OCC          E(Eh)            E(eV)
   0   1.0000    -196.605202     -5349.8995
   1   1.0000     -88.564139     -2409.9527
   2   1.0000     -88.561402     -2409.8783
   3   1.0000     -88.559943     -2409.8386
   4   1.0000     -88.557423     -2409.7700
   5   1.0000     -21.980692      -598.1250
   6   1.0000     -18.827204      -512.3143
   7   1.0000     -18.488495      -503.0975
   8   1.0000     -18.481280      -502.9012
   9   1.0000     -18.481195      -502.8989
  10   1.0000      -9.942660      -270.5535
  11   1.0000      -9.934566      -270.3333
  12   1.0000      -9.933878      -270.3146
  13   1.0000      -9.933765      -270.3115
  14   1.0000      -9.932088      -270.2659
  15   1.0000      -9.926987      -270.1270
  16   1.0000      -7.617983      -207.2959
  17   1.0000      -7.615632      -207.2319
  18   1.0000      -7.614291      -207.1954
  19   1.0000      -7.611693      -207.1247
  20   1.0000      -5.583645      -151.9387
  21   1.0000      -5.580823      -151.8619
  22   1.0000      -5.579632      -151.8295
  23   1.0000      -5.576944      -151.7564
  24   1.0000      -5.576890      -151.7549
  25   1.0000      -5.574884      -151.7003
  26   1.0000      -5.574621      -151.6931
  27   1.0000      -5.573156      -151.6533
  28   1.0000      -5.572870      -151.6455
  29   1.0000      -5.571403      -151.6056
  30   1.0000      -5.570945      -151.5931
  31   1.0000      -5.568739      -151.5331
  32   1.0000      -2.374185       -64.6049
  33   1.0000      -1.418535       -38.6003
  34   1.0000      -1.401923       -38.1483
  35   1.0000      -1.401611       -38.1398
  36   1.0000      -0.590342       -16.0640
  37   1.0000      -0.564268       -15.3545
  38   1.0000      -0.550558       -14.9814
  39   1.0000      -0.473374       -12.8812
  40   1.0000      -0.465925       -12.6785
  41   1.0000      -0.406005       -11.0480
  42   1.0000      -0.399023       -10.8580
  43   1.0000      -0.337965        -9.1965
  44   1.0000      -0.329348        -8.9620
  45   1.0000      -0.296456        -8.0670
  46   1.0000      -0.284799        -7.7498
  47   1.0000      -0.217380        -5.9152
  48   1.0000      -0.214217        -5.8291
  49   1.0000      -0.202508        -5.5105
  50   1.0000      -0.192489        -5.2379
  51   1.0000      -0.169818        -4.6210
  52   1.0000      -0.134586        -3.6623
  53   1.0000      -0.131034        -3.5656
  54   1.0000      -0.117992        -3.2107
  55   1.0000      -0.107580        -2.9274
  56   1.0000      -0.097573        -2.6551
  57   1.0000      -0.078052        -2.1239
  58   1.0000      -0.067653        -1.8409
  59   1.0000      -0.061500        -1.6735
  60   1.0000      -0.055970        -1.5230
  61   1.0000      -0.048259        -1.3132
  62   1.0000      -0.039594        -1.0774
  63   1.0000      -0.034919        -0.9502
  64   1.0000      -0.002045        -0.0556
  65   1.0000       0.026292         0.7154
  66   1.0000       0.030588         0.8323
  67   1.0000       0.034995         0.9523
  68   1.0000       0.045479         1.2376
  69   1.0000       0.055516         1.5107
  70   1.0000       0.065799         1.7905
  71   1.0000       0.070741         1.9250
  72   1.0000       0.081142         2.2080
  73   0.0000       0.236632         6.4391
  74   0.0000       0.248597         6.7647
  75   0.0000       0.249949         6.8015
  76   0.0000       0.250833         6.8255
  77   0.0000       0.258674         7.0389

                 SPIN DOWN ORBITALS
  NO   OCC          E(Eh)            E(eV)
   0   1.0000    -196.605344     -5349.9034
   1   1.0000     -88.564239     -2409.9555
   2   1.0000     -88.561560     -2409.8826
   3   1.0000     -88.560113     -2409.8432
   4   1.0000     -88.557391     -2409.7691
   5   1.0000     -21.965731      -597.7179
   6   1.0000     -18.830572      -512.4059
   7   1.0000     -18.483383      -502.9584
   8   1.0000     -18.465367      -502.4682
   9   1.0000     -18.464720      -502.4506
  10   1.0000      -9.942476      -270.5485
  11   1.0000      -9.934514      -270.3319
  12   1.0000      -9.933741      -270.3108
  13   1.0000      -9.933603      -270.3071
  14   1.0000      -9.932047      -270.2647
  15   1.0000      -9.927008      -270.1276
  16   1.0000      -7.618078      -207.2985
  17   1.0000      -7.615783      -207.2360
  18   1.0000      -7.614457      -207.1999
  19   1.0000      -7.611665      -207.1239
  20   1.0000      -5.583766      -151.9420
  21   1.0000      -5.580973      -151.8660
  22   1.0000      -5.579799      -151.8340
  23   1.0000      -5.577314      -151.7664
  24   1.0000      -5.576956      -151.7567
  25   1.0000      -5.575035      -151.7044
  26   1.0000      -5.574776      -151.6974
  27   1.0000      -5.573591      -151.6651
  28   1.0000      -5.572989      -151.6487
  29   1.0000      -5.571526      -151.6089
  30   1.0000      -5.571273      -151.6020
  31   1.0000      -5.568263      -151.5201
  32   1.0000      -2.329563       -63.3906
  33   1.0000      -1.399944       -38.0944
  34   1.0000      -1.340772       -36.4843
  35   1.0000      -1.338740       -36.4290
  36   1.0000      -0.597368       -16.2552
  37   1.0000      -0.564153       -15.3514
  38   1.0000      -0.550413       -14.9775
  39   1.0000      -0.473336       -12.8801
  40   1.0000      -0.465814       -12.6754
  41   1.0000      -0.406098       -11.0505
  42   1.0000      -0.399093       -10.8599
  43   1.0000      -0.338128        -9.2009
  44   1.0000      -0.329706        -8.9718
  45   1.0000      -0.296380        -8.0649
  46   1.0000      -0.284832        -7.7507
  47   1.0000      -0.217271        -5.9122
  48   1.0000      -0.214169        -5.8278
  49   1.0000      -0.202397        -5.5075
  50   1.0000      -0.192319        -5.2333
  51   1.0000      -0.169743        -4.6189
  52   1.0000      -0.134392        -3.6570
  53   1.0000      -0.130806        -3.5594
  54   1.0000      -0.117970        -3.2101
  55   1.0000      -0.107517        -2.9257
  56   1.0000      -0.096702        -2.6314
  57   1.0000      -0.077076        -2.0974
  58   1.0000      -0.066081        -1.7981
  59   1.0000      -0.061644        -1.6774
  60   1.0000      -0.055613        -1.5133
  61   1.0000      -0.049296        -1.3414
  62   1.0000      -0.040997        -1.1156
  63   1.0000      -0.034370        -0.9353
  64   1.0000       0.002085         0.0567
  65   1.0000       0.027475         0.7476
  66   1.0000       0.033415         0.9093
  67   1.0000       0.044440         1.2093
  68   1.0000       0.047073         1.2809
  69   1.0000       0.064825         1.7640
  70   1.0000       0.067321         1.8319
  71   1.0000       0.071722         1.9517
  72   0.0000       0.234861         6.3909
  73   0.0000       0.250819         6.8251
  74   0.0000       0.253026         6.8852
  75   0.0000       0.261649         7.1198
  76   0.0000       0.265862         7.2345

MULLIKEN ATOMIC CHARGES AND SPIN POPULATIONS
--------------------------------------------
   0 V :    0.534100    1.185430
   1 S :   -0.429608   -0.000663
   2 S :   -0.358399   -0.032036
   3 S :   -0.413165   -0.028920
   4 S :   -0.385208   -0.021901
   5 O :   -0.542501   -0.129520
   6 C :   -0.233921    0.005810
   7 C :   -0.206392    0.006442
   8 C :   -0.191186    0.002967
   9 H :    0.057734   -0.001479
  10 H :    0.040426    0.002005
  11 H :    0.147579    0.002014
  12 H :    0.017317    0.000070
  13 H :    0.093769   -0.000316
  14 H :    0.049925    0.000025
  15 C :   -0.252922   -0.002582
  16 C :   -0.256261    0.003091
  17 C :   -0.069908    0.008447
  18 H :    0.047489   -0.000121
  19 H :    0.132952   -0.000260
  20 H :    0.013255    0.001475
  21 H :    0.015032    0.000031
  22 H :    0.051864   -0.000536
  23 H :    0.138026    0.000526
Sum of atomic charges         :   -2.0000000

LOEWDIN ATOMIC CHARGES AND SPIN POPULATIONS
-------------------------------------------
   0 V :   -0.212501    1.142041
   1 S :   -0.073609    0.004556
   2 S :   -0.036328   -0.021644
   3 S :   -0.062459   -0.020235
   4 S :   -0.053462   -0.012353
   5 O :   -0.364720   -0.116402
   6 C :   -0.336110    0.005263
   7 C :   -0.317158    0.007092
   8 C :   -0.212167    0.000415
   9 H :    0.035954   -0.000192
  10 H :    0.029171    0.000426
  11 H :    0.078930    0.001281
  12 H :    0.040428    0.000318
  13 H :    0.048175   -0.000256
  14 H :    0.029814   -0.000556
  15 C :   -0.316861    0.002475
  16 C :   -0.327365    0.006813
  17 C :   -0.189082    0.001131
  18 H :    0.027976   -0.000228
  19 H :    0.053917   -0.000622
  20 H :    0.036139    0.000592
  21 H :    0.035122    0.000342
  22 H :    0.030378   -0.000573
  23 H :    0.055820    0.000317

  Mayer bond orders larger than 0.100000
B(  0-V ,  1-S ) :   0.7063 B(  0-V ,  2-S ) :   0.8541 B(  0-V ,  3-S ) :   0.7682
B(  0-V ,  4-S ) :   0.7659 B(  0-V ,  5-O ) :   2.0773 B(  1-S , 15-C ) :   1.0276
B(  2-S ,  6-C ) :   1.0059 B(  3-S , 16-C ) :   1.0223 B(  4-S ,  7-C ) :   1.0513
B(  6-C ,  8-C ) :   0.8924 B(  6-C , 13-H ) :   0.9835 B(  6-C , 14-H ) :   0.9504
B(  7-C ,  8-C ) :   0.9301 B(  7-C ,  9-H ) :   0.9463 B(  7-C , 10-H ) :   0.9918
B(  8-C , 11-H ) :   1.0138 B(  8-C , 12-H ) :   0.9207 B( 15-C , 17-C ) :   0.8965
B( 15-C , 22-H ) :   0.9705 B( 15-C , 23-H ) :   0.9775 B( 16-C , 17-C ) :   0.9019
B( 16-C , 18-H ) :   0.9625 B( 16-C , 19-H ) :   0.9779 B( 17-C , 20-H ) :   0.9609
B( 17-C , 21-H ) :   0.9569

FINAL SINGLE POINT ENERGY     -2847.687240003756

DIPOLE MOMENT
-------------
                                X             Y             Z
Electronic contribution:     -5.16570       1.77438       2.97335
Nuclear contribution   :      5.41238      -1.90527      -3.27527
                        -----------------------------------------
Total Dipole Moment    :      0.24668      -0.13089      -0.30192
                        -----------------------------------------
Magnitude (a.u.)       :      0.41126
Magnitude (Debye)      :      1.04535

Rotational constants in cm-1:     0.027337     0.011732     0.009612
Rotational constants in MHz :   819.532179   351.726292   288.145882

                             ****ORCA TERMINATED NORMALLY****
TOTAL RUN TIME: 0 days 0 hours 9 minutes 41 seconds 972 msec
