                         Program Version 5.0.4 -  RELEASE  -
|  1> ! nofrozencore ReducedPop printbasis
|  2> ! B3LYP TZVP
|  3>
|  4> %basis
|  5> newgto V "CP(PPP)" end
|  6> end
|  7>
|  8> %pal
|  9> nprocs 4
| 10> end
| 11>
| 12> % sym SymThresh 1e-2 end
| 13> * xyz -2 2
| 14> V 0.3523264100116408 -0.022785195710973417 0.34254342424241896
| 15> S 0.2606822806576374 2.4736542650612643 -0.06777654893359458
| 16> S -1.9011371916681206 0.3949155603582747 1.2014759638616006
| 17> S 1.407830422007223 -0.30438435021962296 -1.8867503397954755
| 18> S -0.24809247531256892 -2.401339573233522 -0.0719975364156999
| 19> O 1.4113820297489508 -0.09003279145569389 1.54344497924948
| 20> C -2.556347095292043 -1.219421252753224 1.7927405831245335
| 21> C -0.8651691643057835 -3.0965000815420165 1.528340179781555
| 22> C -1.5690849519754368 -2.129757896471763 2.4741942717455343
| 23> H 0.0001836424863712292 -3.5861029036739303 2.071616350754851
| 24> H -1.6296634345685097 -3.9761600827783807 1.234230059326134
| 25> H -0.7975400098440458 -1.481560836494034 2.999097748058748
| 26> H -2.108235714096561 -2.7857694415784944 3.3344030201193746
| 27> H -3.1665551448860474 -1.892105748357857 0.7195768064166993
| 28> H -3.761609199098587 -0.8263427150257401 2.853042401568153
| 29> C -0.07151068430874466 2.5483295763720286 -1.8851084494541035
| 30> C 2.173549976084097 1.3337252163633198 -2.296638928188416
| 31> C 1.180692412282931 2.4123845020930665 -2.762272623192125
| 32> H 2.817220646733836 1.195524648944738 -2.9613987324918183
| 33> H 2.661894918129598 1.6845627635748583 -1.4279104578116433
| 34> H 0.8721797884214816 2.20085172547201 -3.7730826263530104
| 35> H 1.710159300615401 3.3667893981293977 -2.7821251102003175
| 36> H -0.5710859215861406 3.5082713546812907 -2.107806691705103
| 37> H -0.7750461876641909 1.7495520870370653 -2.132354786444426
| 38> *
| 39>
| 40> % eprnmr
| 41> gtensor true
| 42> Nuclei = all H {aiso,adip,aorb,fgrad,rho}
| 43> Nuclei = all V {aiso,adip,aorb,fgrad,rho}
| 44> end
| 45>
| 46>                          ****END OF INPUT****

CARTESIAN COORDINATES (ANGSTROEM)
---------------------------------
  V      0.352981   -0.022620    0.342881
  S      0.261337    2.473819   -0.067439
  S     -1.900483    0.395080    1.201814
  S      1.408485   -0.304220   -1.886412
  S     -0.247438   -2.401175   -0.071660
  O      1.412037   -0.089868    1.543783
  C     -2.555692   -1.219256    1.793078
  C     -0.864514   -3.096335    1.528678
  C     -1.568430   -2.129593    2.474532
  H      0.000838   -3.585938    2.071954
  H     -1.629009   -3.975995    1.234568
  H     -0.796885   -1.481396    2.999436
  H     -2.107581   -2.785605    3.334741
  H     -3.165900   -1.891941    0.719915
  H     -3.760955   -0.826178    2.853380
  C     -0.070856    2.548494   -1.884771
  C      2.174205    1.333890   -2.296301
  C      1.181347    2.412549   -2.761935
  H      2.817875    1.195689   -2.961061
  H      2.662550    1.684728   -1.427573
  H      0.872834    2.201017   -3.772745
  H      1.710814    3.366954   -2.781787
  H     -0.570431    3.508436   -2.107469
  H     -0.774392    1.749717   -2.132017

 Total Charge           Charge          ....   -2
 Multiplicity           Mult            ....    2
 Number of Electrons    NEL             ....  145
 Basis Dimension        Dim             ....  353

ORBITAL ENERGIES
----------------
                 SPIN UP ORBITALS
  NO   OCC          E(Eh)            E(eV)
   0   1.0000    -196.614899     -5350.1634
   1   1.0000     -88.576894     -2410.2998
   2   1.0000     -88.567447     -2410.0428
   3   1.0000     -88.566717     -2410.0229
   4   1.0000     -88.564183     -2409.9539
   5   1.0000     -21.990107      -598.3812
   6   1.0000     -18.832749      -512.4652
   7   1.0000     -18.497878      -503.3528
   8   1.0000     -18.490732      -503.1584
   9   1.0000     -18.490648      -503.1561
  10   1.0000     -10.007322      -272.3131
  11   1.0000      -9.964889      -271.1584
  12   1.0000      -9.954834      -270.8848
  13   1.0000      -9.940149      -270.4852
  14   1.0000      -9.932399      -270.2743
  15   1.0000      -9.917937      -269.8808
  16   1.0000      -7.630295      -207.6309
  17   1.0000      -7.621674      -207.3963
  18   1.0000      -7.620886      -207.3749
  19   1.0000      -7.618442      -207.3084
  20   1.0000      -5.595971      -152.2741
  21   1.0000      -5.589056      -152.0859
  22   1.0000      -5.587316      -152.0386
  23   1.0000      -5.587154      -152.0342
  24   1.0000      -5.585985      -152.0024
  25   1.0000      -5.583627      -151.9382
  26   1.0000      -5.580661      -151.8575
  27   1.0000      -5.579954      -151.8383
  28   1.0000      -5.578598      -151.8014
  29   1.0000      -5.578149      -151.7891
  30   1.0000      -5.577703      -151.7770
  31   1.0000      -5.575541      -151.7182
  32   1.0000      -2.382872       -64.8412
  33   1.0000      -1.425566       -38.7916
  34   1.0000      -1.411073       -38.3973
  35   1.0000      -1.410479       -38.3811
  36   1.0000      -0.594994       -16.1906
  37   1.0000      -0.559742       -15.2313
  38   1.0000      -0.553887       -15.0720
  39   1.0000      -0.479085       -13.0366
  40   1.0000      -0.462780       -12.5929
  41   1.0000      -0.410807       -11.1786
  42   1.0000      -0.402171       -10.9436
  43   1.0000      -0.347387        -9.4529
  44   1.0000      -0.326854        -8.8941
  45   1.0000      -0.301315        -8.1992
  46   1.0000      -0.272804        -7.4234
  47   1.0000      -0.226144        -6.1537
  48   1.0000      -0.212073        -5.7708
  49   1.0000      -0.194889        -5.3032
  50   1.0000      -0.186291        -5.0692
  51   1.0000      -0.149175        -4.0593
  52   1.0000      -0.142283        -3.8717
  53   1.0000      -0.136986        -3.7276
  54   1.0000      -0.117478        -3.1967
  55   1.0000      -0.111189        -3.0256
  56   1.0000      -0.087868        -2.3910
  57   1.0000      -0.079375        -2.1599
  58   1.0000      -0.072350        -1.9687
  59   1.0000      -0.067632        -1.8404
  60   1.0000      -0.061030        -1.6607
  61   1.0000      -0.051326        -1.3967
  62   1.0000      -0.047109        -1.2819
  63   1.0000      -0.041473        -1.1285
  64   1.0000      -0.007570        -0.2060
  65   1.0000       0.020843         0.5672
  66   1.0000       0.023140         0.6297
  67   1.0000       0.028830         0.7845
  68   1.0000       0.038645         1.0516
  69   1.0000       0.046618         1.2685
  70   1.0000       0.056356         1.5335
  71   1.0000       0.065056         1.7703
  72   1.0000       0.073997         2.0136
  73   0.0000       0.203101         5.5267
  74   0.0000       0.227055         6.1785
  75   0.0000       0.239052         6.5049
  76   0.0000       0.242869         6.6088
  77   0.0000       0.254500         6.9253

                 SPIN DOWN ORBITALS
  NO   OCC          E(Eh)            E(eV)
   0   1.0000    -196.615040     -5350.1672
   1   1.0000     -88.577052     -2410.3041
   2   1.0000     -88.567547     -2410.0455
   3   1.0000     -88.566881     -2410.0273
   4   1.0000     -88.564147     -2409.9530
   5   1.0000     -21.975077      -597.9723
   6   1.0000     -18.836227      -512.5598
   7   1.0000     -18.492679      -503.2114
   8   1.0000     -18.474704      -502.7222
   9   1.0000     -18.474201      -502.7086
  10   1.0000     -10.007159      -272.3086
  11   1.0000      -9.964703      -271.1533
  12   1.0000      -9.954846      -270.8851
  13   1.0000      -9.940093      -270.4837
  14   1.0000      -9.932357      -270.2732
  15   1.0000      -9.917763      -269.8760
  16   1.0000      -7.630449      -207.6351
  17   1.0000      -7.621769      -207.3989
  18   1.0000      -7.621041      -207.3791
  19   1.0000      -7.618410      -207.3075
  20   1.0000      -5.596122      -152.2782
  21   1.0000      -5.589465      -152.0971
  22   1.0000      -5.587433      -152.0418
  23   1.0000      -5.587273      -152.0374
  24   1.0000      -5.586140      -152.0066
  25   1.0000      -5.583638      -151.9385
  26   1.0000      -5.581063      -151.8684
  27   1.0000      -5.580383      -151.8500
  28   1.0000      -5.578514      -151.7991
  29   1.0000      -5.578271      -151.7925
  30   1.0000      -5.578039      -151.7862
  31   1.0000      -5.575042      -151.7046
  32   1.0000      -2.338009       -63.6204
  33   1.0000      -1.406599       -38.2755
  34   1.0000      -1.349532       -36.7226
  35   1.0000      -1.347645       -36.6713
  36   1.0000      -0.602453       -16.3936
  37   1.0000      -0.559579       -15.2269
  38   1.0000      -0.553760       -15.0686
  39   1.0000      -0.478928       -13.0323
  40   1.0000      -0.462771       -12.5926
  41   1.0000      -0.410812       -11.1788
  42   1.0000      -0.402340       -10.9482
  43   1.0000      -0.347579        -9.4581
  44   1.0000      -0.327116        -8.9013
  45   1.0000      -0.301232        -8.1970
  46   1.0000      -0.272688        -7.4202
  47   1.0000      -0.226044        -6.1510
  48   1.0000      -0.212010        -5.7691
  49   1.0000      -0.194652        -5.2968
  50   1.0000      -0.186116        -5.0645
  51   1.0000      -0.149072        -4.0564
  52   1.0000      -0.142132        -3.8676
  53   1.0000      -0.136700        -3.7198
  54   1.0000      -0.117369        -3.1938
  55   1.0000      -0.110716        -3.0127
  56   1.0000      -0.086614        -2.3569
  57   1.0000      -0.079099        -2.1524
  58   1.0000      -0.070889        -1.9290
  59   1.0000      -0.067422        -1.8346
  60   1.0000      -0.060593        -1.6488
  61   1.0000      -0.052722        -1.4346
  62   1.0000      -0.048281        -1.3138
  63   1.0000      -0.041634        -1.1329
  64   1.0000      -0.003495        -0.0951
  65   1.0000       0.021836         0.5942
  66   1.0000       0.025930         0.7056
  67   1.0000       0.038846         1.0571
  68   1.0000       0.039761         1.0820
  69   1.0000       0.053647         1.4598
  70   1.0000       0.061051         1.6613
  71   1.0000       0.066733         1.8159
  72   0.0000       0.202203         5.5022
  73   0.0000       0.229776         6.2525
  74   0.0000       0.244659         6.6575
  75   0.0000       0.254551         6.9267
  76   0.0000       0.257016         6.9938

MULLIKEN ATOMIC CHARGES AND SPIN POPULATIONS
--------------------------------------------
   0 V :    0.517270    1.190744
   1 S :   -0.425028   -0.000353
   2 S :   -0.274459   -0.029549
   3 S :   -0.419330   -0.030216
   4 S :   -0.361206   -0.020857
   5 O :   -0.540478   -0.134818
   6 C :   -0.121819    0.008514
   7 C :   -0.218442    0.005786
   8 C :   -0.138780    0.003928
   9 H :    0.073198   -0.000989
  10 H :    0.031575    0.002426
  11 H :    0.138098    0.000485
  12 H :    0.005084   -0.000160
  13 H :    0.030576    0.000148
  14 H :   -0.144012   -0.006464
  15 C :   -0.251111   -0.002206
  16 C :   -0.280297    0.003803
  17 C :   -0.087417    0.008439
  18 H :    0.105116   -0.000173
  19 H :    0.130793   -0.000116
  20 H :    0.022588    0.001616
  21 H :    0.016289    0.000044
  22 H :    0.052240   -0.000599
  23 H :    0.139550    0.000564
Sum of atomic charges         :   -2.0000000

LOEWDIN ATOMIC CHARGES AND SPIN POPULATIONS
-------------------------------------------
   0 V :   -0.211568    1.147402
   1 S :   -0.069395    0.005015
   2 S :    0.005500   -0.019739
   3 S :   -0.058335   -0.021144
   4 S :   -0.049845   -0.011945
   5 O :   -0.372116   -0.121524
   6 C :   -0.320979    0.006882
   7 C :   -0.327272    0.007069
   8 C :   -0.219074    0.000810
   9 H :    0.041644   -0.000109
  10 H :    0.036475    0.000738
  11 H :    0.080745    0.000274
  12 H :    0.046175    0.000130
  13 H :    0.053704    0.000137
  14 H :   -0.056743   -0.005390
  15 C :   -0.315979    0.002702
  16 C :   -0.295568    0.007276
  17 C :   -0.178690    0.001190
  18 H :    0.001198    0.000038
  19 H :    0.051684   -0.000572
  20 H :    0.034948    0.000599
  21 H :    0.034906    0.000386
  22 H :    0.031882   -0.000619
  23 H :    0.056705    0.000392

  Mayer bond orders larger than 0.100000
B(  0-V ,  1-S ) :   0.7175 B(  0-V ,  2-S ) :   0.8206 B(  0-V ,  3-S ) :   0.7834
B(  0-V ,  4-S ) :   0.7764 B(  0-V ,  5-O ) :   2.0783 B(  1-S , 15-C ) :   1.0214
B(  2-S ,  6-C ) :   1.0411 B(  3-S , 16-C ) :   1.0096 B(  4-S ,  7-C ) :   1.0670
B(  6-C ,  8-C ) :   0.9319 B(  6-C , 13-H ) :   0.9104 B(  6-C , 14-H ) :   0.8382
B(  7-C ,  8-C ) :   0.9128 B(  7-C ,  9-H ) :   0.9623 B(  7-C , 10-H ) :   0.9541
B(  8-C , 11-H ) :   0.9772 B(  8-C , 12-H ) :   0.9233 B( 15-C , 17-C ) :   0.8981
B( 15-C , 22-H ) :   0.9686 B( 15-C , 23-H ) :   0.9799 B( 16-C , 17-C ) :   0.8958
B( 16-C , 18-H ) :   0.9719 B( 16-C , 19-H ) :   0.9881 B( 17-C , 20-H ) :   0.9636
B( 17-C , 21-H ) :   0.9623

FINAL SINGLE POINT ENERGY     -2847.585989739037

DIPOLE MOMENT
-------------
                                X             Y             Z
Electronic contribution:      6.51106       0.82384       2.76114
Nuclear contribution   :     -6.04448      -0.69002      -3.38560
                        -----------------------------------------
Total Dipole Moment    :      0.46658       0.13381      -0.62446
                        -----------------------------------------
Magnitude (a.u.)       :      0.79092
Magnitude (Debye)      :      2.01035

Rotational constants in cm-1:     0.027127     0.011712     0.009591
Rotational constants in MHz :   813.232463   351.115332   287.523555

                             ****ORCA TERMINATED NORMALLY****
TOTAL RUN TIME: 0 days 0 hours 14 minutes 14 seconds 896 msec
