                         Program Version 5.0.4 -  RELEASE  -
|  1> ! nofrozencore ReducedPop printbasis
|  2> ! B3LYP TZVP
|  3>
|  4> %basis
|  5> newgto V "CP(PPP)" end
|  6> end
|  7>
|  8> %pal
|  9> nprocs 8
| 10> end
| 11>
| 12> % sym SymThresh 1e-2 end
| 13> * xyz -2 2
| 14> V 0.06126547032910757 0.18187904808879912 0.4527774094692287
| 15> S -1.957192597731341 1.506686070632023 -0.2965331584209081
| 16> S -1.5582998380942044 -1.6038707901302993 0.28376743276913535
| 17> S 1.459438884771342 1.494828721151048 -1.1264842360416338
| 18> S 1.9510890536636336 -1.4751807122328109 0.21527016591539685
| 19> O 0.20263573218640807 0.6837523301309153 1.9673750468041984
| 20> C -0.5954029408877762 -3.3724645821419887 0.8169317533589012
| 21> C 1.7105057946291786 -2.5929316630000847 1.3742750562546122
| 22> C 0.37950315305777044 -3.0391620427885138 1.9594645210160755
| 23> H 2.3845737982516413 -2.4062416637396598 2.235984930571119
| 24> H 2.085935776648426 -3.5365139003581447 0.9330589116946194
| 25> H -0.08193935036910376 -2.2941805445828187 2.6205962319174185
| 26> H 0.6680196759949351 -3.9374628598597274 2.5850721805962946
| 27> H -0.040519144882811046 -3.7158189253986014 -0.06288826244657061
| 28> H -1.3733538586863812 -4.095233460173969 1.0778448397760074
| 29> C -1.5959410150842976 1.7622279769270421 -2.1101585188256182
| 30> C 0.5277696058078333 3.07327402768535 -1.4233154936619317
| 31> C -0.6609784059396637 2.951863534089825 -2.388381570581675
| 32> H 1.2379980610545422 3.8109154577021203 -1.816517794829776
| 33> H 0.16423546666248842 3.4337162621155914 -0.4611482370226361
| 34> H -0.2858021087550078 2.875335325003737 -3.4211710104148327
| 35> H -1.2455857965001866 3.884257010379284 -2.3286707897136054
| 36> H -2.548670431655432 1.917383771111472 -2.6293967878322713
| 37> H -1.1545459357694106 0.8438896924098608 -2.4975757651836563
| 38> *
| 39>
| 40> % eprnmr
| 41> gtensor true
| 42> Nuclei = all H {aiso,adip,aorb,fgrad,rho}
| 43> Nuclei = all V {aiso,adip,aorb,fgrad,rho}
| 44> end
| 45>
| 46>                          ****END OF INPUT****

CARTESIAN COORDINATES (ANGSTROEM)
---------------------------------
  V      0.061303    0.182405    0.453318
  S     -1.957155    1.507212   -0.295993
  S     -1.558262   -1.603345    0.284308
  S      1.459477    1.495355   -1.125944
  S      1.951127   -1.474655    0.215810
  O      0.202674    0.684278    1.967915
  C     -0.595365   -3.371938    0.817472
  C      1.710544   -2.592406    1.374815
  C      0.379541   -3.038636    1.960005
  H      2.384612   -2.405716    2.236525
  H      2.085974   -3.535988    0.933599
  H     -0.081901   -2.293654    2.621136
  H      0.668058   -3.936937    2.585612
  H     -0.040481   -3.715293   -0.062348
  H     -1.373316   -4.094707    1.078385
  C     -1.595903    1.762754   -2.109618
  C      0.527808    3.073800   -1.422775
  C     -0.660940    2.952390   -2.387841
  H      1.238036    3.811442   -1.815978
  H      0.164273    3.434242   -0.460608
  H     -0.285764    2.875861   -3.420631
  H     -1.245548    3.884783   -2.328131
  H     -2.548632    1.917910   -2.628857
  H     -1.154508    0.844416   -2.497036

 Total Charge           Charge          ....   -2
 Multiplicity           Mult            ....    2
 Number of Electrons    NEL             ....  145
 Basis Dimension        Dim             ....  353

ORBITAL ENERGIES
----------------
                 SPIN UP ORBITALS
  NO   OCC          E(Eh)            E(eV)
   0   1.0000    -196.607341     -5349.9577
   1   1.0000     -88.569442     -2410.0970
   2   1.0000     -88.561909     -2409.8921
   3   1.0000     -88.561409     -2409.8784
   4   1.0000     -88.547219     -2409.4923
   5   1.0000     -21.982761      -598.1813
   6   1.0000     -18.825315      -512.2629
   7   1.0000     -18.490509      -503.1523
   8   1.0000     -18.483383      -502.9584
   9   1.0000     -18.483310      -502.9564
  10   1.0000      -9.942956      -270.5616
  11   1.0000      -9.937052      -270.4009
  12   1.0000      -9.935766      -270.3659
  13   1.0000      -9.933934      -270.3161
  14   1.0000      -9.931271      -270.2436
  15   1.0000      -9.928847      -270.1777
  16   1.0000      -7.620542      -207.3655
  17   1.0000      -7.615979      -207.2413
  18   1.0000      -7.615331      -207.2237
  19   1.0000      -7.607396      -207.0078
  20   1.0000      -5.586801      -152.0246
  21   1.0000      -5.581202      -151.8722
  22   1.0000      -5.580588      -151.8555
  23   1.0000      -5.579179      -151.8172
  24   1.0000      -5.577573      -151.7735
  25   1.0000      -5.574940      -151.7018
  26   1.0000      -5.574561      -151.6915
  27   1.0000      -5.573221      -151.6551
  28   1.0000      -5.572465      -151.6345
  29   1.0000      -5.571720      -151.6142
  30   1.0000      -5.566467      -151.4713
  31   1.0000      -5.564188      -151.4092
  32   1.0000      -2.375456       -64.6394
  33   1.0000      -1.418151       -38.5899
  34   1.0000      -1.403574       -38.1932
  35   1.0000      -1.403136       -38.1813
  36   1.0000      -0.587880       -15.9970
  37   1.0000      -0.563591       -15.3361
  38   1.0000      -0.550255       -14.9732
  39   1.0000      -0.477240       -12.9864
  40   1.0000      -0.465419       -12.6647
  41   1.0000      -0.403291       -10.9741
  42   1.0000      -0.394790       -10.7428
  43   1.0000      -0.339736        -9.2447
  44   1.0000      -0.331539        -9.0216
  45   1.0000      -0.295587        -8.0433
  46   1.0000      -0.287599        -7.8260
  47   1.0000      -0.215019        -5.8510
  48   1.0000      -0.213299        -5.8042
  49   1.0000      -0.202790        -5.5182
  50   1.0000      -0.191734        -5.2173
  51   1.0000      -0.159759        -4.3473
  52   1.0000      -0.134777        -3.6675
  53   1.0000      -0.132135        -3.5956
  54   1.0000      -0.114661        -3.1201
  55   1.0000      -0.109235        -2.9724
  56   1.0000      -0.105100        -2.8599
  57   1.0000      -0.088955        -2.4206
  58   1.0000      -0.066414        -1.8072
  59   1.0000      -0.062194        -1.6924
  60   1.0000      -0.053364        -1.4521
  61   1.0000      -0.047139        -1.2827
  62   1.0000      -0.044594        -1.2135
  63   1.0000      -0.031620        -0.8604
  64   1.0000      -0.000806        -0.0219
  65   1.0000       0.025176         0.6851
  66   1.0000       0.031884         0.8676
  67   1.0000       0.039377         1.0715
  68   1.0000       0.047609         1.2955
  69   1.0000       0.051892         1.4121
  70   1.0000       0.062515         1.7011
  71   1.0000       0.073196         1.9918
  72   1.0000       0.082226         2.2375
  73   0.0000       0.233675         6.3586
  74   0.0000       0.245856         6.6901
  75   0.0000       0.249232         6.7819
  76   0.0000       0.250688         6.8216
  77   0.0000       0.257724         7.0130

                 SPIN DOWN ORBITALS
  NO   OCC          E(Eh)            E(eV)
   0   1.0000    -196.607482     -5349.9616
   1   1.0000     -88.569645     -2410.1026
   2   1.0000     -88.562067     -2409.8964
   3   1.0000     -88.561363     -2409.8772
   4   1.0000     -88.547331     -2409.4954
   5   1.0000     -21.967733      -597.7724
   6   1.0000     -18.828806      -512.3578
   7   1.0000     -18.485310      -503.0108
   8   1.0000     -18.467367      -502.5226
   9   1.0000     -18.466857      -502.5087
  10   1.0000      -9.942727      -270.5553
  11   1.0000      -9.936994      -270.3994
  12   1.0000      -9.935584      -270.3610
  13   1.0000      -9.933890      -270.3149
  14   1.0000      -9.931306      -270.2446
  15   1.0000      -9.928733      -270.1745
  16   1.0000      -7.620739      -207.3708
  17   1.0000      -7.616129      -207.2454
  18   1.0000      -7.615289      -207.2226
  19   1.0000      -7.607504      -207.0107
  20   1.0000      -5.587040      -152.0311
  21   1.0000      -5.581357      -151.8765
  22   1.0000      -5.580594      -151.8557
  23   1.0000      -5.579659      -151.8302
  24   1.0000      -5.577724      -151.7776
  25   1.0000      -5.575357      -151.7132
  26   1.0000      -5.574883      -151.7003
  27   1.0000      -5.573336      -151.6582
  28   1.0000      -5.571943      -151.6203
  29   1.0000      -5.571828      -151.6172
  30   1.0000      -5.566880      -151.4825
  31   1.0000      -5.564150      -151.4082
  32   1.0000      -2.330581       -63.4183
  33   1.0000      -1.399167       -38.0733
  34   1.0000      -1.342084       -36.5200
  35   1.0000      -1.340219       -36.4692
  36   1.0000      -0.595340       -16.2000
  37   1.0000      -0.563536       -15.3346
  38   1.0000      -0.550087       -14.9686
  39   1.0000      -0.477142       -12.9837
  40   1.0000      -0.465264       -12.6605
  41   1.0000      -0.403284       -10.9739
  42   1.0000      -0.394941       -10.7469
  43   1.0000      -0.339929        -9.2499
  44   1.0000      -0.331956        -9.0330
  45   1.0000      -0.295598        -8.0436
  46   1.0000      -0.287622        -7.8266
  47   1.0000      -0.214948        -5.8490
  48   1.0000      -0.213211        -5.8018
  49   1.0000      -0.202667        -5.5149
  50   1.0000      -0.191548        -5.2123
  51   1.0000      -0.159625        -4.3436
  52   1.0000      -0.134610        -3.6629
  53   1.0000      -0.131871        -3.5884
  54   1.0000      -0.114659        -3.1200
  55   1.0000      -0.109165        -2.9705
  56   1.0000      -0.104933        -2.8554
  57   1.0000      -0.088033        -2.3955
  58   1.0000      -0.064720        -1.7611
  59   1.0000      -0.061877        -1.6837
  60   1.0000      -0.052349        -1.4245
  61   1.0000      -0.047244        -1.2856
  62   1.0000      -0.046236        -1.2581
  63   1.0000      -0.032038        -0.8718
  64   1.0000       0.003847         0.1047
  65   1.0000       0.026509         0.7214
  66   1.0000       0.034167         0.9297
  67   1.0000       0.046886         1.2758
  68   1.0000       0.048344         1.3155
  69   1.0000       0.059140         1.6093
  70   1.0000       0.066630         1.8131
  71   1.0000       0.078105         2.1254
  72   0.0000       0.229963         6.2576
  73   0.0000       0.248587         6.7644
  74   0.0000       0.254420         6.9231
  75   0.0000       0.260357         7.0847
  76   0.0000       0.264744         7.2041

MULLIKEN ATOMIC CHARGES AND SPIN POPULATIONS
--------------------------------------------
   0 V :    0.529622    1.192589
   1 S :   -0.420062    0.001521
   2 S :   -0.357479   -0.039456
   3 S :   -0.412167   -0.028662
   4 S :   -0.359603   -0.022298
   5 O :   -0.545980   -0.134669
   6 C :   -0.293358    0.013698
   7 C :   -0.235971    0.000398
   8 C :   -0.109187    0.003200
   9 H :    0.057253   -0.000731
  10 H :    0.036866    0.002543
  11 H :    0.136007    0.000521
  12 H :   -0.004296    0.000040
  13 H :    0.097298   -0.000495
  14 H :    0.055450    0.000400
  15 C :   -0.251673   -0.002241
  16 C :   -0.250636    0.003514
  17 C :   -0.076327    0.008653
  18 H :    0.047791   -0.000078
  19 H :    0.130807   -0.000208
  20 H :    0.017163    0.001656
  21 H :    0.014532    0.000104
  22 H :    0.053386   -0.000519
  23 H :    0.140565    0.000518
Sum of atomic charges         :   -2.0000000

LOEWDIN ATOMIC CHARGES AND SPIN POPULATIONS
-------------------------------------------
   0 V :   -0.209014    1.148402
   1 S :   -0.068443    0.006533
   2 S :   -0.086585   -0.027157
   3 S :   -0.064474   -0.020057
   4 S :    0.017390   -0.013699
   5 O :   -0.376105   -0.121335
   6 C :   -0.280962    0.011178
   7 C :   -0.389931    0.003411
   8 C :   -0.188854    0.000138
   9 H :    0.022643    0.000026
  10 H :    0.024444    0.000433
  11 H :    0.067652    0.000387
  12 H :    0.032577    0.000203
  13 H :    0.050378   -0.000044
  14 H :    0.029301   -0.000128
  15 C :   -0.311165    0.002770
  16 C :   -0.323158    0.007609
  17 C :   -0.188485    0.001239
  18 H :    0.028466   -0.000218
  19 H :    0.053915   -0.000602
  20 H :    0.036535    0.000644
  21 H :    0.035503    0.000413
  22 H :    0.031055   -0.000549
  23 H :    0.057319    0.000402

  Mayer bond orders larger than 0.100000
B(  0-V ,  1-S ) :   0.7039 B(  0-V ,  2-S ) :   0.8660 B(  0-V ,  3-S ) :   0.7681
B(  0-V ,  4-S ) :   0.7694 B(  0-V ,  5-O ) :   2.0737 B(  1-S , 15-C ) :   1.0114
B(  2-S ,  6-C ) :   0.9464 B(  3-S , 16-C ) :   1.0254 B(  4-S ,  7-C ) :   1.1853
B(  4-S ,  8-C ) :  -0.1056 B(  6-C ,  8-C ) :   0.9220 B(  6-C , 13-H ) :   0.9766
B(  6-C , 14-H ) :   0.9625 B(  7-C ,  8-C ) :   0.8694 B(  7-C ,  9-H ) :   0.9581
B(  7-C , 10-H ) :   0.9629 B(  8-C , 11-H ) :   0.9754 B(  8-C , 12-H ) :   0.9445
B( 15-C , 17-C ) :   0.8987 B( 15-C , 22-H ) :   0.9683 B( 15-C , 23-H ) :   0.9785
B( 16-C , 17-C ) :   0.9028 B( 16-C , 18-H ) :   0.9633 B( 16-C , 19-H ) :   0.9763
B( 17-C , 20-H ) :   0.9578 B( 17-C , 21-H ) :   0.9610

FINAL SINGLE POINT ENERGY     -2847.678774788290

DIPOLE MOMENT
-------------
                                X             Y             Z
Electronic contribution:      0.42711       3.59876       5.24384
Nuclear contribution   :     -0.45491      -3.84602      -5.56612
                        -----------------------------------------
Total Dipole Moment    :     -0.02780      -0.24726      -0.32228
                        -----------------------------------------
Magnitude (a.u.)       :      0.40715
Magnitude (Debye)      :      1.03490

Rotational constants in cm-1:     0.027228     0.011703     0.009599
Rotational constants in MHz :   816.278455   350.851920   287.778988

                             ****ORCA TERMINATED NORMALLY****
TOTAL RUN TIME: 0 days 0 hours 9 minutes 35 seconds 851 msec
