                         Program Version 5.0.4 -  RELEASE  -
|  1> ! nofrozencore ReducedPop printbasis
|  2> ! B3LYP TZVP
|  3>
|  4> %basis
|  5> newgto V "CP(PPP)" end
|  6> end
|  7>
|  8> %pal
|  9> nprocs 8
| 10> end
| 11>
| 12> % sym SymThresh 1e-2 end
| 13> * xyz -2 2
| 14> V -0.04230934901132704 0.41169734568173566 0.2655350992578028
| 15> S 2.2672416897786616 -0.35623506151700796 0.9619758253623495
| 16> S 1.0820059333454741 0.6764240271139458 -1.8905854048527249
| 17> S -1.0107353144805427 -1.4634994388560423 1.5717167857199872
| 18> S -2.229499072304265 0.2177749545700232 -0.9027511079175954
| 19> O -0.13501177565310196 1.8164820009953389 1.0329011580707839
| 20> C -0.16502244146043024 1.348164761623723 -3.1010204144580356
| 21> C -2.432839980778237 1.7131747813084843 -1.969029210076015
| 22> C -1.140116079015943 2.344237460354408 -2.5389316147225056
| 23> H -3.0768553335557356 2.292698485142086 -1.262614929760379
| 24> H -2.9987447406120067 1.5257115435950808 -2.9089135352482622
| 25> H -0.44406993980117904 2.847973174354511 -1.8290032630545163
| 26> H -1.3579132574372992 3.0971719921196357 -3.3198356508403712
| 27> H -0.498869723928753 0.3373470078023538 -3.4671562401321125
| 28> H 0.27997555549076036 1.9413679221782987 -3.931675717947089
| 29> C 2.064388852179426 -2.1942147091838518 0.9888198274000871
| 30> C 0.2756549023268829 -1.9161880907148034 2.8221657320786306
| 31> C 1.4499152653760594 -2.7398823871102254 2.284841832574554
| 32> H -0.2198865645991381 -2.4771443170405365 3.6240683634006636
| 33> H 0.6669636382428314 -0.9926789848953461 3.2489659354530067
| 34> H 1.1211286146422406 -3.7761075799241657 2.1079883090163545
| 35> H 2.2223656466045387 -2.777543510049782 3.0701056040863355
| 36> H 3.049900824795859 -2.647066666011141 0.8292448249330258
| 37> H 1.434055676606305 -2.480856847206003 0.14644631965782948
| 38> *
| 39>
| 40> % eprnmr
| 41> gtensor true
| 42> Nuclei = all H {aiso,adip,aorb,fgrad,rho}
| 43> Nuclei = all V {aiso,adip,aorb,fgrad,rho}
| 44> end
| 45>
| 46>                          ****END OF INPUT****

CARTESIAN COORDINATES (ANGSTROEM)
---------------------------------
  V     -0.042250    0.412146    0.266140
  S      2.267301   -0.355787    0.962580
  S      1.082065    0.676873   -1.889981
  S     -1.010676   -1.463051    1.572321
  S     -2.229440    0.218224   -0.902147
  O     -0.134953    1.816931    1.033506
  C     -0.164963    1.348613   -3.100416
  C     -2.432781    1.713623   -1.968425
  C     -1.140057    2.344686   -2.538327
  H     -3.076796    2.293147   -1.262010
  H     -2.998686    1.526160   -2.908309
  H     -0.444011    2.848422   -1.828399
  H     -1.357854    3.097621   -3.319231
  H     -0.498811    0.337796   -3.466552
  H      0.280035    1.941816   -3.931071
  C      2.064448   -2.193766    0.989424
  C      0.275714   -1.915740    2.822770
  C      1.449974   -2.739434    2.285446
  H     -0.219827   -2.476696    3.624673
  H      0.667023   -0.992230    3.249570
  H      1.121188   -3.775659    2.108593
  H      2.222425   -2.777095    3.070710
  H      3.049960   -2.646618    0.829849
  H      1.434115   -2.480408    0.147051

 Total Charge           Charge          ....   -2
 Multiplicity           Mult            ....    2
 Number of Electrons    NEL             ....  145
 Basis Dimension        Dim             ....  353

ORBITAL ENERGIES
----------------
                 SPIN UP ORBITALS
  NO   OCC          E(Eh)            E(eV)
   0   1.0000    -196.607981     -5349.9752
   1   1.0000     -88.561925     -2409.8925
   2   1.0000     -88.560473     -2409.8530
   3   1.0000     -88.559043     -2409.8141
   4   1.0000     -88.557929     -2409.7837
   5   1.0000     -21.983278      -598.1954
   6   1.0000     -18.825062      -512.2560
   7   1.0000     -18.491031      -503.1665
   8   1.0000     -18.483921      -502.9730
   9   1.0000     -18.483823      -502.9704
  10   1.0000      -9.948429      -270.7105
  11   1.0000      -9.937917      -270.4245
  12   1.0000      -9.934691      -270.3367
  13   1.0000      -9.934471      -270.3307
  14   1.0000      -9.932940      -270.2890
  15   1.0000      -9.932151      -270.2676
  16   1.0000      -7.616096      -207.2445
  17   1.0000      -7.614512      -207.2014
  18   1.0000      -7.613577      -207.1760
  19   1.0000      -7.612237      -207.1395
  20   1.0000      -5.581284      -151.8744
  21   1.0000      -5.579850      -151.8354
  22   1.0000      -5.579042      -151.8134
  23   1.0000      -5.577477      -151.7709
  24   1.0000      -5.575109      -151.7064
  25   1.0000      -5.573461      -151.6616
  26   1.0000      -5.573327      -151.6579
  27   1.0000      -5.572658      -151.6397
  28   1.0000      -5.571592      -151.6107
  29   1.0000      -5.571461      -151.6072
  30   1.0000      -5.570367      -151.5774
  31   1.0000      -5.569293      -151.5482
  32   1.0000      -2.375833       -64.6497
  33   1.0000      -1.418329       -38.5947
  34   1.0000      -1.403994       -38.2046
  35   1.0000      -1.403525       -38.1918
  36   1.0000      -0.587386       -15.9836
  37   1.0000      -0.554303       -15.0834
  38   1.0000      -0.551215       -14.9993
  39   1.0000      -0.470738       -12.8094
  40   1.0000      -0.466214       -12.6863
  41   1.0000      -0.405469       -11.0334
  42   1.0000      -0.398527       -10.8445
  43   1.0000      -0.337913        -9.1951
  44   1.0000      -0.325773        -8.8647
  45   1.0000      -0.298865        -8.1325
  46   1.0000      -0.285659        -7.7732
  47   1.0000      -0.214345        -5.8326
  48   1.0000      -0.210463        -5.7270
  49   1.0000      -0.203463        -5.5365
  50   1.0000      -0.200476        -5.4552
  51   1.0000      -0.160374        -4.3640
  52   1.0000      -0.134354        -3.6560
  53   1.0000      -0.131893        -3.5890
  54   1.0000      -0.114206        -3.1077
  55   1.0000      -0.108312        -2.9473
  56   1.0000      -0.102337        -2.7847
  57   1.0000      -0.079830        -2.1723
  58   1.0000      -0.065328        -1.7777
  59   1.0000      -0.062221        -1.6931
  60   1.0000      -0.051957        -1.4138
  61   1.0000      -0.046585        -1.2676
  62   1.0000      -0.042054        -1.1444
  63   1.0000      -0.034808        -0.9472
  64   1.0000      -0.001595        -0.0434
  65   1.0000       0.026328         0.7164
  66   1.0000       0.029810         0.8112
  67   1.0000       0.036226         0.9858
  68   1.0000       0.045560         1.2397
  69   1.0000       0.054479         1.4824
  70   1.0000       0.065272         1.7761
  71   1.0000       0.074048         2.0149
  72   1.0000       0.080729         2.1967
  73   0.0000       0.233879         6.3642
  74   0.0000       0.245046         6.6680
  75   0.0000       0.248744         6.7687
  76   0.0000       0.250361         6.8127
  77   0.0000       0.258314         7.0291

                 SPIN DOWN ORBITALS
  NO   OCC          E(Eh)            E(eV)
   0   1.0000    -196.608123     -5349.9790
   1   1.0000     -88.562084     -2409.8968
   2   1.0000     -88.560642     -2409.8576
   3   1.0000     -88.559153     -2409.8171
   4   1.0000     -88.557902     -2409.7830
   5   1.0000     -21.968231      -597.7860
   6   1.0000     -18.828566      -512.3513
   7   1.0000     -18.485816      -503.0246
   8   1.0000     -18.467866      -502.5362
   9   1.0000     -18.467375      -502.5228
  10   1.0000      -9.948234      -270.7052
  11   1.0000      -9.937774      -270.4206
  12   1.0000      -9.934509      -270.3317
  13   1.0000      -9.934415      -270.3292
  14   1.0000      -9.932968      -270.2898
  15   1.0000      -9.932110      -270.2665
  16   1.0000      -7.616247      -207.2486
  17   1.0000      -7.614678      -207.2059
  18   1.0000      -7.613680      -207.1788
  19   1.0000      -7.612213      -207.1388
  20   1.0000      -5.581438      -151.8786
  21   1.0000      -5.580018      -151.8400
  22   1.0000      -5.579170      -151.8169
  23   1.0000      -5.577493      -151.7713
  24   1.0000      -5.575531      -151.7179
  25   1.0000      -5.573895      -151.6734
  26   1.0000      -5.573444      -151.6611
  27   1.0000      -5.573054      -151.6505
  28   1.0000      -5.571800      -151.6164
  29   1.0000      -5.571713      -151.6140
  30   1.0000      -5.570320      -151.5761
  31   1.0000      -5.568824      -151.5354
  32   1.0000      -2.330913       -63.4274
  33   1.0000      -1.399283       -38.0764
  34   1.0000      -1.342442       -36.5297
  35   1.0000      -1.340599       -36.4796
  36   1.0000      -0.594907       -16.1883
  37   1.0000      -0.554208       -15.0808
  38   1.0000      -0.551056       -14.9950
  39   1.0000      -0.470648       -12.8070
  40   1.0000      -0.466081       -12.6827
  41   1.0000      -0.405575       -11.0362
  42   1.0000      -0.398662       -10.8481
  43   1.0000      -0.338035        -9.1984
  44   1.0000      -0.326144        -8.8748
  45   1.0000      -0.298814        -8.1311
  46   1.0000      -0.285678        -7.7737
  47   1.0000      -0.214279        -5.8308
  48   1.0000      -0.210403        -5.7254
  49   1.0000      -0.203299        -5.5320
  50   1.0000      -0.200343        -5.4516
  51   1.0000      -0.160314        -4.3624
  52   1.0000      -0.134168        -3.6509
  53   1.0000      -0.131620        -3.5816
  54   1.0000      -0.114059        -3.1037
  55   1.0000      -0.108245        -2.9455
  56   1.0000      -0.102189        -2.7807
  57   1.0000      -0.078023        -2.1231
  58   1.0000      -0.063958        -1.7404
  59   1.0000      -0.061925        -1.6851
  60   1.0000      -0.051540        -1.4025
  61   1.0000      -0.047268        -1.2862
  62   1.0000      -0.043039        -1.1711
  63   1.0000      -0.035796        -0.9740
  64   1.0000       0.003343         0.0910
  65   1.0000       0.027348         0.7442
  66   1.0000       0.032686         0.8894
  67   1.0000       0.045373         1.2347
  68   1.0000       0.046162         1.2561
  69   1.0000       0.063931         1.7397
  70   1.0000       0.067225         1.8293
  71   1.0000       0.076052         2.0695
  72   0.0000       0.231747         6.3062
  73   0.0000       0.249612         6.7923
  74   0.0000       0.253620         6.9013
  75   0.0000       0.260733         7.0949
  76   0.0000       0.264146         7.1878

MULLIKEN ATOMIC CHARGES AND SPIN POPULATIONS
--------------------------------------------
   0 V :    0.523322    1.191494
   1 S :   -0.424794   -0.001478
   2 S :   -0.357716   -0.031991
   3 S :   -0.409409   -0.029281
   4 S :   -0.390458   -0.021929
   5 O :   -0.543077   -0.135155
   6 C :   -0.255415    0.006807
   7 C :   -0.221888    0.004697
   8 C :   -0.142216    0.003338
   9 H :    0.082062   -0.000539
  10 H :    0.038916    0.002688
  11 H :    0.126595    0.000953
  12 H :    0.014412    0.000100
  13 H :    0.102563   -0.000220
  14 H :    0.035893   -0.000767
  15 C :   -0.256822   -0.002385
  16 C :   -0.252195    0.003823
  17 C :   -0.069560    0.008474
  18 H :    0.047488   -0.000069
  19 H :    0.131310   -0.000245
  20 H :    0.015412    0.001574
  21 H :    0.012852    0.000104
  22 H :    0.053069   -0.000560
  23 H :    0.139656    0.000565
Sum of atomic charges         :   -2.0000000

LOEWDIN ATOMIC CHARGES AND SPIN POPULATIONS
-------------------------------------------
   0 V :   -0.210999    1.148234
   1 S :   -0.070162    0.003960
   2 S :   -0.045686   -0.021764
   3 S :   -0.060040   -0.020310
   4 S :   -0.063107   -0.013240
   5 O :   -0.375653   -0.121819
   6 C :   -0.335768    0.005780
   7 C :   -0.319841    0.007301
   8 C :   -0.195182    0.000130
   9 H :    0.044426   -0.000011
  10 H :    0.032358    0.000783
  11 H :    0.076027    0.000449
  12 H :    0.030000    0.000181
  13 H :    0.053935   -0.000257
  14 H :    0.030692   -0.000786
  15 C :   -0.317911    0.002632
  16 C :   -0.324764    0.007620
  17 C :   -0.188766    0.001143
  18 H :    0.028436   -0.000192
  19 H :    0.054003   -0.000616
  20 H :    0.036040    0.000604
  21 H :    0.035153    0.000401
  22 H :    0.030537   -0.000592
  23 H :    0.056272    0.000369

  Mayer bond orders larger than 0.100000
B(  0-V ,  1-S ) :   0.7116 B(  0-V ,  2-S ) :   0.8506 B(  0-V ,  3-S ) :   0.7717
B(  0-V ,  4-S ) :   0.7760 B(  0-V ,  5-O ) :   2.0755 B(  1-S , 15-C ) :   1.0249
B(  2-S ,  6-C ) :   1.0215 B(  3-S , 16-C ) :   1.0247 B(  4-S ,  7-C ) :   1.0460
B(  6-C ,  8-C ) :   0.8819 B(  6-C , 13-H ) :   0.9894 B(  6-C , 14-H ) :   0.9501
B(  7-C ,  8-C ) :   0.9196 B(  7-C ,  9-H ) :   0.9861 B(  7-C , 10-H ) :   0.9505
B(  8-C , 11-H ) :   0.9669 B(  8-C , 12-H ) :   0.9608 B( 15-C , 17-C ) :   0.8958
B( 15-C , 22-H ) :   0.9688 B( 15-C , 23-H ) :   0.9791 B( 16-C , 17-C ) :   0.9026
B( 16-C , 18-H ) :   0.9634 B( 16-C , 19-H ) :   0.9760 B( 17-C , 20-H ) :   0.9581
B( 17-C , 21-H ) :   0.9592

FINAL SINGLE POINT ENERGY     -2847.693158691690

DIPOLE MOMENT
-------------
                                X             Y             Z
Electronic contribution:     -0.40430       4.58068       4.30059
Nuclear contribution   :      0.35790      -4.76382      -4.66508
                        -----------------------------------------
Total Dipole Moment    :     -0.04640      -0.18314      -0.36448
                        -----------------------------------------
Magnitude (a.u.)       :      0.41054
Magnitude (Debye)      :      1.04351

Rotational constants in cm-1:     0.027233     0.011725     0.009597
Rotational constants in MHz :   816.427819   351.509823   287.705387

                             ****ORCA TERMINATED NORMALLY****
TOTAL RUN TIME: 0 days 0 hours 9 minutes 39 seconds 129 msec
