                         Program Version 5.0.4 -  RELEASE  -
|  1> ! nofrozencore ReducedPop printbasis
|  2> ! B3LYP TZVP
|  3>
|  4> %basis
|  5> newgto V "CP(PPP)" end
|  6> end
|  7>
|  8> %pal
|  9> nprocs 4
| 10> end
| 11>
| 12> % sym SymThresh 1e-2 end
| 13> * xyz -2 2
| 14> V -0.2780580876395319 0.3833757135502383 -0.13319064812550455
| 15> S -2.048917003670845 -1.40472106842734 0.14138743023988712
| 16> S -0.06864193646364042 0.045398986224047394 2.281843755251299
| 17> S 0.5024225695858802 -0.7693012664156675 -2.18861583385732
| 18> S 2.048043119080344 1.2625223112183477 -0.21019128980416302
| 19> O -1.1905286918100801 1.662596484986084 -0.4475346700278066
| 20> C 1.2378145914978835 1.2039755156202778 2.9078573147401534
| 21> C 2.146940793605652 2.657692888589647 1.0025408926033628
| 22> C 1.2546197713969711 2.6127784792402116 2.263306412106195
| 23> H 1.9340919346174865 3.644101162212028 0.4508034430009726
| 24> H 3.285663542667642 2.698521937687828 1.3653990078611622
| 25> H 0.2740672352427366 2.8280941766656547 1.9747181998647847
| 26> H 1.3801655414296277 2.923607865935604 2.543020471723285
| 27> H 2.240488109850155 0.7289266452560678 2.79570204600183
| 28> H 1.0244699088574416 1.3340189512282032 4.072279275504521
| 29> C -1.166875269172953 -2.910954452076797 -0.4692049098462435
| 30> C -0.9357122711640073 -1.7773259928710168 -2.770531244377538
| 31> C -1.1828565029205893 -3.0745005723682484 -1.9943622543446782
| 32> H -0.7664359676215784 -2.014904312907814 -3.829235478754404
| 33> H -1.8282824463434424 -1.154800812695514 -2.7030352881015483
| 34> H -0.4219652099889798 -3.8238933663274497 -2.2761900607405083
| 35> H -2.1641845460603824 -3.4787570542914157 -2.3062446090499864
| 36> H -1.6256415264706245 -3.792090865001076 -0.0031622953129573843
| 37> H -0.13412505857114665 -2.8599171313230327 -0.122171620625738
| 38> *
| 39>
| 40> % eprnmr
| 41> gtensor true
| 42> Nuclei = all H {aiso,adip,aorb,fgrad,rho}
| 43> Nuclei = all V {aiso,adip,aorb,fgrad,rho}
| 44> end
| 45>
| 46>                          ****END OF INPUT****

CARTESIAN COORDINATES (ANGSTROEM)
---------------------------------
  V     -0.278607    0.383745   -0.133554
  S     -2.049466   -1.404352    0.141024
  S     -0.069191    0.045768    2.281481
  S      0.501873   -0.768932   -2.188979
  S      2.047494    1.262892   -0.210554
  O     -1.191078    1.662966   -0.447898
  C      1.237265    1.204345    2.907494
  C      2.146392    2.658062    1.002178
  C      1.254071    2.613148    2.262943
  H      1.933543    3.644470    0.450440
  H      3.285114    2.698891    1.365036
  H      0.273518    2.828464    1.974355
  H      1.379616    2.923977    2.542658
  H      2.239939    0.729296    2.795339
  H      1.023921    1.334388    4.071916
  C     -1.167424   -2.910585   -0.469568
  C     -0.936261   -1.776957   -2.770894
  C     -1.183406   -3.074131   -1.994725
  H     -0.766985   -2.014535   -3.829598
  H     -1.828832   -1.154431   -2.703398
  H     -0.422514   -3.823524   -2.276553
  H     -2.164734   -3.478388   -2.306608
  H     -1.626191   -3.791722   -0.003525
  H     -0.134674   -2.859548   -0.122535

 Total Charge           Charge          ....   -2
 Multiplicity           Mult            ....    2
 Number of Electrons    NEL             ....  145
 Basis Dimension        Dim             ....  353

ORBITAL ENERGIES
----------------
                 SPIN UP ORBITALS
  NO   OCC          E(Eh)            E(eV)
   0   1.0000    -196.607148     -5349.9525
   1   1.0000     -88.561779     -2409.8885
   2   1.0000     -88.561490     -2409.8807
   3   1.0000     -88.560706     -2409.8593
   4   1.0000     -88.557650     -2409.7762
   5   1.0000     -21.982670      -598.1789
   6   1.0000     -18.825236      -512.2607
   7   1.0000     -18.490417      -503.1498
   8   1.0000     -18.483270      -502.9554
   9   1.0000     -18.483241      -502.9546
  10   1.0000      -9.997708      -272.0515
  11   1.0000      -9.959701      -271.0173
  12   1.0000      -9.948508      -270.7127
  13   1.0000      -9.934735      -270.3379
  14   1.0000      -9.934463      -270.3305
  15   1.0000      -9.932858      -270.2868
  16   1.0000      -7.615996      -207.2418
  17   1.0000      -7.615221      -207.2207
  18   1.0000      -7.614829      -207.2100
  19   1.0000      -7.611999      -207.1330
  20   1.0000      -5.581179      -151.8716
  21   1.0000      -5.580674      -151.8579
  22   1.0000      -5.580348      -151.8490
  23   1.0000      -5.577231      -151.7642
  24   1.0000      -5.574985      -151.7031
  25   1.0000      -5.574051      -151.6776
  26   1.0000      -5.573833      -151.6717
  27   1.0000      -5.573221      -151.6551
  28   1.0000      -5.572362      -151.6317
  29   1.0000      -5.571746      -151.6149
  30   1.0000      -5.571224      -151.6007
  31   1.0000      -5.569051      -151.5416
  32   1.0000      -2.375266       -64.6343
  33   1.0000      -1.417952       -38.5844
  34   1.0000      -1.403371       -38.1877
  35   1.0000      -1.402884       -38.1744
  36   1.0000      -0.587789       -15.9946
  37   1.0000      -0.580557       -15.7977
  38   1.0000      -0.550945       -14.9920
  39   1.0000      -0.466238       -12.6870
  40   1.0000      -0.459286       -12.4978
  41   1.0000      -0.443245       -12.0613
  42   1.0000      -0.401674       -10.9301
  43   1.0000      -0.337197        -9.1756
  44   1.0000      -0.322713        -8.7815
  45   1.0000      -0.313975        -8.5437
  46   1.0000      -0.285702        -7.7744
  47   1.0000      -0.247725        -6.7409
  48   1.0000      -0.214003        -5.8233
  49   1.0000      -0.202879        -5.5206
  50   1.0000      -0.195074        -5.3082
  51   1.0000      -0.156249        -4.2517
  52   1.0000      -0.134321        -3.6551
  53   1.0000      -0.131752        -3.5852
  54   1.0000      -0.108093        -2.9414
  55   1.0000      -0.107545        -2.9265
  56   1.0000      -0.102001        -2.7756
  57   1.0000      -0.083878        -2.2824
  58   1.0000      -0.073221        -1.9924
  59   1.0000      -0.064360        -1.7513
  60   1.0000      -0.056627        -1.5409
  61   1.0000      -0.048741        -1.3263
  62   1.0000      -0.043074        -1.1721
  63   1.0000      -0.037327        -1.0157
  64   1.0000      -0.000726        -0.0198
  65   1.0000       0.027649         0.7524
  66   1.0000       0.030049         0.8177
  67   1.0000       0.036379         0.9899
  68   1.0000       0.045125         1.2279
  69   1.0000       0.053304         1.4505
  70   1.0000       0.063993         1.7413
  71   1.0000       0.072364         1.9691
  72   1.0000       0.080646         2.1945
  73   0.0000       0.234435         6.3793
  74   0.0000       0.246304         6.7023
  75   0.0000       0.249709         6.7949
  76   0.0000       0.256860         6.9895
  77   0.0000       0.258515         7.0345

                 SPIN DOWN ORBITALS
  NO   OCC          E(Eh)            E(eV)
   0   1.0000    -196.607289     -5349.9563
   1   1.0000     -88.561938     -2409.8929
   2   1.0000     -88.561667     -2409.8855
   3   1.0000     -88.560812     -2409.8622
   4   1.0000     -88.557624     -2409.7754
   5   1.0000     -21.967635      -597.7697
   6   1.0000     -18.828679      -512.3544
   7   1.0000     -18.485227      -503.0086
   8   1.0000     -18.467213      -502.5184
   9   1.0000     -18.466800      -502.5072
  10   1.0000      -9.997724      -272.0519
  11   1.0000      -9.959515      -271.0122
  12   1.0000      -9.948373      -270.7090
  13   1.0000      -9.934557      -270.3330
  14   1.0000      -9.934406      -270.3289
  15   1.0000      -9.932816      -270.2857
  16   1.0000      -7.616147      -207.2459
  17   1.0000      -7.615393      -207.2254
  18   1.0000      -7.614929      -207.2128
  19   1.0000      -7.611975      -207.1324
  20   1.0000      -5.581331      -151.8757
  21   1.0000      -5.580840      -151.8624
  22   1.0000      -5.580473      -151.8524
  23   1.0000      -5.577247      -151.7646
  24   1.0000      -5.575405      -151.7145
  25   1.0000      -5.574507      -151.6901
  26   1.0000      -5.574239      -151.6828
  27   1.0000      -5.573339      -151.6583
  28   1.0000      -5.572494      -151.6353
  29   1.0000      -5.571677      -151.6130
  30   1.0000      -5.571561      -151.6099
  31   1.0000      -5.568584      -151.5289
  32   1.0000      -2.330387       -63.4131
  33   1.0000      -1.399003       -38.0688
  34   1.0000      -1.341809       -36.5125
  35   1.0000      -1.339997       -36.4632
  36   1.0000      -0.595091       -16.1933
  37   1.0000      -0.580567       -15.7980
  38   1.0000      -0.550787       -14.9877
  39   1.0000      -0.466107       -12.6834
  40   1.0000      -0.459272       -12.4974
  41   1.0000      -0.443278       -12.0622
  42   1.0000      -0.401659       -10.9297
  43   1.0000      -0.337315        -9.1788
  44   1.0000      -0.323120        -8.7925
  45   1.0000      -0.314063        -8.5461
  46   1.0000      -0.285712        -7.7746
  47   1.0000      -0.247671        -6.7395
  48   1.0000      -0.213940        -5.8216
  49   1.0000      -0.202778        -5.5179
  50   1.0000      -0.195016        -5.3066
  51   1.0000      -0.156176        -4.2498
  52   1.0000      -0.134122        -3.6496
  53   1.0000      -0.131472        -3.5775
  54   1.0000      -0.108029        -2.9396
  55   1.0000      -0.107438        -2.9235
  56   1.0000      -0.101923        -2.7735
  57   1.0000      -0.082356        -2.2410
  58   1.0000      -0.071311        -1.9405
  59   1.0000      -0.063218        -1.7202
  60   1.0000      -0.056870        -1.5475
  61   1.0000      -0.048946        -1.3319
  62   1.0000      -0.043996        -1.1972
  63   1.0000      -0.039051        -1.0626
  64   1.0000       0.003643         0.0991
  65   1.0000       0.028677         0.7803
  66   1.0000       0.033024         0.8986
  67   1.0000       0.045306         1.2328
  68   1.0000       0.045904         1.2491
  69   1.0000       0.061484         1.6731
  70   1.0000       0.067917         1.8481
  71   1.0000       0.073678         2.0049
  72   0.0000       0.232741         6.3332
  73   0.0000       0.250545         6.8177
  74   0.0000       0.260202         7.0805
  75   0.0000       0.262418         7.1408
  76   0.0000       0.264707         7.2031

MULLIKEN ATOMIC CHARGES AND SPIN POPULATIONS
--------------------------------------------
   0 V :    0.523657    1.191221
   1 S :   -0.427162   -0.001379
   2 S :   -0.344855   -0.033079
   3 S :   -0.410690   -0.029220
   4 S :   -0.369397   -0.021630
   5 O :   -0.547593   -0.133412
   6 C :   -0.246544    0.007154
   7 C :   -0.238016    0.007019
   8 C :   -0.241286   -0.010320
   9 H :    0.057638   -0.000938
  10 H :    0.012293    0.002847
  11 H :    0.141251    0.002053
  12 H :    0.168183    0.009072
  13 H :    0.093743   -0.000131
  14 H :    0.006637   -0.000397
  15 C :   -0.256016   -0.002315
  16 C :   -0.251463    0.003621
  17 C :   -0.069118    0.008478
  18 H :    0.047285   -0.000058
  19 H :    0.131202   -0.000226
  20 H :    0.015040    0.001629
  21 H :    0.011924    0.000104
  22 H :    0.052593   -0.000578
  23 H :    0.140695    0.000485
Sum of atomic charges         :   -2.0000000

LOEWDIN ATOMIC CHARGES AND SPIN POPULATIONS
-------------------------------------------
   0 V :   -0.209333    1.148055
   1 S :   -0.071670    0.003990
   2 S :   -0.034687   -0.022694
   3 S :   -0.060577   -0.020352
   4 S :   -0.055086   -0.012864
   5 O :   -0.377383   -0.120168
   6 C :   -0.285458    0.005221
   7 C :   -0.273846    0.006986
   8 C :    0.062924    0.000065
   9 H :    0.037634   -0.000098
  10 H :    0.030545    0.000901
  11 H :    0.107106    0.000390
  12 H :   -0.354645    0.000159
  13 H :    0.047043   -0.000069
  14 H :    0.028163   -0.000806
  15 C :   -0.317981    0.002695
  16 C :   -0.325066    0.007463
  17 C :   -0.189139    0.001150
  18 H :    0.028527   -0.000194
  19 H :    0.054164   -0.000613
  20 H :    0.036379    0.000625
  21 H :    0.035392    0.000404
  22 H :    0.030573   -0.000598
  23 H :    0.056421    0.000352

  Mayer bond orders larger than 0.100000
B(  0-V ,  1-S ) :   0.7098 B(  0-V ,  2-S ) :   0.8623 B(  0-V ,  3-S ) :   0.7709
B(  0-V ,  4-S ) :   0.7755 B(  0-V ,  5-O ) :   2.0716 B(  1-S , 15-C ) :   1.0244
B(  2-S ,  6-C ) :   1.0165 B(  3-S , 16-C ) :   1.0241 B(  4-S ,  7-C ) :   1.0823
B(  6-C ,  8-C ) :   0.8868 B(  6-C , 13-H ) :   0.9616 B(  6-C , 14-H ) :   0.9694
B(  7-C ,  8-C ) :   0.9200 B(  7-C ,  9-H ) :   0.9751 B(  7-C , 10-H ) :   0.9627
B(  8-C , 11-H ) :   1.1790 B(  8-C , 12-H ) :   0.7523 B( 11-H , 12-H ) :  -0.1557
B( 15-C , 17-C ) :   0.8963 B( 15-C , 22-H ) :   0.9684 B( 15-C , 23-H ) :   0.9794
B( 16-C , 17-C ) :   0.9039 B( 16-C , 18-H ) :   0.9633 B( 16-C , 19-H ) :   0.9758
B( 17-C , 20-H ) :   0.9575 B( 17-C , 21-H ) :   0.9587

FINAL SINGLE POINT ENERGY     -2846.323169928709

DIPOLE MOMENT
-------------
                                X             Y             Z
Electronic contribution:     -4.00323       4.42935      -2.18610
Nuclear contribution   :      4.25247      -4.50414       2.44671
                        -----------------------------------------
Total Dipole Moment    :      0.24923      -0.07479       0.26061
                        -----------------------------------------
Magnitude (a.u.)       :      0.36828
Magnitude (Debye)      :      0.93609

Rotational constants in cm-1:     0.027190     0.011729     0.009603
Rotational constants in MHz :   815.131280   351.612127   287.903037

                             ****ORCA TERMINATED NORMALLY****
TOTAL RUN TIME: 0 days 0 hours 14 minutes 17 seconds 825 msec
