                         Program Version 5.0.4 -  RELEASE  -
|  1> ! nofrozencore ReducedPop printbasis
|  2> ! B3LYP TZVP
|  3>
|  4> %basis
|  5> newgto V "CP(PPP)" end
|  6> end
|  7>
|  8> %pal
|  9> nprocs 8
| 10> end
| 11>
| 12> % sym SymThresh 1e-2 end
| 13> * xyz -2 2
| 14> V 0.4782107127113701 0.006849738341071287 -0.11561443241975579
| 15> S 0.3826056677977722 -2.033832993252063 1.3772045132711312
| 16> S -0.9118078161911319 -1.4144399961724237 -1.5433012877291696
| 17> S 0.14031947102147227 1.4280816047250868 1.8879931285224727
| 18> S -0.44573957934067904 2.029012954342871 -1.2318527068420184
| 19> O 2.0072996573080872 -0.038483065369246706 -0.5910135228331246
| 20> C -1.3055665249844093 -0.4665313434360932 -3.090594577120371
| 21> C -0.16107039113446076 1.8363671933291363 -3.0529084210801773
| 22> C -0.15291288572055592 0.406573833861795 -3.603127100347354
| 23> H 0.7881611210882642 2.3200531941376727 -3.311143756195655
| 24> H -0.956846464150758 2.4040680880786014 -3.5526702545853155
| 25> H 0.7915897533705197 -0.08111550968097819 -3.348745079357638
| 26> H -0.19629231325511956 0.4698255679850299 -4.7056261985842545
| 27> H -2.188756230637376 0.15666121491585128 -2.9157635203473125
| 28> H -1.5668278064218857 -1.2141303351029071 -3.848597935117162
| 29> C -0.8483666845559208 -1.5235474462797045 2.658279882098795
| 30> C 0.6764153338134727 0.4110809225562269 3.3254177856229323
| 31> C -0.31463727616829784 -0.6778355905708477 3.7914335526367675
| 32> H 0.8569352201204042 0.9901812362256257 4.252804472762518
| 33> H 1.6570595223338842 0.13447310053867334 2.86341498702443
| 34> H -0.997138676908101 -0.01775911891180312 4.407024656101034
| 35> H 0.10117365403540775 -1.4774519499343295 4.452578860702567
| 36> H -1.3166656946036772 -2.432467265466059 3.0524499740483684
| 37> H -1.5637038948100437 -1.0874257352951802 1.9207395838175556
| 38> *
| 39>
| 40> % eprnmr
| 41> gtensor true
| 42> Nuclei = all H {aiso,adip,aorb,fgrad,rho}
| 43> Nuclei = all V {aiso,adip,aorb,fgrad,rho}
| 44> end
| 45>
| 46>                          ****END OF INPUT****

CARTESIAN COORDINATES (ANGSTROEM)
---------------------------------
  V      0.478955    0.006795   -0.115502
  S      0.383350   -2.033888    1.377317
  S     -0.911063   -1.414495   -1.543189
  S      0.141064    1.428026    1.888105
  S     -0.444995    2.028958   -1.231741
  O      2.008044   -0.038538   -0.590901
  C     -1.304822   -0.466587   -3.090483
  C     -0.160326    1.836312   -3.052796
  C     -0.152168    0.406519   -3.603015
  H      0.788906    2.319998   -3.311032
  H     -0.956102    2.404013   -3.552558
  H      0.792334   -0.081171   -3.348633
  H     -0.195548    0.469770   -4.705514
  H     -2.188012    0.156606   -2.915651
  H     -1.566083   -1.214186   -3.848486
  C     -0.847622   -1.523603    2.658392
  C      0.677160    0.411026    3.325530
  C     -0.313893   -0.677891    3.791546
  H      0.857680    0.990126    4.252917
  H      1.657804    0.134418    2.863527
  H     -0.996394   -0.017814    4.407137
  H      0.101918   -1.477507    4.452691
  H     -1.315921   -2.432522    3.052562
  H     -1.562959   -1.087481    1.920852

 Total Charge           Charge          ....   -2
 Multiplicity           Mult            ....    2
 Number of Electrons    NEL             ....  145
 Basis Dimension        Dim             ....  353

ORBITAL ENERGIES
----------------
                 SPIN UP ORBITALS
  NO   OCC          E(Eh)            E(eV)
   0   1.0000    -196.607618     -5349.9653
   1   1.0000     -88.562334     -2409.9036
   2   1.0000     -88.561849     -2409.8904
   3   1.0000     -88.559622     -2409.8298
   4   1.0000     -88.557537     -2409.7731
   5   1.0000     -21.982986      -598.1874
   6   1.0000     -18.825732      -512.2742
   7   1.0000     -18.490770      -503.1594
   8   1.0000     -18.483595      -502.9642
   9   1.0000     -18.483516      -502.9620
  10   1.0000      -9.943214      -270.5686
  11   1.0000      -9.940851      -270.5043
  12   1.0000      -9.938147      -270.4307
  13   1.0000      -9.936087      -270.3747
  14   1.0000      -9.934507      -270.3317
  15   1.0000      -9.929728      -270.2016
  16   1.0000      -7.616764      -207.2627
  17   1.0000      -7.615742      -207.2349
  18   1.0000      -7.613923      -207.1854
  19   1.0000      -7.612036      -207.1340
  20   1.0000      -5.581969      -151.8931
  21   1.0000      -5.581131      -151.8703
  22   1.0000      -5.579358      -151.8220
  23   1.0000      -5.577274      -151.7653
  24   1.0000      -5.575695      -151.7224
  25   1.0000      -5.574543      -151.6910
  26   1.0000      -5.573975      -151.6756
  27   1.0000      -5.572950      -151.6477
  28   1.0000      -5.572933      -151.6472
  29   1.0000      -5.571188      -151.5997
  30   1.0000      -5.570856      -151.5907
  31   1.0000      -5.569104      -151.5430
  32   1.0000      -2.375741       -64.6472
  33   1.0000      -1.418536       -38.6003
  34   1.0000      -1.403889       -38.2018
  35   1.0000      -1.403341       -38.1869
  36   1.0000      -0.588316       -16.0089
  37   1.0000      -0.552366       -15.0306
  38   1.0000      -0.551961       -15.0196
  39   1.0000      -0.470531       -12.8038
  40   1.0000      -0.469090       -12.7646
  41   1.0000      -0.408286       -11.1100
  42   1.0000      -0.398613       -10.8468
  43   1.0000      -0.334370        -9.0987
  44   1.0000      -0.325932        -8.8691
  45   1.0000      -0.305414        -8.3107
  46   1.0000      -0.279834        -7.6147
  47   1.0000      -0.223971        -6.0946
  48   1.0000      -0.208216        -5.6658
  49   1.0000      -0.202396        -5.5075
  50   1.0000      -0.198691        -5.4066
  51   1.0000      -0.161568        -4.3965
  52   1.0000      -0.132651        -3.6096
  53   1.0000      -0.128015        -3.4835
  54   1.0000      -0.113041        -3.0760
  55   1.0000      -0.107346        -2.9210
  56   1.0000      -0.105302        -2.8654
  57   1.0000      -0.082221        -2.2373
  58   1.0000      -0.071554        -1.9471
  59   1.0000      -0.064504        -1.7552
  60   1.0000      -0.051470        -1.4006
  61   1.0000      -0.046839        -1.2745
  62   1.0000      -0.042619        -1.1597
  63   1.0000      -0.035711        -0.9717
  64   1.0000      -0.000468        -0.0127
  65   1.0000       0.027495         0.7482
  66   1.0000       0.030886         0.8404
  67   1.0000       0.037663         1.0249
  68   1.0000       0.047415         1.2902
  69   1.0000       0.052956         1.4410
  70   1.0000       0.064204         1.7471
  71   1.0000       0.072281         1.9669
  72   1.0000       0.080759         2.1976
  73   0.0000       0.233818         6.3625
  74   0.0000       0.245269         6.6741
  75   0.0000       0.249282         6.7833
  76   0.0000       0.251281         6.8377
  77   0.0000       0.255971         6.9653

                 SPIN DOWN ORBITALS
  NO   OCC          E(Eh)            E(eV)
   0   1.0000    -196.607760     -5349.9691
   1   1.0000     -88.562494     -2409.9080
   2   1.0000     -88.562024     -2409.8952
   3   1.0000     -88.559724     -2409.8326
   4   1.0000     -88.557512     -2409.7724
   5   1.0000     -21.967969      -597.7788
   6   1.0000     -18.829187      -512.3682
   7   1.0000     -18.485582      -503.0183
   8   1.0000     -18.467540      -502.5273
   9   1.0000     -18.467117      -502.5158
  10   1.0000      -9.943030      -270.5636
  11   1.0000      -9.940815      -270.5033
  12   1.0000      -9.937969      -270.4259
  13   1.0000      -9.935955      -270.3711
  14   1.0000      -9.934448      -270.3301
  15   1.0000      -9.929748      -270.2022
  16   1.0000      -7.616916      -207.2668
  17   1.0000      -7.615913      -207.2395
  18   1.0000      -7.614019      -207.1880
  19   1.0000      -7.612014      -207.1334
  20   1.0000      -5.582126      -151.8974
  21   1.0000      -5.581296      -151.8748
  22   1.0000      -5.579479      -151.8253
  23   1.0000      -5.577293      -151.7659
  24   1.0000      -5.576102      -151.7335
  25   1.0000      -5.574996      -151.7034
  26   1.0000      -5.574103      -151.6791
  27   1.0000      -5.573354      -151.6587
  28   1.0000      -5.573064      -151.6508
  29   1.0000      -5.571531      -151.6091
  30   1.0000      -5.570776      -151.5885
  31   1.0000      -5.568636      -151.5303
  32   1.0000      -2.330904       -63.4271
  33   1.0000      -1.399581       -38.0845
  34   1.0000      -1.342312       -36.5262
  35   1.0000      -1.340600       -36.4796
  36   1.0000      -0.595701       -16.2098
  37   1.0000      -0.552248       -15.0274
  38   1.0000      -0.551831       -15.0161
  39   1.0000      -0.470447       -12.8015
  40   1.0000      -0.468993       -12.7619
  41   1.0000      -0.408302       -11.1105
  42   1.0000      -0.398787       -10.8515
  43   1.0000      -0.334602        -9.1050
  44   1.0000      -0.326240        -8.8774
  45   1.0000      -0.305381        -8.3098
  46   1.0000      -0.279824        -7.6144
  47   1.0000      -0.223892        -6.0924
  48   1.0000      -0.208151        -5.6641
  49   1.0000      -0.202226        -5.5028
  50   1.0000      -0.198570        -5.4034
  51   1.0000      -0.161443        -4.3931
  52   1.0000      -0.132511        -3.6058
  53   1.0000      -0.127747        -3.4762
  54   1.0000      -0.113028        -3.0756
  55   1.0000      -0.107138        -2.9154
  56   1.0000      -0.105257        -2.8642
  57   1.0000      -0.080900        -2.2014
  58   1.0000      -0.069520        -1.8917
  59   1.0000      -0.063512        -1.7282
  60   1.0000      -0.052327        -1.4239
  61   1.0000      -0.048090        -1.3086
  62   1.0000      -0.042792        -1.1644
  63   1.0000      -0.036331        -0.9886
  64   1.0000       0.004763         0.1296
  65   1.0000       0.028533         0.7764
  66   1.0000       0.033848         0.9211
  67   1.0000       0.045543         1.2393
  68   1.0000       0.047967         1.3052
  69   1.0000       0.061394         1.6706
  70   1.0000       0.069092         1.8801
  71   1.0000       0.073558         2.0016
  72   0.0000       0.231808         6.3078
  73   0.0000       0.249500         6.7892
  74   0.0000       0.254665         6.9298
  75   0.0000       0.259070         7.0497
  76   0.0000       0.263878         7.1805

MULLIKEN ATOMIC CHARGES AND SPIN POPULATIONS
--------------------------------------------
   0 V :    0.503238    1.190932
   1 S :   -0.421585   -0.001841
   2 S :   -0.356345   -0.033076
   3 S :   -0.399222   -0.029215
   4 S :   -0.381241   -0.021466
   5 O :   -0.545183   -0.133490
   6 C :   -0.246248    0.005826
   7 C :   -0.236938    0.006591
   8 C :   -0.158380    0.003186
   9 H :    0.075493   -0.000944
  10 H :    0.052143    0.002185
  11 H :    0.138525    0.000608
  12 H :    0.006245   -0.000032
  13 H :    0.096208   -0.000121
  14 H :    0.049695   -0.000101
  15 C :   -0.296708   -0.001173
  16 C :   -0.288630    0.005079
  17 C :   -0.004113    0.007262
  18 H :    0.038175   -0.000533
  19 H :    0.149541   -0.000656
  20 H :    0.009151    0.001387
  21 H :    0.007703    0.000273
  22 H :    0.054694   -0.000571
  23 H :    0.153782   -0.000112
Sum of atomic charges         :   -2.0000000

LOEWDIN ATOMIC CHARGES AND SPIN POPULATIONS
-------------------------------------------
   0 V :   -0.220526    1.147180
   1 S :   -0.067632    0.003687
   2 S :   -0.038723   -0.022570
   3 S :   -0.053400   -0.020243
   4 S :   -0.061314   -0.012332
   5 O :   -0.376741   -0.120128
   6 C :   -0.325976    0.005232
   7 C :   -0.314175    0.007138
   8 C :   -0.187276    0.000491
   9 H :    0.036302    0.000002
  10 H :    0.029392    0.000659
  11 H :    0.070198    0.000337
  12 H :    0.031630    0.000154
  13 H :    0.045574   -0.000067
  14 H :    0.027821   -0.000535
  15 C :   -0.328862    0.002834
  16 C :   -0.338312    0.007430
  17 C :   -0.196509    0.000954
  18 H :    0.025473   -0.000466
  19 H :    0.063487   -0.000596
  20 H :    0.044660    0.000619
  21 H :    0.042138    0.000475
  22 H :    0.028638   -0.000617
  23 H :    0.064134    0.000361

  Mayer bond orders larger than 0.100000
B(  0-V ,  1-S ) :   0.7272 B(  0-V ,  2-S ) :   0.8544 B(  0-V ,  3-S ) :   0.7795
B(  0-V ,  4-S ) :   0.7817 B(  0-V ,  5-O ) :   2.0697 B(  1-S , 15-C ) :   1.0013
B(  2-S ,  6-C ) :   1.0092 B(  3-S , 16-C ) :   1.0206 B(  4-S ,  7-C ) :   1.0695
B(  6-C ,  8-C ) :   0.9004 B(  6-C , 13-H ) :   0.9747 B(  6-C , 14-H ) :   0.9681
B(  7-C ,  8-C ) :   0.9193 B(  7-C ,  9-H ) :   0.9765 B(  7-C , 10-H ) :   0.9688
B(  8-C , 11-H ) :   0.9879 B(  8-C , 12-H ) :   0.9456 B( 15-C , 17-C ) :   0.8972
B( 15-C , 22-H ) :   0.9693 B( 15-C , 23-H ) :   0.9763 B( 16-C , 17-C ) :   0.8810
B( 16-C , 18-H ) :   0.9549 B( 16-C , 19-H ) :   0.9800 B( 17-C , 20-H ) :   0.9523
B( 17-C , 21-H ) :   0.9532

FINAL SINGLE POINT ENERGY     -2847.691703612130

DIPOLE MOMENT
-------------
                                X             Y             Z
Electronic contribution:      6.06472      -0.08733      -0.11688
Nuclear contribution   :     -6.45977       0.12186      -0.17583
                        -----------------------------------------
Total Dipole Moment    :     -0.39506       0.03453      -0.29271
                        -----------------------------------------
Magnitude (a.u.)       :      0.49289
Magnitude (Debye)      :      1.25283

Rotational constants in cm-1:     0.027253     0.011725     0.009596
Rotational constants in MHz :   817.037527   351.512000   287.669710

                             ****ORCA TERMINATED NORMALLY****
TOTAL RUN TIME: 0 days 0 hours 9 minutes 36 seconds 337 msec
