                         Program Version 5.0.4 -  RELEASE  -
|  1> ! nofrozencore ReducedPop printbasis
|  2> ! B3LYP TZVP
|  3>
|  4> %basis
|  5> newgto V "CP(PPP)" end
|  6> end
|  7>
|  8> %pal
|  9> nprocs 8
| 10> end
| 11>
| 12> % sym SymThresh 1e-2 end
| 13> * xyz -2 2
| 14> V -0.2656863988032343 0.3987291218663648 -0.11134128803209675
| 15> S 0.7463511285578334 1.11294817794381 2.0965636711311686
| 16> S 2.0790391856322503 0.48814313632286216 -0.809670872384248
| 17> S -1.7197107090442822 -1.1913495646109267 1.121380853687884
| 18> S -0.7535714176114063 -1.1925561286032174 -1.9599711883446251
| 19> O -1.0331862340622369 1.7400928593915466 -0.5364867612325989
| 20> C 2.197181244789389 0.01638535871845461 -2.609516491519917
| 21> C -0.1872267614696057 -0.3894402688625316 -3.5245054299298335
| 22> C 0.9940826080509071 0.5649638730298283 -3.4507551673895733
| 23> H -1.05056517946844 0.034326431706804494 -4.086870365129254
| 24> H -0.04207908036725038 -1.1764398124389674 -4.3036644241133635
| 25> H 0.6598311156155002 1.4909622544728158 -2.9729029752551535
| 26> H 1.3466569069720453 0.7485894269934483 -4.48124969184413
| 27> H 1.8877725091561168 -1.0851396738742538 -2.6376778814971886
| 28> H 2.994722787438543 0.7497830409969699 -2.9530750850819323
| 29> C 0.7521289767428893 -0.47475481039982953 3.0431802380926958
| 30> C -1.8143759465557936 -0.5416429375479921 2.852136101600019
| 31> C -0.5806738546060102 -0.8139841682068902 3.7228353975994612
| 32> H -2.6861565436938672 -1.0072008630002622 3.3266266339388233
| 33> H -1.9534828912380104 0.5372056754780252 2.7881109617327975
| 34> H -0.5584470131720702 -1.8816841691224042 3.9889699882765877
| 35> H -0.6756666650836048 -0.1963606369868098 4.629959019676302
| 36> H 1.561768860391797 -0.44344468836094003 3.7851133245424737
| 37> H 1.0517370960317924 -1.2800647419009137 2.3691945289356804
| 38> *
| 39>
| 40> % eprnmr
| 41> gtensor true
| 42> Nuclei = all H {aiso,adip,aorb,fgrad,rho}
| 43> Nuclei = all V {aiso,adip,aorb,fgrad,rho}
| 44> end
| 45>
| 46>                          ****END OF INPUT****

CARTESIAN COORDINATES (ANGSTROEM)
---------------------------------
  V     -0.266149    0.399314   -0.111222
  S      0.745888    1.113533    2.096683
  S      2.078576    0.488728   -0.809551
  S     -1.720174   -1.190765    1.121500
  S     -0.754034   -1.191972   -1.959852
  O     -1.033649    1.740677   -0.536367
  C      2.196718    0.016970   -2.609397
  C     -0.187690   -0.388856   -3.524386
  C      0.993620    0.565548   -3.450636
  H     -1.051028    0.034911   -4.086751
  H     -0.042542   -1.175855   -4.303545
  H      0.659368    1.491547   -2.972783
  H      1.346194    0.749174   -4.481130
  H      1.887310   -1.084555   -2.637558
  H      2.994260    0.750368   -2.952956
  C      0.751666   -0.474170    3.043300
  C     -1.814839   -0.541058    2.852256
  C     -0.581137   -0.813400    3.722955
  H     -2.686620   -1.006616    3.326746
  H     -1.953946    0.537790    2.788230
  H     -0.558910   -1.881100    3.989089
  H     -0.676130   -0.195776    4.630079
  H      1.561306   -0.442860    3.785233
  H      1.051274   -1.279480    2.369314

 Total Charge           Charge          ....   -2
 Multiplicity           Mult            ....    2
 Number of Electrons    NEL             ....  145
 Basis Dimension        Dim             ....  353

ORBITAL ENERGIES
----------------
                 SPIN UP ORBITALS
  NO   OCC          E(Eh)            E(eV)
   0   1.0000    -196.607836     -5349.9712
   1   1.0000     -88.564732     -2409.9689
   2   1.0000     -88.561977     -2409.8939
   3   1.0000     -88.559772     -2409.8339
   4   1.0000     -88.558206     -2409.7913
   5   1.0000     -21.983163      -598.1923
   6   1.0000     -18.825596      -512.2705
   7   1.0000     -18.490937      -503.1640
   8   1.0000     -18.483804      -502.9699
   9   1.0000     -18.483675      -502.9664
  10   1.0000      -9.945597      -270.6334
  11   1.0000      -9.945308      -270.6256
  12   1.0000      -9.934913      -270.3427
  13   1.0000      -9.934425      -270.3294
  14   1.0000      -9.932570      -270.2790
  15   1.0000      -9.928154      -270.1588
  16   1.0000      -7.618870      -207.3200
  17   1.0000      -7.616197      -207.2473
  18   1.0000      -7.613753      -207.1808
  19   1.0000      -7.612479      -207.1461
  20   1.0000      -5.584327      -151.9573
  21   1.0000      -5.581369      -151.8768
  22   1.0000      -5.578980      -151.8118
  23   1.0000      -5.577771      -151.7789
  24   1.0000      -5.577725      -151.7776
  25   1.0000      -5.575937      -151.7290
  26   1.0000      -5.575191      -151.7086
  27   1.0000      -5.573446      -151.6612
  28   1.0000      -5.572584      -151.6377
  29   1.0000      -5.571713      -151.6140
  30   1.0000      -5.571090      -151.5971
  31   1.0000      -5.569527      -151.5545
  32   1.0000      -2.375847       -64.6501
  33   1.0000      -1.418487       -38.5990
  34   1.0000      -1.403985       -38.2044
  35   1.0000      -1.403496       -38.1911
  36   1.0000      -0.588043       -16.0015
  37   1.0000      -0.551892       -15.0177
  38   1.0000      -0.551290       -15.0014
  39   1.0000      -0.468274       -12.7424
  40   1.0000      -0.466025       -12.6812
  41   1.0000      -0.404515       -11.0074
  42   1.0000      -0.396989       -10.8026
  43   1.0000      -0.338600        -9.2138
  44   1.0000      -0.328635        -8.9426
  45   1.0000      -0.295820        -8.0497
  46   1.0000      -0.285175        -7.7600
  47   1.0000      -0.228854        -6.2274
  48   1.0000      -0.217203        -5.9104
  49   1.0000      -0.201017        -5.4700
  50   1.0000      -0.195525        -5.3205
  51   1.0000      -0.139535        -3.7969
  52   1.0000      -0.134110        -3.6493
  53   1.0000      -0.131838        -3.5875
  54   1.0000      -0.123990        -3.3739
  55   1.0000      -0.107737        -2.9317
  56   1.0000      -0.090879        -2.4730
  57   1.0000      -0.081780        -2.2253
  58   1.0000      -0.065368        -1.7788
  59   1.0000      -0.061796        -1.6816
  60   1.0000      -0.050855        -1.3838
  61   1.0000      -0.046264        -1.2589
  62   1.0000      -0.043206        -1.1757
  63   1.0000      -0.034921        -0.9502
  64   1.0000      -0.001910        -0.0520
  65   1.0000       0.026288         0.7153
  66   1.0000       0.029220         0.7951
  67   1.0000       0.036915         1.0045
  68   1.0000       0.044524         1.2116
  69   1.0000       0.053611         1.4588
  70   1.0000       0.064457         1.7540
  71   1.0000       0.069973         1.9041
  72   1.0000       0.079632         2.1669
  73   0.0000       0.233603         6.3567
  74   0.0000       0.245799         6.6885
  75   0.0000       0.247929         6.7465
  76   0.0000       0.249558         6.7908
  77   0.0000       0.259038         7.0488

                 SPIN DOWN ORBITALS
  NO   OCC          E(Eh)            E(eV)
   0   1.0000    -196.607978     -5349.9751
   1   1.0000     -88.564834     -2409.9717
   2   1.0000     -88.562137     -2409.8983
   3   1.0000     -88.559956     -2409.8389
   4   1.0000     -88.558182     -2409.7906
   5   1.0000     -21.968112      -597.7827
   6   1.0000     -18.829087      -512.3655
   7   1.0000     -18.485728      -503.0222
   8   1.0000     -18.467728      -502.5324
   9   1.0000     -18.467233      -502.5190
  10   1.0000      -9.945418      -270.6286
  11   1.0000      -9.945167      -270.6218
  12   1.0000      -9.934735      -270.3379
  13   1.0000      -9.934368      -270.3279
  14   1.0000      -9.932529      -270.2779
  15   1.0000      -9.928175      -270.1594
  16   1.0000      -7.618966      -207.3226
  17   1.0000      -7.616349      -207.2514
  18   1.0000      -7.613932      -207.1856
  19   1.0000      -7.612458      -207.1455
  20   1.0000      -5.584444      -151.9604
  21   1.0000      -5.581523      -151.8810
  22   1.0000      -5.579161      -151.8167
  23   1.0000      -5.578164      -151.7896
  24   1.0000      -5.577744      -151.7781
  25   1.0000      -5.575872      -151.7272
  26   1.0000      -5.575613      -151.7201
  27   1.0000      -5.573564      -151.6644
  28   1.0000      -5.573048      -151.6504
  29   1.0000      -5.572056      -151.6234
  30   1.0000      -5.571231      -151.6009
  31   1.0000      -5.569065      -151.5420
  32   1.0000      -2.330912       -63.4274
  33   1.0000      -1.399456       -38.0811
  34   1.0000      -1.342357       -36.5274
  35   1.0000      -1.340583       -36.4791
  36   1.0000      -0.595525       -16.2050
  37   1.0000      -0.551791       -15.0150
  38   1.0000      -0.551135       -14.9971
  39   1.0000      -0.468221       -12.7409
  40   1.0000      -0.465907       -12.6780
  41   1.0000      -0.404579       -11.0092
  42   1.0000      -0.397148       -10.8069
  43   1.0000      -0.338743        -9.2177
  44   1.0000      -0.328997        -8.9525
  45   1.0000      -0.295766        -8.0482
  46   1.0000      -0.285216        -7.7611
  47   1.0000      -0.228821        -6.2265
  48   1.0000      -0.217124        -5.9082
  49   1.0000      -0.200898        -5.4667
  50   1.0000      -0.195358        -5.3160
  51   1.0000      -0.139321        -3.7911
  52   1.0000      -0.133966        -3.6454
  53   1.0000      -0.131560        -3.5799
  54   1.0000      -0.124012        -3.3745
  55   1.0000      -0.107681        -2.9301
  56   1.0000      -0.090425        -2.4606
  57   1.0000      -0.080068        -2.1788
  58   1.0000      -0.064208        -1.7472
  59   1.0000      -0.061735        -1.6799
  60   1.0000      -0.050466        -1.3733
  61   1.0000      -0.046588        -1.2677
  62   1.0000      -0.044287        -1.2051
  63   1.0000      -0.035746        -0.9727
  64   1.0000       0.002714         0.0738
  65   1.0000       0.027216         0.7406
  66   1.0000       0.032587         0.8867
  67   1.0000       0.044508         1.2111
  68   1.0000       0.046244         1.2584
  69   1.0000       0.061861         1.6833
  70   1.0000       0.067818         1.8454
  71   1.0000       0.070925         1.9300
  72   0.0000       0.232121         6.3163
  73   0.0000       0.250272         6.8102
  74   0.0000       0.251914         6.8549
  75   0.0000       0.261054         7.1036
  76   0.0000       0.263819         7.1789

MULLIKEN ATOMIC CHARGES AND SPIN POPULATIONS
--------------------------------------------
   0 V :    0.528865    1.192652
   1 S :   -0.426131   -0.001975
   2 S :   -0.355227   -0.034055
   3 S :   -0.412287   -0.029292
   4 S :   -0.371471   -0.020804
   5 O :   -0.546101   -0.134674
   6 C :   -0.254722    0.006256
   7 C :   -0.266414    0.005262
   8 C :   -0.156752    0.002713
   9 H :    0.068254   -0.000661
  10 H :    0.041381    0.002406
  11 H :    0.140206    0.000752
  12 H :    0.004280    0.000029
  13 H :    0.128977    0.000012
  14 H :    0.052535    0.000206
  15 C :   -0.255358   -0.002260
  16 C :   -0.253655    0.003563
  17 C :   -0.068115    0.008650
  18 H :    0.048759   -0.000014
  19 H :    0.132640   -0.000187
  20 H :    0.015788    0.001602
  21 H :    0.015085   -0.000004
  22 H :    0.051933   -0.000633
  23 H :    0.137529    0.000454
Sum of atomic charges         :   -2.0000000

LOEWDIN ATOMIC CHARGES AND SPIN POPULATIONS
-------------------------------------------
   0 V :   -0.211378    1.149043
   1 S :   -0.070167    0.003525
   2 S :   -0.045198   -0.023695
   3 S :   -0.062577   -0.020435
   4 S :   -0.050893   -0.012130
   5 O :   -0.376139   -0.121358
   6 C :   -0.359503    0.006135
   7 C :   -0.333439    0.006677
   8 C :   -0.196632    0.000441
   9 H :    0.032147   -0.000089
  10 H :    0.024769    0.000759
  11 H :    0.069648    0.000423
  12 H :    0.031105    0.000155
  13 H :    0.081712   -0.000151
  14 H :    0.056218   -0.000562
  15 C :   -0.319830    0.002708
  16 C :   -0.324783    0.007481
  17 C :   -0.188770    0.001130
  18 H :    0.028912   -0.000182
  19 H :    0.054868   -0.000609
  20 H :    0.037995    0.000617
  21 H :    0.037262    0.000409
  22 H :    0.029689   -0.000627
  23 H :    0.054984    0.000338

  Mayer bond orders larger than 0.100000
B(  0-V ,  1-S ) :   0.7107 B(  0-V ,  2-S ) :   0.8652 B(  0-V ,  3-S ) :   0.7735
B(  0-V ,  4-S ) :   0.7563 B(  0-V ,  5-O ) :   2.0732 B(  1-S , 15-C ) :   1.0187
B(  2-S ,  6-C ) :   1.0181 B(  3-S , 16-C ) :   1.0251 B(  4-S ,  7-C ) :   1.0641
B(  6-C ,  8-C ) :   0.8833 B(  6-C , 13-H ) :   0.9574 B(  6-C , 14-H ) :   0.9726
B(  7-C ,  8-C ) :   0.9434 B(  7-C ,  9-H ) :   0.9645 B(  7-C , 10-H ) :   0.9609
B(  8-C , 11-H ) :   0.9793 B(  8-C , 12-H ) :   0.9412 B( 15-C , 17-C ) :   0.8992
B( 15-C , 22-H ) :   0.9676 B( 15-C , 23-H ) :   0.9800 B( 16-C , 17-C ) :   0.9004
B( 16-C , 18-H ) :   0.9647 B( 16-C , 19-H ) :   0.9750 B( 17-C , 20-H ) :   0.9580
B( 17-C , 21-H ) :   0.9608

FINAL SINGLE POINT ENERGY     -2847.678491419139

DIPOLE MOMENT
-------------
                                X             Y             Z
Electronic contribution:     -3.39028       4.81898      -0.10514
Nuclear contribution   :      3.57922      -5.08383      -0.01896
                        -----------------------------------------
Total Dipole Moment    :      0.18894      -0.26484      -0.12410
                        -----------------------------------------
Magnitude (a.u.)       :      0.34820
Magnitude (Debye)      :      0.88505

Rotational constants in cm-1:     0.027195     0.011727     0.009596
Rotational constants in MHz :   815.288273   351.557134   287.673014

                             ****ORCA TERMINATED NORMALLY****
TOTAL RUN TIME: 0 days 0 hours 9 minutes 36 seconds 511 msec
