                         Program Version 5.0.4 -  RELEASE  -
|  1> ! nofrozencore ReducedPop printbasis
|  2> ! B3LYP TZVP
|  3>
|  4> %basis
|  5> newgto V "CP(PPP)" end
|  6> end
|  7>
|  8> %pal
|  9> nprocs 4
| 10> end
| 11>
| 12> % sym SymThresh 1e-2 end
| 13> * xyz -2 2
| 14> V 0.37116912741118746 0.05585844374132129 0.31797918171731826
| 15> S 0.2530712635104322 2.38155889178549 -0.6749939626401879
| 16> S -1.8309054144710706 0.6950228840132318 1.1741418280363094
| 17> S 1.299672050174704 -0.7659048720333612 -1.832700873028995
| 18> S -0.24851862664257163 -2.3450888570528736 0.5214920712572111
| 19> O 1.4962672608628471 0.26606739482759356 1.4397172374454819
| 20> C -2.489776062143072 -0.7187012662736646 2.1814614821907736
| 21> C -0.7760880706703146 -2.6353763053351367 2.2743253712207383
| 22> C -1.4248292862035512 -1.4543904385979018 3.0040958479936486
| 23> H 0.08808633390600071 -2.9722103747002873 2.85134460030421
| 24> H -1.4855066635257568 -3.4656103816770605 2.2479223955801397
| 25> H -0.6551888350970775 -0.7358975360371978 3.2966127727083014
| 26> H -1.875132419124152 -1.8439246779153489 3.9387999683222534
| 27> H -2.993549223551061 -1.430209726857616 1.52158163147289
| 28> H -3.242420175185541 -0.2912170155842167 2.8484156121854802
| 29> C -0.1857146564997507 2.0281381516847445 -2.439006004652503
| 30> C 2.0355955310666474 0.7170881064098299 -2.663879568290777
| 31> C 1.009881104774269 1.6410467261705612 -3.2864938711296547
| 32> H 2.6749891284688614 0.39637142224371785 -3.3429424425598313
| 33> H 2.581613208635804 1.2645698655749709 -1.9278141749156865
| 34> H 0.5210749163407075 1.052774733152437 -4.543089829586285
| 35> H 1.7993059528545423 3.018958566801155 -3.718763989889265
| 36> H -0.6447971472966018 2.8148158370796907 -2.812377068701941
| 37> H -0.8927801696678365 1.206388589026194 -2.446343831839927
| 38> *
| 39>
| 40> % eprnmr
| 41> gtensor true
| 42> Nuclei = all H {aiso,adip,aorb,fgrad,rho}
| 43> Nuclei = all V {aiso,adip,aorb,fgrad,rho}
| 44> end
| 45>
| 46>                          ****END OF INPUT****

CARTESIAN COORDINATES (ANGSTROEM)
---------------------------------
  V      0.371842    0.056091    0.318231
  S      0.253744    2.381792   -0.674742
  S     -1.830233    0.695256    1.174394
  S      1.300345   -0.765672   -1.832449
  S     -0.247846   -2.344856    0.521744
  O      1.496940    0.266300    1.439969
  C     -2.489104   -0.718468    2.181713
  C     -0.775416   -2.635143    2.274577
  C     -1.424157   -1.454158    3.004348
  H      0.088759   -2.971977    2.851596
  H     -1.484834   -3.465377    2.248174
  H     -0.654516   -0.735665    3.296864
  H     -1.874460   -1.843692    3.939052
  H     -2.992877   -1.429977    1.521833
  H     -3.241748   -0.290984    2.848667
  C     -0.185042    2.028371   -2.438754
  C      2.036268    0.717321   -2.663628
  C      1.010554    1.641280   -3.286242
  H      2.675662    0.396604   -3.342691
  H      2.582286    1.264803   -1.927562
  H      0.521747    1.053008   -4.542838
  H      1.799978    3.019191   -3.718512
  H     -0.644125    2.815049   -2.812125
  H     -0.892108    1.206622   -2.446092

 Total Charge           Charge          ....   -2
 Multiplicity           Mult            ....    2
 Number of Electrons    NEL             ....  145
 Basis Dimension        Dim             ....  353

ORBITAL ENERGIES
----------------
                 SPIN UP ORBITALS
  NO   OCC          E(Eh)            E(eV)
   0   1.0000    -196.613789     -5350.1332
   1   1.0000     -88.572547     -2410.1815
   2   1.0000     -88.566618     -2410.0202
   3   1.0000     -88.566596     -2410.0196
   4   1.0000     -88.564900     -2409.9734
   5   1.0000     -21.989217      -598.3570
   6   1.0000     -18.831481      -512.4307
   7   1.0000     -18.496969      -503.3281
   8   1.0000     -18.489837      -503.1340
   9   1.0000     -18.489773      -503.1323
  10   1.0000     -10.007619      -272.3212
  11   1.0000      -9.946526      -270.6587
  12   1.0000      -9.939605      -270.4704
  13   1.0000      -9.933920      -270.3157
  14   1.0000      -9.933820      -270.3130
  15   1.0000      -9.932260      -270.2705
  16   1.0000      -7.626631      -207.5312
  17   1.0000      -7.620819      -207.3730
  18   1.0000      -7.620429      -207.3624
  19   1.0000      -7.619162      -207.3279
  20   1.0000      -5.591948      -152.1647
  21   1.0000      -5.586166      -152.0073
  22   1.0000      -5.585809      -151.9976
  23   1.0000      -5.585408      -151.9867
  24   1.0000      -5.584585      -151.9643
  25   1.0000      -5.583916      -151.9461
  26   1.0000      -5.579904      -151.8369
  27   1.0000      -5.579279      -151.8199
  28   1.0000      -5.578215      -151.7909
  29   1.0000      -5.577884      -151.7819
  30   1.0000      -5.577616      -151.7746
  31   1.0000      -5.576119      -151.7339
  32   1.0000      -2.381825       -64.8127
  33   1.0000      -1.424461       -38.7616
  34   1.0000      -1.409962       -38.3670
  35   1.0000      -1.409486       -38.3541
  36   1.0000      -0.593799       -16.1581
  37   1.0000      -0.558569       -15.1994
  38   1.0000      -0.556413       -15.1408
  39   1.0000      -0.488925       -13.3043
  40   1.0000      -0.474824       -12.9206
  41   1.0000      -0.405205       -11.0262
  42   1.0000      -0.386549       -10.5185
  43   1.0000      -0.351781        -9.5725
  44   1.0000      -0.334271        -9.0960
  45   1.0000      -0.309836        -8.4311
  46   1.0000      -0.291694        -7.9374
  47   1.0000      -0.212765        -5.7896
  48   1.0000      -0.210254        -5.7213
  49   1.0000      -0.202919        -5.5217
  50   1.0000      -0.202411        -5.5079
  51   1.0000      -0.166087        -4.5194
  52   1.0000      -0.142678        -3.8825
  53   1.0000      -0.129528        -3.5246
  54   1.0000      -0.117294        -3.1917
  55   1.0000      -0.112261        -3.0548
  56   1.0000      -0.110150        -2.9973
  57   1.0000      -0.079037        -2.1507
  58   1.0000      -0.071721        -1.9516
  59   1.0000      -0.069065        -1.8794
  60   1.0000      -0.053684        -1.4608
  61   1.0000      -0.051830        -1.4104
  62   1.0000      -0.041009        -1.1159
  63   1.0000      -0.036013        -0.9800
  64   1.0000      -0.007991        -0.2174
  65   1.0000       0.019922         0.5421
  66   1.0000       0.022939         0.6242
  67   1.0000       0.029750         0.8095
  68   1.0000       0.038494         1.0475
  69   1.0000       0.045681         1.2430
  70   1.0000       0.055793         1.5182
  71   1.0000       0.065636         1.7860
  72   1.0000       0.073672         2.0047
  73   0.0000       0.205478         5.5914
  74   0.0000       0.228632         6.2214
  75   0.0000       0.238660         6.4943
  76   0.0000       0.240354         6.5404
  77   0.0000       0.244046         6.6408

                 SPIN DOWN ORBITALS
  NO   OCC          E(Eh)            E(eV)
   0   1.0000    -196.613932     -5350.1371
   1   1.0000     -88.572708     -2410.1859
   2   1.0000     -88.566776     -2410.0245
   3   1.0000     -88.566620     -2410.0203
   4   1.0000     -88.565000     -2409.9762
   5   1.0000     -21.974187      -597.9480
   6   1.0000     -18.834973      -512.5257
   7   1.0000     -18.491768      -503.1866
   8   1.0000     -18.473777      -502.6970
   9   1.0000     -18.473360      -502.6857
  10   1.0000     -10.007590      -272.3204
  11   1.0000      -9.946342      -270.6537
  12   1.0000      -9.939466      -270.4666
  13   1.0000      -9.933868      -270.3143
  14   1.0000      -9.933840      -270.3135
  15   1.0000      -9.932089      -270.2659
  16   1.0000      -7.626784      -207.5353
  17   1.0000      -7.620823      -207.3731
  18   1.0000      -7.620604      -207.3672
  19   1.0000      -7.619256      -207.3305
  20   1.0000      -5.592110      -152.1690
  21   1.0000      -5.586203      -152.0083
  22   1.0000      -5.585979      -152.0022
  23   1.0000      -5.585820      -151.9979
  24   1.0000      -5.584705      -151.9676
  25   1.0000      -5.584042      -151.9495
  26   1.0000      -5.580258      -151.8465
  27   1.0000      -5.579744      -151.8325
  28   1.0000      -5.578624      -151.8021
  29   1.0000      -5.577749      -151.7783
  30   1.0000      -5.577506      -151.7716
  31   1.0000      -5.576028      -151.7314
  32   1.0000      -2.336940       -63.5914
  33   1.0000      -1.405451       -38.2443
  34   1.0000      -1.348368       -36.6909
  35   1.0000      -1.346668       -36.6447
  36   1.0000      -0.601284       -16.3618
  37   1.0000      -0.558454       -15.1963
  38   1.0000      -0.556305       -15.1378
  39   1.0000      -0.488817       -13.3014
  40   1.0000      -0.474759       -12.9188
  41   1.0000      -0.405391       -11.0312
  42   1.0000      -0.386660       -10.5216
  43   1.0000      -0.351977        -9.5778
  44   1.0000      -0.334707        -9.1078
  45   1.0000      -0.309818        -8.4306
  46   1.0000      -0.291725        -7.9382
  47   1.0000      -0.212701        -5.7879
  48   1.0000      -0.210127        -5.7178
  49   1.0000      -0.202737        -5.5168
  50   1.0000      -0.202401        -5.5076
  51   1.0000      -0.165944        -4.5156
  52   1.0000      -0.142542        -3.8788
  53   1.0000      -0.129100        -3.5130
  54   1.0000      -0.117272        -3.1911
  55   1.0000      -0.111799        -3.0422
  56   1.0000      -0.109806        -2.9880
  57   1.0000      -0.078133        -2.1261
  58   1.0000      -0.069366        -1.8875
  59   1.0000      -0.068423        -1.8619
  60   1.0000      -0.054716        -1.4889
  61   1.0000      -0.053482        -1.4553
  62   1.0000      -0.041947        -1.1414
  63   1.0000      -0.035471        -0.9652
  64   1.0000      -0.003227        -0.0878
  65   1.0000       0.020837         0.5670
  66   1.0000       0.025926         0.7055
  67   1.0000       0.037337         1.0160
  68   1.0000       0.039092         1.0638
  69   1.0000       0.053363         1.4521
  70   1.0000       0.060168         1.6372
  71   1.0000       0.067501         1.8368
  72   0.0000       0.204309         5.5595
  73   0.0000       0.228241         6.2108
  74   0.0000       0.239275         6.5110
  75   0.0000       0.247875         6.7450
  76   0.0000       0.251137         6.8338

MULLIKEN ATOMIC CHARGES AND SPIN POPULATIONS
--------------------------------------------
   0 V :    0.527297    1.192475
   1 S :   -0.412639   -0.005990
   2 S :   -0.351881   -0.033728
   3 S :   -0.399667   -0.029542
   4 S :   -0.382254   -0.021526
   5 O :   -0.542969   -0.134916
   6 C :   -0.245874    0.006099
   7 C :   -0.236304    0.006957
   8 C :   -0.161787    0.002965
   9 H :    0.077991   -0.000954
  10 H :    0.055652    0.002175
  11 H :    0.139361    0.000662
  12 H :    0.007376   -0.000040
  13 H :    0.096890   -0.000132
  14 H :    0.052669   -0.000055
  15 C :   -0.261731   -0.001456
  16 C :   -0.260586    0.004035
  17 C :    0.041118    0.003612
  18 H :    0.102451   -0.000331
  19 H :    0.144644   -0.000082
  20 H :   -0.084509    0.004810
  21 H :   -0.161983    0.005198
  22 H :    0.109109   -0.000279
  23 H :    0.147625    0.000044
Sum of atomic charges         :   -2.0000000

LOEWDIN ATOMIC CHARGES AND SPIN POPULATIONS
-------------------------------------------
   0 V :   -0.208306    1.148874
   1 S :   -0.053997   -0.000079
   2 S :   -0.035568   -0.023202
   3 S :   -0.041350   -0.020445
   4 S :   -0.060082   -0.012210
   5 O :   -0.373519   -0.121577
   6 C :   -0.324764    0.005511
   7 C :   -0.312469    0.007187
   8 C :   -0.186536    0.000462
   9 H :    0.036698    0.000011
  10 H :    0.029755    0.000660
  11 H :    0.070216    0.000342
  12 H :    0.032596    0.000164
  13 H :    0.045617   -0.000062
  14 H :    0.028369   -0.000530
  15 C :   -0.318262    0.002577
  16 C :   -0.323651    0.007024
  17 C :   -0.133206   -0.000410
  18 H :    0.019952   -0.000108
  19 H :    0.061086   -0.000558
  20 H :    0.009089    0.002866
  21 H :   -0.051235    0.003846
  22 H :    0.022206   -0.000370
  23 H :    0.067360    0.000027

  Mayer bond orders larger than 0.100000
B(  0-V ,  1-S ) :   0.7047 B(  0-V ,  2-S ) :   0.8648 B(  0-V ,  3-S ) :   0.7569
B(  0-V ,  4-S ) :   0.7838 B(  0-V ,  5-O ) :   2.0764 B(  1-S , 15-C ) :   1.0042
B(  2-S ,  6-C ) :   1.0071 B(  3-S , 16-C ) :   0.9807 B(  4-S ,  7-C ) :   1.0661
B(  6-C ,  8-C ) :   0.9007 B(  6-C , 13-H ) :   0.9747 B(  6-C , 14-H ) :   0.9687
B(  7-C ,  8-C ) :   0.9199 B(  7-C ,  9-H ) :   0.9774 B(  7-C , 10-H ) :   0.9699
B(  8-C , 11-H ) :   0.9882 B(  8-C , 12-H ) :   0.9457 B( 15-C , 17-C ) :   0.9260
B( 15-C , 22-H ) :   0.9698 B( 15-C , 23-H ) :   0.9613 B( 16-C , 17-C ) :   0.9407
B( 16-C , 18-H ) :   0.9666 B( 16-C , 19-H ) :   0.9663 B( 17-C , 20-H ) :   0.8639
B( 17-C , 21-H ) :   0.8156

FINAL SINGLE POINT ENERGY     -2847.598856530226

DIPOLE MOMENT
-------------
                                X             Y             Z
Electronic contribution:      4.89046       0.52406       4.10548
Nuclear contribution   :     -5.54367      -1.17609      -3.38140
                        -----------------------------------------
Total Dipole Moment    :     -0.65321      -0.65204       0.72408
                        -----------------------------------------
Magnitude (a.u.)       :      1.17309
Magnitude (Debye)      :      2.98175

Rotational constants in cm-1:     0.027161     0.011709     0.009595
Rotational constants in MHz :   814.261689   351.025515   287.649608

                             ****ORCA TERMINATED NORMALLY****
TOTAL RUN TIME: 0 days 0 hours 14 minutes 24 seconds 101 msec
