                         Program Version 5.0.4 -  RELEASE  -
|  1> ! nofrozencore ReducedPop printbasis
|  2> ! B3LYP TZVP
|  3>
|  4> %basis
|  5> newgto V "CP(PPP)" end
|  6> end
|  7>
|  8> %pal
|  9> nprocs 4
| 10> end
| 11>
| 12> % sym SymThresh 1e-2 end
| 13> * xyz -2 2
| 14> V -0.008020116578300537 0.15142504327370623 -0.4768957325743508
| 15> S 0.3490778086740214 -2.35877190952747 -0.4752111212908177
| 16> S -1.9878122077232243 -0.7126428778384025 0.6628513798391918
| 17> S 2.3894202167706853 0.4642522951927314 0.10149646607056063
| 18> S -0.347283615722784 2.3827429256604655 0.5822676167369392
| 19> O -0.27608776687807873 0.4305709116132923 -2.0324420726898405
| 20> C -3.153297969550949 0.6959152093401156 1.0185828626037077
| 21> C -2.101015116563157 2.9145460396681266 0.24942854428461106
| 22> C -3.1267801661275554 1.8085653215507433 -0.033967915175814156
| 23> H -2.0932206853458637 3.6185149092240683 -0.5989187409159301
| 24> H -2.4358563959737665 3.483504368318738 1.1347912612242672
| 25> H -2.927011195758963 1.360512117353624 -1.0146008308973737
| 26> H -4.123129416439853 2.288879280786993 -0.09351495018110527
| 27> H -2.9312398139316462 1.127097324097116 2.0082867774927187
| 28> H -4.161748638106978 0.2541018103994302 1.0671755384548698
| 29> C 1.592740583080292 -2.55765088191014 0.8751581276885534
| 30> C 3.2106215455526583 -1.09166426917341 -0.49335899943159317
| 31> C 3.039271761523388 -2.3099311898253436 0.4221795508590964
| 32> H 4.281857854803046 -0.8761460714203932 -0.6156290171256265
| 33> H 2.799005526664403 -1.3340411141898025 -1.474552658914003
| 34> H 3.676651278535501 -2.1909643826458023 1.3139644943067375
| 35> H 3.405289451992361 -3.198653146378503 -0.12148590259558431
| 36> H 1.5030842952959704 -3.5731511111992313 1.282111268115725
| 37> H 1.3370864443523895 -1.8600168065486795 1.6762621465792682
| 38> *
| 39>
| 40> % eprnmr
| 41> gtensor true
| 42> Nuclei = all H {aiso,adip,aorb,fgrad,rho}
| 43> Nuclei = all V {aiso,adip,aorb,fgrad,rho}
| 44> end
| 45>
| 46>                          ****END OF INPUT****

CARTESIAN COORDINATES (ANGSTROEM)
---------------------------------
  V     -0.007868    0.151385   -0.477634
  S      0.349230   -2.358812   -0.475949
  S     -1.987660   -0.712683    0.662113
  S      2.389573    0.464212    0.100758
  S     -0.347131    2.382703    0.581529
  O     -0.275935    0.430531   -2.033180
  C     -3.153145    0.695875    1.017845
  C     -2.100863    2.914506    0.248690
  C     -3.126628    1.808525   -0.034706
  H     -2.093068    3.618475   -0.599657
  H     -2.435704    3.483464    1.134053
  H     -2.926859    1.360472   -1.015339
  H     -4.122977    2.288839   -0.094253
  H     -2.931087    1.127057    2.007549
  H     -4.161596    0.254062    1.066437
  C      1.592893   -2.557691    0.874420
  C      3.210774   -1.091705   -0.494097
  C      3.039424   -2.309971    0.421441
  H      4.282010   -0.876186   -0.616367
  H      2.799158   -1.334081   -1.475291
  H      3.676804   -2.191005    1.313226
  H      3.405442   -3.198693   -0.122224
  H      1.503237   -3.573191    1.281373
  H      1.337239   -1.860057    1.675524

 Total Charge           Charge          ....   -2
 Multiplicity           Mult            ....    2
 Number of Electrons    NEL             ....  145
 Basis Dimension        Dim             ....  353

ORBITAL ENERGIES
----------------
                 SPIN UP ORBITALS
  NO   OCC          E(Eh)            E(eV)
   0   1.0000    -196.607605     -5349.9649
   1   1.0000     -88.562765     -2409.9154
   2   1.0000     -88.560229     -2409.8464
   3   1.0000     -88.559801     -2409.8347
   4   1.0000     -88.556841     -2409.7541
   5   1.0000     -21.982971      -598.1870
   6   1.0000     -18.824569      -512.2426
   7   1.0000     -18.490684      -503.1571
   8   1.0000     -18.483618      -502.9648
   9   1.0000     -18.483545      -502.9628
  10   1.0000      -9.945305      -270.6255
  11   1.0000      -9.935620      -270.3620
  12   1.0000      -9.934994      -270.3449
  13   1.0000      -9.933865      -270.3142
  14   1.0000      -9.932282      -270.2711
  15   1.0000      -9.929837      -270.2046
  16   1.0000      -7.616822      -207.2643
  17   1.0000      -7.613842      -207.1832
  18   1.0000      -7.613839      -207.1831
  19   1.0000      -7.611283      -207.1135
  20   1.0000      -5.582015      -151.8943
  21   1.0000      -5.579400      -151.8232
  22   1.0000      -5.579308      -151.8207
  23   1.0000      -5.576486      -151.7439
  24   1.0000      -5.575843      -151.7264
  25   1.0000      -5.574069      -151.6781
  26   1.0000      -5.572923      -151.6470
  27   1.0000      -5.572545      -151.6367
  28   1.0000      -5.570962      -151.5936
  29   1.0000      -5.570780      -151.5886
  30   1.0000      -5.570570      -151.5829
  31   1.0000      -5.568243      -151.5196
  32   1.0000      -2.375532       -64.6415
  33   1.0000      -1.418033       -38.5867
  34   1.0000      -1.403721       -38.1972
  35   1.0000      -1.403210       -38.1833
  36   1.0000      -0.587155       -15.9773
  37   1.0000      -0.550299       -14.9744
  38   1.0000      -0.549812       -14.9611
  39   1.0000      -0.467427       -12.7193
  40   1.0000      -0.464969       -12.6525
  41   1.0000      -0.403567       -10.9816
  42   1.0000      -0.395088       -10.7509
  43   1.0000      -0.338104        -9.2003
  44   1.0000      -0.326353        -8.8805
  45   1.0000      -0.305253        -8.3064
  46   1.0000      -0.285592        -7.7714
  47   1.0000      -0.213296        -5.8041
  48   1.0000      -0.206785        -5.6269
  49   1.0000      -0.202605        -5.5132
  50   1.0000      -0.194613        -5.2957
  51   1.0000      -0.160911        -4.3786
  52   1.0000      -0.133147        -3.6231
  53   1.0000      -0.131204        -3.5702
  54   1.0000      -0.111436        -3.0323
  55   1.0000      -0.107881        -2.9356
  56   1.0000      -0.105062        -2.8589
  57   1.0000      -0.080218        -2.1828
  58   1.0000      -0.070936        -1.9303
  59   1.0000      -0.063566        -1.7297
  60   1.0000      -0.054503        -1.4831
  61   1.0000      -0.047024        -1.2796
  62   1.0000      -0.043710        -1.1894
  63   1.0000      -0.034898        -0.9496
  64   1.0000      -0.000359        -0.0098
  65   1.0000       0.027635         0.7520
  66   1.0000       0.030433         0.8281
  67   1.0000       0.038006         1.0342
  68   1.0000       0.045398         1.2353
  69   1.0000       0.055761         1.5173
  70   1.0000       0.063890         1.7385
  71   1.0000       0.072857         1.9825
  72   1.0000       0.079872         2.1734
  73   0.0000       0.234420         6.3789
  74   0.0000       0.245998         6.6940
  75   0.0000       0.249139         6.7794
  76   0.0000       0.251064         6.8318
  77   0.0000       0.258980         7.0472

                 SPIN DOWN ORBITALS
  NO   OCC          E(Eh)            E(eV)
   0   1.0000    -196.607745     -5349.9687
   1   1.0000     -88.562922     -2409.9196
   2   1.0000     -88.560411     -2409.8513
   3   1.0000     -88.559918     -2409.8379
   4   1.0000     -88.556850     -2409.7544
   5   1.0000     -21.967921      -597.7775
   6   1.0000     -18.828035      -512.3369
   7   1.0000     -18.485468      -503.0152
   8   1.0000     -18.467544      -502.5274
   9   1.0000     -18.467110      -502.5156
  10   1.0000      -9.945083      -270.6195
  11   1.0000      -9.935405      -270.3561
  12   1.0000      -9.934905      -270.3425
  13   1.0000      -9.933799      -270.3124
  14   1.0000      -9.932247      -270.2702
  15   1.0000      -9.929855      -270.2051
  16   1.0000      -7.616971      -207.2683
  17   1.0000      -7.614018      -207.1880
  18   1.0000      -7.613952      -207.1862
  19   1.0000      -7.611293      -207.1138
  20   1.0000      -5.582175      -151.8987
  21   1.0000      -5.579560      -151.8276
  22   1.0000      -5.579451      -151.8246
  23   1.0000      -5.576524      -151.7449
  24   1.0000      -5.576247      -151.7374
  25   1.0000      -5.574187      -151.6813
  26   1.0000      -5.573313      -151.6576
  27   1.0000      -5.573032      -151.6499
  28   1.0000      -5.571089      -151.5970
  29   1.0000      -5.570945      -151.5931
  30   1.0000      -5.570762      -151.5881
  31   1.0000      -5.567871      -151.5095
  32   1.0000      -2.330569       -63.4180
  33   1.0000      -1.398898       -38.0659
  34   1.0000      -1.342108       -36.5206
  35   1.0000      -1.340290       -36.4712
  36   1.0000      -0.594570       -16.1791
  37   1.0000      -0.550159       -14.9706
  38   1.0000      -0.549691       -14.9579
  39   1.0000      -0.467379       -12.7180
  40   1.0000      -0.464838       -12.6489
  41   1.0000      -0.403635       -10.9835
  42   1.0000      -0.395285       -10.7563
  43   1.0000      -0.338294        -9.2054
  44   1.0000      -0.326806        -8.8928
  45   1.0000      -0.305230        -8.3057
  46   1.0000      -0.285609        -7.7718
  47   1.0000      -0.213221        -5.8020
  48   1.0000      -0.206733        -5.6255
  49   1.0000      -0.202482        -5.5098
  50   1.0000      -0.194426        -5.2906
  51   1.0000      -0.160806        -4.3757
  52   1.0000      -0.132970        -3.6183
  53   1.0000      -0.130913        -3.5623
  54   1.0000      -0.111421        -3.0319
  55   1.0000      -0.107813        -2.9338
  56   1.0000      -0.104925        -2.8551
  57   1.0000      -0.079154        -2.1539
  58   1.0000      -0.068303        -1.8586
  59   1.0000      -0.062607        -1.7036
  60   1.0000      -0.054648        -1.4870
  61   1.0000      -0.047391        -1.2896
  62   1.0000      -0.044889        -1.2215
  63   1.0000      -0.036114        -0.9827
  64   1.0000       0.004330         0.1178
  65   1.0000       0.028632         0.7791
  66   1.0000       0.033285         0.9057
  67   1.0000       0.045776         1.2456
  68   1.0000       0.046097         1.2544
  69   1.0000       0.062754         1.7076
  70   1.0000       0.069416         1.8889
  71   1.0000       0.074097         2.0163
  72   0.0000       0.231683         6.3044
  73   0.0000       0.250675         6.8212
  74   0.0000       0.254621         6.9286
  75   0.0000       0.260903         7.0995
  76   0.0000       0.264522         7.1980

MULLIKEN ATOMIC CHARGES AND SPIN POPULATIONS
--------------------------------------------
   0 V :    0.526151    1.195013
   1 S :   -0.419057   -0.006174
   2 S :   -0.337855   -0.034723
   3 S :   -0.421771   -0.027846
   4 S :   -0.395437   -0.022351
   5 O :   -0.545999   -0.133699
   6 C :   -0.245161    0.004664
   7 C :   -0.230742    0.008014
   8 C :   -0.158610    0.002920
   9 H :    0.072313   -0.000985
  10 H :    0.049569    0.001933
  11 H :    0.140207    0.000578
  12 H :    0.004303    0.000124
  13 H :    0.082527   -0.000080
  14 H :    0.049427   -0.000179
  15 C :   -0.251767   -0.001681
  16 C :   -0.250111    0.005404
  17 C :   -0.069448    0.007771
  18 H :    0.046516    0.000364
  19 H :    0.134598   -0.000632
  20 H :    0.014507    0.001250
  21 H :    0.013032    0.000328
  22 H :    0.052775   -0.000543
  23 H :    0.140033    0.000529
Sum of atomic charges         :   -2.0000000

LOEWDIN ATOMIC CHARGES AND SPIN POPULATIONS
-------------------------------------------
   0 V :   -0.206803    1.152314
   1 S :   -0.063027   -0.000895
   2 S :   -0.032801   -0.023999
   3 S :   -0.068524   -0.019115
   4 S :   -0.073769   -0.013713
   5 O :   -0.377544   -0.120575
   6 C :   -0.330563    0.003578
   7 C :   -0.312125    0.008632
   8 C :   -0.187321    0.000531
   9 H :    0.035234   -0.000129
  10 H :    0.029876    0.000532
  11 H :    0.071532    0.000369
  12 H :    0.031644    0.000187
  13 H :    0.043124   -0.000032
  14 H :    0.028352   -0.000552
  15 C :   -0.318316    0.002960
  16 C :   -0.321811    0.008897
  17 C :   -0.189602    0.000902
  18 H :    0.028438   -0.000105
  19 H :    0.055250   -0.000620
  20 H :    0.035605    0.000529
  21 H :    0.035840    0.000462
  22 H :    0.030619   -0.000549
  23 H :    0.056694    0.000392

  Mayer bond orders larger than 0.100000
B(  0-V ,  1-S ) :   0.6989 B(  0-V ,  2-S ) :   0.8598 B(  0-V ,  3-S ) :   0.7734
B(  0-V ,  4-S ) :   0.7811 B(  0-V ,  5-O ) :   2.0719 B(  1-S , 15-C ) :   1.0174
B(  2-S ,  6-C ) :   1.0080 B(  3-S , 16-C ) :   1.0159 B(  4-S ,  7-C ) :   1.0613
B(  6-C ,  8-C ) :   0.9066 B(  6-C , 13-H ) :   0.9699 B(  6-C , 14-H ) :   0.9711
B(  7-C ,  8-C ) :   0.9208 B(  7-C ,  9-H ) :   0.9755 B(  7-C , 10-H ) :   0.9678
B(  8-C , 11-H ) :   0.9857 B(  8-C , 12-H ) :   0.9434 B( 15-C , 17-C ) :   0.8953
B( 15-C , 22-H ) :   0.9682 B( 15-C , 23-H ) :   0.9785 B( 16-C , 17-C ) :   0.9043
B( 16-C , 18-H ) :   0.9624 B( 16-C , 19-H ) :   0.9758 B( 17-C , 20-H ) :   0.9560
B( 17-C , 21-H ) :   0.9596

FINAL SINGLE POINT ENERGY     -2847.716237170683

DIPOLE MOMENT
-------------
                                X             Y             Z
Electronic contribution:      1.26265       1.47393      -6.06117
Nuclear contribution   :     -1.54372      -1.53222       6.42657
                        -----------------------------------------
Total Dipole Moment    :     -0.28107      -0.05829       0.36541
                        -----------------------------------------
Magnitude (a.u.)       :      0.46467
Magnitude (Debye)      :      1.18110

Rotational constants in cm-1:     0.027092     0.011774     0.009587
Rotational constants in MHz :   812.189784   352.989983   287.422464

                             ****ORCA TERMINATED NORMALLY****
TOTAL RUN TIME: 0 days 0 hours 14 minutes 20 seconds 585 msec
