                         Program Version 5.0.4 -  RELEASE  -
|  1> ! nofrozencore ReducedPop printbasis
|  2> ! B3LYP TZVP
|  3>
|  4> %basis
|  5> newgto V "CP(PPP)" end
|  6> end
|  7>
|  8> %pal
|  9> nprocs 4
| 10> end
| 11>
| 12> % sym SymThresh 1e-2 end
| 13> * xyz -2 2
| 14> V -0.3372367976997017 0.33300026334339883 -0.24627058789972778
| 15> S -1.705872362142309 -1.7945061300293526 -0.3545653059608277
| 16> S -0.6305669332748193 -0.014766875462922203 2.155644156423423
| 17> S 1.2088204557538478 -0.6304493545975025 -1.931652246774417
| 18> S 1.6656087846146643 1.7455518423257494 0.19369024237076057
| 19> O -1.4094823598051087 1.3690482646769342 -0.8353812471005667
| 20> C 0.24666583241804496 1.3538432114845895 3.056489817622596
| 21> C 1.17174471403618 3.0815812651815166 1.3824070292755872
| 22> C 0.07717397456283677 2.7345252204340813 2.4025019488169232
| 23> H 0.8558060612158419 3.9664535282672317 0.8135613017275682
| 24> H 2.086161557892161 3.3573621763915726 1.925598268875986
| 25> H -0.9031643887856975 2.770591932336984 1.9151560093194957
| 26> H 0.076720269524983 3.5219006348875586 3.18143515942548
| 27> H 1.3147580951319124 1.1109295030364794 3.1340422560095176
| 28> H -0.17065014165500678 1.3697797318604505 4.074139902444372
| 29> C -0.35792021739881186 -3.0618698884886264 -0.49181351569556725
| 30> C 0.29186352877179705 -2.010528415127627 -2.760000933079239
| 31> C 0.14520561987622638 -3.291543289031684 -1.9288469773346064
| 32> H 0.8198519319235824 -2.246064607500552 -3.694992768272837
| 33> H -0.7045287017647084 -1.6438694260867872 -3.0173696243822747
| 34> H 1.115438681817 -3.818344031037412 -1.8830124070492265
| 35> H -0.557377678273084 -3.9584816268696565 -2.459666312386147
| 36> H -0.7264741464434514 -4.009163466822313 -0.07981480908046339
| 37> H 0.47255628117585435 -2.738247789836493 0.14027667985025144
| 38> *
| 39>
| 40> % eprnmr
| 41> gtensor true
| 42> Nuclei = all H {aiso,adip,aorb,fgrad,rho}
| 43> Nuclei = all V {aiso,adip,aorb,fgrad,rho}
| 44> end
| 45>
| 46>                          ****END OF INPUT****

CARTESIAN COORDINATES (ANGSTROEM)
---------------------------------
  V     -0.337743    0.333234   -0.246779
  S     -1.706379   -1.794272   -0.355074
  S     -0.631073   -0.014533    2.155135
  S      1.208314   -0.630215   -1.932161
  S      1.665102    1.745786    0.193182
  O     -1.409989    1.369282   -0.835890
  C      0.246159    1.354077    3.055981
  C      1.171238    3.081815    1.381898
  C      0.076668    2.734759    2.401993
  H      0.855300    3.966688    0.813053
  H      2.085655    3.357596    1.925090
  H     -0.903671    2.770826    1.914647
  H      0.076214    3.522135    3.180926
  H      1.314252    1.111164    3.133534
  H     -0.171157    1.370014    4.073631
  C     -0.358427   -3.061636   -0.492322
  C      0.291357   -2.010294   -2.760510
  C      0.144699   -3.291309   -1.929356
  H      0.819346   -2.245830   -3.695501
  H     -0.705035   -1.643635   -3.017878
  H      1.114932   -3.818110   -1.883521
  H     -0.557884   -3.958248   -2.460175
  H     -0.726981   -4.008929   -0.080324
  H      0.472050   -2.738014    0.139768

 Total Charge           Charge          ....   -2
 Multiplicity           Mult            ....    2
 Number of Electrons    NEL             ....  145
 Basis Dimension        Dim             ....  353

ORBITAL ENERGIES
----------------
                 SPIN UP ORBITALS
  NO   OCC          E(Eh)            E(eV)
   0   1.0000    -196.606837     -5349.9440
   1   1.0000     -88.561632     -2409.8845
   2   1.0000     -88.561599     -2409.8836
   3   1.0000     -88.558858     -2409.8090
   4   1.0000     -88.557250     -2409.7653
   5   1.0000     -21.982258      -598.1676
   6   1.0000     -18.824332      -512.2361
   7   1.0000     -18.490022      -503.1391
   8   1.0000     -18.482876      -502.9446
   9   1.0000     -18.482793      -502.9424
  10   1.0000      -9.943139      -270.5666
  11   1.0000      -9.936286      -270.3801
  12   1.0000      -9.934977      -270.3445
  13   1.0000      -9.934311      -270.3264
  14   1.0000      -9.932828      -270.2860
  15   1.0000      -9.930407      -270.2201
  16   1.0000      -7.615709      -207.2340
  17   1.0000      -7.615431      -207.2264
  18   1.0000      -7.613055      -207.1618
  19   1.0000      -7.611489      -207.1191
  20   1.0000      -5.580914      -151.8644
  21   1.0000      -5.580846      -151.8626
  22   1.0000      -5.578532      -151.7996
  23   1.0000      -5.576752      -151.7511
  24   1.0000      -5.574682      -151.6948
  25   1.0000      -5.574241      -151.6828
  26   1.0000      -5.572975      -151.6484
  27   1.0000      -5.572618      -151.6386
  28   1.0000      -5.572087      -151.6242
  29   1.0000      -5.570720      -151.5870
  30   1.0000      -5.569989      -151.5671
  31   1.0000      -5.568541      -151.5277
  32   1.0000      -2.374887       -64.6240
  33   1.0000      -1.417406       -38.5696
  34   1.0000      -1.403107       -38.1805
  35   1.0000      -1.402487       -38.1636
  36   1.0000      -0.586859       -15.9692
  37   1.0000      -0.550312       -14.9748
  38   1.0000      -0.548878       -14.9357
  39   1.0000      -0.468620       -12.7518
  40   1.0000      -0.464402       -12.6370
  41   1.0000      -0.403507       -10.9800
  42   1.0000      -0.396160       -10.7801
  43   1.0000      -0.337339        -9.1795
  44   1.0000      -0.327649        -8.9158
  45   1.0000      -0.304153        -8.2764
  46   1.0000      -0.285485        -7.7684
  47   1.0000      -0.212584        -5.7847
  48   1.0000      -0.206432        -5.6173
  49   1.0000      -0.201418        -5.4809
  50   1.0000      -0.198374        -5.3980
  51   1.0000      -0.160035        -4.3548
  52   1.0000      -0.133118        -3.6223
  53   1.0000      -0.130821        -3.5598
  54   1.0000      -0.111797        -3.0422
  55   1.0000      -0.106828        -2.9069
  56   1.0000      -0.106260        -2.8915
  57   1.0000      -0.082137        -2.2351
  58   1.0000      -0.068277        -1.8579
  59   1.0000      -0.063297        -1.7224
  60   1.0000      -0.056237        -1.5303
  61   1.0000      -0.046270        -1.2591
  62   1.0000      -0.040766        -1.1093
  63   1.0000      -0.034854        -0.9484
  64   1.0000      -0.000402        -0.0110
  65   1.0000       0.027325         0.7435
  66   1.0000       0.030838         0.8391
  67   1.0000       0.037443         1.0189
  68   1.0000       0.046469         1.2645
  69   1.0000       0.052792         1.4365
  70   1.0000       0.063906         1.7390
  71   1.0000       0.071789         1.9535
  72   1.0000       0.081655         2.2219
  73   0.0000       0.233959         6.3664
  74   0.0000       0.247464         6.7338
  75   0.0000       0.248636         6.7657
  76   0.0000       0.251767         6.8509
  77   0.0000       0.258654         7.0383

                 SPIN DOWN ORBITALS
  NO   OCC          E(Eh)            E(eV)
   0   1.0000    -196.606980     -5349.9479
   1   1.0000     -88.561812     -2409.8894
   2   1.0000     -88.561761     -2409.8880
   3   1.0000     -88.558966     -2409.8120
   4   1.0000     -88.557204     -2409.7640
   5   1.0000     -21.967199      -597.7579
   6   1.0000     -18.827827      -512.3312
   7   1.0000     -18.484812      -502.9973
   8   1.0000     -18.466775      -502.5065
   9   1.0000     -18.466355      -502.4951
  10   1.0000      -9.942952      -270.5615
  11   1.0000      -9.936158      -270.3766
  12   1.0000      -9.934798      -270.3396
  13   1.0000      -9.934268      -270.3252
  14   1.0000      -9.932787      -270.2849
  15   1.0000      -9.930427      -270.2207
  16   1.0000      -7.615863      -207.2382
  17   1.0000      -7.615606      -207.2312
  18   1.0000      -7.613157      -207.1645
  19   1.0000      -7.611447      -207.1180
  20   1.0000      -5.581071      -151.8687
  21   1.0000      -5.581013      -151.8671
  22   1.0000      -5.578659      -151.8030
  23   1.0000      -5.576753      -151.7512
  24   1.0000      -5.575106      -151.7063
  25   1.0000      -5.574699      -151.6953
  26   1.0000      -5.573100      -151.6518
  27   1.0000      -5.572761      -151.6425
  28   1.0000      -5.572491      -151.6352
  29   1.0000      -5.571050      -151.5960
  30   1.0000      -5.569930      -151.5655
  31   1.0000      -5.568013      -151.5133
  32   1.0000      -2.329938       -63.4008
  33   1.0000      -1.398386       -38.0520
  34   1.0000      -1.341372       -36.5006
  35   1.0000      -1.339630       -36.4532
  36   1.0000      -0.594359       -16.1733
  37   1.0000      -0.550216       -14.9721
  38   1.0000      -0.548723       -14.9315
  39   1.0000      -0.468571       -12.7505
  40   1.0000      -0.464274       -12.6335
  41   1.0000      -0.403564       -10.9815
  42   1.0000      -0.396292       -10.7837
  43   1.0000      -0.337472        -9.1831
  44   1.0000      -0.328048        -8.9266
  45   1.0000      -0.304130        -8.2758
  46   1.0000      -0.285477        -7.7682
  47   1.0000      -0.212522        -5.7830
  48   1.0000      -0.206371        -5.6156
  49   1.0000      -0.201272        -5.4769
  50   1.0000      -0.198241        -5.3944
  51   1.0000      -0.159906        -4.3513
  52   1.0000      -0.132980        -3.6186
  53   1.0000      -0.130536        -3.5521
  54   1.0000      -0.111785        -3.0418
  55   1.0000      -0.106760        -2.9051
  56   1.0000      -0.106101        -2.8872
  57   1.0000      -0.080920        -2.2019
  58   1.0000      -0.066232        -1.8023
  59   1.0000      -0.062406        -1.6982
  60   1.0000      -0.056199        -1.5292
  61   1.0000      -0.047073        -1.2809
  62   1.0000      -0.041512        -1.1296
  63   1.0000      -0.036284        -0.9873
  64   1.0000       0.004199         0.1143
  65   1.0000       0.028334         0.7710
  66   1.0000       0.033924         0.9231
  67   1.0000       0.045618         1.2413
  68   1.0000       0.046945         1.2774
  69   1.0000       0.061714         1.6793
  70   1.0000       0.068048         1.8517
  71   1.0000       0.073414         1.9977
  72   0.0000       0.233620         6.3571
  73   0.0000       0.250272         6.8103
  74   0.0000       0.255451         6.9512
  75   0.0000       0.260377         7.0852
  76   0.0000       0.264254         7.1907

MULLIKEN ATOMIC CHARGES AND SPIN POPULATIONS
--------------------------------------------
   0 V :    0.533446    1.191771
   1 S :   -0.431518    0.001224
   2 S :   -0.352004   -0.033787
   3 S :   -0.406848   -0.029719
   4 S :   -0.383649   -0.022128
   5 O :   -0.551561   -0.134647
   6 C :   -0.247481    0.005387
   7 C :   -0.236812    0.006966
   8 C :   -0.157020    0.003053
   9 H :    0.074433   -0.001000
  10 H :    0.052012    0.002151
  11 H :    0.133681    0.000495
  12 H :    0.005186   -0.000072
  13 H :    0.098631   -0.000154
  14 H :    0.047720   -0.000067
  15 C :   -0.253995   -0.002637
  16 C :   -0.250115    0.003488
  17 C :   -0.072925    0.008355
  18 H :    0.046683   -0.000325
  19 H :    0.127171    0.000062
  20 H :    0.016702    0.001548
  21 H :    0.012536    0.000014
  22 H :    0.052461   -0.000495
  23 H :    0.143266    0.000517
Sum of atomic charges         :   -2.0000000

LOEWDIN ATOMIC CHARGES AND SPIN POPULATIONS
-------------------------------------------
   0 V :   -0.208048    1.148514
   1 S :   -0.075601    0.006297
   2 S :   -0.034808   -0.023244
   3 S :   -0.060845   -0.020841
   4 S :   -0.063372   -0.013125
   5 O :   -0.378870   -0.121591
   6 C :   -0.327340    0.005060
   7 C :   -0.315061    0.007308
   8 C :   -0.187946    0.000425
   9 H :    0.036227   -0.000002
  10 H :    0.029405    0.000615
  11 H :    0.068774    0.000288
  12 H :    0.031293    0.000152
  13 H :    0.046609   -0.000100
  14 H :    0.027694   -0.000531
  15 C :   -0.315553    0.002200
  16 C :   -0.325927    0.007519
  17 C :   -0.188644    0.001197
  18 H :    0.028308   -0.000280
  19 H :    0.053324   -0.000637
  20 H :    0.037102    0.000557
  21 H :    0.035046    0.000380
  22 H :    0.030714   -0.000549
  23 H :    0.057517    0.000386

  Mayer bond orders larger than 0.100000
B(  0-V ,  1-S ) :   0.7056 B(  0-V ,  2-S ) :   0.8570 B(  0-V ,  3-S ) :   0.7751
B(  0-V ,  4-S ) :   0.7715 B(  0-V ,  5-O ) :   2.0679 B(  1-S , 15-C ) :   1.0203
B(  2-S ,  6-C ) :   1.0072 B(  3-S , 16-C ) :   1.0272 B(  4-S ,  7-C ) :   1.0716
B(  6-C ,  8-C ) :   0.8992 B(  6-C , 13-H ) :   0.9745 B(  6-C , 14-H ) :   0.9665
B(  7-C ,  8-C ) :   0.9189 B(  7-C ,  9-H ) :   0.9760 B(  7-C , 10-H ) :   0.9697
B(  8-C , 11-H ) :   0.9888 B(  8-C , 12-H ) :   0.9453 B( 15-C , 17-C ) :   0.8977
B( 15-C , 22-H ) :   0.9688 B( 15-C , 23-H ) :   0.9780 B( 16-C , 17-C ) :   0.9031
B( 16-C , 18-H ) :   0.9624 B( 16-C , 19-H ) :   0.9741 B( 17-C , 20-H ) :   0.9583
B( 17-C , 21-H ) :   0.9595

FINAL SINGLE POINT ENERGY     -2847.717845649924

DIPOLE MOMENT
-------------
                                X             Y             Z
Electronic contribution:     -4.65579       3.58450      -4.44643
Nuclear contribution   :      4.97114      -3.67167       4.92015
                        -----------------------------------------
Total Dipole Moment    :      0.31536      -0.08717       0.47372
                        -----------------------------------------
Magnitude (a.u.)       :      0.57572
Magnitude (Debye)      :      1.46337

Rotational constants in cm-1:     0.026832     0.011764     0.009705
Rotational constants in MHz :   804.395849   352.688252   290.942030

                             ****ORCA TERMINATED NORMALLY****
TOTAL RUN TIME: 0 days 0 hours 14 minutes 21 seconds 306 msec
