                         Program Version 5.0.4 -  RELEASE  -
|  1> ! nofrozencore ReducedPop printbasis
|  2> ! B3LYP TZVP
|  3>
|  4> %basis
|  5> newgto V "CP(PPP)" end
|  6> end
|  7>
|  8> %pal
|  9> nprocs 8
| 10> end
| 11>
| 12> % sym SymThresh 1e-2 end
| 13> * xyz -2 2
| 14> V 0.47104366741765585 0.04747021068363461 0.1254030755658574
| 15> S -0.5866091786360375 -0.28285390017367407 2.4013317901072093
| 16> S -0.2891953298040386 -2.2700417627505898 -0.17411799342321801
| 17> S -0.5444191560590756 2.310315367174765 0.03141388866494333
| 18> S 0.47511316876385057 0.36207330724029335 -2.3493844481098125
| 19> O 2.0337352403347637 0.08262157640936203 0.5236072045819582
| 20> C 0.14950758272703465 -2.7688158529716707 -1.850783884920354
| 21> C 1.4972812569944043 -0.9179048946116835 -3.060084212624249
| 22> C 1.6526181446394743 -2.363217949941099 -2.3545812133357327
| 23> H 2.468294184792375 -0.4078535581865231 -3.186766071412795
| 24> H 1.0967957214764084 -1.0482418033373557 -4.07623269287342
| 25> H 2.140599836717679 -2.144015868443489 -1.3761553451568462
| 26> H 2.265672071340315 -3.1324772300913812 -2.8832793299546116
| 27> H -0.6205005860836893 -2.672865037929945 -2.6583154717270774
| 28> H 0.18253130235650816 -3.856727429550611 -1.5508081817919879
| 29> C -2.1923795643295456 0.6138421375369618 2.206948525537523
| 30> C -0.8700907563650999 2.7832447451790103 1.7902914853451761
| 31> C -2.0983831486379274 2.1285905522222754 2.4288676504084057
| 32> H -0.9846304117452371 3.873631037207363 1.82304045207785
| 33> H 0.010759184620702222 2.518698101229987 2.3751652182052
| 34> H -3.0123682922570656 2.5981596475167184 2.032302279478389
| 35> H -2.0736142414879093 2.3365843234507904 3.5108574964849453
| 36> H -2.9118913074219765 0.18713030305718314 2.915588092113504
| 37> H -2.569816786354359 0.4187332075764081 1.2026128927972326
| 38> *
| 39>
| 40> % eprnmr
| 41> gtensor true
| 42> Nuclei = all H {aiso,adip,aorb,fgrad,rho}
| 43> Nuclei = all V {aiso,adip,aorb,fgrad,rho}
| 44> end
| 45>
| 46>                          ****END OF INPUT****

CARTESIAN COORDINATES (ANGSTROEM)
---------------------------------
  V      0.471637    0.047706    0.125807
  S     -0.586016   -0.282618    2.401735
  S     -0.288602   -2.269806   -0.173714
  S     -0.543826    2.310551    0.031817
  S      0.475706    0.362309   -2.348981
  O      2.034328    0.082857    0.524011
  C      0.150100   -2.768580   -1.850380
  C      1.497874   -0.917669   -3.059681
  C      1.653211   -2.362982   -2.354178
  H      2.468887   -0.407618   -3.186362
  H      1.097389   -1.048006   -4.075829
  H      2.141193   -2.143780   -1.375752
  H      2.266265   -3.132242   -2.882876
  H     -0.619908   -2.672629   -2.657912
  H      0.183124   -3.856492   -1.550405
  C     -2.191787    0.614078    2.207352
  C     -0.869498    2.783480    1.790695
  C     -2.097790    2.128826    2.429271
  H     -0.984038    3.873867    1.823444
  H      0.011352    2.518934    2.375569
  H     -3.011775    2.598395    2.032706
  H     -2.073021    2.336820    3.511261
  H     -2.911298    0.187366    2.915992
  H     -2.569224    0.418969    1.203016

 Total Charge           Charge          ....   -2
 Multiplicity           Mult            ....    2
 Number of Electrons    NEL             ....  145
 Basis Dimension        Dim             ....  353

ORBITAL ENERGIES
----------------
                 SPIN UP ORBITALS
  NO   OCC          E(Eh)            E(eV)
   0   1.0000    -196.607281     -5349.9561
   1   1.0000     -88.563440     -2409.9337
   2   1.0000     -88.561548     -2409.8822
   3   1.0000     -88.557409     -2409.7696
   4   1.0000     -88.557224     -2409.7646
   5   1.0000     -21.982593      -598.1768
   6   1.0000     -18.823047      -512.2011
   7   1.0000     -18.490417      -503.1498
   8   1.0000     -18.483173      -502.9527
   9   1.0000     -18.483126      -502.9514
  10   1.0000      -9.945210      -270.6229
  11   1.0000      -9.944072      -270.5920
  12   1.0000      -9.943412      -270.5740
  13   1.0000      -9.934304      -270.3262
  14   1.0000      -9.934230      -270.3242
  15   1.0000      -9.931940      -270.2618
  16   1.0000      -7.618016      -207.2967
  17   1.0000      -7.615747      -207.2350
  18   1.0000      -7.612820      -207.1554
  19   1.0000      -7.611747      -207.1262
  20   1.0000      -5.583378      -151.9314
  21   1.0000      -5.580939      -151.8651
  22   1.0000      -5.578000      -151.7851
  23   1.0000      -5.576993      -151.7577
  24   1.0000      -5.576709      -151.7500
  25   1.0000      -5.575184      -151.7085
  26   1.0000      -5.574721      -151.6959
  27   1.0000      -5.572987      -151.6487
  28   1.0000      -5.571923      -151.6197
  29   1.0000      -5.570976      -151.5940
  30   1.0000      -5.569672      -151.5585
  31   1.0000      -5.568803      -151.5348
  32   1.0000      -2.374806       -64.6218
  33   1.0000      -1.416492       -38.5447
  34   1.0000      -1.402977       -38.1769
  35   1.0000      -1.402657       -38.1682
  36   1.0000      -0.585191       -15.9238
  37   1.0000      -0.551099       -14.9962
  38   1.0000      -0.535430       -14.5698
  39   1.0000      -0.476703       -12.9717
  40   1.0000      -0.465974       -12.6798
  41   1.0000      -0.407194       -11.0803
  42   1.0000      -0.400219       -10.8905
  43   1.0000      -0.336693        -9.1619
  44   1.0000      -0.317050        -8.6274
  45   1.0000      -0.301544        -8.2054
  46   1.0000      -0.285362        -7.7651
  47   1.0000      -0.214332        -5.8323
  48   1.0000      -0.202962        -5.5229
  49   1.0000      -0.198164        -5.3923
  50   1.0000      -0.192407        -5.2357
  51   1.0000      -0.158844        -4.3224
  52   1.0000      -0.134006        -3.6465
  53   1.0000      -0.131756        -3.5853
  54   1.0000      -0.107832        -2.9343
  55   1.0000      -0.104165        -2.8345
  56   1.0000      -0.095161        -2.5895
  57   1.0000      -0.083797        -2.2802
  58   1.0000      -0.072190        -1.9644
  59   1.0000      -0.061308        -1.6683
  60   1.0000      -0.055969        -1.5230
  61   1.0000      -0.047430        -1.2906
  62   1.0000      -0.040800        -1.1102
  63   1.0000      -0.034909        -0.9499
  64   1.0000       0.000006         0.0002
  65   1.0000       0.029345         0.7985
  66   1.0000       0.031400         0.8544
  67   1.0000       0.037786         1.0282
  68   1.0000       0.045489         1.2378
  69   1.0000       0.051521         1.4020
  70   1.0000       0.062810         1.7091
  71   1.0000       0.074265         2.0209
  72   1.0000       0.081730         2.2240
  73   0.0000       0.234006         6.3676
  74   0.0000       0.245572         6.6823
  75   0.0000       0.249610         6.7922
  76   0.0000       0.255034         6.9398
  77   0.0000       0.258541         7.0353

                 SPIN DOWN ORBITALS
  NO   OCC          E(Eh)            E(eV)
   0   1.0000    -196.607423     -5349.9600
   1   1.0000     -88.563632     -2409.9389
   2   1.0000     -88.561711     -2409.8867
   3   1.0000     -88.557390     -2409.7691
   4   1.0000     -88.557333     -2409.7675
   5   1.0000     -21.967426      -597.7640
   6   1.0000     -18.826601      -512.2979
   7   1.0000     -18.485128      -503.0059
   8   1.0000     -18.467012      -502.5129
   9   1.0000     -18.466559      -502.5006
  10   1.0000      -9.945097      -270.6198
  11   1.0000      -9.943919      -270.5878
  12   1.0000      -9.943435      -270.5746
  13   1.0000      -9.934244      -270.3245
  14   1.0000      -9.934051      -270.3193
  15   1.0000      -9.931898      -270.2607
  16   1.0000      -7.618201      -207.3018
  17   1.0000      -7.615901      -207.2392
  18   1.0000      -7.612923      -207.1582
  19   1.0000      -7.611730      -207.1257
  20   1.0000      -5.583548      -151.9361
  21   1.0000      -5.581096      -151.8693
  22   1.0000      -5.578118      -151.7883
  23   1.0000      -5.577205      -151.7635
  24   1.0000      -5.577016      -151.7583
  25   1.0000      -5.575336      -151.7126
  26   1.0000      -5.575149      -151.7075
  27   1.0000      -5.573109      -151.6520
  28   1.0000      -5.572331      -151.6308
  29   1.0000      -5.571325      -151.6035
  30   1.0000      -5.569617      -151.5570
  31   1.0000      -5.568349      -151.5225
  32   1.0000      -2.329508       -63.3891
  33   1.0000      -1.397111       -38.0173
  34   1.0000      -1.340963       -36.4895
  35   1.0000      -1.339325       -36.4449
  36   1.0000      -0.592920       -16.1342
  37   1.0000      -0.550942       -14.9919
  38   1.0000      -0.535375       -14.5683
  39   1.0000      -0.476758       -12.9732
  40   1.0000      -0.465849       -12.6764
  41   1.0000      -0.407358       -11.0848
  42   1.0000      -0.400277       -10.8921
  43   1.0000      -0.336831        -9.1656
  44   1.0000      -0.317484        -8.6392
  45   1.0000      -0.301558        -8.2058
  46   1.0000      -0.285399        -7.7661
  47   1.0000      -0.214272        -5.8306
  48   1.0000      -0.202847        -5.5197
  49   1.0000      -0.198099        -5.3905
  50   1.0000      -0.192312        -5.2331
  51   1.0000      -0.158774        -4.3205
  52   1.0000      -0.133836        -3.6419
  53   1.0000      -0.131484        -3.5779
  54   1.0000      -0.107767        -2.9325
  55   1.0000      -0.104149        -2.8340
  56   1.0000      -0.094943        -2.5835
  57   1.0000      -0.082421        -2.2428
  58   1.0000      -0.070515        -1.9188
  59   1.0000      -0.060391        -1.6433
  60   1.0000      -0.056182        -1.5288
  61   1.0000      -0.046956        -1.2777
  62   1.0000      -0.042473        -1.1557
  63   1.0000      -0.037075        -1.0089
  64   1.0000       0.003658         0.0995
  65   1.0000       0.030430         0.8280
  66   1.0000       0.034428         0.9368
  67   1.0000       0.045899         1.2490
  68   1.0000       0.047088         1.2813
  69   1.0000       0.058192         1.5835
  70   1.0000       0.069291         1.8855
  71   1.0000       0.075969         2.0672
  72   0.0000       0.234960         6.3936
  73   0.0000       0.251015         6.8305
  74   0.0000       0.257270         7.0007
  75   0.0000       0.260718         7.0945
  76   0.0000       0.264784         7.2051

MULLIKEN ATOMIC CHARGES AND SPIN POPULATIONS
--------------------------------------------
   0 V :    0.527809    1.202599
   1 S :   -0.429636   -0.002781
   2 S :   -0.350461   -0.035782
   3 S :   -0.409421   -0.029776
   4 S :   -0.391934   -0.022134
   5 O :   -0.552176   -0.137397
   6 C :   -0.221901    0.005077
   7 C :   -0.219636    0.004494
   8 C :   -0.208810    0.001573
   9 H :    0.079844   -0.000878
  10 H :    0.050703    0.002321
  11 H :    0.148634    0.001081
  12 H :    0.029949    0.000078
  13 H :    0.084764   -0.000010
  14 H :    0.039655    0.000245
  15 C :   -0.256040   -0.002121
  16 C :   -0.252105    0.003685
  17 C :   -0.069294    0.008569
  18 H :    0.047508   -0.000078
  19 H :    0.131623   -0.000247
  20 H :    0.015442    0.001592
  21 H :    0.013169    0.000099
  22 H :    0.052232   -0.000574
  23 H :    0.140080    0.000365
Sum of atomic charges         :   -2.0000000

LOEWDIN ATOMIC CHARGES AND SPIN POPULATIONS
-------------------------------------------
   0 V :   -0.200543    1.158078
   1 S :   -0.074000    0.002821
   2 S :   -0.013444   -0.024748
   3 S :   -0.059692   -0.020832
   4 S :   -0.037315   -0.013144
   5 O :   -0.387986   -0.123943
   6 C :   -0.346939    0.004294
   7 C :   -0.336367    0.005647
   8 C :   -0.196892   -0.000121
   9 H :    0.033508    0.000049
  10 H :    0.026591    0.000482
  11 H :    0.077970    0.000459
  12 H :    0.036374    0.000124
  13 H :    0.039782    0.000074
  14 H :    0.029301   -0.000645
  15 C :   -0.317363    0.002836
  16 C :   -0.324843    0.007506
  17 C :   -0.188676    0.001158
  18 H :    0.028305   -0.000214
  19 H :    0.054289   -0.000620
  20 H :    0.036212    0.000624
  21 H :    0.035207    0.000404
  22 H :    0.030315   -0.000602
  23 H :    0.056208    0.000313

  Mayer bond orders larger than 0.100000
B(  0-V ,  1-S ) :   0.7099 B(  0-V ,  2-S ) :   0.8544 B(  0-V ,  3-S ) :   0.7741
B(  0-V ,  4-S ) :   0.7774 B(  0-V ,  5-O ) :   2.0632 B(  1-S , 15-C ) :   1.0253
B(  2-S ,  6-C ) :   1.0014 B(  3-S , 16-C ) :   1.0252 B(  4-S ,  7-C ) :   1.0346
B(  6-C ,  8-C ) :   0.8988 B(  6-C , 13-H ) :   0.9348 B(  6-C , 14-H ) :   0.9824
B(  7-C ,  8-C ) :   0.8956 B(  7-C ,  9-H ) :   0.9778 B(  7-C , 10-H ) :   0.9666
B(  8-C , 11-H ) :   0.9991 B(  8-C , 12-H ) :   0.9292 B( 15-C , 17-C ) :   0.8963
B( 15-C , 22-H ) :   0.9687 B( 15-C , 23-H ) :   0.9789 B( 16-C , 17-C ) :   0.9036
B( 16-C , 18-H ) :   0.9639 B( 16-C , 19-H ) :   0.9759 B( 17-C , 20-H ) :   0.9584
B( 17-C , 21-H ) :   0.9596

FINAL SINGLE POINT ENERGY     -2847.687820354171

DIPOLE MOMENT
-------------
                                X             Y             Z
Electronic contribution:      5.55418       1.27169       2.08372
Nuclear contribution   :     -5.87695      -1.46724      -2.32306
                        -----------------------------------------
Total Dipole Moment    :     -0.32277      -0.19555      -0.23933
                        -----------------------------------------
Magnitude (a.u.)       :      0.44688
Magnitude (Debye)      :      1.13589

Rotational constants in cm-1:     0.026997     0.011721     0.009592
Rotational constants in MHz :   809.349062   351.389092   287.566684

                             ****ORCA TERMINATED NORMALLY****
TOTAL RUN TIME: 0 days 0 hours 9 minutes 35 seconds 809 msec
