                         Program Version 5.0.4 -  RELEASE  -
|  1> ! nofrozencore ReducedPop printbasis
|  2> ! B3LYP TZVP
|  3>
|  4> %basis
|  5> newgto V "CP(PPP)" end
|  6> end
|  7>
|  8> %pal
|  9> nprocs 8
| 10> end
| 11>
| 12> % sym SymThresh 1e-2 end
| 13> * xyz -2 2
| 14> V -0.2764183146996334 0.4143838733542507 0.1764650025969534
| 15> S 1.3474307738604125 -0.14722495974805602 2.193477291822077
| 16> S 1.8165361196811578 0.8966792743047582 -0.8863623647792217
| 17> S -1.451823544668219 -1.5978498510890522 0.7224673590181787
| 18> S -1.2634290874561587 -0.051164723862334595 -2.1452448114461875
| 19> O -1.0443072820482615 1.7406746764441525 0.658541498449428
| 20> C 1.4700721737758389 1.4539598445923039 -2.6250542596923787
| 21> C -1.0391866561752723 1.4946019943376814 -3.1414957305847295
| 22> C 0.2083118988024509 2.3130895978185526 -2.794290753293745
| 23> H -1.9275670884218548 2.1288762030519455 -3.0394895808913422
| 24> H -0.9829617889839072 1.1829832016563875 -4.193503840484632
| 25> H 0.03586038956401284 2.8678988718602847 -1.8678812360139023
| 26> H 0.36712213805819616 3.06018630679643 -3.594325644896579
| 27> H 1.3943531672070713 0.5726671826691929 -3.269864146454916
| 28> H 2.353391196680676 2.0246246422218896 -2.9351748436654987
| 29> C 1.4391060931580189 -1.999207278484558 2.1908641196020877
| 30> C -1.1187036205976497 -1.9845209028072959 2.500710580973861
| 31> C 0.20054893307096902 -2.7135016849481843 2.7778400406566726
| 32> H -1.9575086624658997 -2.5986428319498764 2.8589384599232788
| 33> H -1.1188320952111819 -1.0432923736221986 3.055008449877695
| 34> H 0.14614096779119728 -3.741786824081517 2.371535405318042
| 35> H 0.3182408320140149 -2.808969270539719 3.8777639179829633
| 36> H 2.3361995926491983 -2.294077288389875 2.757637141538655
| 37> H 1.5881163164934522 -2.318075185313586 1.152606253746982
| 38> *
| 39>
| 40> % eprnmr
| 41> gtensor true
| 42> Nuclei = all H {aiso,adip,aorb,fgrad,rho}
| 43> Nuclei = all V {aiso,adip,aorb,fgrad,rho}
| 44> end
| 45>
| 46>                          ****END OF INPUT****

CARTESIAN COORDINATES (ANGSTROEM)
---------------------------------
  V     -0.276793    0.414800    0.176972
  S      1.347056   -0.146809    2.193984
  S      1.816161    0.897095   -0.885856
  S     -1.452198   -1.597434    0.722974
  S     -1.263804   -0.050749   -2.144738
  O     -1.044682    1.741091    0.659048
  C      1.469697    1.454376   -2.624548
  C     -1.039561    1.495018   -3.140989
  C      0.207937    2.313506   -2.793784
  H     -1.927942    2.129292   -3.038983
  H     -0.983337    1.183399   -4.192997
  H      0.035486    2.868315   -1.867375
  H      0.366747    3.060602   -3.593819
  H      1.393978    0.573083   -3.269358
  H      2.353016    2.025041   -2.934668
  C      1.438731   -1.998791    2.191371
  C     -1.119078   -1.984105    2.501217
  C      0.200174   -2.713086    2.778347
  H     -1.957883   -2.598227    2.859445
  H     -1.119207   -1.042876    3.055515
  H      0.145766   -3.741371    2.372042
  H      0.317866   -2.808553    3.878270
  H      2.335825   -2.293661    2.758144
  H      1.587742   -2.317659    1.153113

 Total Charge           Charge          ....   -2
 Multiplicity           Mult            ....    2
 Number of Electrons    NEL             ....  145
 Basis Dimension        Dim             ....  353

ORBITAL ENERGIES
----------------
                 SPIN UP ORBITALS
  NO   OCC          E(Eh)            E(eV)
   0   1.0000    -196.608682     -5349.9942
   1   1.0000     -88.564025     -2409.9496
   2   1.0000     -88.562002     -2409.8946
   3   1.0000     -88.558836     -2409.8084
   4   1.0000     -88.556760     -2409.7519
   5   1.0000     -21.984058      -598.2166
   6   1.0000     -18.824680      -512.2456
   7   1.0000     -18.491696      -503.1846
   8   1.0000     -18.484829      -502.9978
   9   1.0000     -18.484575      -502.9909
  10   1.0000      -9.942818      -270.5578
  11   1.0000      -9.937251      -270.4063
  12   1.0000      -9.935781      -270.3663
  13   1.0000      -9.935457      -270.3575
  14   1.0000      -9.934974      -270.3444
  15   1.0000      -9.929032      -270.1827
  16   1.0000      -7.618715      -207.3158
  17   1.0000      -7.616123      -207.2452
  18   1.0000      -7.612762      -207.1538
  19   1.0000      -7.610489      -207.0919
  20   1.0000      -5.583811      -151.9432
  21   1.0000      -5.581477      -151.8797
  22   1.0000      -5.578223      -151.7912
  23   1.0000      -5.577594      -151.7740
  24   1.0000      -5.576069      -151.7326
  25   1.0000      -5.575808      -151.7255
  26   1.0000      -5.574876      -151.7001
  27   1.0000      -5.573390      -151.6597
  28   1.0000      -5.571993      -151.6216
  29   1.0000      -5.569802      -151.5620
  30   1.0000      -5.569572      -151.5558
  31   1.0000      -5.567464      -151.4984
  32   1.0000      -2.376749       -64.6746
  33   1.0000      -1.418497       -38.5993
  34   1.0000      -1.405261       -38.2391
  35   1.0000      -1.404739       -38.2249
  36   1.0000      -0.587467       -15.9858
  37   1.0000      -0.551614       -15.0102
  38   1.0000      -0.549714       -14.9585
  39   1.0000      -0.468648       -12.7526
  40   1.0000      -0.465313       -12.6618
  41   1.0000      -0.404241       -11.0000
  42   1.0000      -0.397035       -10.8039
  43   1.0000      -0.337363        -9.1801
  44   1.0000      -0.328228        -8.9315
  45   1.0000      -0.304484        -8.2854
  46   1.0000      -0.285940        -7.7808
  47   1.0000      -0.213807        -5.8180
  48   1.0000      -0.207606        -5.6492
  49   1.0000      -0.202755        -5.5172
  50   1.0000      -0.198894        -5.4122
  51   1.0000      -0.159395        -4.3374
  52   1.0000      -0.135702        -3.6927
  53   1.0000      -0.130012        -3.5378
  54   1.0000      -0.112443        -3.0597
  55   1.0000      -0.107680        -2.9301
  56   1.0000      -0.106732        -2.9043
  57   1.0000      -0.081441        -2.2161
  58   1.0000      -0.069539        -1.8923
  59   1.0000      -0.064061        -1.7432
  60   1.0000      -0.054707        -1.4887
  61   1.0000      -0.047541        -1.2936
  62   1.0000      -0.042162        -1.1473
  63   1.0000      -0.037272        -1.0142
  64   1.0000      -0.001559        -0.0424
  65   1.0000       0.025549         0.6952
  66   1.0000       0.030954         0.8423
  67   1.0000       0.037269         1.0141
  68   1.0000       0.048517         1.3202
  69   1.0000       0.054589         1.4855
  70   1.0000       0.062339         1.6963
  71   1.0000       0.072044         1.9604
  72   1.0000       0.078270         2.1298
  73   0.0000       0.231989         6.3127
  74   0.0000       0.247403         6.7322
  75   0.0000       0.248101         6.7512
  76   0.0000       0.252365         6.8672
  77   0.0000       0.255701         6.9580

                 SPIN DOWN ORBITALS
  NO   OCC          E(Eh)            E(eV)
   0   1.0000    -196.608826     -5349.9981
   1   1.0000     -88.564191     -2409.9542
   2   1.0000     -88.562179     -2409.8994
   3   1.0000     -88.558955     -2409.8117
   4   1.0000     -88.556793     -2409.7528
   5   1.0000     -21.968956      -597.8057
   6   1.0000     -18.828166      -512.3405
   7   1.0000     -18.486455      -503.0420
   8   1.0000     -18.468621      -502.5567
   9   1.0000     -18.468166      -502.5444
  10   1.0000      -9.942684      -270.5542
  11   1.0000      -9.937212      -270.4053
  12   1.0000      -9.935575      -270.3607
  13   1.0000      -9.935367      -270.3551
  14   1.0000      -9.934786      -270.3393
  15   1.0000      -9.929052      -270.1832
  16   1.0000      -7.618873      -207.3201
  17   1.0000      -7.616294      -207.2499
  18   1.0000      -7.612876      -207.1569
  19   1.0000      -7.610523      -207.0929
  20   1.0000      -5.583995      -151.9482
  21   1.0000      -5.581659      -151.8847
  22   1.0000      -5.578344      -151.7945
  23   1.0000      -5.578000      -151.7851
  24   1.0000      -5.576201      -151.7361
  25   1.0000      -5.575857      -151.7268
  26   1.0000      -5.575325      -151.7123
  27   1.0000      -5.573519      -151.6632
  28   1.0000      -5.572444      -151.6339
  29   1.0000      -5.570197      -151.5728
  30   1.0000      -5.569518      -151.5543
  31   1.0000      -5.567166      -151.4903
  32   1.0000      -2.331589       -63.4458
  33   1.0000      -1.399329       -38.0777
  34   1.0000      -1.343343       -36.5542
  35   1.0000      -1.341537       -36.5051
  36   1.0000      -0.594957       -16.1896
  37   1.0000      -0.551521       -15.0076
  38   1.0000      -0.549541       -14.9538
  39   1.0000      -0.468596       -12.7512
  40   1.0000      -0.465193       -12.6585
  41   1.0000      -0.404355       -11.0031
  42   1.0000      -0.397240       -10.8094
  43   1.0000      -0.337585        -9.1862
  44   1.0000      -0.328644        -8.9429
  45   1.0000      -0.304497        -8.2858
  46   1.0000      -0.285977        -7.7818
  47   1.0000      -0.213738        -5.8161
  48   1.0000      -0.207539        -5.6474
  49   1.0000      -0.202621        -5.5136
  50   1.0000      -0.198761        -5.4086
  51   1.0000      -0.159277        -4.3342
  52   1.0000      -0.135562        -3.6888
  53   1.0000      -0.129644        -3.5278
  54   1.0000      -0.112430        -3.0594
  55   1.0000      -0.107621        -2.9285
  56   1.0000      -0.106520        -2.8986
  57   1.0000      -0.080243        -2.1835
  58   1.0000      -0.067187        -1.8283
  59   1.0000      -0.062933        -1.7125
  60   1.0000      -0.054794        -1.4910
  61   1.0000      -0.047929        -1.3042
  62   1.0000      -0.043621        -1.1870
  63   1.0000      -0.038410        -1.0452
  64   1.0000       0.003664         0.0997
  65   1.0000       0.026380         0.7178
  66   1.0000       0.033593         0.9141
  67   1.0000       0.043604         1.1865
  68   1.0000       0.049975         1.3599
  69   1.0000       0.060900         1.6572
  70   1.0000       0.068871         1.8741
  71   1.0000       0.073503         2.0001
  72   0.0000       0.230836         6.2814
  73   0.0000       0.249130         6.7792
  74   0.0000       0.255283         6.9466
  75   0.0000       0.259241         7.0543
  76   0.0000       0.262054         7.1309

MULLIKEN ATOMIC CHARGES AND SPIN POPULATIONS
--------------------------------------------
   0 V :    0.540685    1.199595
   1 S :   -0.456342   -0.009853
   2 S :   -0.337006   -0.032427
   3 S :   -0.378497   -0.029322
   4 S :   -0.403930   -0.024054
   5 O :   -0.559012   -0.134301
   6 C :   -0.242808    0.008269
   7 C :   -0.236426    0.004524
   8 C :   -0.167270    0.002663
   9 H :    0.075164   -0.000722
  10 H :    0.051429    0.001736
  11 H :    0.143328    0.001014
  12 H :    0.006095    0.000017
  13 H :    0.100142   -0.000139
  14 H :    0.048584    0.000095
  15 C :   -0.254660   -0.001424
  16 C :   -0.251555    0.007778
  17 C :   -0.073057    0.005903
  18 H :    0.047679    0.000314
  19 H :    0.135201   -0.000878
  20 H :    0.022229    0.000643
  21 H :    0.009500    0.000794
  22 H :    0.049296   -0.000637
  23 H :    0.131232    0.000412
Sum of atomic charges         :   -2.0000000

LOEWDIN ATOMIC CHARGES AND SPIN POPULATIONS
-------------------------------------------
   0 V :   -0.198969    1.156806
   1 S :   -0.114481   -0.005589
   2 S :   -0.014365   -0.021638
   3 S :   -0.018689   -0.019234
   4 S :   -0.087200   -0.015852
   5 O :   -0.386374   -0.121191
   6 C :   -0.326558    0.007497
   7 C :   -0.314740    0.005149
   8 C :   -0.188153    0.000484
   9 H :    0.035343    0.000005
  10 H :    0.029015    0.000350
  11 H :    0.071024    0.000453
  12 H :    0.031295    0.000148
  13 H :    0.046644   -0.000044
  14 H :    0.027475   -0.000491
  15 C :   -0.320199    0.001940
  16 C :   -0.325022    0.010749
  17 C :   -0.189259    0.000854
  18 H :    0.028908   -0.000213
  19 H :    0.055713   -0.000698
  20 H :    0.038613    0.000250
  21 H :    0.034506    0.000631
  22 H :    0.030292   -0.000659
  23 H :    0.055180    0.000294

  Mayer bond orders larger than 0.100000
B(  0-V ,  1-S ) :   0.6414 B(  0-V ,  2-S ) :   0.8906 B(  0-V ,  3-S ) :   0.8367
B(  0-V ,  4-S ) :   0.7353 B(  0-V ,  5-O ) :   2.0533 B(  1-S , 15-C ) :   1.0533
B(  2-S ,  6-C ) :   0.9953 B(  3-S , 16-C ) :   1.0018 B(  4-S ,  7-C ) :   1.0822
B(  6-C ,  8-C ) :   0.9012 B(  6-C , 13-H ) :   0.9748 B(  6-C , 14-H ) :   0.9663
B(  7-C ,  8-C ) :   0.9218 B(  7-C ,  9-H ) :   0.9764 B(  7-C , 10-H ) :   0.9675
B(  8-C , 11-H ) :   0.9882 B(  8-C , 12-H ) :   0.9448 B( 15-C , 17-C ) :   0.8935
B( 15-C , 22-H ) :   0.9694 B( 15-C , 23-H ) :   0.9815 B( 16-C , 17-C ) :   0.9061
B( 16-C , 18-H ) :   0.9618 B( 16-C , 19-H ) :   0.9722 B( 17-C , 20-H ) :   0.9621
B( 17-C , 21-H ) :   0.9566

FINAL SINGLE POINT ENERGY     -2847.714225908672

DIPOLE MOMENT
-------------
                                X             Y             Z
Electronic contribution:     -3.46824       4.47578       3.06915
Nuclear contribution   :      3.64190      -4.64556      -3.45149
                        -----------------------------------------
Total Dipole Moment    :      0.17366      -0.16978      -0.38234
                        -----------------------------------------
Magnitude (a.u.)       :      0.45295
Magnitude (Debye)      :      1.15131

Rotational constants in cm-1:     0.027402     0.011477     0.009518
Rotational constants in MHz :   821.490301   344.059139   285.331334

                             ****ORCA TERMINATED NORMALLY****
TOTAL RUN TIME: 0 days 0 hours 9 minutes 34 seconds 425 msec
