                         Program Version 5.0.4 -  RELEASE  -
|  1> ! nofrozencore ReducedPop printbasis
|  2> ! B3LYP TZVP
|  3>
|  4> %basis
|  5> newgto V "CP(PPP)" end
|  6> end
|  7>
|  8> %pal
|  9> nprocs 4
| 10> end
| 11>
| 12> % sym SymThresh 1e-2 end
| 13> * xyz -2 2
| 14> V 0.19831829324544592 -0.02860880100569891 0.4915815499713447
| 15> S -1.0442523961114105 -2.24148421169253 0.3195647714762931
| 16> S 1.6068701518678072 -1.125645224981203 -1.2841561317563168
| 17> S -2.1006790887168227 1.1938241459727514 0.5034150119000141
| 18> S 0.9327714711045191 2.1590395026867406 -0.37709321733187406
| 19> O 0.8770285761436034 -0.10961225103484556 1.9427742526478975
| 20> C 2.8755832887283543 0.1594629011613375 -1.7186069794317234
| 21> C 2.781114896291953 2.266311383542168 -0.3766877631131425
| 22> C 3.429759629676066 0.8905789065547054 -0.4774393073146761
| 23> H 3.124686561747373 2.801206584091051 0.5249805226466258
| 24> H 3.0727523157302885 2.8727926236740724 -1.2550046568738262
| 25> H 3.1978609335402144 0.29994422401938453 0.42680566613825494
| 26> H 4.540084403365974 0.9990464633471059 -0.5277089862070409
| 27> H 2.4106093386675904 0.9100711042429398 -2.386298906969041
| 28> H 3.6797509833734767 -0.3525800763398134 -2.2843174973875993
| 29> C -2.539837334053111 -1.8177810169339546 -0.692972615833083
| 30> C -3.2137653306238736 -0.14162745840962462 1.1458884551362125
| 31> C -3.684596944167821 -1.1130426060330554 0.06514782057982134
| 32> H -4.089064430452695 0.33094393298698355 1.6276137584588921
| 33> H -2.668322997605129 -0.7106734843193391 1.9097376697750896
| 34> H -4.309293920983887 -0.5693345802542683 -0.6667030058039446
| 35> H -4.33299522758574 -1.8758405966290865 0.5407226805696592
| 36> H -2.9179023671684243 -2.7506679419976954 -1.1314208494543792
| 37> H -2.206589039752286 -1.1838354987816333 -1.5179005595385777
| 38> *
| 39>
| 40> % eprnmr
| 41> gtensor true
| 42> Nuclei = all H {aiso,adip,aorb,fgrad,rho}
| 43> Nuclei = all V {aiso,adip,aorb,fgrad,rho}
| 44> end
| 45>
| 46>                          ****END OF INPUT****

CARTESIAN COORDINATES (ANGSTROEM)
---------------------------------
  V      0.198314   -0.028746    0.492324
  S     -1.044256   -2.241622    0.320307
  S      1.606866   -1.125783   -1.283414
  S     -2.100683    1.193687    0.504157
  S      0.932767    2.158902   -0.376351
  O      0.877024   -0.109750    1.943517
  C      2.875579    0.159326   -1.717865
  C      2.781111    2.266174   -0.375945
  C      3.429756    0.890442   -0.476697
  H      3.124682    2.801069    0.525723
  H      3.072748    2.872655   -1.254262
  H      3.197857    0.299807    0.427548
  H      4.540080    0.998909   -0.526967
  H      2.410605    0.909934   -2.385557
  H      3.679747   -0.352717   -2.283575
  C     -2.539841   -1.817918   -0.692230
  C     -3.213769   -0.141765    1.146631
  C     -3.684601   -1.113180    0.065890
  H     -4.089069    0.330807    1.628356
  H     -2.668327   -0.710811    1.910480
  H     -4.309298   -0.569472   -0.665961
  H     -4.332999   -1.875978    0.541465
  H     -2.917906   -2.750805   -1.130678
  H     -2.206593   -1.183973   -1.517158

 Total Charge           Charge          ....   -2
 Multiplicity           Mult            ....    2
 Number of Electrons    NEL             ....  145
 Basis Dimension        Dim             ....  353

ORBITAL ENERGIES
----------------
                 SPIN UP ORBITALS
  NO   OCC          E(Eh)            E(eV)
   0   1.0000    -196.616473     -5350.2062
   1   1.0000     -88.563535     -2409.9363
   2   1.0000     -88.561973     -2409.8938
   3   1.0000     -88.561758     -2409.8879
   4   1.0000     -88.560513     -2409.8541
   5   1.0000     -21.991151      -598.4097
   6   1.0000     -18.832087      -512.4471
   7   1.0000     -18.498989      -503.3831
   8   1.0000     -18.491799      -503.1874
   9   1.0000     -18.491680      -503.1842
  10   1.0000      -9.946773      -270.6654
  11   1.0000      -9.937098      -270.4022
  12   1.0000      -9.936783      -270.3936
  13   1.0000      -9.934209      -270.3236
  14   1.0000      -9.932864      -270.2870
  15   1.0000      -9.930185      -270.2141
  16   1.0000      -7.616852      -207.2651
  17   1.0000      -7.616319      -207.2506
  18   1.0000      -7.615511      -207.2286
  19   1.0000      -7.614657      -207.2054
  20   1.0000      -5.582204      -151.8995
  21   1.0000      -5.581704      -151.8859
  22   1.0000      -5.580667      -151.8577
  23   1.0000      -5.579886      -151.8364
  24   1.0000      -5.575899      -151.7279
  25   1.0000      -5.575315      -151.7120
  26   1.0000      -5.574812      -151.6983
  27   1.0000      -5.573998      -151.6762
  28   1.0000      -5.573896      -151.6734
  29   1.0000      -5.573285      -151.6568
  30   1.0000      -5.572594      -151.6380
  31   1.0000      -5.571715      -151.6141
  32   1.0000      -2.383201       -64.8502
  33   1.0000      -1.425529       -38.7906
  34   1.0000      -1.410991       -38.3950
  35   1.0000      -1.410703       -38.3872
  36   1.0000      -0.594341       -16.1728
  37   1.0000      -0.554156       -15.0793
  38   1.0000      -0.549268       -14.9463
  39   1.0000      -0.466491       -12.6939
  40   1.0000      -0.464408       -12.6372
  41   1.0000      -0.401782       -10.9330
  42   1.0000      -0.394904       -10.7459
  43   1.0000      -0.336728        -9.1628
  44   1.0000      -0.326204        -8.8765
  45   1.0000      -0.309523        -8.4226
  46   1.0000      -0.285213        -7.7610
  47   1.0000      -0.212113        -5.7719
  48   1.0000      -0.210940        -5.7400
  49   1.0000      -0.202496        -5.5102
  50   1.0000      -0.193688        -5.2705
  51   1.0000      -0.156457        -4.2574
  52   1.0000      -0.133010        -3.6194
  53   1.0000      -0.129572        -3.5258
  54   1.0000      -0.115708        -3.1486
  55   1.0000      -0.107243        -2.9182
  56   1.0000      -0.104765        -2.8508
  57   1.0000      -0.080983        -2.2037
  58   1.0000      -0.071339        -1.9412
  59   1.0000      -0.067758        -1.8438
  60   1.0000      -0.056770        -1.5448
  61   1.0000      -0.050218        -1.3665
  62   1.0000      -0.045884        -1.2486
  63   1.0000      -0.039950        -1.0871
  64   1.0000       0.000632         0.0172
  65   1.0000       0.027203         0.7402
  66   1.0000       0.030988         0.8432
  67   1.0000       0.033974         0.9245
  68   1.0000       0.042493         1.1563
  69   1.0000       0.052440         1.4270
  70   1.0000       0.063154         1.7185
  71   1.0000       0.069674         1.8959
  72   1.0000       0.077008         2.0955
  73   0.0000       0.228949         6.2300
  74   0.0000       0.235748         6.4150
  75   0.0000       0.237884         6.4731
  76   0.0000       0.251599         6.8464
  77   0.0000       0.256291         6.9740

                 SPIN DOWN ORBITALS
  NO   OCC          E(Eh)            E(eV)
   0   1.0000    -196.616617     -5350.2102
   1   1.0000     -88.563730     -2409.9416
   2   1.0000     -88.562144     -2409.8984
   3   1.0000     -88.561871     -2409.8910
   4   1.0000     -88.560511     -2409.8540
   5   1.0000     -21.975843      -597.9931
   6   1.0000     -18.835619      -512.5433
   7   1.0000     -18.493651      -503.2378
   8   1.0000     -18.475473      -502.7432
   9   1.0000     -18.474970      -502.7295
  10   1.0000      -9.946579      -270.6602
  11   1.0000      -9.937034      -270.4005
  12   1.0000      -9.936695      -270.3912
  13   1.0000      -9.934092      -270.3204
  14   1.0000      -9.932825      -270.2859
  15   1.0000      -9.930198      -270.2144
  16   1.0000      -7.617042      -207.2702
  17   1.0000      -7.616425      -207.2535
  18   1.0000      -7.615674      -207.2330
  19   1.0000      -7.614656      -207.2053
  20   1.0000      -5.582372      -151.9041
  21   1.0000      -5.581845      -151.8897
  22   1.0000      -5.580799      -151.8613
  23   1.0000      -5.579921      -151.8374
  24   1.0000      -5.576418      -151.7421
  25   1.0000      -5.575733      -151.7234
  26   1.0000      -5.575293      -151.7114
  27   1.0000      -5.574266      -151.6835
  28   1.0000      -5.574144      -151.6802
  29   1.0000      -5.573223      -151.6551
  30   1.0000      -5.572716      -151.6413
  31   1.0000      -5.571304      -151.6029
  32   1.0000      -2.337525       -63.6073
  33   1.0000      -1.405973       -38.2585
  34   1.0000      -1.348424       -36.6925
  35   1.0000      -1.346879       -36.6505
  36   1.0000      -0.601921       -16.3791
  37   1.0000      -0.554066       -15.0769
  38   1.0000      -0.549156       -14.9433
  39   1.0000      -0.466528       -12.6949
  40   1.0000      -0.464373       -12.6362
  41   1.0000      -0.401915       -10.9367
  42   1.0000      -0.395133       -10.7521
  43   1.0000      -0.337011        -9.1705
  44   1.0000      -0.326720        -8.8905
  45   1.0000      -0.309540        -8.4230
  46   1.0000      -0.285290        -7.7631
  47   1.0000      -0.212064        -5.7705
  48   1.0000      -0.210890        -5.7386
  49   1.0000      -0.202396        -5.5075
  50   1.0000      -0.193525        -5.2661
  51   1.0000      -0.156341        -4.2543
  52   1.0000      -0.132891        -3.6162
  53   1.0000      -0.129397        -3.5211
  54   1.0000      -0.115688        -3.1480
  55   1.0000      -0.107191        -2.9168
  56   1.0000      -0.104665        -2.8481
  57   1.0000      -0.079779        -2.1709
  58   1.0000      -0.069616        -1.8944
  59   1.0000      -0.067041        -1.8243
  60   1.0000      -0.057642        -1.5685
  61   1.0000      -0.051862        -1.4112
  62   1.0000      -0.046323        -1.2605
  63   1.0000      -0.040266        -1.0957
  64   1.0000       0.005030         0.1369
  65   1.0000       0.028642         0.7794
  66   1.0000       0.033556         0.9131
  67   1.0000       0.042665         1.1610
  68   1.0000       0.048128         1.3096
  69   1.0000       0.058714         1.5977
  70   1.0000       0.067468         1.8359
  71   1.0000       0.070978         1.9314
  72   0.0000       0.229052         6.2328
  73   0.0000       0.247561         6.7365
  74   0.0000       0.251731         6.8499
  75   0.0000       0.254279         6.9193
  76   0.0000       0.258016         7.0210

MULLIKEN ATOMIC CHARGES AND SPIN POPULATIONS
--------------------------------------------
   0 V :    0.562870    1.206301
   1 S :   -0.433294   -0.005608
   2 S :   -0.369074   -0.035639
   3 S :   -0.441529   -0.031760
   4 S :   -0.373280   -0.022104
   5 O :   -0.548260   -0.136178
   6 C :   -0.259038    0.004383
   7 C :   -0.232192    0.007150
   8 C :   -0.188032    0.003196
   9 H :    0.073130   -0.001147
  10 H :    0.055239    0.001893
  11 H :    0.168955    0.000765
  12 H :    0.004562   -0.000163
  13 H :    0.114485   -0.000005
  14 H :    0.044031   -0.000643
  15 C :   -0.254965   -0.000360
  16 C :   -0.268243    0.002000
  17 C :   -0.060777    0.006787
  18 H :    0.046075   -0.000007
  19 H :    0.139949   -0.000156
  20 H :    0.023681    0.001168
  21 H :    0.006249    0.000366
  22 H :    0.052921   -0.000537
  23 H :    0.136538    0.000298
Sum of atomic charges         :   -2.0000000

LOEWDIN ATOMIC CHARGES AND SPIN POPULATIONS
-------------------------------------------
   0 V :   -0.148027    1.165530
   1 S :   -0.078947    0.000332
   2 S :   -0.060832   -0.026489
   3 S :   -0.108321   -0.023830
   4 S :   -0.043678   -0.013098
   5 O :   -0.375778   -0.123136
   6 C :   -0.334532    0.003465
   7 C :   -0.312378    0.007490
   8 C :   -0.194470    0.000701
   9 H :    0.033898   -0.000133
  10 H :    0.031684    0.000380
  11 H :    0.076048    0.000497
  12 H :    0.030696    0.000110
  13 H :    0.049758   -0.000117
  14 H :    0.026554   -0.000758
  15 C :   -0.315996    0.003034
  16 C :   -0.329076    0.005090
  17 C :   -0.190650    0.001058
  18 H :    0.027855   -0.000110
  19 H :    0.056056   -0.000637
  20 H :    0.039898    0.000510
  21 H :    0.032582    0.000313
  22 H :    0.031160   -0.000589
  23 H :    0.056497    0.000389

  Mayer bond orders larger than 0.100000
B(  0-V ,  1-S ) :   0.7081 B(  0-V ,  2-S ) :   0.8350 B(  0-V ,  3-S ) :   0.7179
B(  0-V ,  4-S ) :   0.7953 B(  0-V ,  5-O ) :   2.0725 B(  1-S , 15-C ) :   1.0249
B(  2-S ,  6-C ) :   1.0076 B(  3-S , 16-C ) :   1.0360 B(  4-S ,  7-C ) :   1.0341
B(  6-C ,  8-C ) :   0.8775 B(  6-C , 13-H ) :   0.9798 B(  6-C , 14-H ) :   0.9555
B(  7-C ,  8-C ) :   0.9223 B(  7-C ,  9-H ) :   0.9684 B(  7-C , 10-H ) :   0.9667
B(  8-C , 11-H ) :   0.9869 B(  8-C , 12-H ) :   0.9347 B( 15-C , 17-C ) :   0.8877
B( 15-C , 22-H ) :   0.9696 B( 15-C , 23-H ) :   0.9821 B( 16-C , 17-C ) :   0.9012
B( 16-C , 18-H ) :   0.9622 B( 16-C , 19-H ) :   0.9738 B( 17-C , 20-H ) :   0.9629
B( 17-C , 21-H ) :   0.9524

FINAL SINGLE POINT ENERGY     -2847.711546689077

DIPOLE MOMENT
-------------
                                X             Y             Z
Electronic contribution:      1.56845      -0.74558       6.28285
Nuclear contribution   :     -1.35408       0.85357      -6.66148
                        -----------------------------------------
Total Dipole Moment    :      0.21437       0.10799      -0.37863
                        -----------------------------------------
Magnitude (a.u.)       :      0.44831
Magnitude (Debye)      :      1.13951

Rotational constants in cm-1:     0.026650     0.011602     0.009533
Rotational constants in MHz :   798.948328   347.815727   285.802096

                             ****ORCA TERMINATED NORMALLY****
TOTAL RUN TIME: 0 days 0 hours 14 minutes 14 seconds 633 msec
