                         Program Version 5.0.4 -  RELEASE  -
|  1> ! nofrozencore ReducedPop printbasis
|  2> ! B3LYP TZVP
|  3>
|  4> %basis
|  5> newgto V "CP(PPP)" end
|  6> end
|  7>
|  8> %pal
|  9> nprocs 4
| 10> end
| 11>
| 12> % sym SymThresh 1e-2 end
| 13> * xyz -2 2
| 14> V 0.12304186279604133 -0.45932617688878746 0.1261822533814105
| 15> S -1.0148622901108215 0.31953269363399694 2.2492544237000005
| 16> S -2.1433602521955275 -0.20123872500381107 -0.7610880177306469
| 17> S 2.0324736692592102 1.0363693816818744 0.6552014345240196
| 18> S 1.0495656807086589 -0.18933214548223237 -2.1669326541126432
| 19> O 0.4165790737549332 -1.9922555073520483 0.48894529454317726
| 20> C -2.120679680642771 -0.6791899902234694 -2.5566518300742707
| 21> C 0.24976602954864763 -1.4798297854968805 -3.237465842636917
| 22> C -1.1955435575025202 -1.861401880020691 -2.8806285815952832
| 23> H 0.6874224190431645 -2.1171410500792605 -3.270185357181475
| 24> H 0.2367515878657786 -0.9958635191354069 -4.3731199314728695
| 25> H -1.1735206888801777 -2.559228051923762 -1.9771985926344628
| 26> H -1.6007407299075058 -2.4302672079594014 -3.7082652725854715
| 27> H -1.8329509133992685 0.16184172537568742 -3.142143076247835
| 28> H -3.1049917253307746 -0.9225096700443236 -2.806521597383162
| 29> C -0.5272162879399003 2.1147533077470593 2.3410904031646758
| 30> C 1.9678888015897982 1.3210589032891122 2.4879040445306635
| 31> C 0.8893803987858863 2.325194626083178 2.950058123697119
| 32> H 2.744699455787683 1.5974584531130074 2.74912453865546
| 33> H 1.771740866374786 0.39924545910479253 2.94267191380567
| 34> H 1.189967795178452 3.2676580922848455 2.723735593609905
| 35> H 0.819328205251118 2.260976722575988 3.9520156316165465
| 36> H -0.9200079150890353 2.419656059002206 2.6510035851698577
| 37> H -0.520900716251273 2.462647963782356 1.4215068305388219
| 38> *
| 39>
| 40> % eprnmr
| 41> gtensor true
| 42> Nuclei = all H {aiso,adip,aorb,fgrad,rho}
| 43> Nuclei = all V {aiso,adip,aorb,fgrad,rho}
| 44> end
| 45>
| 46>                          ****END OF INPUT****

CARTESIAN COORDINATES (ANGSTROEM)
---------------------------------
  V      0.123298   -0.459882    0.126624
  S     -1.014606    0.318977    2.249696
  S     -2.143104   -0.201795   -0.760646
  S      2.032730    1.035813    0.655643
  S      1.049822   -0.189888   -2.166491
  O      0.416835   -1.992812    0.489387
  C     -2.120423   -0.679746   -2.556210
  C      0.250022   -1.480386   -3.237024
  C     -1.195287   -1.861958   -2.880187
  H      0.687679   -2.117697   -3.269744
  H      0.237008   -0.996420   -4.372678
  H     -1.173264   -2.559784   -1.976757
  H     -1.600484   -2.430823   -3.707824
  H     -1.832695    0.161286   -3.141701
  H     -3.104735   -0.923066   -2.806080
  C     -0.526960    2.114197    2.341532
  C      1.968145    1.320503    2.488346
  C      0.889637    2.324639    2.950500
  H      2.744956    1.596902    2.749566
  H      1.771997    0.398689    2.943114
  H      1.190224    3.267102    2.724177
  H      0.819585    2.260421    3.952457
  H     -0.919752    2.419100    2.651445
  H     -0.520644    2.462092    1.421949

 Total Charge           Charge          ....   -2
 Multiplicity           Mult            ....    2
 Number of Electrons    NEL             ....  145
 Basis Dimension        Dim             ....  353

ORBITAL ENERGIES
----------------
                 SPIN UP ORBITALS
  NO   OCC          E(Eh)            E(eV)
   0   1.0000    -196.604079     -5349.8690
   1   1.0000     -88.557440     -2409.7705
   2   1.0000     -88.557078     -2409.7606
   3   1.0000     -88.556964     -2409.7575
   4   1.0000     -88.553128     -2409.6531
   5   1.0000     -21.979608      -598.0955
   6   1.0000     -18.821834      -512.1681
   7   1.0000     -18.487434      -503.0687
   8   1.0000     -18.480207      -502.8720
   9   1.0000     -18.480104      -502.8692
  10   1.0000      -9.928941      -270.1802
  11   1.0000      -9.923804      -270.0404
  12   1.0000      -9.921747      -269.9845
  13   1.0000      -9.907679      -269.6017
  14   1.0000      -9.900558      -269.4079
  15   1.0000      -9.895653      -269.2744
  16   1.0000      -7.611278      -207.1134
  17   1.0000      -7.611200      -207.1113
  18   1.0000      -7.611113      -207.1089
  19   1.0000      -7.607158      -207.0013
  20   1.0000      -5.576694      -151.7495
  21   1.0000      -5.576668      -151.7488
  22   1.0000      -5.576187      -151.7358
  23   1.0000      -5.572361      -151.6317
  24   1.0000      -5.570241      -151.5740
  25   1.0000      -5.570162      -151.5718
  26   1.0000      -5.570108      -151.5703
  27   1.0000      -5.568468      -151.5257
  28   1.0000      -5.568430      -151.5247
  29   1.0000      -5.568145      -151.5169
  30   1.0000      -5.566458      -151.4710
  31   1.0000      -5.564268      -151.4114
  32   1.0000      -2.372127       -64.5489
  33   1.0000      -1.414872       -38.5006
  34   1.0000      -1.400175       -38.1007
  35   1.0000      -1.399688       -38.0875
  36   1.0000      -0.584625       -15.9084
  37   1.0000      -0.574368       -15.6294
  38   1.0000      -0.557242       -15.1633
  39   1.0000      -0.509316       -13.8592
  40   1.0000      -0.485055       -13.1990
  41   1.0000      -0.411435       -11.1957
  42   1.0000      -0.396530       -10.7901
  43   1.0000      -0.355026        -9.6607
  44   1.0000      -0.343436        -9.3454
  45   1.0000      -0.330808        -9.0017
  46   1.0000      -0.311414        -8.4740
  47   1.0000      -0.239920        -6.5286
  48   1.0000      -0.221899        -6.0382
  49   1.0000      -0.221427        -6.0253
  50   1.0000      -0.195511        -5.3201
  51   1.0000      -0.156828        -4.2675
  52   1.0000      -0.148044        -4.0285
  53   1.0000      -0.135905        -3.6982
  54   1.0000      -0.121713        -3.3120
  55   1.0000      -0.120612        -3.2820
  56   1.0000      -0.098874        -2.6905
  57   1.0000      -0.080295        -2.1850
  58   1.0000      -0.066885        -1.8200
  59   1.0000      -0.060995        -1.6598
  60   1.0000      -0.054567        -1.4848
  61   1.0000      -0.043271        -1.1775
  62   1.0000      -0.038038        -1.0351
  63   1.0000      -0.033694        -0.9169
  64   1.0000       0.001717         0.0467
  65   1.0000       0.029478         0.8021
  66   1.0000       0.033383         0.9084
  67   1.0000       0.040057         1.0900
  68   1.0000       0.048065         1.3079
  69   1.0000       0.056294         1.5318
  70   1.0000       0.068031         1.8512
  71   1.0000       0.075730         2.0607
  72   1.0000       0.084198         2.2912
  73   0.0000       0.237761         6.4698
  74   0.0000       0.249195         6.7809
  75   0.0000       0.253064         6.8862
  76   0.0000       0.254437         6.9236
  77   0.0000       0.265674         7.2294

                 SPIN DOWN ORBITALS
  NO   OCC          E(Eh)            E(eV)
   0   1.0000    -196.604221     -5349.8728
   1   1.0000     -88.557616     -2409.7752
   2   1.0000     -88.557186     -2409.7635
   3   1.0000     -88.557124     -2409.7619
   4   1.0000     -88.553096     -2409.6522
   5   1.0000     -21.964561      -597.6861
   6   1.0000     -18.825299      -512.2624
   7   1.0000     -18.482239      -502.9273
   8   1.0000     -18.464121      -502.4343
   9   1.0000     -18.463667      -502.4219
  10   1.0000      -9.928958      -270.1807
  11   1.0000      -9.923681      -270.0371
  12   1.0000      -9.921565      -269.9795
  13   1.0000      -9.907641      -269.6006
  14   1.0000      -9.900386      -269.4032
  15   1.0000      -9.895599      -269.2729
  16   1.0000      -7.611449      -207.1181
  17   1.0000      -7.611303      -207.1141
  18   1.0000      -7.611265      -207.1131
  19   1.0000      -7.607129      -207.0005
  20   1.0000      -5.576858      -151.7540
  21   1.0000      -5.576793      -151.7523
  22   1.0000      -5.576341      -151.7399
  23   1.0000      -5.572374      -151.6320
  24   1.0000      -5.570649      -151.5851
  25   1.0000      -5.570584      -151.5833
  26   1.0000      -5.570559      -151.5826
  27   1.0000      -5.568600      -151.5293
  28   1.0000      -5.568546      -151.5278
  29   1.0000      -5.568080      -151.5152
  30   1.0000      -5.566790      -151.4801
  31   1.0000      -5.563783      -151.3982
  32   1.0000      -2.327226       -63.3270
  33   1.0000      -1.395909       -37.9846
  34   1.0000      -1.338573       -36.4244
  35   1.0000      -1.336784       -36.3757
  36   1.0000      -0.592016       -16.1096
  37   1.0000      -0.574255       -15.6263
  38   1.0000      -0.557139       -15.1605
  39   1.0000      -0.509173       -13.8553
  40   1.0000      -0.484988       -13.1972
  41   1.0000      -0.411441       -11.1959
  42   1.0000      -0.396729       -10.7955
  43   1.0000      -0.354934        -9.6583
  44   1.0000      -0.343750        -9.3539
  45   1.0000      -0.331094        -9.0095
  46   1.0000      -0.311552        -8.4778
  47   1.0000      -0.239875        -6.5273
  48   1.0000      -0.221758        -6.0344
  49   1.0000      -0.221322        -6.0225
  50   1.0000      -0.195360        -5.3160
  51   1.0000      -0.156615        -4.2617
  52   1.0000      -0.147889        -4.0243
  53   1.0000      -0.135756        -3.6941
  54   1.0000      -0.121657        -3.3105
  55   1.0000      -0.120436        -3.2772
  56   1.0000      -0.098645        -2.6843
  57   1.0000      -0.079153        -2.1539
  58   1.0000      -0.064953        -1.7675
  59   1.0000      -0.060120        -1.6359
  60   1.0000      -0.054394        -1.4801
  61   1.0000      -0.044170        -1.2019
  62   1.0000      -0.038938        -1.0596
  63   1.0000      -0.034848        -0.9483
  64   1.0000       0.006565         0.1786
  65   1.0000       0.030524         0.8306
  66   1.0000       0.036316         0.9882
  67   1.0000       0.047442         1.2910
  68   1.0000       0.049876         1.3572
  69   1.0000       0.065866         1.7923
  70   1.0000       0.071709         1.9513
  71   1.0000       0.076121         2.0714
  72   0.0000       0.236389         6.4325
  73   0.0000       0.255587         6.9549
  74   0.0000       0.258914         7.0454
  75   0.0000       0.266446         7.2504
  76   0.0000       0.269558         7.3351

MULLIKEN ATOMIC CHARGES AND SPIN POPULATIONS
--------------------------------------------
   0 V :    0.536409    1.190133
   1 S :   -0.464900   -0.000669
   2 S :   -0.359724   -0.032998
   3 S :   -0.435203   -0.029584
   4 S :   -0.394023   -0.021941
   5 O :   -0.551554   -0.133648
   6 C :   -0.242524    0.005573
   7 C :   -0.257758    0.007257
   8 C :   -0.184805    0.003044
   9 H :    0.187120   -0.001608
  10 H :   -0.017210    0.002341
  11 H :    0.124104    0.000517
  12 H :    0.016253    0.000063
  13 H :    0.098572   -0.000149
  14 H :    0.062533    0.000084
  15 C :   -0.360373   -0.001457
  16 C :   -0.282944    0.004357
  17 C :   -0.146102    0.008152
  18 H :    0.127271   -0.000347
  19 H :    0.123516   -0.000117
  20 H :    0.028209    0.001434
  21 H :    0.027438   -0.000325
  22 H :    0.232853   -0.000149
  23 H :    0.132841    0.000037
Sum of atomic charges         :   -2.0000000

LOEWDIN ATOMIC CHARGES AND SPIN POPULATIONS
-------------------------------------------
   0 V :   -0.203311    1.147040
   1 S :   -0.069047    0.004682
   2 S :   -0.040595   -0.022555
   3 S :   -0.065177   -0.020551
   4 S :   -0.057535   -0.013024
   5 O :   -0.379226   -0.120504
   6 C :   -0.317591    0.004874
   7 C :   -0.238514    0.006848
   8 C :   -0.176000    0.000557
   9 H :   -0.064790    0.000478
  10 H :    0.031330    0.000748
  11 H :    0.077789    0.000288
  12 H :    0.029004    0.000153
  13 H :    0.042072   -0.000051
  14 H :    0.021500   -0.000417
  15 C :   -0.129635    0.002392
  16 C :   -0.271403    0.007235
  17 C :   -0.130788    0.001126
  18 H :   -0.023129    0.000163
  19 H :    0.051166   -0.000546
  20 H :    0.025705    0.000509
  21 H :    0.024481    0.000268
  22 H :   -0.198635    0.000010
  23 H :    0.062329    0.000280

  Mayer bond orders larger than 0.100000
B(  0-V ,  1-S ) :   0.7148 B(  0-V ,  2-S ) :   0.8585 B(  0-V ,  3-S ) :   0.7779
B(  0-V ,  4-S ) :   0.7740 B(  0-V ,  5-O ) :   2.0673 B(  1-S , 15-C ) :   0.9595
B(  2-S ,  6-C ) :   1.0048 B(  3-S , 16-C ) :   1.0038 B(  4-S ,  7-C ) :   1.0445
B(  6-C ,  8-C ) :   0.9054 B(  6-C , 13-H ) :   0.9778 B(  6-C , 14-H ) :   0.9746
B(  7-C ,  8-C ) :   0.9025 B(  7-C ,  9-H ) :   0.9821 B(  7-C , 10-H ) :   0.9658
B(  8-C , 11-H ) :   0.9885 B(  8-C , 12-H ) :   0.9453 B( 15-C , 17-C ) :   0.8653
B( 15-C , 22-H ) :   0.9598 B( 15-C , 23-H ) :   1.0425 B( 16-C , 17-C ) :   0.8948
B( 16-C , 18-H ) :   0.9719 B( 16-C , 19-H ) :   0.9982 B( 17-C , 20-H ) :   0.9739
B( 17-C , 21-H ) :   0.9782

FINAL SINGLE POINT ENERGY     -2847.002638403346

DIPOLE MOMENT
-------------
                                X             Y             Z
Electronic contribution:      2.00191      -5.03588       3.09483
Nuclear contribution   :     -2.15675       5.38801      -3.23457
                        -----------------------------------------
Total Dipole Moment    :     -0.15484       0.35214      -0.13974
                        -----------------------------------------
Magnitude (a.u.)       :      0.40927
Magnitude (Debye)      :      1.04029

Rotational constants in cm-1:     0.027280     0.011733     0.009609
Rotational constants in MHz :   817.847417   351.758072   288.072845

                             ****ORCA TERMINATED NORMALLY****
TOTAL RUN TIME: 0 days 0 hours 14 minutes 27 seconds 31 msec
