                         Program Version 5.0.4 -  RELEASE  -
|  1> ! nofrozencore ReducedPop printbasis
|  2> ! B3LYP TZVP
|  3>
|  4> %basis
|  5> newgto V "CP(PPP)" end
|  6> end
|  7>
|  8> %pal
|  9> nprocs 8
| 10> end
| 11>
| 12> % sym SymThresh 1e-2 end
| 13> * xyz -2 2
| 14> V 0.36709085824790394 0.33486416589686707 0.02396886326075491
| 15> S -0.15248233268686576 0.3826817428495287 -2.460499577431587
| 16> S -1.8968821671107574 1.261674087389049 0.15126270299781985
| 17> S 1.3751248924326558 -1.9101823596150749 -0.2816137594143094
| 18> S 0.15189598506430885 -0.5009876242677076 2.3571049936646737
| 19> O 1.4474447136288098 1.483161440718677 0.11936280919244104
| 20> C -2.2968524046858962 1.5613169558171827 1.9415062059178132
| 21> C -0.28924112786238415 0.940419546194837 3.4312616880588678
| 22> C -1.104878953485024 2.0684150916334487 2.7648815625747565
| 23> H 0.6452447673616641 1.3655927358238664 3.8158334826629265
| 24> H -0.8481347485845285 0.559774631011406 4.297029738266365
| 25> H -0.460357449660934 2.68524195887111 2.1336913682069216
| 26> H -1.483228620804684 2.717121666008831 3.576559934073136
| 27> H -2.6881759756281505 0.6517587444250825 2.411435645363998
| 28> H -3.097082672431348 2.3107834129239917 1.9471455708474508
| 29> C -0.5726805435197136 -1.4266607880945548 -2.7512194602651
| 30> C 1.8183504937917752 -2.0669640930916016 -2.041747208460984
| 31> C 0.6847121547806997 -2.229895763319702 -3.0749333731602073
| 32> H 2.6469545338648874 -2.7745530421250435 -2.255602294512883
| 33> H 2.2254811626088515 -1.036647835667408 -2.1262877762965746
| 34> H 0.29482060194320225 -3.2453475032059083 -2.7450200231938235
| 35> H 0.9847984930054424 -2.3323520627099468 -4.15932974946876
| 36> H -1.134478901381231 -1.3373920022127852 -3.703021147065611
| 37> H -1.1933560961250307 -1.9947638473907203 -2.019598060815616
| 38> *
| 39>
| 40> % eprnmr
| 41> gtensor true
| 42> Nuclei = all H {aiso,adip,aorb,fgrad,rho}
| 43> Nuclei = all V {aiso,adip,aorb,fgrad,rho}
| 44> end
| 45>
| 46>                          ****END OF INPUT****

CARTESIAN COORDINATES (ANGSTROEM)
---------------------------------
  V      0.367721    0.335223    0.023758
  S     -0.151853    0.383041   -2.460711
  S     -1.896253    1.262033    0.151052
  S      1.375755   -1.909823   -0.281825
  S      0.152526   -0.500628    2.356894
  O      1.448074    1.483521    0.119152
  C     -2.296223    1.561676    1.941295
  C     -0.288611    0.940779    3.431051
  C     -1.104249    2.068774    2.764671
  H      0.645874    1.365952    3.815622
  H     -0.847505    0.560134    4.296819
  H     -0.459728    2.685601    2.133480
  H     -1.482599    2.717481    3.576349
  H     -2.687546    0.652118    2.411225
  H     -3.096453    2.311143    1.946935
  C     -0.572051   -1.426302   -2.751431
  C      1.818980   -2.066605   -2.041958
  C      0.685342   -2.229537   -3.075144
  H      2.647584   -2.774194   -2.255813
  H      2.226111   -1.036289   -2.126499
  H      0.295450   -3.244988   -2.745231
  H      0.985428   -2.331993   -4.159541
  H     -1.133849   -1.337033   -3.703232
  H     -1.192726   -1.994405   -2.019809

 Total Charge           Charge          ....   -2
 Multiplicity           Mult            ....    2
 Number of Electrons    NEL             ....  145
 Basis Dimension        Dim             ....  353

ORBITAL ENERGIES
----------------
                 SPIN UP ORBITALS
  NO   OCC          E(Eh)            E(eV)
   0   1.0000    -196.604923     -5349.8919
   1   1.0000     -88.561756     -2409.8879
   2   1.0000     -88.559711     -2409.8323
   3   1.0000     -88.559024     -2409.8136
   4   1.0000     -88.558220     -2409.7917
   5   1.0000     -21.980370      -598.1163
   6   1.0000     -18.828406      -512.3470
   7   1.0000     -18.488122      -503.0874
   8   1.0000     -18.480973      -502.8928
   9   1.0000     -18.480902      -502.8909
  10   1.0000      -9.943140      -270.5666
  11   1.0000      -9.941549      -270.5233
  12   1.0000      -9.937625      -270.4165
  13   1.0000      -9.934795      -270.3395
  14   1.0000      -9.934654      -270.3357
  15   1.0000      -9.929510      -270.1957
  16   1.0000      -7.616368      -207.2519
  17   1.0000      -7.613494      -207.1737
  18   1.0000      -7.612861      -207.1565
  19   1.0000      -7.612571      -207.1486
  20   1.0000      -5.581533      -151.8812
  21   1.0000      -5.578925      -151.8103
  22   1.0000      -5.578200      -151.7905
  23   1.0000      -5.578012      -151.7854
  24   1.0000      -5.575278      -151.7110
  25   1.0000      -5.573600      -151.6654
  26   1.0000      -5.572336      -151.6310
  27   1.0000      -5.572137      -151.6256
  28   1.0000      -5.571615      -151.6113
  29   1.0000      -5.570652      -151.5851
  30   1.0000      -5.569868      -151.5638
  31   1.0000      -5.569502      -151.5539
  32   1.0000      -2.374295       -64.6079
  33   1.0000      -1.419511       -38.6269
  34   1.0000      -1.402025       -38.1510
  35   1.0000      -1.401486       -38.1364
  36   1.0000      -0.591965       -16.1082
  37   1.0000      -0.550321       -14.9750
  38   1.0000      -0.549699       -14.9581
  39   1.0000      -0.468426       -12.7465
  40   1.0000      -0.466028       -12.6813
  41   1.0000      -0.402311       -10.9474
  42   1.0000      -0.395247       -10.7552
  43   1.0000      -0.336437        -9.1549
  44   1.0000      -0.326711        -8.8903
  45   1.0000      -0.304612        -8.2889
  46   1.0000      -0.279932        -7.6173
  47   1.0000      -0.216672        -5.8959
  48   1.0000      -0.206522        -5.6198
  49   1.0000      -0.198334        -5.3970
  50   1.0000      -0.195090        -5.3087
  51   1.0000      -0.158988        -4.3263
  52   1.0000      -0.137233        -3.7343
  53   1.0000      -0.124650        -3.3919
  54   1.0000      -0.110814        -3.0154
  55   1.0000      -0.107100        -2.9143
  56   1.0000      -0.102662        -2.7936
  57   1.0000      -0.083436        -2.2704
  58   1.0000      -0.069600        -1.8939
  59   1.0000      -0.066329        -1.8049
  60   1.0000      -0.055119        -1.4999
  61   1.0000      -0.052676        -1.4334
  62   1.0000      -0.044083        -1.1996
  63   1.0000      -0.034526        -0.9395
  64   1.0000       0.000715         0.0194
  65   1.0000       0.027950         0.7606
  66   1.0000       0.031759         0.8642
  67   1.0000       0.038586         1.0500
  68   1.0000       0.046811         1.2738
  69   1.0000       0.053620         1.4591
  70   1.0000       0.065690         1.7875
  71   1.0000       0.072871         1.9829
  72   1.0000       0.081865         2.2277
  73   0.0000       0.237220         6.4551
  74   0.0000       0.249232         6.7819
  75   0.0000       0.251110         6.8330
  76   0.0000       0.251918         6.8550
  77   0.0000       0.257247         7.0000

                 SPIN DOWN ORBITALS
  NO   OCC          E(Eh)            E(eV)
   0   1.0000    -196.605067     -5349.8959
   1   1.0000     -88.561908     -2409.8920
   2   1.0000     -88.559884     -2409.8370
   3   1.0000     -88.558991     -2409.8127
   4   1.0000     -88.558315     -2409.7943
   5   1.0000     -21.965491      -597.7114
   6   1.0000     -18.831692      -512.4364
   7   1.0000     -18.483076      -502.9501
   8   1.0000     -18.465000      -502.4582
   9   1.0000     -18.464625      -502.4480
  10   1.0000      -9.942954      -270.5615
  11   1.0000      -9.941494      -270.5218
  12   1.0000      -9.937586      -270.4155
  13   1.0000      -9.934668      -270.3361
  14   1.0000      -9.934483      -270.3310
  15   1.0000      -9.929528      -270.1962
  16   1.0000      -7.616512      -207.2558
  17   1.0000      -7.613662      -207.1783
  18   1.0000      -7.612832      -207.1557
  19   1.0000      -7.612660      -207.1510
  20   1.0000      -5.581683      -151.8853
  21   1.0000      -5.579087      -151.8147
  22   1.0000      -5.578211      -151.7908
  23   1.0000      -5.578130      -151.7886
  24   1.0000      -5.575667      -151.7216
  25   1.0000      -5.573720      -151.6686
  26   1.0000      -5.572784      -151.6432
  27   1.0000      -5.572472      -151.6347
  28   1.0000      -5.571998      -151.6218
  29   1.0000      -5.570779      -151.5886
  30   1.0000      -5.569419      -151.5516
  31   1.0000      -5.569381      -151.5506
  32   1.0000      -2.329910       -63.4001
  33   1.0000      -1.401162       -38.1276
  34   1.0000      -1.340788       -36.4847
  35   1.0000      -1.339192       -36.4413
  36   1.0000      -0.598720       -16.2920
  37   1.0000      -0.550182       -14.9712
  38   1.0000      -0.549585       -14.9550
  39   1.0000      -0.468351       -12.7445
  40   1.0000      -0.465940       -12.6789
  41   1.0000      -0.402334       -10.9481
  42   1.0000      -0.395339       -10.7577
  43   1.0000      -0.336542        -9.1578
  44   1.0000      -0.327078        -8.9002
  45   1.0000      -0.304572        -8.2878
  46   1.0000      -0.279931        -7.6173
  47   1.0000      -0.216649        -5.8953
  48   1.0000      -0.206462        -5.6181
  49   1.0000      -0.198050        -5.3892
  50   1.0000      -0.195025        -5.3069
  51   1.0000      -0.158855        -4.3227
  52   1.0000      -0.137115        -3.7311
  53   1.0000      -0.124347        -3.3837
  54   1.0000      -0.110790        -3.0147
  55   1.0000      -0.106972        -2.9109
  56   1.0000      -0.102488        -2.7888
  57   1.0000      -0.081962        -2.2303
  58   1.0000      -0.067774        -1.8442
  59   1.0000      -0.064813        -1.7636
  60   1.0000      -0.056704        -1.5430
  61   1.0000      -0.053879        -1.4661
  62   1.0000      -0.043362        -1.1799
  63   1.0000      -0.035000        -0.9524
  64   1.0000       0.005315         0.1446
  65   1.0000       0.029553         0.8042
  66   1.0000       0.034723         0.9449
  67   1.0000       0.046173         1.2564
  68   1.0000       0.047790         1.3004
  69   1.0000       0.062614         1.7038
  70   1.0000       0.068962         1.8766
  71   1.0000       0.074855         2.0369
  72   0.0000       0.233275         6.3477
  73   0.0000       0.251575         6.8457
  74   0.0000       0.255775         6.9600
  75   0.0000       0.260865         7.0985
  76   0.0000       0.265328         7.2199

MULLIKEN ATOMIC CHARGES AND SPIN POPULATIONS
--------------------------------------------
   0 V :    0.530461    1.180679
   1 S :   -0.441854   -0.000787
   2 S :   -0.351647   -0.032615
   3 S :   -0.401982   -0.027729
   4 S :   -0.385394   -0.020397
   5 O :   -0.539332   -0.126488
   6 C :   -0.245694    0.005481
   7 C :   -0.237083    0.006746
   8 C :   -0.156857    0.003364
   9 H :    0.075531   -0.000939
  10 H :    0.051617    0.002259
  11 H :    0.136211    0.000506
  12 H :    0.003658   -0.000075
  13 H :    0.093188   -0.000119
  14 H :    0.048667   -0.000041
  15 C :   -0.214857   -0.003206
  16 C :   -0.285467    0.003739
  17 C :   -0.078505    0.008452
  18 H :    0.048911   -0.000104
  19 H :    0.148164   -0.000832
  20 H :   -0.001984    0.000797
  21 H :    0.032043    0.001016
  22 H :    0.044286   -0.000284
  23 H :    0.127917    0.000575
Sum of atomic charges         :   -2.0000000

LOEWDIN ATOMIC CHARGES AND SPIN POPULATIONS
-------------------------------------------
   0 V :   -0.214650    1.137554
   1 S :   -0.083356    0.004413
   2 S :   -0.039980   -0.022305
   3 S :   -0.045647   -0.018856
   4 S :   -0.063733   -0.011325
   5 O :   -0.358960   -0.113400
   6 C :   -0.326663    0.005059
   7 C :   -0.315819    0.007233
   8 C :   -0.186427    0.000550
   9 H :    0.036151    0.000024
  10 H :    0.029195    0.000694
  11 H :    0.069059    0.000290
  12 H :    0.030804    0.000136
  13 H :    0.044930   -0.000051
  14 H :    0.027143   -0.000507
  15 C :   -0.311558    0.002630
  16 C :   -0.348457    0.007094
  17 C :   -0.203167    0.000980
  18 H :    0.029522   -0.000271
  19 H :    0.057447   -0.000768
  20 H :    0.041009    0.000613
  21 H :    0.039613    0.000405
  22 H :    0.034237   -0.000432
  23 H :    0.059308    0.000239

  Mayer bond orders larger than 0.100000
B(  0-V ,  1-S ) :   0.7002 B(  0-V ,  2-S ) :   0.8521 B(  0-V ,  3-S ) :   0.7717
B(  0-V ,  4-S ) :   0.7714 B(  0-V ,  5-O ) :   2.0833 B(  1-S , 15-C ) :   1.0074
B(  1-S , 17-C ) :  -0.1039 B(  2-S ,  6-C ) :   1.0113 B(  3-S , 16-C ) :   0.9945
B(  4-S ,  7-C ) :   1.0721 B(  6-C ,  8-C ) :   0.9021 B(  6-C , 13-H ) :   0.9716
B(  6-C , 14-H ) :   0.9703 B(  7-C ,  8-C ) :   0.9188 B(  7-C ,  9-H ) :   0.9797
B(  7-C , 10-H ) :   0.9650 B(  8-C , 11-H ) :   0.9863 B(  8-C , 12-H ) :   0.9466
B( 15-C , 17-C ) :   0.9135 B( 15-C , 22-H ) :   0.9807 B( 15-C , 23-H ) :   0.9614
B( 16-C , 17-C ) :   0.8921 B( 16-C , 18-H ) :   0.9491 B( 16-C , 19-H ) :   0.9932
B( 17-C , 20-H ) :   0.9818 B( 17-C , 21-H ) :   0.9298

FINAL SINGLE POINT ENERGY     -2847.689487568442

DIPOLE MOMENT
-------------
                                X             Y             Z
Electronic contribution:      5.17441       3.80094      -0.78689
Nuclear contribution   :     -5.51019      -3.78228       0.99666
                        -----------------------------------------
Total Dipole Moment    :     -0.33578       0.01866       0.20977
                        -----------------------------------------
Magnitude (a.u.)       :      0.39636
Magnitude (Debye)      :      1.00746

Rotational constants in cm-1:     0.027226     0.011728     0.009599
Rotational constants in MHz :   816.207726   351.589512   287.776679

                             ****ORCA TERMINATED NORMALLY****
TOTAL RUN TIME: 0 days 0 hours 9 minutes 35 seconds 795 msec
