                         Program Version 5.0.4 -  RELEASE  -
|  1> ! nofrozencore ReducedPop printbasis
|  2> ! B3LYP TZVP
|  3>
|  4> %basis
|  5> newgto V "CP(PPP)" end
|  6> end
|  7>
|  8> %pal
|  9> nprocs 8
| 10> end
| 11>
| 12> % sym SymThresh 1e-2 end
| 13> * xyz -2 2
| 14> V 0.12857290286108547 -0.3692881059061119 -0.06448602998440972
| 15> S -1.7097369948105572 -1.0090233541792546 1.6060045113669548
| 16> S -1.826515444511662 0.21892089502272255 -1.4158727533662108
| 17> S 1.6241489333984878 0.43792962340009334 1.6911404490018582
| 18> S 1.7226780453421418 1.0121301649015393 -1.4828892480797617
| 19> O 0.5754179764295461 -1.8584173824166983 -0.42078634910390555
| 20> C -1.121540329783436 0.8853668784299173 -3.002644004340762
| 21> C 1.4212741559248467 0.5574986716123528 -3.2546989159658954
| 22> C 0.019507787748296222 0.030697556652205887 -3.582298914070091
| 23> H 2.1617205983088565 -0.1917416890461956 -3.560520166324846
| 24> H 1.6128970911474096 1.4588904342112565 -3.8529371735159548
| 25> H -0.08495687772694166 -0.9899198515783896 -3.203843132180305
| 26> H -0.07266732387557555 -0.024374021128327098 -4.683443976905543
| 27> H -0.7580324150426592 1.9089098504459527 -2.8317786293509957
| 28> H -1.9555881651313867 0.9362203322804271 -3.721024877688509
| 29> C -1.5339779442837869 0.4475251464191249 2.729765325538521
| 30> C 0.8976625392980402 -0.33419747650299986 3.2049288369676825
| 31> C -0.37080576153780903 0.33803922076481113 3.7374045568865144
| 32> H 1.6677174869720615 -0.3165672935684372 3.990833476337787
| 33> H 0.6685206557792696 -1.3785552036486137 2.9774466932910464
| 34> H -0.1192759602571051 1.3500782329643741 4.103998922831796
| 35> H -0.7150867519299775 -0.2452470327633042 4.6143262945796355
| 36> H -2.473279867847704 0.5837953589675886 3.2829715688530032
| 37> H -1.399095860024658 1.3376183281424623 2.1078477685870074
| 38> *
| 39>
| 40> % eprnmr
| 41> gtensor true
| 42> Nuclei = all H {aiso,adip,aorb,fgrad,rho}
| 43> Nuclei = all V {aiso,adip,aorb,fgrad,rho}
| 44> end
| 45>
| 46>                          ****END OF INPUT****

CARTESIAN COORDINATES (ANGSTROEM)
---------------------------------
  V      0.128782   -0.370000   -0.064344
  S     -1.709528   -1.009735    1.606146
  S     -1.826307    0.218209   -1.415731
  S      1.624358    0.437218    1.691282
  S      1.722887    1.011419   -1.482747
  O      0.575627   -1.859129   -0.420645
  C     -1.121331    0.884655   -3.002502
  C      1.421483    0.556787   -3.254557
  C      0.019717    0.029986   -3.582157
  H      2.161929   -0.192453   -3.560378
  H      1.613106    1.458179   -3.852795
  H     -0.084748   -0.990631   -3.203701
  H     -0.072458   -0.025086   -4.683302
  H     -0.757824    1.908198   -2.831637
  H     -1.955379    0.935509   -3.720883
  C     -1.533769    0.446814    2.729907
  C      0.897871   -0.334909    3.205071
  C     -0.370597    0.337328    3.737546
  H      1.667926   -0.317279    3.990975
  H      0.668730   -1.379267    2.977589
  H     -0.119067    1.349367    4.104141
  H     -0.714878   -0.245959    4.614468
  H     -2.473071    0.583084    3.283113
  H     -1.398887    1.336907    2.107990

 Total Charge           Charge          ....   -2
 Multiplicity           Mult            ....    2
 Number of Electrons    NEL             ....  145
 Basis Dimension        Dim             ....  353

ORBITAL ENERGIES
----------------
                 SPIN UP ORBITALS
  NO   OCC          E(Eh)            E(eV)
   0   1.0000    -196.608530     -5349.9901
   1   1.0000     -88.562792     -2409.9161
   2   1.0000     -88.561868     -2409.8909
   3   1.0000     -88.558160     -2409.7900
   4   1.0000     -88.557264     -2409.7657
   5   1.0000     -21.983608      -598.2044
   6   1.0000     -18.827030      -512.3095
   7   1.0000     -18.491253      -503.1726
   8   1.0000     -18.484313      -502.9837
   9   1.0000     -18.484170      -502.9798
  10   1.0000      -9.942127      -270.5390
  11   1.0000      -9.936353      -270.3819
  12   1.0000      -9.934919      -270.3429
  13   1.0000      -9.933822      -270.3130
  14   1.0000      -9.932697      -270.2824
  15   1.0000      -9.927469      -270.1402
  16   1.0000      -7.617230      -207.2754
  17   1.0000      -7.615649      -207.2324
  18   1.0000      -7.612210      -207.1388
  19   1.0000      -7.611530      -207.1203
  20   1.0000      -5.582350      -151.9035
  21   1.0000      -5.581029      -151.8675
  22   1.0000      -5.577658      -151.7758
  23   1.0000      -5.576786      -151.7521
  24   1.0000      -5.576256      -151.7376
  25   1.0000      -5.574501      -151.6899
  26   1.0000      -5.574452      -151.6885
  27   1.0000      -5.572886      -151.6459
  28   1.0000      -5.571292      -151.6026
  29   1.0000      -5.570845      -151.5904
  30   1.0000      -5.569141      -151.5440
  31   1.0000      -5.568445      -151.5251
  32   1.0000      -2.376678       -64.6727
  33   1.0000      -1.420251       -38.6470
  34   1.0000      -1.404492       -38.2182
  35   1.0000      -1.404224       -38.2109
  36   1.0000      -0.588804       -16.0222
  37   1.0000      -0.549389       -14.9496
  38   1.0000      -0.548959       -14.9379
  39   1.0000      -0.468127       -12.7384
  40   1.0000      -0.466625       -12.6975
  41   1.0000      -0.402923       -10.9641
  42   1.0000      -0.394573       -10.7369
  43   1.0000      -0.338262        -9.2046
  44   1.0000      -0.327645        -8.9157
  45   1.0000      -0.303747        -8.2654
  46   1.0000      -0.285020        -7.7558
  47   1.0000      -0.211974        -5.7681
  48   1.0000      -0.205623        -5.5953
  49   1.0000      -0.202207        -5.5023
  50   1.0000      -0.196292        -5.3414
  51   1.0000      -0.157526        -4.2865
  52   1.0000      -0.132592        -3.6080
  53   1.0000      -0.130703        -3.5566
  54   1.0000      -0.112630        -3.0648
  55   1.0000      -0.108992        -2.9658
  56   1.0000      -0.103963        -2.8290
  57   1.0000      -0.080164        -2.1814
  58   1.0000      -0.069542        -1.8923
  59   1.0000      -0.065141        -1.7726
  60   1.0000      -0.056978        -1.5505
  61   1.0000      -0.047854        -1.3022
  62   1.0000      -0.042002        -1.1429
  63   1.0000      -0.035835        -0.9751
  64   1.0000       0.000310         0.0084
  65   1.0000       0.026889         0.7317
  66   1.0000       0.030691         0.8351
  67   1.0000       0.037717         1.0263
  68   1.0000       0.045536         1.2391
  69   1.0000       0.052025         1.4157
  70   1.0000       0.063590         1.7304
  71   1.0000       0.070399         1.9157
  72   1.0000       0.079481         2.1628
  73   0.0000       0.231116         6.2890
  74   0.0000       0.244289         6.6474
  75   0.0000       0.250332         6.8119
  76   0.0000       0.252725         6.8770
  77   0.0000       0.257879         7.0172

                 SPIN DOWN ORBITALS
  NO   OCC          E(Eh)            E(eV)
   0   1.0000    -196.608671     -5349.9939
   1   1.0000     -88.562954     -2409.9205
   2   1.0000     -88.562042     -2409.8957
   3   1.0000     -88.558274     -2409.7931
   4   1.0000     -88.557261     -2409.7656
   5   1.0000     -21.968494      -597.7931
   6   1.0000     -18.830694      -512.4092
   7   1.0000     -18.485980      -503.0291
   8   1.0000     -18.468324      -502.5486
   9   1.0000     -18.467549      -502.5276
  10   1.0000      -9.941965      -270.5346
  11   1.0000      -9.936295      -270.3803
  12   1.0000      -9.934771      -270.3389
  13   1.0000      -9.933601      -270.3070
  14   1.0000      -9.932668      -270.2816
  15   1.0000      -9.927486      -270.1406
  16   1.0000      -7.617383      -207.2795
  17   1.0000      -7.615819      -207.2370
  18   1.0000      -7.612319      -207.1417
  19   1.0000      -7.611529      -207.1202
  20   1.0000      -5.582508      -151.9078
  21   1.0000      -5.581195      -151.8720
  22   1.0000      -5.577782      -151.7792
  23   1.0000      -5.576810      -151.7527
  24   1.0000      -5.576675      -151.7490
  25   1.0000      -5.574942      -151.7019
  26   1.0000      -5.574574      -151.6919
  27   1.0000      -5.573024      -151.6497
  28   1.0000      -5.571694      -151.6135
  29   1.0000      -5.571212      -151.6004
  30   1.0000      -5.569113      -151.5433
  31   1.0000      -5.568040      -151.5141
  32   1.0000      -2.331532       -63.4442
  33   1.0000      -1.400972       -38.1224
  34   1.0000      -1.342920       -36.5427
  35   1.0000      -1.340826       -36.4857
  36   1.0000      -0.596666       -16.2361
  37   1.0000      -0.549278       -14.9466
  38   1.0000      -0.548815       -14.9340
  39   1.0000      -0.468055       -12.7364
  40   1.0000      -0.466500       -12.6941
  41   1.0000      -0.402957       -10.9650
  42   1.0000      -0.394757       -10.7419
  43   1.0000      -0.338434        -9.2093
  44   1.0000      -0.328065        -8.9271
  45   1.0000      -0.303730        -8.2649
  46   1.0000      -0.285012        -7.7556
  47   1.0000      -0.211900        -5.7661
  48   1.0000      -0.205540        -5.5930
  49   1.0000      -0.202048        -5.4980
  50   1.0000      -0.196149        -5.3375
  51   1.0000      -0.157378        -4.2825
  52   1.0000      -0.132435        -3.6037
  53   1.0000      -0.130355        -3.5471
  54   1.0000      -0.112606        -3.0642
  55   1.0000      -0.108908        -2.9635
  56   1.0000      -0.103794        -2.8244
  57   1.0000      -0.078990        -2.1494
  58   1.0000      -0.067507        -1.8369
  59   1.0000      -0.064385        -1.7520
  60   1.0000      -0.057111        -1.5541
  61   1.0000      -0.049391        -1.3440
  62   1.0000      -0.042305        -1.1512
  63   1.0000      -0.036964        -1.0058
  64   1.0000       0.003952         0.1076
  65   1.0000       0.029679         0.8076
  66   1.0000       0.031912         0.8684
  67   1.0000       0.045177         1.2293
  68   1.0000       0.047003         1.2790
  69   1.0000       0.059906         1.6301
  70   1.0000       0.068158         1.8547
  71   1.0000       0.072620         1.9761
  72   0.0000       0.231767         6.3067
  73   0.0000       0.247870         6.7449
  74   0.0000       0.256508         6.9799
  75   0.0000       0.260976         7.1015
  76   0.0000       0.263904         7.1812

MULLIKEN ATOMIC CHARGES AND SPIN POPULATIONS
--------------------------------------------
   0 V :    0.520869    1.202981
   1 S :   -0.434354   -0.004740
   2 S :   -0.368514   -0.033277
   3 S :   -0.397277   -0.030691
   4 S :   -0.410350   -0.023202
   5 O :   -0.513308   -0.141502
   6 C :   -0.255473    0.006397
   7 C :   -0.238448    0.005438
   8 C :   -0.156735    0.003026
   9 H :    0.072105   -0.000910
  10 H :    0.051480    0.001976
  11 H :    0.145744    0.000680
  12 H :    0.005601    0.000078
  13 H :    0.110200   -0.000267
  14 H :    0.044309    0.000738
  15 C :   -0.259309   -0.002667
  16 C :   -0.247606    0.006208
  17 C :   -0.072415    0.007499
  18 H :    0.046697    0.000937
  19 H :    0.137275   -0.000288
  20 H :    0.020098    0.001015
  21 H :    0.009520    0.000338
  22 H :    0.052627   -0.000256
  23 H :    0.137265    0.000489
Sum of atomic charges         :   -2.0000000

LOEWDIN ATOMIC CHARGES AND SPIN POPULATIONS
-------------------------------------------
   0 V :   -0.193960    1.157510
   1 S :   -0.086289    0.000440
   2 S :   -0.045194   -0.022413
   3 S :   -0.045887   -0.020132
   4 S :   -0.089816   -0.014675
   5 O :   -0.355997   -0.127363
   6 C :   -0.328630    0.005961
   7 C :   -0.314975    0.006234
   8 C :   -0.189545    0.000577
   9 H :    0.034834   -0.000065
  10 H :    0.028310    0.000531
  11 H :    0.070888    0.000359
  12 H :    0.031259    0.000124
  13 H :    0.049341   -0.000130
  14 H :    0.026907   -0.000175
  15 C :   -0.319807    0.002553
  16 C :   -0.325916    0.009194
  17 C :   -0.188905    0.000664
  18 H :    0.028313    0.000322
  19 H :    0.056565   -0.000539
  20 H :    0.038670    0.000404
  21 H :    0.034889    0.000414
  22 H :    0.030374   -0.000387
  23 H :    0.054573    0.000592

  Mayer bond orders larger than 0.100000
B(  0-V ,  1-S ) :   0.6874 B(  0-V ,  2-S ) :   0.8478 B(  0-V ,  3-S ) :   0.8118
B(  0-V ,  4-S ) :   0.7360 B(  0-V ,  5-O ) :   2.1112 B(  1-S , 15-C ) :   1.0348
B(  2-S ,  6-C ) :   1.0024 B(  3-S , 16-C ) :   1.0050 B(  4-S ,  7-C ) :   1.0696
B(  6-C ,  8-C ) :   0.8836 B(  6-C , 13-H ) :   0.9802 B(  6-C , 14-H ) :   0.9644
B(  7-C ,  8-C ) :   0.9197 B(  7-C ,  9-H ) :   0.9753 B(  7-C , 10-H ) :   0.9685
B(  8-C , 11-H ) :   0.9895 B(  8-C , 12-H ) :   0.9450 B( 15-C , 17-C ) :   0.8933
B( 15-C , 22-H ) :   0.9662 B( 15-C , 23-H ) :   0.9831 B( 16-C , 17-C ) :   0.9059
B( 16-C , 18-H ) :   0.9595 B( 16-C , 19-H ) :   0.9724 B( 17-C , 20-H ) :   0.9588
B( 17-C , 21-H ) :   0.9568

FINAL SINGLE POINT ENERGY     -2847.713957071541

DIPOLE MOMENT
-------------
                                X             Y             Z
Electronic contribution:      1.82111      -5.42179       0.28893
Nuclear contribution   :     -1.95553       5.81147      -0.44682
                        -----------------------------------------
Total Dipole Moment    :     -0.13442       0.38967      -0.15789
                        -----------------------------------------
Magnitude (a.u.)       :      0.44141
Magnitude (Debye)      :      1.12198

Rotational constants in cm-1:     0.026439     0.012024     0.009574
Rotational constants in MHz :   792.625310   360.473796   287.032478

                             ****ORCA TERMINATED NORMALLY****
TOTAL RUN TIME: 0 days 0 hours 9 minutes 37 seconds 67 msec
