                         Program Version 5.0.4 -  RELEASE  -
|  1> ! nofrozencore ReducedPop printbasis
|  2> ! B3LYP TZVP
|  3>
|  4> %basis
|  5> newgto V "CP(PPP)" end
|  6> end
|  7>
|  8> %pal
|  9> nprocs 8
| 10> end
| 11>
| 12> % sym SymThresh 1e-2 end
| 13> * xyz -2 2
| 14> V 0.44734025979182 0.12994170677600092 0.13950833880283547
| 15> S 0.0710514140062584 1.815799841447303 -1.7087367749485758
| 16> S -1.345862036736663 1.3870798690620492 1.2127605966141255
| 17> S 0.5556365239989305 -1.651701574894429 -1.5840245836661273
| 18> S -0.043109704904878275 -1.8772405767195417 1.5438509569753476
| 19> O 1.8724141638084717 0.6344884755226285 0.6755816581912153
| 20> C -1.5236570551564752 0.7258350966364782 2.945958393005511
| 21> C -0.02840381927794773 -1.3335040827819824 3.317254922857182
| 22> C -0.22632145632932255 0.16928746577263684 3.556829584286159
| 23> H 0.9296711385003257 -1.6459414810429016 3.774874906629862
| 24> H -0.8332253683934183 -1.8877091837742113 3.8414624056057285
| 25> H 0.6343525012996724 0.7227190240322034 3.1517962366336105
| 26> H -0.235879649308939 0.34188297552031827 4.654153283047333
| 27> H -2.3025900975470015 -0.05600330094290138 2.9637926929566087
| 28> H -1.8870315776069986 1.5663074428133819 3.559939519327603
| 29> C -0.9822043679915401 0.8591005530812654 -2.8904796978658753
| 30> C 0.9635505310550859 -0.8070783339213249 -3.1780049810617412
| 31> C -0.1968915592217023 -0.05723442441588453 -3.8394662387100147
| 32> H 1.3406084965593863 -1.5713682581682817 -3.8689421186700326
| 33> H 1.7701089171960591 -0.09926288274389963 -2.985005254786893
| 34> H -0.896136585587168 -0.7817057943218624 -4.286405339352054
| 35> H 0.21443008091444515 0.5443962137955561 -4.666873594886526
| 36> H -1.5745314532363928 1.5702960959169263 -3.478499922859903
| 37> H -1.6814101458957464 0.259844762077751 -2.3059543754100167
| 38> *
| 39>
| 40> % eprnmr
| 41> gtensor true
| 42> Nuclei = all H {aiso,adip,aorb,fgrad,rho}
| 43> Nuclei = all V {aiso,adip,aorb,fgrad,rho}
| 44> end
| 45>
| 46>                          ****END OF INPUT****

CARTESIAN COORDINATES (ANGSTROEM)
---------------------------------
  V      0.448061    0.130142    0.139410
  S      0.071772    1.816000   -1.708835
  S     -1.345141    1.387280    1.212662
  S      0.556358   -1.651501   -1.584123
  S     -0.042389   -1.877040    1.543752
  O      1.873135    0.634689    0.675483
  C     -1.522936    0.726036    2.945860
  C     -0.027683   -1.333304    3.317156
  C     -0.225600    0.169488    3.556731
  H      0.930392   -1.645741    3.774776
  H     -0.832504   -1.887509    3.841364
  H      0.635074    0.722919    3.151698
  H     -0.235159    0.342083    4.654055
  H     -2.301869   -0.055803    2.963694
  H     -1.886311    1.566508    3.559841
  C     -0.981483    0.859301   -2.890578
  C      0.964272   -0.806878   -3.178104
  C     -0.196170   -0.057034   -3.839565
  H      1.341330   -1.571168   -3.869041
  H      1.770830   -0.099062   -2.985104
  H     -0.895416   -0.781505   -4.286504
  H      0.215151    0.544597   -4.666972
  H     -1.573810    1.570497   -3.478598
  H     -1.680689    0.260045   -2.306053

 Total Charge           Charge          ....   -2
 Multiplicity           Mult            ....    2
 Number of Electrons    NEL             ....  145
 Basis Dimension        Dim             ....  353

ORBITAL ENERGIES
----------------
                 SPIN UP ORBITALS
  NO   OCC          E(Eh)            E(eV)
   0   1.0000    -196.607239     -5349.9550
   1   1.0000     -88.561673     -2409.8856
   2   1.0000     -88.561296     -2409.8754
   3   1.0000     -88.557941     -2409.7841
   4   1.0000     -88.557650     -2409.7762
   5   1.0000     -21.982650      -598.1783
   6   1.0000     -18.824687      -512.2458
   7   1.0000     -18.490452      -503.1508
   8   1.0000     -18.483265      -502.9552
   9   1.0000     -18.483155      -502.9522
  10   1.0000      -9.944692      -270.6088
  11   1.0000      -9.938893      -270.4510
  12   1.0000      -9.934211      -270.3236
  13   1.0000      -9.934206      -270.3235
  14   1.0000      -9.931992      -270.2632
  15   1.0000      -9.930145      -270.2130
  16   1.0000      -7.615492      -207.2281
  17   1.0000      -7.615460      -207.2272
  18   1.0000      -7.612141      -207.1369
  19   1.0000      -7.611967      -207.1322
  20   1.0000      -5.580938      -151.8650
  21   1.0000      -5.580691      -151.8583
  22   1.0000      -5.577624      -151.7749
  23   1.0000      -5.577200      -151.7633
  24   1.0000      -5.574463      -151.6888
  25   1.0000      -5.574293      -151.6842
  26   1.0000      -5.572746      -151.6421
  27   1.0000      -5.572595      -151.6380
  28   1.0000      -5.571218      -151.6005
  29   1.0000      -5.571192      -151.5998
  30   1.0000      -5.569027      -151.5409
  31   1.0000      -5.569024      -151.5408
  32   1.0000      -2.375260       -64.6341
  33   1.0000      -1.417817       -38.5808
  34   1.0000      -1.403368       -38.1876
  35   1.0000      -1.402925       -38.1755
  36   1.0000      -0.587455       -15.9855
  37   1.0000      -0.550693       -14.9851
  38   1.0000      -0.549225       -14.9452
  39   1.0000      -0.467766       -12.7286
  40   1.0000      -0.465676       -12.6717
  41   1.0000      -0.403741       -10.9864
  42   1.0000      -0.394994       -10.7483
  43   1.0000      -0.337514        -9.1842
  44   1.0000      -0.326363        -8.8808
  45   1.0000      -0.305745        -8.3197
  46   1.0000      -0.285788        -7.7767
  47   1.0000      -0.214167        -5.8278
  48   1.0000      -0.206934        -5.6310
  49   1.0000      -0.202525        -5.5110
  50   1.0000      -0.191862        -5.2208
  51   1.0000      -0.160904        -4.3784
  52   1.0000      -0.133989        -3.6460
  53   1.0000      -0.131336        -3.5738
  54   1.0000      -0.111997        -3.0476
  55   1.0000      -0.107790        -2.9331
  56   1.0000      -0.105201        -2.8627
  57   1.0000      -0.082591        -2.2474
  58   1.0000      -0.069149        -1.8816
  59   1.0000      -0.063652        -1.7321
  60   1.0000      -0.056915        -1.5487
  61   1.0000      -0.045389        -1.2351
  62   1.0000      -0.040887        -1.1126
  63   1.0000      -0.034592        -0.9413
  64   1.0000      -0.000301        -0.0082
  65   1.0000       0.027054         0.7362
  66   1.0000       0.030943         0.8420
  67   1.0000       0.035148         0.9564
  68   1.0000       0.045538         1.2392
  69   1.0000       0.053918         1.4672
  70   1.0000       0.064481         1.7546
  71   1.0000       0.073298         1.9945
  72   1.0000       0.081706         2.2233
  73   0.0000       0.233532         6.3547
  74   0.0000       0.246326         6.7029
  75   0.0000       0.249061         6.7773
  76   0.0000       0.250808         6.8248
  77   0.0000       0.258445         7.0326

                 SPIN DOWN ORBITALS
  NO   OCC          E(Eh)            E(eV)
   0   1.0000    -196.607380     -5349.9588
   1   1.0000     -88.561846     -2409.8904
   2   1.0000     -88.561458     -2409.8798
   3   1.0000     -88.558052     -2409.7871
   4   1.0000     -88.557610     -2409.7751
   5   1.0000     -21.967586      -597.7684
   6   1.0000     -18.828184      -512.3409
   7   1.0000     -18.485236      -503.0088
   8   1.0000     -18.467243      -502.5192
   9   1.0000     -18.466632      -502.5026
  10   1.0000      -9.944513      -270.6039
  11   1.0000      -9.938752      -270.4472
  12   1.0000      -9.934164      -270.3223
  13   1.0000      -9.934041      -270.3190
  14   1.0000      -9.931949      -270.2621
  15   1.0000      -9.930164      -270.2135
  16   1.0000      -7.615645      -207.2322
  17   1.0000      -7.615629      -207.2318
  18   1.0000      -7.612245      -207.1397
  19   1.0000      -7.611931      -207.1312
  20   1.0000      -5.581105      -151.8696
  21   1.0000      -5.580844      -151.8625
  22   1.0000      -5.577752      -151.7784
  23   1.0000      -5.577206      -151.7635
  24   1.0000      -5.574886      -151.7004
  25   1.0000      -5.574747      -151.6966
  26   1.0000      -5.572868      -151.6454
  27   1.0000      -5.572715      -151.6413
  28   1.0000      -5.571626      -151.6117
  29   1.0000      -5.571524      -151.6089
  30   1.0000      -5.568970      -151.5394
  31   1.0000      -5.568516      -151.5270
  32   1.0000      -2.330295       -63.4106
  33   1.0000      -1.398783       -38.0628
  34   1.0000      -1.341876       -36.5143
  35   1.0000      -1.339789       -36.4575
  36   1.0000      -0.594958       -16.1896
  37   1.0000      -0.550547       -14.9811
  38   1.0000      -0.549125       -14.9424
  39   1.0000      -0.467705       -12.7269
  40   1.0000      -0.465567       -12.6687
  41   1.0000      -0.403769       -10.9871
  42   1.0000      -0.395173       -10.7532
  43   1.0000      -0.337639        -9.1876
  44   1.0000      -0.326765        -8.8917
  45   1.0000      -0.305694        -8.3184
  46   1.0000      -0.285790        -7.7767
  47   1.0000      -0.214110        -5.8262
  48   1.0000      -0.206866        -5.6291
  49   1.0000      -0.202413        -5.5079
  50   1.0000      -0.191642        -5.2148
  51   1.0000      -0.160773        -4.3749
  52   1.0000      -0.133842        -3.6420
  53   1.0000      -0.131072        -3.5666
  54   1.0000      -0.111989        -3.0474
  55   1.0000      -0.107729        -2.9315
  56   1.0000      -0.105059        -2.8588
  57   1.0000      -0.081463        -2.2167
  58   1.0000      -0.067042        -1.8243
  59   1.0000      -0.062780        -1.7083
  60   1.0000      -0.057025        -1.5517
  61   1.0000      -0.046477        -1.2647
  62   1.0000      -0.041673        -1.1340
  63   1.0000      -0.035717        -0.9719
  64   1.0000       0.004284         0.1166
  65   1.0000       0.028216         0.7678
  66   1.0000       0.033580         0.9138
  67   1.0000       0.044494         1.2108
  68   1.0000       0.046030         1.2525
  69   1.0000       0.063432         1.7261
  70   1.0000       0.066622         1.8129
  71   1.0000       0.075825         2.0633
  72   0.0000       0.232991         6.3400
  73   0.0000       0.249774         6.7967
  74   0.0000       0.254872         6.9354
  75   0.0000       0.260506         7.0887
  76   0.0000       0.264354         7.1934

MULLIKEN ATOMIC CHARGES AND SPIN POPULATIONS
--------------------------------------------
   0 V :    0.531222    1.191502
   1 S :   -0.424459    0.000492
   2 S :   -0.352090   -0.032885
   3 S :   -0.406066   -0.029231
   4 S :   -0.386594   -0.023168
   5 O :   -0.548661   -0.134858
   6 C :   -0.242339    0.006089
   7 C :   -0.234036    0.006138
   8 C :   -0.159596    0.003619
   9 H :    0.069230   -0.000886
  10 H :    0.047878    0.002075
  11 H :    0.150296    0.000765
  12 H :    0.003786    0.000194
  13 H :    0.083996   -0.000140
  14 H :    0.050730    0.000214
  15 C :   -0.258260   -0.002614
  16 C :   -0.251450    0.002914
  17 C :   -0.070400    0.008358
  18 H :    0.047586   -0.000277
  19 H :    0.128063   -0.000022
  20 H :    0.016157    0.001644
  21 H :    0.012239    0.000008
  22 H :    0.052058   -0.000544
  23 H :    0.140711    0.000612
Sum of atomic charges         :   -2.0000000

LOEWDIN ATOMIC CHARGES AND SPIN POPULATIONS
-------------------------------------------
   0 V :   -0.207265    1.148685
   1 S :   -0.069733    0.005691
   2 S :   -0.037878   -0.022177
   3 S :   -0.058782   -0.020638
   4 S :   -0.070644   -0.013930
   5 O :   -0.379122   -0.121603
   6 C :   -0.323138    0.005508
   7 C :   -0.316002    0.006899
   8 C :   -0.188554    0.000581
   9 H :    0.034012   -0.000174
  10 H :    0.029339    0.000686
  11 H :    0.075931    0.000444
  12 H :    0.031866    0.000161
  13 H :    0.043945   -0.000026
  14 H :    0.028854   -0.000452
  15 C :   -0.318124    0.002202
  16 C :   -0.326040    0.007082
  17 C :   -0.188696    0.001225
  18 H :    0.028377   -0.000287
  19 H :    0.053419   -0.000629
  20 H :    0.036484    0.000587
  21 H :    0.034850    0.000384
  22 H :    0.030421   -0.000590
  23 H :    0.056482    0.000372

  Mayer bond orders larger than 0.100000
B(  0-V ,  1-S ) :   0.7104 B(  0-V ,  2-S ) :   0.8631 B(  0-V ,  3-S ) :   0.7724
B(  0-V ,  4-S ) :   0.7681 B(  0-V ,  5-O ) :   2.0640 B(  1-S , 15-C ) :   1.0283
B(  2-S ,  6-C ) :   1.0102 B(  3-S , 16-C ) :   1.0271 B(  4-S ,  7-C ) :   1.0671
B(  6-C ,  8-C ) :   0.9044 B(  6-C , 13-H ) :   0.9701 B(  6-C , 14-H ) :   0.9712
B(  7-C ,  8-C ) :   0.9213 B(  7-C ,  9-H ) :   0.9732 B(  7-C , 10-H ) :   0.9655
B(  8-C , 11-H ) :   0.9827 B(  8-C , 12-H ) :   0.9423 B( 15-C , 17-C ) :   0.8958
B( 15-C , 22-H ) :   0.9685 B( 15-C , 23-H ) :   0.9803 B( 16-C , 17-C ) :   0.9029
B( 16-C , 18-H ) :   0.9637 B( 16-C , 19-H ) :   0.9754 B( 17-C , 20-H ) :   0.9584
B( 17-C , 21-H ) :   0.9594

FINAL SINGLE POINT ENERGY     -2847.717095417030

DIPOLE MOMENT
-------------
                                X             Y             Z
Electronic contribution:      5.86324       1.51345       0.45595
Nuclear contribution   :     -6.25592      -1.55312      -0.28772
                        -----------------------------------------
Total Dipole Moment    :     -0.39267      -0.03967       0.16823
                        -----------------------------------------
Magnitude (a.u.)       :      0.42903
Magnitude (Debye)      :      1.09051

Rotational constants in cm-1:     0.027025     0.011800     0.009630
Rotational constants in MHz :   810.184504   353.753204   288.709324

                             ****ORCA TERMINATED NORMALLY****
TOTAL RUN TIME: 0 days 0 hours 10 minutes 35 seconds 436 msec
