                         Program Version 5.0.4 -  RELEASE  -
|  1> ! nofrozencore ReducedPop printbasis
|  2> ! B3LYP TZVP
|  3>
|  4> %basis
|  5> newgto V "CP(PPP)" end
|  6> end
|  7>
|  8> %pal
|  9> nprocs 4
| 10> end
| 11>
| 12> % sym SymThresh 1e-2 end
| 13> * xyz -2 2
| 14> V -0.23169385219204763 -0.3990253917986079 -0.17197107050134056
| 15> S -2.168622075383349 1.2198425577964331 0.020166687622708904
| 16> S 0.47574633198209776 1.2043929867116503 -1.880640287534639
| 17> S -0.16283981582568102 -0.5392941360257494 2.305897826868333
| 18> S 2.1279550498913644 -1.1384600514608192 0.10784973559387692
| 19> O -0.9587924610036193 -1.6568295918553477 -0.8440401443895102
| 20> C 2.0741266261431166 0.61131874806537 -2.614161576701402
| 21> C 2.776644183995267 -1.6751975229531821 -1.5534182678241488
| 22> C 2.1496494870509752 -0.945126634764773 -2.8058322770888657
| 23> H 2.2843409699725803 -2.685400473562058 -1.732706814321282
| 24> H 3.7956483029414962 -1.173969735495227 -1.5424863893660798
| 25> H 1.0333938307930126 -1.1814453879390316 -2.691917553372973
| 26> H 3.014612039519567 -1.0494314232208795 -3.5389889437455544
| 27> H 2.8906722728775422 0.8763111197509036 -1.9259619415071265
| 28> H 2.098462653806487 1.0158901373519438 -3.635989111604088
| 29> C -1.7254092696244945 2.164863224016544 1.546630045449965
| 30> C -1.8481972600771217 -0.035988547482303665 2.880002043643638
| 31> C -2.1256576252348602 1.470677862172404 2.8551519813755797
| 32> H -1.9732632434532154 -0.40941807477511166 3.9036972218940003
| 33> H -2.5787899644310595 -0.5354977453335785 2.2438967728017944
| 34> H -1.5919103927558627 1.956301270082142 3.687187079117342
| 35> H -3.20342995442901 1.6211486437203628 3.0295482081603486
| 36> H -2.206801165213515 3.148500429563341 1.4953871048015386
| 37> H -0.6473026687649703 2.3278294145300205 1.5400027756012546
| 38> *
| 39>
| 40> % eprnmr
| 41> gtensor true
| 42> Nuclei = all H {aiso,adip,aorb,fgrad,rho}
| 43> Nuclei = all V {aiso,adip,aorb,fgrad,rho}
| 44> end
| 45>
| 46>                          ****END OF INPUT****

CARTESIAN COORDINATES (ANGSTROEM)
---------------------------------
  V     -0.232241   -0.399542   -0.172029
  S     -2.169170    1.219326    0.020109
  S      0.475199    1.203876   -1.880698
  S     -0.163387   -0.539811    2.305840
  S      2.127408   -1.138977    0.107792
  O     -0.959340   -1.657346   -0.844098
  C      2.073579    0.610802   -2.614219
  C      2.776097   -1.675714   -1.553476
  C      2.149102   -0.945644   -2.805890
  H      2.283793   -2.685917   -1.732765
  H      3.795101   -1.174487   -1.542544
  H      1.032846   -1.181962   -2.691975
  H      3.014065   -1.049948   -3.539047
  H      2.890125    0.875794   -1.926020
  H      2.097915    1.015373   -3.636047
  C     -1.725957    2.164346    1.546572
  C     -1.848745   -0.036505    2.879944
  C     -2.126205    1.470161    2.855094
  H     -1.973811   -0.409935    3.903639
  H     -2.579337   -0.536015    2.243839
  H     -1.592458    1.955784    3.687129
  H     -3.203977    1.620632    3.029490
  H     -2.207349    3.147984    1.495329
  H     -0.647850    2.327313    1.539945

 Total Charge           Charge          ....   -2
 Multiplicity           Mult            ....    2
 Number of Electrons    NEL             ....  145
 Basis Dimension        Dim             ....  353

ORBITAL ENERGIES
----------------
                 SPIN UP ORBITALS
  NO   OCC          E(Eh)            E(eV)
   0   1.0000    -196.608371     -5349.9858
   1   1.0000     -88.562413     -2409.9058
   2   1.0000     -88.562337     -2409.9037
   3   1.0000     -88.559253     -2409.8198
   4   1.0000     -88.558439     -2409.7976
   5   1.0000     -21.983659      -598.2058
   6   1.0000     -18.827527      -512.3231
   7   1.0000     -18.491503      -503.1794
   8   1.0000     -18.484235      -502.9816
   9   1.0000     -18.484164      -502.9797
  10   1.0000      -9.953257      -270.8419
  11   1.0000      -9.936664      -270.3904
  12   1.0000      -9.935654      -270.3629
  13   1.0000      -9.934919      -270.3429
  14   1.0000      -9.934828      -270.3404
  15   1.0000      -9.932527      -270.2778
  16   1.0000      -7.616481      -207.2550
  17   1.0000      -7.616293      -207.2499
  18   1.0000      -7.613650      -207.1780
  19   1.0000      -7.612747      -207.1534
  20   1.0000      -5.581668      -151.8849
  21   1.0000      -5.581563      -151.8821
  22   1.0000      -5.578827      -151.8076
  23   1.0000      -5.577997      -151.7850
  24   1.0000      -5.575472      -151.7163
  25   1.0000      -5.575167      -151.7080
  26   1.0000      -5.573728      -151.6688
  27   1.0000      -5.573543      -151.6638
  28   1.0000      -5.572794      -151.6434
  29   1.0000      -5.571972      -151.6211
  30   1.0000      -5.570716      -151.5869
  31   1.0000      -5.569810      -151.5622
  32   1.0000      -2.376487       -64.6675
  33   1.0000      -1.419534       -38.6275
  34   1.0000      -1.404465       -38.2174
  35   1.0000      -1.404066       -38.2066
  36   1.0000      -0.590459       -16.0672
  37   1.0000      -0.551576       -15.0092
  38   1.0000      -0.548464       -14.9245
  39   1.0000      -0.467153       -12.7119
  40   1.0000      -0.465620       -12.6702
  41   1.0000      -0.403852       -10.9894
  42   1.0000      -0.392243       -10.6735
  43   1.0000      -0.337829        -9.1928
  44   1.0000      -0.324426        -8.8281
  45   1.0000      -0.289991        -7.8910
  46   1.0000      -0.281760        -7.6671
  47   1.0000      -0.231392        -6.2965
  48   1.0000      -0.214952        -5.8492
  49   1.0000      -0.203586        -5.5399
  50   1.0000      -0.202000        -5.4967
  51   1.0000      -0.173650        -4.7253
  52   1.0000      -0.134500        -3.6599
  53   1.0000      -0.132367        -3.6019
  54   1.0000      -0.108555        -2.9539
  55   1.0000      -0.096563        -2.6276
  56   1.0000      -0.076572        -2.0836
  57   1.0000      -0.071449        -1.9442
  58   1.0000      -0.068821        -1.8727
  59   1.0000      -0.066103        -1.7988
  60   1.0000      -0.057481        -1.5641
  61   1.0000      -0.048592        -1.3222
  62   1.0000      -0.039669        -1.0794
  63   1.0000      -0.034271        -0.9326
  64   1.0000      -0.000875        -0.0238
  65   1.0000       0.026009         0.7077
  66   1.0000       0.030406         0.8274
  67   1.0000       0.036372         0.9897
  68   1.0000       0.045125         1.2279
  69   1.0000       0.052347         1.4244
  70   1.0000       0.062771         1.7081
  71   1.0000       0.071515         1.9460
  72   1.0000       0.079819         2.1720
  73   0.0000       0.233083         6.3425
  74   0.0000       0.242262         6.5923
  75   0.0000       0.245326         6.6756
  76   0.0000       0.248598         6.7647
  77   0.0000       0.258106         7.0234

                 SPIN DOWN ORBITALS
  NO   OCC          E(Eh)            E(eV)
   0   1.0000    -196.608512     -5349.9896
   1   1.0000     -88.562590     -2409.9106
   2   1.0000     -88.562498     -2409.9081
   3   1.0000     -88.559360     -2409.8227
   4   1.0000     -88.558412     -2409.7969
   5   1.0000     -21.968661      -597.7977
   6   1.0000     -18.830927      -512.4156
   7   1.0000     -18.486338      -503.0388
   8   1.0000     -18.468204      -502.5454
   9   1.0000     -18.467765      -502.5334
  10   1.0000      -9.953074      -270.8369
  11   1.0000      -9.936667      -270.3905
  12   1.0000      -9.935528      -270.3595
  13   1.0000      -9.934862      -270.3413
  14   1.0000      -9.934656      -270.3357
  15   1.0000      -9.932485      -270.2767
  16   1.0000      -7.616635      -207.2592
  17   1.0000      -7.616466      -207.2546
  18   1.0000      -7.613752      -207.1807
  19   1.0000      -7.612722      -207.1527
  20   1.0000      -5.581822      -151.8891
  21   1.0000      -5.581734      -151.8867
  22   1.0000      -5.578960      -151.8112
  23   1.0000      -5.578013      -151.7854
  24   1.0000      -5.575897      -151.7279
  25   1.0000      -5.575616      -151.7202
  26   1.0000      -5.573848      -151.6721
  27   1.0000      -5.573682      -151.6676
  28   1.0000      -5.573201      -151.6545
  29   1.0000      -5.572311      -151.6303
  30   1.0000      -5.570647      -151.5850
  31   1.0000      -5.569337      -151.5494
  32   1.0000      -2.331721       -63.4494
  33   1.0000      -1.400684       -38.1146
  34   1.0000      -1.342990       -36.5446
  35   1.0000      -1.341336       -36.4996
  36   1.0000      -0.597690       -16.2640
  37   1.0000      -0.551422       -15.0050
  38   1.0000      -0.548353       -14.9215
  39   1.0000      -0.467052       -12.7091
  40   1.0000      -0.465559       -12.6685
  41   1.0000      -0.403861       -10.9896
  42   1.0000      -0.392460       -10.6794
  43   1.0000      -0.337957        -9.1963
  44   1.0000      -0.324820        -8.8388
  45   1.0000      -0.289868        -7.8877
  46   1.0000      -0.281752        -7.6669
  47   1.0000      -0.231323        -6.2946
  48   1.0000      -0.214892        -5.8475
  49   1.0000      -0.203447        -5.5361
  50   1.0000      -0.201939        -5.4950
  51   1.0000      -0.173537        -4.7222
  52   1.0000      -0.134343        -3.6557
  53   1.0000      -0.132096        -3.5945
  54   1.0000      -0.108491        -2.9522
  55   1.0000      -0.096276        -2.6198
  56   1.0000      -0.076207        -2.0737
  57   1.0000      -0.069566        -1.8930
  58   1.0000      -0.067697        -1.8421
  59   1.0000      -0.065221        -1.7748
  60   1.0000      -0.057733        -1.5710
  61   1.0000      -0.049759        -1.3540
  62   1.0000      -0.041260        -1.1228
  63   1.0000      -0.033856        -0.9213
  64   1.0000       0.004075         0.1109
  65   1.0000       0.027321         0.7434
  66   1.0000       0.033257         0.9050
  67   1.0000       0.043704         1.1892
  68   1.0000       0.046853         1.2749
  69   1.0000       0.059693         1.6243
  70   1.0000       0.067420         1.8346
  71   1.0000       0.072978         1.9858
  72   0.0000       0.229110         6.2344
  73   0.0000       0.247468         6.7339
  74   0.0000       0.250698         6.8219
  75   0.0000       0.259926         7.0729
  76   0.0000       0.263834         7.1793

MULLIKEN ATOMIC CHARGES AND SPIN POPULATIONS
--------------------------------------------
   0 V :    0.510596    1.188799
   1 S :   -0.425437   -0.001355
   2 S :   -0.354503   -0.033253
   3 S :   -0.407607   -0.029557
   4 S :   -0.382311   -0.022883
   5 O :   -0.549607   -0.131165
   6 C :   -0.211912    0.006062
   7 C :   -0.229092    0.008555
   8 C :   -0.280916    0.004883
   9 H :    0.100192   -0.001640
  10 H :    0.061180    0.001508
  11 H :    0.206892   -0.000023
  12 H :    0.006561   -0.000672
  13 H :    0.082647   -0.000099
  14 H :    0.051144   -0.000120
  15 C :   -0.257465   -0.002131
  16 C :   -0.253552    0.003301
  17 C :   -0.069527    0.008477
  18 H :    0.048051   -0.000093
  19 H :    0.131344   -0.000192
  20 H :    0.016003    0.001623
  21 H :    0.013306    0.000089
  22 H :    0.052992   -0.000571
  23 H :    0.141023    0.000456
Sum of atomic charges         :   -2.0000000

LOEWDIN ATOMIC CHARGES AND SPIN POPULATIONS
-------------------------------------------
   0 V :   -0.223264    1.145075
   1 S :   -0.070978    0.004075
   2 S :   -0.038194   -0.022754
   3 S :   -0.059374   -0.020681
   4 S :   -0.070345   -0.013057
   5 O :   -0.379280   -0.118056
   6 C :   -0.340559    0.005131
   7 C :   -0.349082    0.007576
   8 C :   -0.229480    0.001557
   9 H :    0.069396   -0.000147
  10 H :    0.053115    0.000195
  11 H :    0.102062    0.000778
  12 H :    0.049886   -0.000073
  13 H :    0.046269   -0.000103
  14 H :    0.029979   -0.000561
  15 C :   -0.317465    0.002726
  16 C :   -0.325254    0.007207
  17 C :   -0.188751    0.001175
  18 H :    0.028511   -0.000217
  19 H :    0.054108   -0.000612
  20 H :    0.036365    0.000624
  21 H :    0.035313    0.000394
  22 H :    0.030581   -0.000597
  23 H :    0.056440    0.000345

  Mayer bond orders larger than 0.100000
B(  0-V ,  1-S ) :   0.7119 B(  0-V ,  2-S ) :   0.8666 B(  0-V ,  3-S ) :   0.7735
B(  0-V ,  4-S ) :   0.7762 B(  0-V ,  5-O ) :   2.0588 B(  1-S , 15-C ) :   1.0245
B(  2-S ,  6-C ) :   1.0012 B(  3-S , 16-C ) :   1.0227 B(  4-S ,  7-C ) :   1.0868
B(  6-C ,  8-C ) :   0.8823 B(  6-C , 13-H ) :   0.9569 B(  6-C , 14-H ) :   0.9783
B(  7-C ,  8-C ) :   0.8906 B(  7-C ,  9-H ) :   0.9731 B(  7-C , 10-H ) :   0.9621
B(  8-C , 11-H ) :   0.9598 B(  8-C , 12-H ) :   0.9576 B( 15-C , 17-C ) :   0.8955
B( 15-C , 22-H ) :   0.9687 B( 15-C , 23-H ) :   0.9794 B( 16-C , 17-C ) :   0.9031
B( 16-C , 18-H ) :   0.9640 B( 16-C , 19-H ) :   0.9758 B( 17-C , 20-H ) :   0.9583
B( 17-C , 21-H ) :   0.9597

FINAL SINGLE POINT ENERGY     -2847.655500102528

DIPOLE MOMENT
-------------
                                X             Y             Z
Electronic contribution:     -3.49134      -5.13630      -1.52444
Nuclear contribution   :      3.78099       5.46446       1.54649
                        -----------------------------------------
Total Dipole Moment    :      0.28965       0.32816       0.02205
                        -----------------------------------------
Magnitude (a.u.)       :      0.43826
Magnitude (Debye)      :      1.11397

Rotational constants in cm-1:     0.027195     0.011718     0.009599
Rotational constants in MHz :   815.300358   351.303322   287.777772

                             ****ORCA TERMINATED NORMALLY****
TOTAL RUN TIME: 0 days 0 hours 14 minutes 24 seconds 392 msec
