                         Program Version 5.0.4 -  RELEASE  -
|  1> ! nofrozencore ReducedPop printbasis
|  2> ! B3LYP TZVP
|  3>
|  4> %basis
|  5> newgto V "CP(PPP)" end
|  6> end
|  7>
|  8> %pal
|  9> nprocs 8
| 10> end
| 11>
| 12> % sym SymThresh 1e-2 end
| 13> * xyz -2 2
| 14> V 0.17605453252097034 -0.28379809980987064 0.36120057301882746
| 15> S 1.9499434126478874 1.517582976964561 0.2781954772592293
| 16> S -1.199438690773355 1.6006422132462532 1.1016027286581291
| 17> S 1.0225530937199288 -1.1533523413874547 -1.801542122832791
| 18> S -1.8701516506901537 -1.4736236732908459 -0.4053624241055006
| 19> O 0.6809694921561614 -1.1427508332136906 1.6167727783581698
| 20> C -2.914998030365283 0.966699974633325 1.4301635583888475
| 21> C -3.029942993634208 -1.5715309729346956 1.0369687564801082
| 22> C -2.9547700143920776 -0.4305207152238039 2.061722774569516
| 23> H -2.8653556738320054 -2.514609947328111 1.572144694395286
| 24> H -4.037456655752553 -1.6195903460540084 0.6043987084020446
| 25> H -2.0745058502871 -0.5559315786041676 2.697536744913639
| 26> H -3.8407060498387326 -0.5221846733740964 2.716247787246102
| 27> H -3.473589165276177 0.981976102686497 0.48897412023908643
| 28> H -3.3782903221046454 1.6879522843365713 2.1133126292186497
| 29> C 2.005696299254586 1.8751672038715455 -1.5046952376524716
| 30> C 2.744001296458285 -0.5795549008357046 -1.8997637181677536
| 31> C 2.9613102726674727 0.9324204597488235 -2.356896478697122
| 32> H 3.485792133779939 -0.9364324510192041 -2.727839251365458
| 33> H 3.298962541663834 -0.7887097789985146 -0.976413289033394
| 34> H 2.710047953045925 1.1616733496937153 -3.4124972944680807
| 35> H 4.0560466422766845 1.089808363424821 -2.247475121932018
| 36> H 2.5271145741550707 2.81849725952239 -1.9337266870493381
| 37> H 0.9953365291316011 1.9446141939602348 -1.9287696244346144
| 38> *
| 39>
| 40> % eprnmr
| 41> gtensor true
| 42> Nuclei = all H {aiso,adip,aorb,fgrad,rho}
| 43> Nuclei = all V {aiso,adip,aorb,fgrad,rho}
| 44> end
| 45>
| 46>                          ****END OF INPUT****

CARTESIAN COORDINATES (ANGSTROEM)
---------------------------------
  V      0.176572   -0.284171    0.361604
  S      1.950461    1.517210    0.278599
  S     -1.198921    1.600269    1.102006
  S      1.023071   -1.153725   -1.801139
  S     -1.869634   -1.473997   -0.404959
  O      0.681487   -1.143124    1.617176
  C     -2.914480    0.966327    1.430567
  C     -3.029425   -1.571904    1.037372
  C     -2.954252   -0.430894    2.062126
  H     -2.864838   -2.514983    1.572548
  H     -4.036939   -1.619963    0.604802
  H     -2.073988   -0.556305    2.697940
  H     -3.840188   -0.522558    2.716651
  H     -3.473071    0.981603    0.489377
  H     -3.377772    1.687579    2.113716
  C      2.006214    1.874794   -1.504292
  C      2.744519   -0.579928   -1.899360
  C      2.961828    0.932047   -2.356493
  H      3.486310   -0.936806   -2.727436
  H      3.299480   -0.789083   -0.976010
  H      2.710566    1.161300   -3.412094
  H      4.056565    1.089435   -2.247072
  H      2.527632    2.818124   -1.933323
  H      0.995854    1.944241   -1.928366

 Total Charge           Charge          ....   -2
 Multiplicity           Mult            ....    2
 Number of Electrons    NEL             ....  145
 Basis Dimension        Dim             ....  353

ORBITAL ENERGIES
----------------
                 SPIN UP ORBITALS
  NO   OCC          E(Eh)            E(eV)
   0   1.0000    -196.610547     -5350.0450
   1   1.0000     -88.566583     -2410.0192
   2   1.0000     -88.563019     -2409.9223
   3   1.0000     -88.562330     -2409.9035
   4   1.0000     -88.561755     -2409.8879
   5   1.0000     -21.985660      -598.2602
   6   1.0000     -18.828140      -512.3397
   7   1.0000     -18.493464      -503.2327
   8   1.0000     -18.486276      -503.0372
   9   1.0000     -18.486180      -503.0345
  10   1.0000      -9.945181      -270.6221
  11   1.0000      -9.942251      -270.5424
  12   1.0000      -9.941287      -270.5162
  13   1.0000      -9.937938      -270.4250
  14   1.0000      -9.937218      -270.4054
  15   1.0000      -9.931701      -270.2553
  16   1.0000      -7.620824      -207.3732
  17   1.0000      -7.616836      -207.2646
  18   1.0000      -7.616643      -207.2594
  19   1.0000      -7.616043      -207.2431
  20   1.0000      -5.586106      -152.0057
  21   1.0000      -5.582228      -151.9001
  22   1.0000      -5.581967      -151.8930
  23   1.0000      -5.581445      -151.8788
  24   1.0000      -5.579793      -151.8339
  25   1.0000      -5.577949      -151.7837
  26   1.0000      -5.575875      -151.7273
  27   1.0000      -5.575686      -151.7221
  28   1.0000      -5.575110      -151.7064
  29   1.0000      -5.574022      -151.6769
  30   1.0000      -5.573629      -151.6662
  31   1.0000      -5.572984      -151.6486
  32   1.0000      -2.378423       -64.7202
  33   1.0000      -1.421086       -38.6697
  34   1.0000      -1.406546       -38.2741
  35   1.0000      -1.406086       -38.2616
  36   1.0000      -0.590547       -16.0696
  37   1.0000      -0.553168       -15.0525
  38   1.0000      -0.539764       -14.6877
  39   1.0000      -0.471472       -12.8294
  40   1.0000      -0.461505       -12.5582
  41   1.0000      -0.408013       -11.1026
  42   1.0000      -0.399728       -10.8772
  43   1.0000      -0.342286        -9.3141
  44   1.0000      -0.330270        -8.9871
  45   1.0000      -0.306846        -8.3497
  46   1.0000      -0.282935        -7.6990
  47   1.0000      -0.208766        -5.6808
  48   1.0000      -0.200315        -5.4508
  49   1.0000      -0.197114        -5.3637
  50   1.0000      -0.175777        -4.7831
  51   1.0000      -0.164971        -4.4891
  52   1.0000      -0.148771        -4.0483
  53   1.0000      -0.133791        -3.6406
  54   1.0000      -0.114574        -3.1177
  55   1.0000      -0.108657        -2.9567
  56   1.0000      -0.090616        -2.4658
  57   1.0000      -0.078763        -2.1432
  58   1.0000      -0.067140        -1.8270
  59   1.0000      -0.064981        -1.7682
  60   1.0000      -0.050882        -1.3846
  61   1.0000      -0.050009        -1.3608
  62   1.0000      -0.044283        -1.2050
  63   1.0000      -0.041769        -1.1366
  64   1.0000      -0.003142        -0.0855
  65   1.0000       0.024372         0.6632
  66   1.0000       0.028011         0.7622
  67   1.0000       0.033431         0.9097
  68   1.0000       0.042592         1.1590
  69   1.0000       0.052862         1.4384
  70   1.0000       0.062145         1.6911
  71   1.0000       0.070298         1.9129
  72   1.0000       0.078729         2.1423
  73   0.0000       0.231439         6.2978
  74   0.0000       0.241973         6.5844
  75   0.0000       0.247029         6.7220
  76   0.0000       0.250286         6.8106
  77   0.0000       0.253563         6.8998

                 SPIN DOWN ORBITALS
  NO   OCC          E(Eh)            E(eV)
   0   1.0000    -196.610689     -5350.0488
   1   1.0000     -88.566732     -2410.0233
   2   1.0000     -88.563198     -2409.9271
   3   1.0000     -88.562286     -2409.9023
   4   1.0000     -88.561861     -2409.8908
   5   1.0000     -21.970615      -597.8508
   6   1.0000     -18.831619      -512.4344
   7   1.0000     -18.488261      -503.0912
   8   1.0000     -18.470220      -502.6002
   9   1.0000     -18.469726      -502.5868
  10   1.0000      -9.944997      -270.6171
  11   1.0000      -9.942077      -270.5377
  12   1.0000      -9.941234      -270.5147
  13   1.0000      -9.937894      -270.4238
  14   1.0000      -9.937089      -270.4019
  15   1.0000      -9.931721      -270.2559
  16   1.0000      -7.620965      -207.3770
  17   1.0000      -7.617010      -207.2694
  18   1.0000      -7.616603      -207.2583
  19   1.0000      -7.616143      -207.2458
  20   1.0000      -5.586246      -152.0095
  21   1.0000      -5.582395      -151.9047
  22   1.0000      -5.581969      -151.8931
  23   1.0000      -5.581570      -151.8822
  24   1.0000      -5.580193      -151.8448
  25   1.0000      -5.578057      -151.7867
  26   1.0000      -5.576189      -151.7358
  27   1.0000      -5.576147      -151.7347
  28   1.0000      -5.575521      -151.7176
  29   1.0000      -5.574158      -151.6806
  30   1.0000      -5.573124      -151.6524
  31   1.0000      -5.572911      -151.6466
  32   1.0000      -2.333515       -63.4982
  33   1.0000      -1.402076       -38.1524
  34   1.0000      -1.344986       -36.5989
  35   1.0000      -1.343173       -36.5496
  36   1.0000      -0.598003       -16.2725
  37   1.0000      -0.553071       -15.0498
  38   1.0000      -0.539629       -14.6840
  39   1.0000      -0.471422       -12.8281
  40   1.0000      -0.461402       -12.5554
  41   1.0000      -0.408030       -11.1031
  42   1.0000      -0.399893       -10.8816
  43   1.0000      -0.342368        -9.3163
  44   1.0000      -0.330695        -8.9987
  45   1.0000      -0.306829        -8.3492
  46   1.0000      -0.282897        -7.6980
  47   1.0000      -0.208705        -5.6792
  48   1.0000      -0.200118        -5.4455
  49   1.0000      -0.197050        -5.3620
  50   1.0000      -0.175588        -4.7780
  51   1.0000      -0.164857        -4.4860
  52   1.0000      -0.148584        -4.0432
  53   1.0000      -0.133670        -3.6373
  54   1.0000      -0.114541        -3.1168
  55   1.0000      -0.108505        -2.9526
  56   1.0000      -0.089177        -2.4266
  57   1.0000      -0.077666        -2.1134
  58   1.0000      -0.066190        -1.8011
  59   1.0000      -0.064131        -1.7451
  60   1.0000      -0.051588        -1.4038
  61   1.0000      -0.050249        -1.3674
  62   1.0000      -0.044837        -1.2201
  63   1.0000      -0.043359        -1.1799
  64   1.0000       0.001657         0.0451
  65   1.0000       0.025312         0.6888
  66   1.0000       0.031036         0.8445
  67   1.0000       0.041761         1.1364
  68   1.0000       0.045300         1.2327
  69   1.0000       0.059593         1.6216
  70   1.0000       0.066848         1.8190
  71   1.0000       0.071925         1.9572
  72   0.0000       0.230340         6.2679
  73   0.0000       0.247092         6.7237
  74   0.0000       0.253381         6.8948
  75   0.0000       0.256212         6.9719
  76   0.0000       0.260927         7.1002

MULLIKEN ATOMIC CHARGES AND SPIN POPULATIONS
--------------------------------------------
   0 V :    0.510702    1.191033
   1 S :   -0.390697    0.001087
   2 S :   -0.351494   -0.033668
   3 S :   -0.368899   -0.027322
   4 S :   -0.383673   -0.022144
   5 O :   -0.544269   -0.134348
   6 C :   -0.248785    0.005592
   7 C :   -0.237352    0.006883
   8 C :   -0.156329    0.002992
   9 H :    0.074883   -0.000967
  10 H :    0.054698    0.002144
  11 H :    0.139381    0.000566
  12 H :    0.006515   -0.000057
  13 H :    0.097918   -0.000125
  14 H :    0.050145   -0.000100
  15 C :   -0.232868   -0.001085
  16 C :   -0.232335    0.004457
  17 C :   -0.090812    0.006044
  18 H :   -0.006891   -0.001488
  19 H :    0.133138   -0.000346
  20 H :    0.018191    0.001444
  21 H :    0.015536    0.000156
  22 H :    0.000375   -0.001293
  23 H :    0.142922    0.000545
Sum of atomic charges         :   -2.0000000

LOEWDIN ATOMIC CHARGES AND SPIN POPULATIONS
-------------------------------------------
   0 V :   -0.205596    1.147588
   1 S :   -0.045735    0.006292
   2 S :   -0.036582   -0.023179
   3 S :   -0.033501   -0.018730
   4 S :   -0.060618   -0.012950
   5 O :   -0.375016   -0.121088
   6 C :   -0.325777    0.005106
   7 C :   -0.313268    0.007144
   8 C :   -0.186513    0.000463
   9 H :    0.036208   -0.000006
  10 H :    0.030032    0.000638
  11 H :    0.070714    0.000310
  12 H :    0.031908    0.000144
  13 H :    0.045999   -0.000080
  14 H :    0.028152   -0.000551
  15 C :   -0.342373    0.002434
  16 C :   -0.350572    0.006678
  17 C :   -0.199505    0.001218
  18 H :    0.026366   -0.000838
  19 H :    0.051237   -0.000586
  20 H :    0.036642    0.000550
  21 H :    0.035031    0.000240
  22 H :    0.027887   -0.001141
  23 H :    0.054879    0.000345

  Mayer bond orders larger than 0.100000
B(  0-V ,  1-S ) :   0.7065 B(  0-V ,  2-S ) :   0.8630 B(  0-V ,  3-S ) :   0.7671
B(  0-V ,  4-S ) :   0.7807 B(  0-V ,  5-O ) :   2.0732 B(  1-S , 15-C ) :   1.0333
B(  2-S ,  6-C ) :   1.0089 B(  3-S , 16-C ) :   1.0347 B(  4-S ,  7-C ) :   1.0688
B(  6-C ,  8-C ) :   0.9010 B(  6-C , 13-H ) :   0.9755 B(  6-C , 14-H ) :   0.9679
B(  7-C ,  8-C ) :   0.9196 B(  7-C ,  9-H ) :   0.9753 B(  7-C , 10-H ) :   0.9703
B(  8-C , 11-H ) :   0.9869 B(  8-C , 12-H ) :   0.9454 B( 15-C , 17-C ) :   0.8750
B( 15-C , 22-H ) :   0.9443 B( 15-C , 23-H ) :   0.9772 B( 16-C , 17-C ) :   0.8769
B( 16-C , 18-H ) :   0.9412 B( 16-C , 19-H ) :   0.9753 B( 17-C , 20-H ) :   0.9540
B( 17-C , 21-H ) :   0.9586

FINAL SINGLE POINT ENERGY     -2847.681380837002

DIPOLE MOMENT
-------------
                                X             Y             Z
Electronic contribution:      2.62832      -3.73184       4.51464
Nuclear contribution   :     -3.23380       3.85582      -4.46606
                        -----------------------------------------
Total Dipole Moment    :     -0.60549       0.12398       0.04858
                        -----------------------------------------
Magnitude (a.u.)       :      0.61996
Magnitude (Debye)      :      1.57580

Rotational constants in cm-1:     0.027220     0.011695     0.009596
Rotational constants in MHz :   816.035447   350.618262   287.677974

                             ****ORCA TERMINATED NORMALLY****
TOTAL RUN TIME: 0 days 0 hours 9 minutes 37 seconds 176 msec
