                         Program Version 5.0.4 -  RELEASE  -
|  1> ! nofrozencore ReducedPop printbasis
|  2> ! B3LYP TZVP
|  3>
|  4> %basis
|  5> newgto V "CP(PPP)" end
|  6> end
|  7>
|  8> %pal
|  9> nprocs 8
| 10> end
| 11>
| 12> % sym SymThresh 1e-2 end
| 13> * xyz -2 2
| 14> V 0.46994861032329044 -0.08438504140196301 0.11938633305281253
| 15> S -0.15419666478636757 1.7998472635550777 1.7166099105455088
| 16> S -1.170394152092923 -1.2976127341521835 1.4667262380273227
| 17> S 0.42776860158444663 1.6332090714884495 -1.695451527926506
| 18> S 0.0411691952312002 -1.6259243533124748 -1.789589788818216
| 19> O 1.9608099969032584 -0.4440732467348548 0.5831533493727078
| 20> C -1.3162682219030368 -3.03211410979005 0.7807729638341154
| 21> C 0.3110190205387597 -3.3393848059134412 -1.1806837423931775
| 22> C 0.015099895135953178 -3.617368602424458 0.29547437848248265
| 23> H 1.345542778712392 -3.636016902079069 -1.3917851516061173
| 24> H -0.33490302109556014 -3.9857602053490666 -1.789872194216903
| 25> H 0.818489637133589 -3.214294670761721 0.9172867854252158
| 26> H 0.020964449609875167 -4.714210058124249 0.4317180755814079
| 27> H -2.0373809339807485 -3.03143055634124 -0.043031534592307595
| 28> H -1.7270941155548896 -3.6472580164788417 1.589402211712157
| 29> C -1.0454541793696188 2.778906935843218 0.7920041637674969
| 30> C 0.5792399155498772 3.1221511900282066 -0.921456226585519
| 31> C -0.5082686759984831 3.776138157638005 -0.16281837941399685
| 32> H 0.994929562811793 3.842000302063682 -1.646174662739866
| 33> H 1.353805519953191 2.989027099863392 -0.15954032040681268
| 34> H -1.3754598385705576 4.085606443402021 -0.7949082424257169
| 35> H -0.0663591194255291 4.67844242262516 0.3155264399448903
| 36> H -1.8052062759093124 3.2781725293192934 1.4228534720444592
| 37> H -1.6311567054017138 2.1302292581810454 0.1298370247327715
| 38> *
| 39>
| 40> % eprnmr
| 41> gtensor true
| 42> Nuclei = all H {aiso,adip,aorb,fgrad,rho}
| 43> Nuclei = all V {aiso,adip,aorb,fgrad,rho}
| 44> end
| 45>
| 46>                          ****END OF INPUT****

CARTESIAN COORDINATES (ANGSTROEM)
---------------------------------
  V      0.470660   -0.084217    0.119576
  S     -0.153486    1.800015    1.716799
  S     -1.169683   -1.297445    1.466916
  S      0.428480    1.633377   -1.695262
  S      0.041880   -1.625756   -1.789400
  O      1.961521   -0.443905    0.583343
  C     -1.315557   -3.031946    0.780962
  C      0.311730   -3.339217   -1.180494
  C      0.015811   -3.617201    0.295664
  H      1.346254   -3.635849   -1.391596
  H     -0.334192   -3.985592   -1.789683
  H      0.819201   -3.214127    0.917476
  H      0.021676   -4.714042    0.431908
  H     -2.036670   -3.031263   -0.042842
  H     -1.726383   -3.647090    1.589592
  C     -1.044743    2.779075    0.792194
  C      0.579951    3.122319   -0.921267
  C     -0.507558    3.776306   -0.162629
  H      0.995641    3.842168   -1.645985
  H      1.354517    2.989195   -0.159351
  H     -1.374749    4.085774   -0.794719
  H     -0.065648    4.678610    0.315716
  H     -1.804495    3.278340    1.423043
  H     -1.630446    2.130397    0.130027

 Total Charge           Charge          ....   -2
 Multiplicity           Mult            ....    2
 Number of Electrons    NEL             ....  145
 Basis Dimension        Dim             ....  353

ORBITAL ENERGIES
----------------
                 SPIN UP ORBITALS
  NO   OCC          E(Eh)            E(eV)
   0   1.0000    -196.607496     -5349.9619
   1   1.0000     -88.562507     -2409.9083
   2   1.0000     -88.558819     -2409.8080
   3   1.0000     -88.554164     -2409.6813
   4   1.0000     -88.546123     -2409.4625
   5   1.0000     -21.982749      -598.1810
   6   1.0000     -18.825246      -512.2610
   7   1.0000     -18.490450      -503.1507
   8   1.0000     -18.483416      -502.9593
   9   1.0000     -18.483306      -502.9563
  10   1.0000      -9.942093      -270.5381
  11   1.0000      -9.937012      -270.3998
  12   1.0000      -9.929480      -270.1949
  13   1.0000      -9.921824      -269.9866
  14   1.0000      -9.917887      -269.8794
  15   1.0000      -9.913878      -269.7703
  16   1.0000      -7.616142      -207.2458
  17   1.0000      -7.613352      -207.1698
  18   1.0000      -7.612196      -207.1384
  19   1.0000      -7.606827      -206.9923
  20   1.0000      -5.581600      -151.8831
  21   1.0000      -5.578717      -151.8046
  22   1.0000      -5.576579      -151.7464
  23   1.0000      -5.574952      -151.7021
  24   1.0000      -5.573347      -151.6585
  25   1.0000      -5.572383      -151.6323
  26   1.0000      -5.571170      -151.5992
  27   1.0000      -5.570861      -151.5908
  28   1.0000      -5.570321      -151.5761
  29   1.0000      -5.569479      -151.5532
  30   1.0000      -5.565897      -151.4558
  31   1.0000      -5.563855      -151.4002
  32   1.0000      -2.375567       -64.6425
  33   1.0000      -1.418182       -38.5907
  34   1.0000      -1.403762       -38.1983
  35   1.0000      -1.403244       -38.1842
  36   1.0000      -0.587997       -16.0002
  37   1.0000      -0.583250       -15.8710
  38   1.0000      -0.552540       -15.0354
  39   1.0000      -0.503269       -13.6947
  40   1.0000      -0.469857       -12.7854
  41   1.0000      -0.428656       -11.6643
  42   1.0000      -0.399834       -10.8800
  43   1.0000      -0.337128        -9.1737
  44   1.0000      -0.329278        -8.9601
  45   1.0000      -0.304779        -8.2934
  46   1.0000      -0.263497        -7.1701
  47   1.0000      -0.222801        -6.0627
  48   1.0000      -0.215834        -5.8731
  49   1.0000      -0.208601        -5.6763
  50   1.0000      -0.198758        -5.4085
  51   1.0000      -0.161709        -4.4003
  52   1.0000      -0.139654        -3.8002
  53   1.0000      -0.133925        -3.6443
  54   1.0000      -0.112931        -3.0730
  55   1.0000      -0.106773        -2.9054
  56   1.0000      -0.105402        -2.8681
  57   1.0000      -0.087935        -2.3928
  58   1.0000      -0.080615        -2.1936
  59   1.0000      -0.064056        -1.7431
  60   1.0000      -0.059583        -1.6213
  61   1.0000      -0.048039        -1.3072
  62   1.0000      -0.045524        -1.2388
  63   1.0000      -0.041251        -1.1225
  64   1.0000       0.002111         0.0574
  65   1.0000       0.031350         0.8531
  66   1.0000       0.032874         0.8946
  67   1.0000       0.038451         1.0463
  68   1.0000       0.051022         1.3884
  69   1.0000       0.056063         1.5256
  70   1.0000       0.062793         1.7087
  71   1.0000       0.071823         1.9544
  72   1.0000       0.083895         2.2829
  73   0.0000       0.234159         6.3718
  74   0.0000       0.245632         6.6840
  75   0.0000       0.248373         6.7586
  76   0.0000       0.251241         6.8366
  77   0.0000       0.259479         7.0608

                 SPIN DOWN ORBITALS
  NO   OCC          E(Eh)            E(eV)
   0   1.0000    -196.607638     -5349.9658
   1   1.0000     -88.562684     -2409.9132
   2   1.0000     -88.558919     -2409.8107
   3   1.0000     -88.554322     -2409.6856
   4   1.0000     -88.546129     -2409.4627
   5   1.0000     -21.967649      -597.7701
   6   1.0000     -18.828740      -512.3561
   7   1.0000     -18.485216      -503.0083
   8   1.0000     -18.467240      -502.5191
   9   1.0000     -18.466866      -502.5090
  10   1.0000      -9.941918      -270.5334
  11   1.0000      -9.936857      -270.3956
  12   1.0000      -9.929500      -270.1954
  13   1.0000      -9.921764      -269.9849
  14   1.0000      -9.917764      -269.8761
  15   1.0000      -9.913834      -269.7691
  16   1.0000      -7.616314      -207.2504
  17   1.0000      -7.613446      -207.1724
  18   1.0000      -7.612347      -207.1425
  19   1.0000      -7.606835      -206.9925
  20   1.0000      -5.581774      -151.8878
  21   1.0000      -5.578835      -151.8078
  22   1.0000      -5.576713      -151.7501
  23   1.0000      -5.575409      -151.7146
  24   1.0000      -5.573477      -151.6620
  25   1.0000      -5.572788      -151.6433
  26   1.0000      -5.571586      -151.6106
  27   1.0000      -5.570903      -151.5920
  28   1.0000      -5.570234      -151.5738
  29   1.0000      -5.569609      -151.5568
  30   1.0000      -5.566255      -151.4655
  31   1.0000      -5.563481      -151.3900
  32   1.0000      -2.330454       -63.4149
  33   1.0000      -1.399057       -38.0703
  34   1.0000      -1.341686       -36.5091
  35   1.0000      -1.340286       -36.4710
  36   1.0000      -0.595307       -16.1991
  37   1.0000      -0.583319       -15.8729
  38   1.0000      -0.552428       -15.0323
  39   1.0000      -0.503254       -13.6942
  40   1.0000      -0.469776       -12.7833
  41   1.0000      -0.428687       -11.6652
  42   1.0000      -0.400024       -10.8852
  43   1.0000      -0.337321        -9.1790
  44   1.0000      -0.329682        -8.9711
  45   1.0000      -0.304753        -8.2927
  46   1.0000      -0.263537        -7.1712
  47   1.0000      -0.222789        -6.0624
  48   1.0000      -0.215798        -5.8722
  49   1.0000      -0.208529        -5.6744
  50   1.0000      -0.198571        -5.4034
  51   1.0000      -0.161569        -4.3965
  52   1.0000      -0.139427        -3.7940
  53   1.0000      -0.133775        -3.6402
  54   1.0000      -0.112913        -3.0725
  55   1.0000      -0.106577        -2.9001
  56   1.0000      -0.105358        -2.8669
  57   1.0000      -0.086310        -2.3486
  58   1.0000      -0.079859        -2.1731
  59   1.0000      -0.063008        -1.7145
  60   1.0000      -0.058936        -1.6037
  61   1.0000      -0.047624        -1.2959
  62   1.0000      -0.047242        -1.2855
  63   1.0000      -0.043144        -1.1740
  64   1.0000       0.006943         0.1889
  65   1.0000       0.032847         0.8938
  66   1.0000       0.035525         0.9667
  67   1.0000       0.046799         1.2735
  68   1.0000       0.051790         1.4093
  69   1.0000       0.059773         1.6265
  70   1.0000       0.072186         1.9643
  71   1.0000       0.076336         2.0772
  72   0.0000       0.233212         6.3460
  73   0.0000       0.250856         6.8261
  74   0.0000       0.254764         6.9325
  75   0.0000       0.260732         7.0949
  76   0.0000       0.264072         7.1858

MULLIKEN ATOMIC CHARGES AND SPIN POPULATIONS
--------------------------------------------
   0 V :    0.491908    1.198921
   1 S :   -0.395989   -0.005674
   2 S :   -0.359416   -0.033333
   3 S :   -0.391889   -0.027758
   4 S :   -0.379890   -0.021319
   5 O :   -0.546141   -0.134893
   6 C :   -0.247781    0.006977
   7 C :   -0.236034    0.006010
   8 C :   -0.157268    0.003326
   9 H :    0.074469   -0.000944
  10 H :    0.051141    0.002284
  11 H :    0.139615    0.000712
  12 H :    0.005923   -0.000032
  13 H :    0.096657   -0.000170
  14 H :    0.050256    0.000018
  15 C :   -0.292351   -0.001957
  16 C :   -0.278928    0.000978
  17 C :    0.013867    0.007049
  18 H :    0.046148    0.000468
  19 H :    0.132327   -0.000774
  20 H :    0.000099    0.001059
  21 H :   -0.004830    0.000337
  22 H :    0.044125   -0.001704
  23 H :    0.143980    0.000416
Sum of atomic charges         :   -2.0000000

LOEWDIN ATOMIC CHARGES AND SPIN POPULATIONS
-------------------------------------------
   0 V :   -0.196350    1.155595
   1 S :    0.025711   -0.000343
   2 S :   -0.042622   -0.022815
   3 S :    0.002966   -0.019290
   4 S :   -0.057333   -0.012127
   5 O :   -0.377869   -0.121411
   6 C :   -0.321378    0.006293
   7 C :   -0.318754    0.006670
   8 C :   -0.187496    0.000517
   9 H :    0.035494    0.000013
  10 H :    0.028979    0.000659
  11 H :    0.070053    0.000381
  12 H :    0.031628    0.000161
  13 H :    0.046072   -0.000057
  14 H :    0.028122   -0.000476
  15 C :   -0.408423    0.002158
  16 C :   -0.387994    0.004471
  17 C :   -0.190606    0.001455
  18 H :    0.024392   -0.000372
  19 H :    0.052604   -0.000964
  20 H :    0.035568    0.000376
  21 H :    0.031997    0.000307
  22 H :    0.023607   -0.001453
  23 H :    0.051634    0.000252

  Mayer bond orders larger than 0.100000
B(  0-V ,  1-S ) :   0.7176 B(  0-V ,  2-S ) :   0.8602 B(  0-V ,  3-S ) :   0.7794
B(  0-V ,  4-S ) :   0.7831 B(  0-V ,  5-O ) :   2.0734 B(  1-S , 15-C ) :   1.1314
B(  1-S , 17-C ) :  -0.1263 B(  2-S ,  6-C ) :   1.0072 B(  3-S , 16-C ) :   1.0744
B(  4-S ,  7-C ) :   1.0752 B(  6-C ,  8-C ) :   0.9023 B(  6-C , 13-H ) :   0.9753
B(  6-C , 14-H ) :   0.9680 B(  7-C ,  8-C ) :   0.9172 B(  7-C ,  9-H ) :   0.9755
B(  7-C , 10-H ) :   0.9694 B(  8-C , 11-H ) :   0.9877 B(  8-C , 12-H ) :   0.9454
B( 15-C , 17-C ) :   0.8574 B( 15-C , 22-H ) :   0.9611 B( 15-C , 23-H ) :   0.9785
B( 16-C , 17-C ) :   0.8912 B( 16-C , 18-H ) :   0.9603 B( 16-C , 19-H ) :   0.9752
B( 17-C , 20-H ) :   0.9539 B( 17-C , 21-H ) :   0.9442

FINAL SINGLE POINT ENERGY     -2847.668254605088

DIPOLE MOMENT
-------------
                                X             Y             Z
Electronic contribution:      5.93252       0.42691       1.43864
Nuclear contribution   :     -6.28351      -0.77979      -1.48910
                        -----------------------------------------
Total Dipole Moment    :     -0.35099      -0.35288      -0.05046
                        -----------------------------------------
Magnitude (a.u.)       :      0.50026
Magnitude (Debye)      :      1.27157

Rotational constants in cm-1:     0.027823     0.011852     0.009675
Rotational constants in MHz :   834.100840   355.323271   290.040791

                             ****ORCA TERMINATED NORMALLY****
TOTAL RUN TIME: 0 days 0 hours 9 minutes 45 seconds 207 msec
