                         Program Version 5.0.4 -  RELEASE  -
|  1> ! nofrozencore ReducedPop printbasis
|  2> ! B3LYP TZVP
|  3>
|  4> %basis
|  5> newgto V "CP(PPP)" end
|  6> end
|  7>
|  8> %pal
|  9> nprocs 4
| 10> end
| 11>
| 12> % sym SymThresh 1e-2 end
| 13> * xyz -2 2
| 14> V -0.2899609079395087 -0.1278328694207658 -0.37674990596886576
| 15> S 1.7377113298510605 -1.5741350875345808 -0.83092251785937
| 16> S -0.44349187577473503 -1.594779477165929 1.5781881601134171
| 17> S 1.0383732859658152 1.8615626997662902 -1.0448113006406448
| 18> S -1.573134265571466 1.6293580189297092 0.824775448050182
| 19> O -1.2790377497927616 -0.6284250968357352 -1.532542355241794
| 20> C -1.931239621085774 -0.997576889731313 2.589997000436193
| 21> C -3.2340810164749523 0.8157146950795183 1.3333217204248446
| 22> C -3.1145744221734932 -0.6395065961966446 1.6863958524396432
| 23> H -4.17658731692705 1.1549292282180572 0.7828294487037036
| 24> H -3.295108080659141 1.22493089211294 2.4020155286026417
| 25> H -3.1398269362534066 -1.3954410583486796 0.8701226586512173
| 26> H -4.0066490278311715 -0.8377845713069564 2.3312776094151784
| 27> H -1.769179367200002 -0.3409673732888441 3.506780931113791
| 28> H -2.2810420138574354 -2.0246909378639333 2.9443230227967314
| 29> C 3.1226812546374565 -0.4697634867592521 -0.2992793451503603
| 30> C 2.4026311914115164 1.2137680546195553 -2.1119759500125794
| 31> C 3.5603374828411885 0.5458237951343451 -1.3638784517024267
| 32> H 2.790437566258063 2.054812102236524 -2.6998215799108083
| 33> H 1.9685433948826727 0.49132001186937335 -2.8030628287240513
| 34> H 4.173836067269939 1.3197173559486373 -0.8760660810883805
| 35> H 4.20482583176395 0.0443914894107151 -2.104112317497215
| 36> H 3.9773629492774125 -1.0960257531985778 -0.017759420676705724
| 37> H 2.8012314457859935 0.06396952896596032 0.5957116467323665
| 38> *
| 39>
| 40> % eprnmr
| 41> gtensor true
| 42> Nuclei = all H {aiso,adip,aorb,fgrad,rho}
| 43> Nuclei = all V {aiso,adip,aorb,fgrad,rho}
| 44> end
| 45>
| 46>                          ****END OF INPUT****

CARTESIAN COORDINATES (ANGSTROEM)
---------------------------------
  V     -0.290140   -0.128007   -0.377462
  S      1.737532   -1.574309   -0.831635
  S     -0.443671   -1.594954    1.577476
  S      1.038194    1.861389   -1.045524
  S     -1.573313    1.629184    0.824063
  O     -1.279217   -0.628599   -1.533255
  C     -1.931419   -0.997751    2.589284
  C     -3.234260    0.815541    1.332609
  C     -3.114754   -0.639681    1.685683
  H     -4.176767    1.154755    0.782117
  H     -3.295287    1.224757    2.401303
  H     -3.140006   -1.395615    0.869410
  H     -4.006828   -0.837959    2.330565
  H     -1.769359   -0.341141    3.506068
  H     -2.281221   -2.024865    2.943610
  C      3.122502   -0.469938   -0.299992
  C      2.402452    1.213594   -2.112689
  C      3.560158    0.545650   -1.364591
  H      2.790258    2.054638   -2.700534
  H      1.968364    0.491146   -2.803775
  H      4.173657    1.319543   -0.876779
  H      4.204647    0.044217   -2.104825
  H      3.977184   -1.096200   -0.018472
  H      2.801052    0.063795    0.594999

 Total Charge           Charge          ....   -2
 Multiplicity           Mult            ....    2
 Number of Electrons    NEL             ....  145
 Basis Dimension        Dim             ....  353

ORBITAL ENERGIES
----------------
                 SPIN UP ORBITALS
  NO   OCC          E(Eh)            E(eV)
   0   1.0000    -196.606039     -5349.9223
   1   1.0000     -88.564470     -2409.9617
   2   1.0000     -88.561940     -2409.8929
   3   1.0000     -88.561254     -2409.8742
   4   1.0000     -88.557429     -2409.7702
   5   1.0000     -21.981515      -598.1474
   6   1.0000     -18.824578      -512.2428
   7   1.0000     -18.489332      -503.1203
   8   1.0000     -18.482089      -502.9232
   9   1.0000     -18.482039      -502.9218
  10   1.0000      -9.954882      -270.8861
  11   1.0000      -9.948694      -270.7177
  12   1.0000      -9.935736      -270.3651
  13   1.0000      -9.934251      -270.3247
  14   1.0000      -9.933773      -270.3117
  15   1.0000      -9.931825      -270.2587
  16   1.0000      -7.617598      -207.2854
  17   1.0000      -7.615424      -207.2262
  18   1.0000      -7.615196      -207.2200
  19   1.0000      -7.611757      -207.1264
  20   1.0000      -5.583320      -151.9299
  21   1.0000      -5.580982      -151.8663
  22   1.0000      -5.580629      -151.8566
  23   1.0000      -5.576992      -151.7577
  24   1.0000      -5.576251      -151.7375
  25   1.0000      -5.574744      -151.6965
  26   1.0000      -5.574400      -151.6871
  27   1.0000      -5.574162      -151.6807
  28   1.0000      -5.572667      -151.6400
  29   1.0000      -5.572065      -151.6236
  30   1.0000      -5.571002      -151.5947
  31   1.0000      -5.568810      -151.5350
  32   1.0000      -2.374282       -64.6075
  33   1.0000      -1.417157       -38.5628
  34   1.0000      -1.402338       -38.1596
  35   1.0000      -1.401901       -38.1477
  36   1.0000      -0.587105       -15.9759
  37   1.0000      -0.555013       -15.1027
  38   1.0000      -0.550674       -14.9846
  39   1.0000      -0.465935       -12.6787
  40   1.0000      -0.460945       -12.5429
  41   1.0000      -0.403057       -10.9677
  42   1.0000      -0.390999       -10.6396
  43   1.0000      -0.337875        -9.1940
  44   1.0000      -0.327633        -8.9153
  45   1.0000      -0.300225        -8.1695
  46   1.0000      -0.285462        -7.7678
  47   1.0000      -0.214020        -5.8238
  48   1.0000      -0.210325        -5.7232
  49   1.0000      -0.202680        -5.5152
  50   1.0000      -0.189265        -5.1502
  51   1.0000      -0.161307        -4.3894
  52   1.0000      -0.133554        -3.6342
  53   1.0000      -0.131371        -3.5748
  54   1.0000      -0.111093        -3.0230
  55   1.0000      -0.107833        -2.9343
  56   1.0000      -0.102696        -2.7945
  57   1.0000      -0.078482        -2.1356
  58   1.0000      -0.067773        -1.8442
  59   1.0000      -0.062760        -1.7078
  60   1.0000      -0.055762        -1.5173
  61   1.0000      -0.044817        -1.2195
  62   1.0000      -0.037053        -1.0083
  63   1.0000      -0.032730        -0.8906
  64   1.0000       0.000237         0.0065
  65   1.0000       0.028416         0.7732
  66   1.0000       0.030367         0.8263
  67   1.0000       0.037160         1.0112
  68   1.0000       0.044001         1.1973
  69   1.0000       0.051046         1.3890
  70   1.0000       0.063571         1.7299
  71   1.0000       0.072778         1.9804
  72   1.0000       0.081866         2.2277
  73   0.0000       0.234889         6.3917
  74   0.0000       0.246533         6.7085
  75   0.0000       0.247208         6.7269
  76   0.0000       0.249804         6.7975
  77   0.0000       0.258794         7.0421

                 SPIN DOWN ORBITALS
  NO   OCC          E(Eh)            E(eV)
   0   1.0000    -196.606182     -5349.9262
   1   1.0000     -88.564657     -2409.9668
   2   1.0000     -88.562025     -2409.8952
   3   1.0000     -88.561416     -2409.8786
   4   1.0000     -88.557405     -2409.7695
   5   1.0000     -21.966468      -597.7380
   6   1.0000     -18.828045      -512.3372
   7   1.0000     -18.484139      -502.9790
   8   1.0000     -18.466037      -502.4864
   9   1.0000     -18.465568      -502.4736
  10   1.0000      -9.954691      -270.8809
  11   1.0000      -9.948548      -270.7137
  12   1.0000      -9.935754      -270.3656
  13   1.0000      -9.934191      -270.3231
  14   1.0000      -9.933611      -270.3073
  15   1.0000      -9.931783      -270.2576
  16   1.0000      -7.617780      -207.2903
  17   1.0000      -7.615579      -207.2304
  18   1.0000      -7.615276      -207.2222
  19   1.0000      -7.611735      -207.1259
  20   1.0000      -5.583498      -151.9347
  21   1.0000      -5.581098      -151.8694
  22   1.0000      -5.580781      -151.8608
  23   1.0000      -5.577011      -151.7582
  24   1.0000      -5.576726      -151.7504
  25   1.0000      -5.574894      -151.7006
  26   1.0000      -5.574824      -151.6987
  27   1.0000      -5.574566      -151.6916
  28   1.0000      -5.572790      -151.6433
  29   1.0000      -5.571917      -151.6196
  30   1.0000      -5.571341      -151.6039
  31   1.0000      -5.568349      -151.5225
  32   1.0000      -2.329380       -63.3856
  33   1.0000      -1.398196       -38.0468
  34   1.0000      -1.340742       -36.4834
  35   1.0000      -1.338989       -36.4357
  36   1.0000      -0.594513       -16.1775
  37   1.0000      -0.554899       -15.0996
  38   1.0000      -0.550527       -14.9806
  39   1.0000      -0.465821       -12.6756
  40   1.0000      -0.460871       -12.5409
  41   1.0000      -0.403071       -10.9681
  42   1.0000      -0.391180       -10.6445
  43   1.0000      -0.338037        -9.1984
  44   1.0000      -0.328027        -8.9261
  45   1.0000      -0.300128        -8.1669
  46   1.0000      -0.285481        -7.7683
  47   1.0000      -0.213963        -5.8222
  48   1.0000      -0.210264        -5.7216
  49   1.0000      -0.202567        -5.5121
  50   1.0000      -0.188971        -5.1422
  51   1.0000      -0.161192        -4.3863
  52   1.0000      -0.133408        -3.6302
  53   1.0000      -0.131115        -3.5678
  54   1.0000      -0.111071        -3.0224
  55   1.0000      -0.107771        -2.9326
  56   1.0000      -0.102546        -2.7904
  57   1.0000      -0.077586        -2.1112
  58   1.0000      -0.065451        -1.7810
  59   1.0000      -0.062031        -1.6879
  60   1.0000      -0.055487        -1.5099
  61   1.0000      -0.046263        -1.2589
  62   1.0000      -0.038960        -1.0602
  63   1.0000      -0.032123        -0.8741
  64   1.0000       0.004458         0.1213
  65   1.0000       0.029497         0.8027
  66   1.0000       0.033216         0.9039
  67   1.0000       0.043968         1.1964
  68   1.0000       0.046235         1.2581
  69   1.0000       0.058094         1.5808
  70   1.0000       0.069695         1.8965
  71   1.0000       0.073772         2.0074
  72   0.0000       0.233267         6.3475
  73   0.0000       0.249929         6.8009
  74   0.0000       0.252087         6.8596
  75   0.0000       0.261221         7.1082
  76   0.0000       0.263531         7.1710

MULLIKEN ATOMIC CHARGES AND SPIN POPULATIONS
--------------------------------------------
   0 V :    0.541871    1.191437
   1 S :   -0.430560   -0.001838
   2 S :   -0.349761   -0.035629
   3 S :   -0.409705   -0.029563
   4 S :   -0.392034   -0.020196
   5 O :   -0.547476   -0.133789
   6 C :   -0.216786    0.006545
   7 C :   -0.204899    0.006738
   8 C :   -0.147129    0.005774
   9 H :    0.066518   -0.001285
  10 H :    0.040241    0.001708
  11 H :    0.120547    0.000173
  12 H :   -0.001202   -0.000091
  13 H :    0.071669   -0.000058
  14 H :    0.035363   -0.000273
  15 C :   -0.252707   -0.001956
  16 C :   -0.251866    0.002934
  17 C :   -0.071072    0.008357
  18 H :    0.047289   -0.000098
  19 H :    0.131307   -0.000198
  20 H :    0.015402    0.001583
  21 H :    0.013022    0.000033
  22 H :    0.052618   -0.000584
  23 H :    0.139349    0.000276
Sum of atomic charges         :   -2.0000000

LOEWDIN ATOMIC CHARGES AND SPIN POPULATIONS
-------------------------------------------
   0 V :   -0.207009    1.147331
   1 S :   -0.073703    0.003545
   2 S :   -0.046412   -0.024626
   3 S :   -0.060631   -0.020807
   4 S :   -0.078376   -0.010431
   5 O :   -0.375648   -0.120524
   6 C :   -0.327349    0.006158
   7 C :   -0.307364    0.007652
   8 C :   -0.192951    0.000794
   9 H :    0.038973   -0.000349
  10 H :    0.040098    0.000710
  11 H :    0.070066    0.000182
  12 H :    0.030798    0.000237
  13 H :    0.045954    0.000143
  14 H :    0.034819   -0.000595
  15 C :   -0.316968    0.002819
  16 C :   -0.325781    0.006755
  17 C :   -0.188672    0.001171
  18 H :    0.028210   -0.000222
  19 H :    0.054098   -0.000611
  20 H :    0.036219    0.000621
  21 H :    0.034992    0.000360
  22 H :    0.030389   -0.000602
  23 H :    0.056250    0.000289

  Mayer bond orders larger than 0.100000
B(  0-V ,  1-S ) :   0.7056 B(  0-V ,  2-S ) :   0.8527 B(  0-V ,  3-S ) :   0.7704
B(  0-V ,  4-S ) :   0.7722 B(  0-V ,  5-O ) :   2.0749 B(  1-S , 15-C ) :   1.0237
B(  2-S ,  6-C ) :   1.0202 B(  3-S , 16-C ) :   1.0223 B(  4-S ,  7-C ) :   1.0638
B(  6-C ,  8-C ) :   0.9333 B(  6-C , 13-H ) :   0.9391 B(  6-C , 14-H ) :   0.9823
B(  7-C ,  8-C ) :   0.9234 B(  7-C ,  9-H ) :   0.9513 B(  7-C , 10-H ) :   0.9831
B(  8-C , 11-H ) :   0.9536 B(  8-C , 12-H ) :   0.9665 B( 15-C , 17-C ) :   0.8971
B( 15-C , 22-H ) :   0.9686 B( 15-C , 23-H ) :   0.9790 B( 16-C , 17-C ) :   0.9028
B( 16-C , 18-H ) :   0.9634 B( 16-C , 19-H ) :   0.9763 B( 17-C , 20-H ) :   0.9589
B( 17-C , 21-H ) :   0.9588

FINAL SINGLE POINT ENERGY     -2847.688805218265

DIPOLE MOMENT
-------------
                                X             Y             Z
Electronic contribution:     -2.44730      -1.17462      -5.88947
Nuclear contribution   :      2.46927       1.18970       6.32665
                        -----------------------------------------
Total Dipole Moment    :      0.02197       0.01508       0.43718
                        -----------------------------------------
Magnitude (a.u.)       :      0.43799
Magnitude (Debye)      :      1.11328

Rotational constants in cm-1:     0.027164     0.011703     0.009596
Rotational constants in MHz :   814.366517   350.838647   287.686807

                             ****ORCA TERMINATED NORMALLY****
TOTAL RUN TIME: 0 days 0 hours 14 minutes 26 seconds 201 msec
