                         Program Version 5.0.4 -  RELEASE  -
|  1> ! nofrozencore ReducedPop printbasis
|  2> ! B3LYP TZVP
|  3>
|  4> %basis
|  5> newgto V "CP(PPP)" end
|  6> end
|  7>
|  8> %pal
|  9> nprocs 4
| 10> end
| 11>
| 12> % sym SymThresh 1e-2 end
| 13> * xyz -2 2
| 14> V 0.34367182133056456 -0.3287218890706076 0.11567644167324483
| 15> S 1.6002946529667226 1.0480191035792992 -1.5904198746849707
| 16> S 0.44605378648010585 1.7523799129295405 1.3753384244042681
| 17> S -1.0269161441321302 -1.2790343356901024 -1.71411845233507
| 18> S -1.609731304847124 -0.9972720191794473 1.4889376097358553
| 19> O 1.4977044858445996 -1.3209553561370602 0.6170912836094642
| 20> C -0.4175923379246532 1.6039506056647947 3.015715673652302
| 21> C -1.2199430238330236 -0.9781451397227647 3.2359483438872862
| 22> C -0.23205721027107384 0.1464034321490486 3.499666956196144
| 23> H -0.7010058140253921 -1.9171390212966817 3.5284586768993336
| 24> H -2.1505525472269564 -0.9189347721522435 3.8374247504683594
| 25> H 0.7073081620093589 -0.18005094743339242 2.9990459590636953
| 26> H -0.0033241179644411304 0.14707798990194423 4.60931378614281
| 27> H -1.4748981291834855 1.974021602336975 2.996519966356309
| 28> H 0.17503114741151432 2.2587690900959596 3.709696163012259
| 29> C 0.26586258061058626 1.45022458948459 -2.8073662963059043
| 30> C -0.017402124978322442 -1.0697767796703512 -3.2520734160497318
| 31> C -0.003913524856593751 0.3454754594981688 -3.837917469652093
| 32> H -0.4094843697545573 -1.7688119715956299 -4.00079336027602
| 33> H 1.0069243274613233 -1.3618471347100698 -3.021307288930991
| 34> H -0.9690404213748441 0.5504495670201336 -4.327256240144095
| 35> H 0.7688611262367816 0.38412093015535465 -4.622742249993665
| 36> H 0.5414120346055828 2.374767388434517 -3.328074445972197
| 37> H -0.6481303229263303 1.6520784255965515 -2.248134725539337
| 38> *
| 39>
| 40> % eprnmr
| 41> gtensor true
| 42> Nuclei = all H {aiso,adip,aorb,fgrad,rho}
| 43> Nuclei = all V {aiso,adip,aorb,fgrad,rho}
| 44> end
| 45>
| 46>                          ****END OF INPUT****

CARTESIAN COORDINATES (ANGSTROEM)
---------------------------------
  V      0.344234   -0.329214    0.115569
  S      1.600857    1.047527   -1.590527
  S      0.446616    1.751888    1.375231
  S     -1.026354   -1.279526   -1.714225
  S     -1.609169   -0.997764    1.488831
  O      1.498267   -1.321447    0.616984
  C     -0.417030    1.603458    3.015609
  C     -1.219380   -0.978637    3.235841
  C     -0.231495    0.145911    3.499560
  H     -0.700443   -1.917631    3.528352
  H     -2.149990   -0.919427    3.837318
  H      0.707871   -0.180543    2.998939
  H     -0.002762    0.146586    4.609207
  H     -1.474336    1.973529    2.996413
  H      0.175594    2.258277    3.709589
  C      0.266425    1.449732   -2.807473
  C     -0.016840   -1.070269   -3.252180
  C     -0.003351    0.344983   -3.838024
  H     -0.408922   -1.769304   -4.000900
  H      1.007487   -1.362339   -3.021414
  H     -0.968478    0.549957   -4.327363
  H      0.769424    0.383629   -4.622849
  H      0.541975    2.374275   -3.328181
  H     -0.647568    1.651586   -2.248242

 Total Charge           Charge          ....   -2
 Multiplicity           Mult            ....    2
 Number of Electrons    NEL             ....  145
 Basis Dimension        Dim             ....  353

ORBITAL ENERGIES
----------------
                 SPIN UP ORBITALS
  NO   OCC          E(Eh)            E(eV)
   0   1.0000    -196.607477     -5349.9614
   1   1.0000     -88.562312     -2409.9030
   2   1.0000     -88.559891     -2409.8372
   3   1.0000     -88.558007     -2409.7859
   4   1.0000     -88.554147     -2409.6808
   5   1.0000     -21.982851      -598.1838
   6   1.0000     -18.825711      -512.2737
   7   1.0000     -18.490627      -503.1556
   8   1.0000     -18.483468      -502.9607
   9   1.0000     -18.483385      -502.9585
  10   1.0000      -9.944967      -270.6163
  11   1.0000      -9.943915      -270.5877
  12   1.0000      -9.935096      -270.3477
  13   1.0000      -9.934753      -270.3384
  14   1.0000      -9.932635      -270.2807
  15   1.0000      -9.927669      -270.1456
  16   1.0000      -7.616489      -207.2552
  17   1.0000      -7.614073      -207.1895
  18   1.0000      -7.612328      -207.1420
  19   1.0000      -7.610076      -207.0807
  20   1.0000      -5.581678      -151.8852
  21   1.0000      -5.579536      -151.8269
  22   1.0000      -5.577558      -151.7731
  23   1.0000      -5.575458      -151.7159
  24   1.0000      -5.575199      -151.7089
  25   1.0000      -5.573767      -151.6699
  26   1.0000      -5.572720      -151.6414
  27   1.0000      -5.571539      -151.6093
  28   1.0000      -5.571279      -151.6022
  29   1.0000      -5.569419      -151.5516
  30   1.0000      -5.569097      -151.5428
  31   1.0000      -5.567055      -151.4873
  32   1.0000      -2.375635       -64.6443
  33   1.0000      -1.418451       -38.5980
  34   1.0000      -1.403840       -38.2004
  35   1.0000      -1.403209       -38.1833
  36   1.0000      -0.588461       -16.0128
  37   1.0000      -0.551632       -15.0107
  38   1.0000      -0.551168       -14.9981
  39   1.0000      -0.476722       -12.9723
  40   1.0000      -0.466399       -12.6914
  41   1.0000      -0.403486       -10.9794
  42   1.0000      -0.390731       -10.6323
  43   1.0000      -0.337946        -9.1960
  44   1.0000      -0.326672        -8.8892
  45   1.0000      -0.303624        -8.2620
  46   1.0000      -0.286724        -7.8022
  47   1.0000      -0.214788        -5.8447
  48   1.0000      -0.203536        -5.5385
  49   1.0000      -0.199287        -5.4229
  50   1.0000      -0.192005        -5.2247
  51   1.0000      -0.167137        -4.5480
  52   1.0000      -0.134432        -3.6581
  53   1.0000      -0.132271        -3.5993
  54   1.0000      -0.120120        -3.2686
  55   1.0000      -0.108454        -2.9512
  56   1.0000      -0.095244        -2.5917
  57   1.0000      -0.083263        -2.2657
  58   1.0000      -0.070291        -1.9127
  59   1.0000      -0.063985        -1.7411
  60   1.0000      -0.057158        -1.5553
  61   1.0000      -0.046725        -1.2715
  62   1.0000      -0.044161        -1.2017
  63   1.0000      -0.036685        -0.9983
  64   1.0000       0.002305         0.0627
  65   1.0000       0.025833         0.7029
  66   1.0000       0.030840         0.8392
  67   1.0000       0.039560         1.0765
  68   1.0000       0.046881         1.2757
  69   1.0000       0.052976         1.4416
  70   1.0000       0.064151         1.7456
  71   1.0000       0.074164         2.0181
  72   1.0000       0.081607         2.2206
  73   0.0000       0.233320         6.3490
  74   0.0000       0.245588         6.6828
  75   0.0000       0.248732         6.7683
  76   0.0000       0.250481         6.8159
  77   0.0000       0.258275         7.0280

                 SPIN DOWN ORBITALS
  NO   OCC          E(Eh)            E(eV)
   0   1.0000    -196.607617     -5349.9652
   1   1.0000     -88.562469     -2409.9073
   2   1.0000     -88.560068     -2409.8420
   3   1.0000     -88.557970     -2409.7849
   4   1.0000     -88.554232     -2409.6832
   5   1.0000     -21.967902      -597.7770
   6   1.0000     -18.829124      -512.3665
   7   1.0000     -18.485467      -503.0151
   8   1.0000     -18.467375      -502.5228
   9   1.0000     -18.467166      -502.5171
  10   1.0000      -9.944847      -270.6130
  11   1.0000      -9.943765      -270.5836
  12   1.0000      -9.934909      -270.3426
  13   1.0000      -9.934690      -270.3367
  14   1.0000      -9.932591      -270.2795
  15   1.0000      -9.927667      -270.1456
  16   1.0000      -7.616638      -207.2593
  17   1.0000      -7.614246      -207.1942
  18   1.0000      -7.612293      -207.1410
  19   1.0000      -7.610157      -207.0829
  20   1.0000      -5.581832      -151.8894
  21   1.0000      -5.579707      -151.8315
  22   1.0000      -5.577568      -151.7733
  23   1.0000      -5.575871      -151.7272
  24   1.0000      -5.575311      -151.7119
  25   1.0000      -5.573884      -151.6731
  26   1.0000      -5.573163      -151.6535
  27   1.0000      -5.571863      -151.6181
  28   1.0000      -5.571422      -151.6061
  29   1.0000      -5.569463      -151.5528
  30   1.0000      -5.568926      -151.5382
  31   1.0000      -5.566949      -151.4844
  32   1.0000      -2.331004       -63.4298
  33   1.0000      -1.399567       -38.0842
  34   1.0000      -1.342342       -36.5270
  35   1.0000      -1.341000       -36.4905
  36   1.0000      -0.595746       -16.2111
  37   1.0000      -0.551492       -15.0069
  38   1.0000      -0.551042       -14.9946
  39   1.0000      -0.476694       -12.9715
  40   1.0000      -0.466236       -12.6869
  41   1.0000      -0.403443       -10.9782
  42   1.0000      -0.390895       -10.6368
  43   1.0000      -0.338042        -9.1986
  44   1.0000      -0.327056        -8.8996
  45   1.0000      -0.303571        -8.2606
  46   1.0000      -0.286701        -7.8015
  47   1.0000      -0.214712        -5.8426
  48   1.0000      -0.203408        -5.5350
  49   1.0000      -0.199186        -5.4201
  50   1.0000      -0.191833        -5.2200
  51   1.0000      -0.166906        -4.5417
  52   1.0000      -0.134256        -3.6533
  53   1.0000      -0.131989        -3.5916
  54   1.0000      -0.120046        -3.2666
  55   1.0000      -0.108380        -2.9492
  56   1.0000      -0.094939        -2.5834
  57   1.0000      -0.082189        -2.2365
  58   1.0000      -0.068056        -1.8519
  59   1.0000      -0.063331        -1.7233
  60   1.0000      -0.057226        -1.5572
  61   1.0000      -0.047130        -1.2825
  62   1.0000      -0.045276        -1.2320
  63   1.0000      -0.037626        -1.0239
  64   1.0000       0.008338         0.2269
  65   1.0000       0.028110         0.7649
  66   1.0000       0.033492         0.9114
  67   1.0000       0.045007         1.2247
  68   1.0000       0.050103         1.3634
  69   1.0000       0.059406         1.6165
  70   1.0000       0.069205         1.8832
  71   1.0000       0.076048         2.0694
  72   0.0000       0.231692         6.3047
  73   0.0000       0.249698         6.7946
  74   0.0000       0.253605         6.9009
  75   0.0000       0.260520         7.0891
  76   0.0000       0.262834         7.1521

MULLIKEN ATOMIC CHARGES AND SPIN POPULATIONS
--------------------------------------------
   0 V :    0.498408    1.184005
   1 S :   -0.425565   -0.000118
   2 S :   -0.348270   -0.033163
   3 S :   -0.407421   -0.028998
   4 S :   -0.366733   -0.016762
   5 O :   -0.543260   -0.131971
   6 C :   -0.192150    0.006513
   7 C :   -0.203970    0.005805
   8 C :   -0.218323    0.004098
   9 H :    0.069380   -0.000820
  10 H :    0.046821    0.000941
  11 H :    0.163358    0.000107
  12 H :   -0.017786   -0.000772
  13 H :    0.075463   -0.000258
  14 H :    0.045542   -0.000749
  15 C :   -0.255597   -0.002007
  16 C :   -0.252001    0.004005
  17 C :   -0.070691    0.008595
  18 H :    0.047893   -0.000017
  19 H :    0.131249   -0.000249
  20 H :    0.016491    0.001679
  21 H :    0.013450    0.000170
  22 H :    0.053026   -0.000555
  23 H :    0.140686    0.000521
Sum of atomic charges         :   -2.0000000

LOEWDIN ATOMIC CHARGES AND SPIN POPULATIONS
-------------------------------------------
   0 V :   -0.225356    1.141123
   1 S :   -0.070593    0.005338
   2 S :   -0.032207   -0.022612
   3 S :   -0.057855   -0.019903
   4 S :   -0.035632   -0.008893
   5 O :   -0.376817   -0.118798
   6 C :   -0.324078    0.004824
   7 C :   -0.325531    0.005655
   8 C :   -0.207896    0.001258
   9 H :    0.038782    0.000063
  10 H :    0.027240   -0.000100
  11 H :    0.077578    0.000498
  12 H :    0.023993    0.000042
  13 H :    0.041834   -0.000047
  14 H :    0.034540   -0.000711
  15 C :   -0.316913    0.003014
  16 C :   -0.324120    0.007822
  17 C :   -0.188422    0.001213
  18 H :    0.028487   -0.000158
  19 H :    0.054151   -0.000612
  20 H :    0.036496    0.000661
  21 H :    0.035301    0.000440
  22 H :    0.030576   -0.000568
  23 H :    0.056442    0.000452

  Mayer bond orders larger than 0.100000
B(  0-V ,  1-S ) :   0.7151 B(  0-V ,  2-S ) :   0.8711 B(  0-V ,  3-S ) :   0.7781
B(  0-V ,  4-S ) :   0.7884 B(  0-V ,  5-O ) :   2.0678 B(  1-S , 15-C ) :   1.0228
B(  2-S ,  6-C ) :   0.9966 B(  3-S , 16-C ) :   1.0202 B(  4-S ,  7-C ) :   1.0827
B(  6-C ,  8-C ) :   0.9027 B(  6-C , 13-H ) :   0.9499 B(  6-C , 14-H ) :   0.9695
B(  7-C ,  8-C ) :   0.9034 B(  7-C ,  9-H ) :   0.9675 B(  7-C , 10-H ) :   0.9578
B(  8-C , 11-H ) :   0.9986 B(  8-C , 12-H ) :   0.9185 B( 15-C , 17-C ) :   0.8959
B( 15-C , 22-H ) :   0.9685 B( 15-C , 23-H ) :   0.9795 B( 16-C , 17-C ) :   0.9028
B( 16-C , 18-H ) :   0.9635 B( 16-C , 19-H ) :   0.9759 B( 17-C , 20-H ) :   0.9588
B( 17-C , 21-H ) :   0.9593

FINAL SINGLE POINT ENERGY     -2847.702825801224

DIPOLE MOMENT
-------------
                                X             Y             Z
Electronic contribution:      4.20921      -4.22026       0.46085
Nuclear contribution   :     -4.50780       4.47894      -0.38968
                        -----------------------------------------
Total Dipole Moment    :     -0.29858       0.25868       0.07117
                        -----------------------------------------
Magnitude (a.u.)       :      0.40141
Magnitude (Debye)      :      1.02030

Rotational constants in cm-1:     0.027337     0.011768     0.009634
Rotational constants in MHz :   819.539841   352.788029   288.821864

                             ****ORCA TERMINATED NORMALLY****
TOTAL RUN TIME: 0 days 0 hours 14 minutes 25 seconds 678 msec
