                         Program Version 5.0.4 -  RELEASE  -
|  1> ! nofrozencore ReducedPop printbasis
|  2> ! B3LYP TZVP
|  3>
|  4> %basis
|  5> newgto V "CP(PPP)" end
|  6> end
|  7>
|  8> %pal
|  9> nprocs 4
| 10> end
| 11>
| 12> % sym SymThresh 1e-2 end
| 13> * xyz -2 2
| 14> V 0.0302630759270733 0.3114310501220266 0.3910899882895546
| 15> S -0.49400408971437587 -1.8617743045103432 1.637663032570345
| 16> S 2.113642249840637 -0.9473416712169628 -0.09702571654186307
| 17> S -2.282169266724513 0.40502991224416274 -0.4915992435821954
| 18> S 0.4260599582650417 1.7318892948606401 -1.6620732019653364
| 19> O 0.20874298254763313 1.4034688901705616 1.5517869260492982
| 20> C 3.181741857532316 0.1640491026619104 -1.1327224350177885
| 21> C 2.1237182306904074 2.4622901475453367 -1.522618927146701
| 22> C 3.1321235552030786 1.6418394309572375 -0.7160022680138948
| 23> H 2.0489247838095306 3.4674530993294272 -1.0888415244960206
| 24> H 2.500525937974941 2.5805282537768823 -2.548353011107915
| 25> H 2.8837909547150913 1.6989670410279134 0.3482778348004377
| 26> H 4.1293905000185 2.1056219874109994 -0.8402787641695515
| 27> H 2.8796639730697255 0.07567932925436897 -2.182212945461073
| 28> H 4.206143195953641 -0.21919237231871413 -1.0440566789375876
| 29> C -1.6971138729644561 -2.637099436071916 0.4651840220716605
| 30> C -3.405611288095348 -0.64902869427991 0.5599355519413493
| 31> C -3.1521373881996757 -2.183338932350394 0.5924495392510388
| 32> H -4.450622798723782 -0.46250707292246823 0.19972612547631552
| 33> H -3.33900753498589 -0.25386881498588126 1.6052260225460817
| 34> H -3.72572156014914 -2.6732574997365135 -0.22977839290790925
| 35> H -3.566988455331571 -2.572827351630476 1.5444356598600693
| 36> H -1.655972979687337 -3.7248857614407553 0.6097884396594979
| 37> H -1.3547156793796191 -2.4348464898197992 -0.5522752306968123
| 38> *
| 39>
| 40> % eprnmr
| 41> gtensor true
| 42> Nuclei = all H {aiso,adip,aorb,fgrad,rho}
| 43> Nuclei = all V {aiso,adip,aorb,fgrad,rho}
| 44> end
| 45>
| 46>                          ****END OF INPUT****

CARTESIAN COORDINATES (ANGSTROEM)
---------------------------------
  V      0.030068    0.311765    0.391738
  S     -0.494199   -1.861440    1.638311
  S      2.113447   -0.947008   -0.096377
  S     -2.282364    0.405364   -0.490951
  S      0.425865    1.732223   -1.661425
  O      0.208548    1.403803    1.552435
  C      3.181547    0.164383   -1.132074
  C      2.123523    2.462624   -1.521971
  C      3.131928    1.642174   -0.715354
  H      2.048730    3.467787   -1.088193
  H      2.500331    2.580862   -2.547705
  H      2.883596    1.699301    0.348926
  H      4.129195    2.105956   -0.839630
  H      2.879469    0.076013   -2.181565
  H      4.205948   -0.218858   -1.043408
  C     -1.697309   -2.636765    0.465832
  C     -3.405807   -0.648695    0.560584
  C     -3.152333   -2.183005    0.593098
  H     -4.450818   -0.462173    0.200374
  H     -3.339203   -0.253535    1.605874
  H     -3.725917   -2.672923   -0.229130
  H     -3.567184   -2.572493    1.545084
  H     -1.656168   -3.724552    0.610437
  H     -1.354911   -2.434512   -0.551627

 Total Charge           Charge          ....   -2
 Multiplicity           Mult            ....    2
 Number of Electrons    NEL             ....  145
 Basis Dimension        Dim             ....  353

ORBITAL ENERGIES
----------------
                 SPIN UP ORBITALS
  NO   OCC          E(Eh)            E(eV)
   0   1.0000    -196.612425     -5350.0961
   1   1.0000     -88.565393     -2409.9869
   2   1.0000     -88.561534     -2409.8818
   3   1.0000     -88.560055     -2409.8416
   4   1.0000     -88.558699     -2409.8047
   5   1.0000     -21.987354      -598.3063
   6   1.0000     -18.828089      -512.3383
   7   1.0000     -18.495096      -503.2772
   8   1.0000     -18.488033      -503.0850
   9   1.0000     -18.487917      -503.0818
  10   1.0000      -9.947703      -270.6908
  11   1.0000      -9.942451      -270.5478
  12   1.0000      -9.938977      -270.4533
  13   1.0000      -9.936573      -270.3879
  14   1.0000      -9.934513      -270.3319
  15   1.0000      -9.927972      -270.1539
  16   1.0000      -7.619135      -207.3272
  17   1.0000      -7.615114      -207.2178
  18   1.0000      -7.614060      -207.1891
  19   1.0000      -7.612756      -207.1536
  20   1.0000      -5.584510      -151.9622
  21   1.0000      -5.580501      -151.8532
  22   1.0000      -5.579309      -151.8207
  23   1.0000      -5.578211      -151.7908
  24   1.0000      -5.578021      -151.7857
  25   1.0000      -5.576344      -151.7400
  26   1.0000      -5.574003      -151.6763
  27   1.0000      -5.573334      -151.6581
  28   1.0000      -5.572342      -151.6311
  29   1.0000      -5.571912      -151.6194
  30   1.0000      -5.571132      -151.5982
  31   1.0000      -5.569609      -151.5568
  32   1.0000      -2.379522       -64.7501
  33   1.0000      -1.421896       -38.6917
  34   1.0000      -1.407587       -38.3024
  35   1.0000      -1.406979       -38.2858
  36   1.0000      -0.590091       -16.0572
  37   1.0000      -0.550959       -14.9924
  38   1.0000      -0.548107       -14.9148
  39   1.0000      -0.468378       -12.7452
  40   1.0000      -0.466823       -12.7029
  41   1.0000      -0.404510       -11.0073
  42   1.0000      -0.395600       -10.7648
  43   1.0000      -0.337997        -9.1974
  44   1.0000      -0.326586        -8.8869
  45   1.0000      -0.305334        -8.3085
  46   1.0000      -0.286406        -7.7935
  47   1.0000      -0.214106        -5.8261
  48   1.0000      -0.207501        -5.6464
  49   1.0000      -0.200597        -5.4585
  50   1.0000      -0.195847        -5.3293
  51   1.0000      -0.159314        -4.3351
  52   1.0000      -0.136968        -3.7271
  53   1.0000      -0.129660        -3.5282
  54   1.0000      -0.112504        -3.0614
  55   1.0000      -0.109655        -2.9839
  56   1.0000      -0.104944        -2.8557
  57   1.0000      -0.082402        -2.2423
  58   1.0000      -0.069398        -1.8884
  59   1.0000      -0.065968        -1.7951
  60   1.0000      -0.056624        -1.5408
  61   1.0000      -0.047849        -1.3020
  62   1.0000      -0.044677        -1.2157
  63   1.0000      -0.038092        -1.0365
  64   1.0000      -0.000619        -0.0168
  65   1.0000       0.027565         0.7501
  66   1.0000       0.030485         0.8295
  67   1.0000       0.037778         1.0280
  68   1.0000       0.045338         1.2337
  69   1.0000       0.050894         1.3849
  70   1.0000       0.062870         1.7108
  71   1.0000       0.072127         1.9627
  72   1.0000       0.077781         2.1165
  73   0.0000       0.230999         6.2858
  74   0.0000       0.241800         6.5797
  75   0.0000       0.244789         6.6610
  76   0.0000       0.252469         6.8700
  77   0.0000       0.253980         6.9111

                 SPIN DOWN ORBITALS
  NO   OCC          E(Eh)            E(eV)
   0   1.0000    -196.612570     -5350.1000
   1   1.0000     -88.565564     -2409.9915
   2   1.0000     -88.561708     -2409.8866
   3   1.0000     -88.560055     -2409.8416
   4   1.0000     -88.558822     -2409.8081
   5   1.0000     -21.972149      -597.8926
   6   1.0000     -18.831680      -512.4361
   7   1.0000     -18.489792      -503.1328
   8   1.0000     -18.471801      -502.6433
   9   1.0000     -18.471341      -502.6307
  10   1.0000      -9.947488      -270.6849
  11   1.0000      -9.942285      -270.5433
  12   1.0000      -9.938948      -270.4525
  13   1.0000      -9.936501      -270.3859
  14   1.0000      -9.934406      -270.3289
  15   1.0000      -9.927992      -270.1544
  16   1.0000      -7.619297      -207.3316
  17   1.0000      -7.615284      -207.2224
  18   1.0000      -7.614062      -207.1891
  19   1.0000      -7.612873      -207.1568
  20   1.0000      -5.584688      -151.9671
  21   1.0000      -5.580660      -151.8575
  22   1.0000      -5.579342      -151.8216
  23   1.0000      -5.578458      -151.7975
  24   1.0000      -5.578343      -151.7944
  25   1.0000      -5.576476      -151.7436
  26   1.0000      -5.574469      -151.6890
  27   1.0000      -5.573699      -151.6681
  28   1.0000      -5.572462      -151.6344
  29   1.0000      -5.572358      -151.6316
  30   1.0000      -5.570737      -151.5875
  31   1.0000      -5.569569      -151.5557
  32   1.0000      -2.334108       -63.5143
  33   1.0000      -1.402458       -38.1628
  34   1.0000      -1.345332       -36.6084
  35   1.0000      -1.343562       -36.5602
  36   1.0000      -0.597828       -16.2677
  37   1.0000      -0.550893       -14.9905
  38   1.0000      -0.547948       -14.9104
  39   1.0000      -0.468357       -12.7446
  40   1.0000      -0.466721       -12.7001
  41   1.0000      -0.404590       -11.0094
  42   1.0000      -0.395847       -10.7715
  43   1.0000      -0.338188        -9.2026
  44   1.0000      -0.327060        -8.8998
  45   1.0000      -0.305353        -8.3091
  46   1.0000      -0.286437        -7.7944
  47   1.0000      -0.214047        -5.8245
  48   1.0000      -0.207455        -5.6451
  49   1.0000      -0.200497        -5.4558
  50   1.0000      -0.195717        -5.3257
  51   1.0000      -0.159207        -4.3322
  52   1.0000      -0.136680        -3.7192
  53   1.0000      -0.129465        -3.5229
  54   1.0000      -0.112511        -3.0616
  55   1.0000      -0.109608        -2.9826
  56   1.0000      -0.104821        -2.8523
  57   1.0000      -0.081075        -2.2062
  58   1.0000      -0.067159        -1.8275
  59   1.0000      -0.065342        -1.7781
  60   1.0000      -0.056835        -1.5466
  61   1.0000      -0.049416        -1.3447
  62   1.0000      -0.045862        -1.2480
  63   1.0000      -0.038556        -1.0492
  64   1.0000       0.003974         0.1081
  65   1.0000       0.028393         0.7726
  66   1.0000       0.033600         0.9143
  67   1.0000       0.044718         1.2169
  68   1.0000       0.046883         1.2758
  69   1.0000       0.061418         1.6713
  70   1.0000       0.066533         1.8104
  71   1.0000       0.073286         1.9942
  72   0.0000       0.229887         6.2555
  73   0.0000       0.247558         6.7364
  74   0.0000       0.255363         6.9488
  75   0.0000       0.257653         7.0111
  76   0.0000       0.259290         7.0556

MULLIKEN ATOMIC CHARGES AND SPIN POPULATIONS
--------------------------------------------
   0 V :    0.544521    1.205178
   1 S :   -0.434700   -0.006728
   2 S :   -0.369807   -0.032420
   3 S :   -0.394225   -0.031427
   4 S :   -0.391418   -0.025121
   5 O :   -0.541354   -0.138516
   6 C :   -0.247351    0.004933
   7 C :   -0.236374    0.006429
   8 C :   -0.165795    0.002397
   9 H :    0.073181   -0.000875
  10 H :    0.051741    0.001803
  11 H :    0.147514    0.000774
  12 H :    0.004895    0.000034
  13 H :    0.101464   -0.000033
  14 H :    0.047461   -0.000192
  15 C :   -0.258437   -0.000737
  16 C :   -0.242659    0.007490
  17 C :   -0.063689    0.006310
  18 H :    0.044117    0.000268
  19 H :    0.107167   -0.000855
  20 H :    0.009761    0.001747
  21 H :    0.020945   -0.000196
  22 H :    0.053810   -0.000522
  23 H :    0.139231    0.000260
Sum of atomic charges         :   -2.0000000

LOEWDIN ATOMIC CHARGES AND SPIN POPULATIONS
-------------------------------------------
   0 V :   -0.179112    1.162060
   1 S :   -0.089113   -0.000350
   2 S :   -0.055011   -0.022962
   3 S :   -0.054924   -0.021847
   4 S :   -0.074583   -0.016109
   5 O :   -0.372562   -0.125037
   6 C :   -0.328220    0.004231
   7 C :   -0.314143    0.006410
   8 C :   -0.188967    0.000426
   9 H :    0.034823   -0.000057
  10 H :    0.029299    0.000461
  11 H :    0.071353    0.000381
  12 H :    0.031097    0.000132
  13 H :    0.046546   -0.000067
  14 H :    0.026946   -0.000603
  15 C :   -0.320697    0.003218
  16 C :   -0.324350    0.008786
  17 C :   -0.187418    0.000770
  18 H :    0.032714   -0.000153
  19 H :    0.053009   -0.000464
  20 H :    0.035699    0.000719
  21 H :    0.039030    0.000326
  22 H :    0.031695   -0.000584
  23 H :    0.056888    0.000313

  Mayer bond orders larger than 0.100000
B(  0-V ,  1-S ) :   0.7068 B(  0-V ,  2-S ) :   0.8383 B(  0-V ,  3-S ) :   0.7744
B(  0-V ,  4-S ) :   0.7597 B(  0-V ,  5-O ) :   2.0797 B(  1-S , 15-C ) :   1.0326
B(  2-S ,  6-C ) :   1.0068 B(  3-S , 16-C ) :   1.0398 B(  4-S ,  7-C ) :   1.0691
B(  6-C ,  8-C ) :   0.8946 B(  6-C , 13-H ) :   0.9768 B(  6-C , 14-H ) :   0.9664
B(  7-C ,  8-C ) :   0.9220 B(  7-C ,  9-H ) :   0.9742 B(  7-C , 10-H ) :   0.9687
B(  8-C , 11-H ) :   0.9882 B(  8-C , 12-H ) :   0.9436 B( 15-C , 17-C ) :   0.8924
B( 15-C , 22-H ) :   0.9677 B( 15-C , 23-H ) :   0.9807 B( 16-C , 17-C ) :   0.8941
B( 16-C , 18-H ) :   0.9652 B( 16-C , 19-H ) :   0.9798 B( 17-C , 20-H ) :   0.9557
B( 17-C , 21-H ) :   0.9651

FINAL SINGLE POINT ENERGY     -2847.713415683050

DIPOLE MOMENT
-------------
                                X             Y             Z
Electronic contribution:     -0.24093       3.50582       5.33099
Nuclear contribution   :      0.38981      -3.66146      -5.68331
                        -----------------------------------------
Total Dipole Moment    :      0.14888      -0.15564      -0.35232
                        -----------------------------------------
Magnitude (a.u.)       :      0.41294
Magnitude (Debye)      :      1.04960

Rotational constants in cm-1:     0.026504     0.011640     0.009440
Rotational constants in MHz :   794.583980   348.952093   283.001048

                             ****ORCA TERMINATED NORMALLY****
TOTAL RUN TIME: 0 days 0 hours 14 minutes 16 seconds 120 msec
