                         Program Version 5.0.4 -  RELEASE  -
|  1> ! nofrozencore ReducedPop printbasis
|  2> ! B3LYP TZVP
|  3>
|  4> %basis
|  5> newgto V "CP(PPP)" end
|  6> end
|  7>
|  8> %pal
|  9> nprocs 4
| 10> end
| 11>
| 12> % sym SymThresh 1e-2 end
| 13> * xyz -2 2
| 14> V -0.43963244708727384 -0.002522949754686466 -0.19700142648618232
| 15> S -0.34503272012429265 2.4366533706271936 0.8001096097484195
| 16> S 1.2744229155572826 0.900201922803109 -1.4822826722187845
| 17> S -0.7241653564542658 -1.1189959022365914 2.135546983799978
| 18> S 0.4262495468945261 -2.22383159048584 -0.6929499811057295
| 19> O -1.6922251697385415 0.14328247192079174 -1.2161249853607285
| 20> C 1.9232467985311403 -0.28521718266071044 -2.7677601337431335
| 21> C 0.5454150182809356 -2.451607491998875 -2.5306455840076842
| 22> C 0.8898618370753388 -1.2268257401789726 -3.3962998935223934
| 23> H -0.3962577177164583 -2.881713899729745 -2.891199097995593
| 24> H 1.3217287026314997 -3.2155002868854496 -2.6771269788311582
| 25> H -0.02483088864297308 -0.6466140717075065 -3.6093714829766474
| 26> H 1.2751350761084927 -1.6049610556599696 -4.373375189834806
| 27> H 2.746162388817105 -0.8837661645383218 -2.3447163330468257
| 28> H 2.3524544885234087 0.3661436188275775 -3.5493407916684916
| 29> C 0.4642475759420072 2.090478750825224 2.4289758927013216
| 30> C -1.3730725300385358 0.3132098666749933 3.123002987397227
| 31> C -0.39796162458393447 1.4292115090081123 3.527069371243111
| 32> H -1.8154616941302468 -0.09099388617552658 4.046141984699797
| 33> H -2.1816419747782234 0.7657944285401856 2.5457298496395064
| 34> H 0.29177863670594995 1.0417242214592466 4.295771963796163
| 35> H -1.007301071843753 2.2122220705184277 4.014869315180581
| 36> H 0.8495323859692494 3.0439112898010547 2.8283153143596054
| 37> H 1.33732471009106 1.4563889331207942 2.22722695818458
| 38> *
| 39>
| 40> % eprnmr
| 41> gtensor true
| 42> Nuclei = all H {aiso,adip,aorb,fgrad,rho}
| 43> Nuclei = all V {aiso,adip,aorb,fgrad,rho}
| 44> end
| 45>
| 46>                          ****END OF INPUT****

CARTESIAN COORDINATES (ANGSTROEM)
---------------------------------
  V     -0.440371   -0.002384   -0.197075
  S     -0.345771    2.436793    0.800036
  S      1.273684    0.900341   -1.482356
  S     -0.724904   -1.118857    2.135474
  S      0.425511   -2.223692   -0.693023
  O     -1.692964    0.143422   -1.216198
  C      1.922508   -0.285078   -2.767834
  C      0.544676   -2.451468   -2.530719
  C      0.889123   -1.226686   -3.396373
  H     -0.396996   -2.881575   -2.891273
  H      1.320990   -3.215361   -2.677200
  H     -0.025569   -0.646475   -3.609445
  H      1.274397   -1.604822   -4.373449
  H      2.745424   -0.883627   -2.344790
  H      2.351716    0.366283   -3.549414
  C      0.463509    2.090618    2.428902
  C     -1.373811    0.313349    3.122930
  C     -0.398700    1.429351    3.526996
  H     -1.816200   -0.090855    4.046069
  H     -2.182381    0.765934    2.545656
  H      0.291040    1.041864    4.295698
  H     -1.008040    2.212361    4.014796
  H      0.848794    3.044051    2.828242
  H      1.336586    1.456528    2.227153

 Total Charge           Charge          ....   -2
 Multiplicity           Mult            ....    2
 Number of Electrons    NEL             ....  145
 Basis Dimension        Dim             ....  353

ORBITAL ENERGIES
----------------
                 SPIN UP ORBITALS
  NO   OCC          E(Eh)            E(eV)
   0   1.0000    -196.609705     -5350.0221
   1   1.0000     -88.564348     -2409.9584
   2   1.0000     -88.562466     -2409.9072
   3   1.0000     -88.560514     -2409.8541
   4   1.0000     -88.557344     -2409.7678
   5   1.0000     -21.984376      -598.2253
   6   1.0000     -18.823014      -512.2002
   7   1.0000     -18.492224      -503.1990
   8   1.0000     -18.485002      -503.0025
   9   1.0000     -18.484896      -502.9996
  10   1.0000      -9.945774      -270.6383
  11   1.0000      -9.941265      -270.5156
  12   1.0000      -9.936986      -270.3991
  13   1.0000      -9.936405      -270.3833
  14   1.0000      -9.934801      -270.3397
  15   1.0000      -9.932070      -270.2654
  16   1.0000      -7.618814      -207.3185
  17   1.0000      -7.616907      -207.2666
  18   1.0000      -7.614004      -207.1876
  19   1.0000      -7.611021      -207.1064
  20   1.0000      -5.584279      -151.9559
  21   1.0000      -5.582353      -151.9036
  22   1.0000      -5.579255      -151.8193
  23   1.0000      -5.577495      -151.7714
  24   1.0000      -5.576262      -151.7378
  25   1.0000      -5.575875      -151.7273
  26   1.0000      -5.575854      -151.7267
  27   1.0000      -5.573904      -151.6737
  28   1.0000      -5.573100      -151.6518
  29   1.0000      -5.571237      -151.6011
  30   1.0000      -5.570361      -151.5772
  31   1.0000      -5.568065      -151.5148
  32   1.0000      -2.376776       -64.6754
  33   1.0000      -1.417727       -38.5783
  34   1.0000      -1.405416       -38.2433
  35   1.0000      -1.404846       -38.2278
  36   1.0000      -0.584593       -15.9076
  37   1.0000      -0.552896       -15.0451
  38   1.0000      -0.544538       -14.8176
  39   1.0000      -0.471534       -12.8311
  40   1.0000      -0.465919       -12.6783
  41   1.0000      -0.406576       -11.0635
  42   1.0000      -0.396735       -10.7957
  43   1.0000      -0.338253        -9.2043
  44   1.0000      -0.329326        -8.9614
  45   1.0000      -0.304950        -8.2981
  46   1.0000      -0.281822        -7.6688
  47   1.0000      -0.212103        -5.7716
  48   1.0000      -0.210099        -5.7171
  49   1.0000      -0.200775        -5.4634
  50   1.0000      -0.197368        -5.3707
  51   1.0000      -0.163931        -4.4608
  52   1.0000      -0.130282        -3.5451
  53   1.0000      -0.128111        -3.4861
  54   1.0000      -0.114771        -3.1231
  55   1.0000      -0.108924        -2.9640
  56   1.0000      -0.108681        -2.9574
  57   1.0000      -0.083350        -2.2681
  58   1.0000      -0.073073        -1.9884
  59   1.0000      -0.060445        -1.6448
  60   1.0000      -0.051804        -1.4097
  61   1.0000      -0.044688        -1.2160
  62   1.0000      -0.040196        -1.0938
  63   1.0000      -0.034210        -0.9309
  64   1.0000      -0.003781        -0.1029
  65   1.0000       0.023989         0.6528
  66   1.0000       0.031464         0.8562
  67   1.0000       0.039802         1.0831
  68   1.0000       0.046271         1.2591
  69   1.0000       0.053782         1.4635
  70   1.0000       0.064656         1.7594
  71   1.0000       0.071566         1.9474
  72   1.0000       0.080651         2.1946
  73   0.0000       0.229489         6.2447
  74   0.0000       0.238392         6.4870
  75   0.0000       0.247773         6.7423
  76   0.0000       0.250071         6.8048
  77   0.0000       0.257605         7.0098

                 SPIN DOWN ORBITALS
  NO   OCC          E(Eh)            E(eV)
   0   1.0000    -196.609839     -5350.0257
   1   1.0000     -88.564548     -2409.9639
   2   1.0000     -88.562540     -2409.9092
   3   1.0000     -88.560662     -2409.8581
   4   1.0000     -88.557346     -2409.7679
   5   1.0000     -21.969211      -597.8126
   6   1.0000     -18.826696      -512.3004
   7   1.0000     -18.486865      -503.0532
   8   1.0000     -18.469018      -502.5675
   9   1.0000     -18.468223      -502.5459
  10   1.0000      -9.945623      -270.6342
  11   1.0000      -9.941046      -270.5096
  12   1.0000      -9.937003      -270.3996
  13   1.0000      -9.936370      -270.3824
  14   1.0000      -9.934681      -270.3364
  15   1.0000      -9.932052      -270.2649
  16   1.0000      -7.619008      -207.3238
  17   1.0000      -7.616979      -207.2685
  18   1.0000      -7.614145      -207.1914
  19   1.0000      -7.611024      -207.1065
  20   1.0000      -5.584492      -151.9617
  21   1.0000      -5.582458      -151.9064
  22   1.0000      -5.579371      -151.8224
  23   1.0000      -5.577977      -151.7845
  24   1.0000      -5.576286      -151.7385
  25   1.0000      -5.576232      -151.7370
  26   1.0000      -5.576039      -151.7317
  27   1.0000      -5.573741      -151.6692
  28   1.0000      -5.573514      -151.6630
  29   1.0000      -5.571345      -151.6040
  30   1.0000      -5.570722      -151.5870
  31   1.0000      -5.567693      -151.5046
  32   1.0000      -2.331461       -63.4423
  33   1.0000      -1.398034       -38.0424
  34   1.0000      -1.343933       -36.5703
  35   1.0000      -1.341345       -36.4998
  36   1.0000      -0.592714       -16.1286
  37   1.0000      -0.552767       -15.0415
  38   1.0000      -0.544460       -14.8155
  39   1.0000      -0.471404       -12.8275
  40   1.0000      -0.465875       -12.6771
  41   1.0000      -0.406686       -11.0665
  42   1.0000      -0.396834       -10.7984
  43   1.0000      -0.338489        -9.2107
  44   1.0000      -0.329647        -8.9702
  45   1.0000      -0.304892        -8.2965
  46   1.0000      -0.281885        -7.6705
  47   1.0000      -0.212007        -5.7690
  48   1.0000      -0.210049        -5.7157
  49   1.0000      -0.200515        -5.4563
  50   1.0000      -0.197330        -5.3696
  51   1.0000      -0.163787        -4.4569
  52   1.0000      -0.130142        -3.5414
  53   1.0000      -0.127867        -3.4794
  54   1.0000      -0.114646        -3.1197
  55   1.0000      -0.108805        -2.9607
  56   1.0000      -0.108582        -2.9547
  57   1.0000      -0.082425        -2.2429
  58   1.0000      -0.070396        -1.9156
  59   1.0000      -0.059664        -1.6235
  60   1.0000      -0.051960        -1.4139
  61   1.0000      -0.045236        -1.2309
  62   1.0000      -0.040940        -1.1140
  63   1.0000      -0.036711        -0.9989
  64   1.0000       0.002190         0.0596
  65   1.0000       0.027412         0.7459
  66   1.0000       0.033881         0.9220
  67   1.0000       0.044798         1.2190
  68   1.0000       0.046834         1.2744
  69   1.0000       0.062036         1.6881
  70   1.0000       0.068973         1.8768
  71   1.0000       0.073942         2.0121
  72   0.0000       0.232882         6.3370
  73   0.0000       0.247210         6.7269
  74   0.0000       0.249665         6.7937
  75   0.0000       0.258315         7.0291
  76   0.0000       0.259265         7.0549

MULLIKEN ATOMIC CHARGES AND SPIN POPULATIONS
--------------------------------------------
   0 V :    0.507399    1.201730
   1 S :   -0.456349   -0.006745
   2 S :   -0.271836   -0.036524
   3 S :   -0.459225   -0.028864
   4 S :   -0.353142   -0.015820
   5 O :   -0.543228   -0.142261
   6 C :   -0.246307    0.009753
   7 C :   -0.228520    0.006928
   8 C :   -0.139660    0.000283
   9 H :    0.077028   -0.000596
  10 H :    0.053204    0.001318
  11 H :    0.117997    0.000214
  12 H :    0.005384    0.000248
  13 H :    0.080846   -0.000212
  14 H :    0.052303   -0.000359
  15 C :   -0.251334   -0.001380
  16 C :   -0.261717    0.005583
  17 C :   -0.053485    0.004625
  18 H :    0.045110    0.001376
  19 H :    0.126078   -0.000771
  20 H :    0.016210    0.000866
  21 H :    0.009351    0.000178
  22 H :    0.048080   -0.000322
  23 H :    0.125814    0.000753
Sum of atomic charges         :   -2.0000000

LOEWDIN ATOMIC CHARGES AND SPIN POPULATIONS
-------------------------------------------
   0 V :   -0.201507    1.157342
   1 S :   -0.116774   -0.001371
   2 S :    0.041291   -0.023585
   3 S :   -0.129954   -0.020411
   4 S :   -0.028898   -0.007261
   5 O :   -0.389976   -0.128510
   6 C :   -0.324302    0.008666
   7 C :   -0.314431    0.005903
   8 C :   -0.183714    0.000093
   9 H :    0.038331    0.000152
  10 H :    0.030779    0.000237
  11 H :    0.069556    0.000104
  12 H :    0.033113    0.000437
  13 H :    0.043272    0.000033
  14 H :    0.031425   -0.000722
  15 C :   -0.323281    0.001829
  16 C :   -0.328571    0.005210
  17 C :   -0.185428    0.000545
  18 H :    0.028618    0.000607
  19 H :    0.052700   -0.000323
  20 H :    0.037575    0.000362
  21 H :    0.036034    0.000236
  22 H :    0.030365   -0.000386
  23 H :    0.053775    0.000814

  Mayer bond orders larger than 0.100000
B(  0-V ,  1-S ) :   0.6472 B(  0-V ,  2-S ) :   0.9763 B(  0-V ,  3-S ) :   0.6896
B(  0-V ,  4-S ) :   0.8285 B(  0-V ,  5-O ) :   2.0758 B(  1-S , 15-C ) :   1.0491
B(  2-S ,  6-C ) :   1.0045 B(  3-S , 16-C ) :   1.0463 B(  4-S ,  7-C ) :   1.0664
B(  6-C ,  8-C ) :   0.9146 B(  6-C , 13-H ) :   0.9683 B(  6-C , 14-H ) :   0.9698
B(  7-C ,  8-C ) :   0.9187 B(  7-C ,  9-H ) :   0.9776 B(  7-C , 10-H ) :   0.9718
B(  8-C , 11-H ) :   0.9831 B(  8-C , 12-H ) :   0.9480 B( 15-C , 17-C ) :   0.8873
B( 15-C , 22-H ) :   0.9658 B( 15-C , 23-H ) :   0.9867 B( 16-C , 17-C ) :   0.8949
B( 16-C , 18-H ) :   0.9626 B( 16-C , 19-H ) :   0.9847 B( 17-C , 20-H ) :   0.9599
B( 17-C , 21-H ) :   0.9603

FINAL SINGLE POINT ENERGY     -2847.705615226067

DIPOLE MOMENT
-------------
                                X             Y             Z
Electronic contribution:     -5.85811       0.20023      -1.70588
Nuclear contribution   :      6.43957      -0.39546       1.35158
                        -----------------------------------------
Total Dipole Moment    :      0.58146      -0.19523      -0.35430
                        -----------------------------------------
Magnitude (a.u.)       :      0.70834
Magnitude (Debye)      :      1.80044

Rotational constants in cm-1:     0.026564     0.011698     0.009412
Rotational constants in MHz :   796.381584   350.708409   282.170665

                             ****ORCA TERMINATED NORMALLY****
TOTAL RUN TIME: 0 days 0 hours 14 minutes 27 seconds 946 msec
