                         Program Version 5.0.4 -  RELEASE  -
|  1> ! nofrozencore ReducedPop printbasis
|  2> ! B3LYP TZVP
|  3>
|  4> %basis
|  5> newgto V "CP(PPP)" end
|  6> end
|  7>
|  8> %pal
|  9> nprocs 4
| 10> end
| 11>
| 12> % sym SymThresh 1e-2 end
| 13> * xyz -2 2
| 14> V 0.39606115109609147 -0.2848223829152841 0.06380911020299739
| 15> S 0.9682952495800603 0.8354378488711446 -2.148099446307885
| 16> S 0.628613515884199 2.011749837609456 0.8779161867245834
| 17> S -1.3466032218279913 -1.6206408362428992 -1.1227594125463347
| 18> S -1.0611236710902667 -0.8239341046683639 2.0067183966858075
| 19> O 1.7358448145691836 -1.1177927894291146 0.336588032531691
| 20> C 0.320811716360656 2.0083006186380006 2.70933231251483
| 21> C -0.12389278011321377 -0.3851140297019599 3.5435999187729332
| 22> C 0.8743203925365699 0.7747144153469472 3.4352019709377113
| 23> H 0.4091455791621157 -1.2765496163463013 3.894463794813377
| 24> H -0.8699277440305317 -0.13583823739328615 4.309872699899713
| 25> H 1.778138018331467 0.44103615753927133 2.919204823268357
| 26> H 1.1724561908246418 1.0526159671122954 4.462635663590207
| 27> H -0.7543573202037823 2.0886342897736516 2.9019794199054347
| 28> H 0.7996951672028152 2.913945702585157 3.099622947311327
| 29> C -0.6704861522559435 0.9490858932268451 -2.8595198303956244
| 30> C -0.7781182431030641 -1.630558309684096 -2.821195816907317
| 31> C -1.1762236947972724 -0.3405154321853051 -3.7768880925441923
| 32> H -1.5076911189985491 -2.4801084133763824 -3.0554682988829365
| 33> H 0.25443723683223335 -2.0082998318122276 -3.0198932428390837
| 34> H -2.2625432690873493 -0.3693635208004326 -3.9598808696761876
| 35> H -0.6451805979117624 -0.31960150256952813 -4.741380153380503
| 36> H -0.3127525727750692 1.7777621818935965 -3.5624400474425526
| 37> H -1.4812930319720317 1.3823861404960216 -2.2255030254712347
| 38> *
| 39>
| 40> % eprnmr
| 41> gtensor true
| 42> Nuclei = all H {aiso,adip,aorb,fgrad,rho}
| 43> Nuclei = all V {aiso,adip,aorb,fgrad,rho}
| 44> end
| 45>
| 46>                          ****END OF INPUT****

CARTESIAN COORDINATES (ANGSTROEM)
---------------------------------
  V      0.396616   -0.285297    0.063618
  S      0.968850    0.834963   -2.148291
  S      0.629169    2.011275    0.877725
  S     -1.346048   -1.621115   -1.122951
  S     -1.060569   -0.824409    2.006527
  O      1.736400   -1.118267    0.336397
  C      0.321367    2.007826    2.709141
  C     -0.123338   -0.385589    3.543409
  C      0.874876    0.774240    3.435011
  H      0.409701   -1.277024    3.894272
  H     -0.869373   -0.136313    4.309681
  H      1.778693    0.440562    2.919013
  H      1.173011    1.052141    4.462444
  H     -0.753802    2.088160    2.901788
  H      0.800250    2.913471    3.099432
  C     -0.669931    0.948611   -2.859711
  C     -0.777563   -1.631033   -2.821387
  C     -1.175669   -0.340990   -3.777079
  H     -1.507136   -2.480583   -3.055660
  H      0.254992   -2.008774   -3.020085
  H     -2.261988   -0.369838   -3.960072
  H     -0.644625   -0.320076   -4.741572
  H     -0.312197    1.777288   -3.562631
  H     -1.480738    1.381911   -2.225694

 Total Charge           Charge          ....   -2
 Multiplicity           Mult            ....    2
 Number of Electrons    NEL             ....  145
 Basis Dimension        Dim             ....  353

ORBITAL ENERGIES
----------------
                 SPIN UP ORBITALS
  NO   OCC          E(Eh)            E(eV)
   0   1.0000    -196.604626     -5349.8838
   1   1.0000     -88.563067     -2409.9236
   2   1.0000     -88.560261     -2409.8472
   3   1.0000     -88.558180     -2409.7906
   4   1.0000     -88.557706     -2409.7777
   5   1.0000     -21.979884      -598.1030
   6   1.0000     -18.823347      -512.2093
   7   1.0000     -18.487656      -503.0747
   8   1.0000     -18.480484      -502.8795
   9   1.0000     -18.480414      -502.8776
  10   1.0000      -9.946743      -270.6646
  11   1.0000      -9.945352      -270.6268
  12   1.0000      -9.944661      -270.6080
  13   1.0000      -9.941978      -270.5350
  14   1.0000      -9.935088      -270.3475
  15   1.0000      -9.928634      -270.1719
  16   1.0000      -7.618161      -207.3007
  17   1.0000      -7.614115      -207.1906
  18   1.0000      -7.613479      -207.1733
  19   1.0000      -7.612049      -207.1344
  20   1.0000      -5.583300      -151.9293
  21   1.0000      -5.579533      -151.8268
  22   1.0000      -5.578620      -151.8020
  23   1.0000      -5.577496      -151.7714
  24   1.0000      -5.576991      -151.7576
  25   1.0000      -5.575374      -151.7136
  26   1.0000      -5.572938      -151.6474
  27   1.0000      -5.572550      -151.6368
  28   1.0000      -5.571307      -151.6030
  29   1.0000      -5.571067      -151.5964
  30   1.0000      -5.570525      -151.5817
  31   1.0000      -5.568994      -151.5400
  32   1.0000      -2.372852       -64.5686
  33   1.0000      -1.415786       -38.5255
  34   1.0000      -1.400862       -38.1194
  35   1.0000      -1.400489       -38.1093
  36   1.0000      -0.585992       -15.9456
  37   1.0000      -0.550607       -14.9828
  38   1.0000      -0.529457       -14.4073
  39   1.0000      -0.471549       -12.8315
  40   1.0000      -0.468337       -12.7441
  41   1.0000      -0.410732       -11.1766
  42   1.0000      -0.397757       -10.8235
  43   1.0000      -0.330215        -8.9856
  44   1.0000      -0.316447        -8.6109
  45   1.0000      -0.304285        -8.2800
  46   1.0000      -0.283141        -7.7047
  47   1.0000      -0.207026        -5.6335
  48   1.0000      -0.204688        -5.5698
  49   1.0000      -0.197664        -5.3787
  50   1.0000      -0.184237        -5.0134
  51   1.0000      -0.160115        -4.3569
  52   1.0000      -0.145413        -3.9569
  53   1.0000      -0.117501        -3.1974
  54   1.0000      -0.111586        -3.0364
  55   1.0000      -0.105800        -2.8790
  56   1.0000      -0.098072        -2.6687
  57   1.0000      -0.078320        -2.1312
  58   1.0000      -0.068623        -1.8673
  59   1.0000      -0.062372        -1.6972
  60   1.0000      -0.057726        -1.5708
  61   1.0000      -0.046117        -1.2549
  62   1.0000      -0.043375        -1.1803
  63   1.0000      -0.037442        -1.0189
  64   1.0000       0.003754         0.1021
  65   1.0000       0.030464         0.8290
  66   1.0000       0.032842         0.8937
  67   1.0000       0.040063         1.0902
  68   1.0000       0.047349         1.2884
  69   1.0000       0.055320         1.5053
  70   1.0000       0.063236         1.7207
  71   1.0000       0.072241         1.9658
  72   1.0000       0.081067         2.2059
  73   0.0000       0.236115         6.4250
  74   0.0000       0.248469         6.7612
  75   0.0000       0.250426         6.8144
  76   0.0000       0.252101         6.8600
  77   0.0000       0.261510         7.1161

                 SPIN DOWN ORBITALS
  NO   OCC          E(Eh)            E(eV)
   0   1.0000    -196.604767     -5349.8877
   1   1.0000     -88.563238     -2409.9282
   2   1.0000     -88.560437     -2409.8520
   3   1.0000     -88.558194     -2409.7910
   4   1.0000     -88.557810     -2409.7805
   5   1.0000     -21.964753      -597.6913
   6   1.0000     -18.826843      -512.3045
   7   1.0000     -18.482418      -502.9322
   8   1.0000     -18.464449      -502.4432
   9   1.0000     -18.463760      -502.4245
  10   1.0000      -9.946686      -270.6631
  11   1.0000      -9.945194      -270.6225
  12   1.0000      -9.944627      -270.6071
  13   1.0000      -9.941801      -270.5302
  14   1.0000      -9.934948      -270.3437
  15   1.0000      -9.928654      -270.1724
  16   1.0000      -7.618325      -207.3052
  17   1.0000      -7.614286      -207.1952
  18   1.0000      -7.613494      -207.1737
  19   1.0000      -7.612147      -207.1371
  20   1.0000      -5.583446      -151.9333
  21   1.0000      -5.579700      -151.8314
  22   1.0000      -5.578658      -151.8030
  23   1.0000      -5.577618      -151.7747
  24   1.0000      -5.577460      -151.7704
  25   1.0000      -5.575496      -151.7170
  26   1.0000      -5.573387      -151.6596
  27   1.0000      -5.572942      -151.6475
  28   1.0000      -5.571463      -151.6072
  29   1.0000      -5.571442      -151.6066
  30   1.0000      -5.570157      -151.5717
  31   1.0000      -5.568928      -151.5382
  32   1.0000      -2.327672       -63.3392
  33   1.0000      -1.396651       -38.0048
  34   1.0000      -1.339087       -36.4384
  35   1.0000      -1.337033       -36.3825
  36   1.0000      -0.593457       -16.1488
  37   1.0000      -0.550510       -14.9801
  38   1.0000      -0.529333       -14.4039
  39   1.0000      -0.471507       -12.8304
  40   1.0000      -0.468284       -12.7427
  41   1.0000      -0.410739       -11.1768
  42   1.0000      -0.397951       -10.8288
  43   1.0000      -0.330595        -8.9960
  44   1.0000      -0.316722        -8.6184
  45   1.0000      -0.304260        -8.2793
  46   1.0000      -0.283248        -7.7076
  47   1.0000      -0.206965        -5.6318
  48   1.0000      -0.204653        -5.5689
  49   1.0000      -0.197479        -5.3737
  50   1.0000      -0.184168        -5.0115
  51   1.0000      -0.159973        -4.3531
  52   1.0000      -0.145253        -3.9525
  53   1.0000      -0.117450        -3.1960
  54   1.0000      -0.111571        -3.0360
  55   1.0000      -0.105643        -2.8747
  56   1.0000      -0.097707        -2.6587
  57   1.0000      -0.077260        -2.1024
  58   1.0000      -0.066784        -1.8173
  59   1.0000      -0.061349        -1.6694
  60   1.0000      -0.057263        -1.5582
  61   1.0000      -0.046230        -1.2580
  62   1.0000      -0.044396        -1.2081
  63   1.0000      -0.039898        -1.0857
  64   1.0000       0.007410         0.2016
  65   1.0000       0.033464         0.9106
  66   1.0000       0.035323         0.9612
  67   1.0000       0.047616         1.2957
  68   1.0000       0.048017         1.3066
  69   1.0000       0.060533         1.6472
  70   1.0000       0.068102         1.8532
  71   1.0000       0.074271         2.0210
  72   0.0000       0.236142         6.4257
  73   0.0000       0.252216         6.8631
  74   0.0000       0.256197         6.9715
  75   0.0000       0.262309         7.1378
  76   0.0000       0.266933         7.2636

MULLIKEN ATOMIC CHARGES AND SPIN POPULATIONS
--------------------------------------------
   0 V :    0.550189    1.201525
   1 S :   -0.427206   -0.008433
   2 S :   -0.357629   -0.032653
   3 S :   -0.404375   -0.031292
   4 S :   -0.391098   -0.021385
   5 O :   -0.551791   -0.134564
   6 C :   -0.245160    0.005926
   7 C :   -0.234389    0.006093
   8 C :   -0.157097    0.003276
   9 H :    0.075017   -0.000915
  10 H :    0.050421    0.002130
  11 H :    0.138205    0.000547
  12 H :    0.004754   -0.000092
  13 H :    0.094227   -0.000153
  14 H :    0.048862    0.000034
  15 C :   -0.240144   -0.001291
  16 C :   -0.240947    0.003553
  17 C :   -0.078811    0.005956
  18 H :    0.027815    0.000693
  19 H :    0.121567   -0.000590
  20 H :    0.025754    0.001497
  21 H :    0.025382   -0.000170
  22 H :    0.032937   -0.000182
  23 H :    0.133514    0.000491
Sum of atomic charges         :   -2.0000000

LOEWDIN ATOMIC CHARGES AND SPIN POPULATIONS
-------------------------------------------
   0 V :   -0.197160    1.156861
   1 S :   -0.046413   -0.001913
   2 S :   -0.040007   -0.022413
   3 S :   -0.032397   -0.021889
   4 S :   -0.067655   -0.012502
   5 O :   -0.379175   -0.121247
   6 C :   -0.325702    0.005502
   7 C :   -0.314795    0.006797
   8 C :   -0.187173    0.000504
   9 H :    0.036076   -0.000004
  10 H :    0.028770    0.000604
  11 H :    0.069945    0.000315
  12 H :    0.031181    0.000138
  13 H :    0.045105   -0.000068
  14 H :    0.027465   -0.000508
  15 C :   -0.343766    0.001703
  16 C :   -0.349082    0.006053
  17 C :   -0.193949    0.001688
  18 H :    0.027275   -0.000098
  19 H :    0.051363   -0.000489
  20 H :    0.037845    0.000635
  21 H :    0.036819    0.000259
  22 H :    0.030719   -0.000413
  23 H :    0.054711    0.000485

  Mayer bond orders larger than 0.100000
B(  0-V ,  1-S ) :   0.6936 B(  0-V ,  2-S ) :   0.8540 B(  0-V ,  3-S ) :   0.7597
B(  0-V ,  4-S ) :   0.7679 B(  0-V ,  5-O ) :   2.0738 B(  1-S , 15-C ) :   1.0292
B(  2-S ,  6-C ) :   1.0131 B(  3-S , 16-C ) :   1.0294 B(  4-S ,  7-C ) :   1.0728
B(  6-C ,  8-C ) :   0.9010 B(  6-C , 13-H ) :   0.9741 B(  6-C , 14-H ) :   0.9688
B(  7-C ,  8-C ) :   0.9201 B(  7-C ,  9-H ) :   0.9778 B(  7-C , 10-H ) :   0.9681
B(  8-C , 11-H ) :   0.9873 B(  8-C , 12-H ) :   0.9460 B( 15-C , 17-C ) :   0.8704
B( 15-C , 22-H ) :   0.9842 B( 15-C , 23-H ) :   0.9494 B( 16-C , 17-C ) :   0.8799
B( 16-C , 18-H ) :   0.9784 B( 16-C , 19-H ) :   0.9501 B( 17-C , 20-H ) :   0.9564
B( 17-C , 21-H ) :   0.9578

FINAL SINGLE POINT ENERGY     -2847.671906774507

DIPOLE MOMENT
-------------
                                X             Y             Z
Electronic contribution:      4.78266      -3.87928      -0.38763
Nuclear contribution   :     -4.98688       4.16263       0.67984
                        -----------------------------------------
Total Dipole Moment    :     -0.20422       0.28335       0.29221
                        -----------------------------------------
Magnitude (a.u.)       :      0.45539
Magnitude (Debye)      :      1.15750

Rotational constants in cm-1:     0.027038     0.011714     0.009580
Rotational constants in MHz :   810.570843   351.189906   287.192946

                             ****ORCA TERMINATED NORMALLY****
TOTAL RUN TIME: 0 days 0 hours 14 minutes 24 seconds 51 msec
