                         Program Version 5.0.4 -  RELEASE  -
|  1> ! nofrozencore ReducedPop printbasis
|  2> ! B3LYP TZVP
|  3>
|  4> %basis
|  5> newgto V "CP(PPP)" end
|  6> end
|  7>
|  8> %pal
|  9> nprocs 8
| 10> end
| 11>
| 12> % sym SymThresh 1e-2 end
| 13> * xyz -2 2
| 14> V -0.19487111057364703 0.0009002217699085421 -0.4517689323476753
| 15> S 1.277487728093827 -2.053012498042333 -0.5834323804577964
| 16> S -1.3763856915012016 -1.386769372613916 1.1814753593451555
| 17> S 1.848756726434794 1.4118369723348867 -0.47551226181809914
| 18> S -1.1235638044622978 2.046937425124906 0.6174473024762729
| 19> O -0.9233832292321342 -0.06004915891680376 -1.8776203131200995
| 20> C -2.8272760926092775 -0.4196883854456323 1.8169021969913666
| 21> C -2.9685342106666956 1.8675595630984332 0.6484262151394333
| 22> C -3.5216338944600456 0.44532050300126086 0.7548993136742644
| 23> H -3.38379381572428 2.33911784932797 -0.24996682926022187
| 24> H -3.3143857779552386 2.456157401423209 1.5081702788813467
| 25> H -3.4337688454116293 -0.0711539890149156 -0.2045182429460801
| 26> H -4.600747105710641 0.5197344940906578 0.9818195483307904
| 27> H -2.508306065559742 0.2219454568113344 2.6452048485563493
| 28> H -3.534230747566467 -1.1557250139294455 2.2172180193311064
| 29> C 2.7243066717746927 -1.5247396916692895 0.4177374363869452
| 30> C 3.1851119235078738 0.37895406849506913 -1.2567070468430614
| 31> C 3.7546065331417915 -0.7820168809510499 -0.28400264095703476
| 32> H 3.874065030658322 1.1525587452367734 -1.6403121121486517
| 33> H 2.758829400387878 -0.20281867102152393 -2.083135507960422
| 34> H 4.481569385592208 0.013346394980328738 0.18767547992399386
| 35> H 4.453201763988945 -1.1423651388992775 -1.1566968720020718
| 36> H 3.333348394145523 -2.3675069118070726 0.8002748271107885
| 37> H 2.3331821122487444 -1.028902174201193 1.3091039702638392
| 38> *
| 39>
| 40> % eprnmr
| 41> gtensor true
| 42> Nuclei = all H {aiso,adip,aorb,fgrad,rho}
| 43> Nuclei = all V {aiso,adip,aorb,fgrad,rho}
| 44> end
| 45>
| 46>                          ****END OF INPUT****

CARTESIAN COORDINATES (ANGSTROEM)
---------------------------------
  V     -0.194887    0.000834   -0.452521
  S      1.277472   -2.053079   -0.584184
  S     -1.376402   -1.386836    1.180723
  S      1.848741    1.411770   -0.476264
  S     -1.123580    2.046871    0.616695
  O     -0.923399   -0.060116   -1.878372
  C     -2.827292   -0.419755    1.816150
  C     -2.968550    1.867493    0.647674
  C     -3.521650    0.445254    0.754147
  H     -3.383810    2.339051   -0.250719
  H     -3.314402    2.456091    1.507418
  H     -3.433785   -0.071221   -0.205270
  H     -4.600763    0.519668    0.981068
  H     -2.508322    0.221879    2.644453
  H     -3.534247   -1.155792    2.216466
  C      2.724291   -1.524806    0.416986
  C      3.185096    0.378888   -1.257459
  C      3.754590   -0.782083   -0.284755
  H      3.874049    1.152492   -1.641064
  H      2.758813   -0.202885   -2.083887
  H      4.481553    0.013280    0.186924
  H      4.453186   -1.142432   -1.157449
  H      3.333332   -2.367573    0.799523
  H      2.333166   -1.028969    1.308352

 Total Charge           Charge          ....   -2
 Multiplicity           Mult            ....    2
 Number of Electrons    NEL             ....  145
 Basis Dimension        Dim             ....  353

ORBITAL ENERGIES
----------------
                 SPIN UP ORBITALS
  NO   OCC          E(Eh)            E(eV)
   0   1.0000    -196.607899     -5349.9729
   1   1.0000     -88.562549     -2409.9095
   2   1.0000     -88.562251     -2409.9014
   3   1.0000     -88.559556     -2409.8280
   4   1.0000     -88.559352     -2409.8225
   5   1.0000     -21.983257      -598.1948
   6   1.0000     -18.825724      -512.2740
   7   1.0000     -18.491011      -503.1660
   8   1.0000     -18.483891      -502.9723
   9   1.0000     -18.483788      -502.9694
  10   1.0000      -9.947475      -270.6846
  11   1.0000      -9.943038      -270.5638
  12   1.0000      -9.941282      -270.5160
  13   1.0000      -9.936705      -270.3915
  14   1.0000      -9.936286      -270.3801
  15   1.0000      -9.929648      -270.1995
  16   1.0000      -7.616974      -207.2684
  17   1.0000      -7.616128      -207.2454
  18   1.0000      -7.613704      -207.1794
  19   1.0000      -7.613649      -207.1779
  20   1.0000      -5.582431      -151.9057
  21   1.0000      -5.581527      -151.8811
  22   1.0000      -5.579092      -151.8148
  23   1.0000      -5.578669      -151.8033
  24   1.0000      -5.576043      -151.7319
  25   1.0000      -5.574936      -151.7017
  26   1.0000      -5.573903      -151.6736
  27   1.0000      -5.573343      -151.6584
  28   1.0000      -5.572798      -151.6435
  29   1.0000      -5.572683      -151.6404
  30   1.0000      -5.571079      -151.5968
  31   1.0000      -5.570558      -151.5826
  32   1.0000      -2.375972       -64.6535
  33   1.0000      -1.418605       -38.6022
  34   1.0000      -1.404121       -38.2081
  35   1.0000      -1.403636       -38.1949
  36   1.0000      -0.588184       -16.0053
  37   1.0000      -0.555142       -15.1062
  38   1.0000      -0.552238       -15.0272
  39   1.0000      -0.470572       -12.8049
  40   1.0000      -0.469275       -12.7696
  41   1.0000      -0.403141       -10.9700
  42   1.0000      -0.395855       -10.7718
  43   1.0000      -0.343076        -9.3356
  44   1.0000      -0.329373        -8.9627
  45   1.0000      -0.305415        -8.3108
  46   1.0000      -0.281329        -7.6553
  47   1.0000      -0.214703        -5.8424
  48   1.0000      -0.208374        -5.6701
  49   1.0000      -0.199479        -5.4281
  50   1.0000      -0.198392        -5.3985
  51   1.0000      -0.163143        -4.4393
  52   1.0000      -0.159960        -4.3527
  53   1.0000      -0.115623        -3.1463
  54   1.0000      -0.113757        -3.0955
  55   1.0000      -0.105759        -2.8779
  56   1.0000      -0.097601        -2.6558
  57   1.0000      -0.078866        -2.1461
  58   1.0000      -0.064560        -1.7568
  59   1.0000      -0.062364        -1.6970
  60   1.0000      -0.052260        -1.4221
  61   1.0000      -0.046668        -1.2699
  62   1.0000      -0.039228        -1.0674
  63   1.0000      -0.031809        -0.8656
  64   1.0000      -0.001369        -0.0373
  65   1.0000       0.025658         0.6982
  66   1.0000       0.030535         0.8309
  67   1.0000       0.036161         0.9840
  68   1.0000       0.043704         1.1892
  69   1.0000       0.052257         1.4220
  70   1.0000       0.065286         1.7765
  71   1.0000       0.071203         1.9375
  72   1.0000       0.078908         2.1472
  73   0.0000       0.233710         6.3596
  74   0.0000       0.245801         6.6886
  75   0.0000       0.247968         6.7476
  76   0.0000       0.251237         6.8365
  77   0.0000       0.253005         6.8846

                 SPIN DOWN ORBITALS
  NO   OCC          E(Eh)            E(eV)
   0   1.0000    -196.608041     -5349.9768
   1   1.0000     -88.562533     -2409.9090
   2   1.0000     -88.562426     -2409.9061
   3   1.0000     -88.559722     -2409.8325
   4   1.0000     -88.559460     -2409.8254
   5   1.0000     -21.968186      -597.7847
   6   1.0000     -18.829210      -512.3688
   7   1.0000     -18.485798      -503.0241
   8   1.0000     -18.467810      -502.5346
   9   1.0000     -18.467302      -502.5208
  10   1.0000      -9.947441      -270.6836
  11   1.0000      -9.942860      -270.5590
  12   1.0000      -9.941225      -270.5145
  13   1.0000      -9.936521      -270.3865
  14   1.0000      -9.936149      -270.3764
  15   1.0000      -9.929668      -270.2000
  16   1.0000      -7.616961      -207.2681
  17   1.0000      -7.616299      -207.2500
  18   1.0000      -7.613861      -207.1837
  19   1.0000      -7.613751      -207.1807
  20   1.0000      -5.582452      -151.9062
  21   1.0000      -5.581693      -151.8856
  22   1.0000      -5.579216      -151.8182
  23   1.0000      -5.578830      -151.8077
  24   1.0000      -5.576376      -151.7409
  25   1.0000      -5.575388      -151.7140
  26   1.0000      -5.573484      -151.6622
  27   1.0000      -5.573475      -151.6620
  28   1.0000      -5.573231      -151.6553
  29   1.0000      -5.573095      -151.6516
  30   1.0000      -5.571201      -151.6001
  31   1.0000      -5.570488      -151.5807
  32   1.0000      -2.330977       -63.4291
  33   1.0000      -1.399575       -38.0844
  34   1.0000      -1.342437       -36.5296
  35   1.0000      -1.340583       -36.4791
  36   1.0000      -0.595646       -16.2084
  37   1.0000      -0.554995       -15.1022
  38   1.0000      -0.552140       -15.0245
  39   1.0000      -0.470489       -12.8027
  40   1.0000      -0.469175       -12.7669
  41   1.0000      -0.403247       -10.9729
  42   1.0000      -0.395957       -10.7745
  43   1.0000      -0.343193        -9.3387
  44   1.0000      -0.329792        -8.9741
  45   1.0000      -0.305395        -8.3102
  46   1.0000      -0.281380        -7.6568
  47   1.0000      -0.214585        -5.8391
  48   1.0000      -0.208309        -5.6684
  49   1.0000      -0.199316        -5.4237
  50   1.0000      -0.198329        -5.3968
  51   1.0000      -0.162993        -4.4353
  52   1.0000      -0.159833        -4.3493
  53   1.0000      -0.115310        -3.1377
  54   1.0000      -0.113736        -3.0949
  55   1.0000      -0.105566        -2.8726
  56   1.0000      -0.097079        -2.6417
  57   1.0000      -0.078021        -2.1231
  58   1.0000      -0.063565        -1.7297
  59   1.0000      -0.060125        -1.6361
  60   1.0000      -0.053131        -1.4458
  61   1.0000      -0.047751        -1.2994
  62   1.0000      -0.040414        -1.0997
  63   1.0000      -0.031747        -0.8639
  64   1.0000       0.003092         0.0841
  65   1.0000       0.027130         0.7383
  66   1.0000       0.033074         0.9000
  67   1.0000       0.044045         1.1985
  68   1.0000       0.046760         1.2724
  69   1.0000       0.058482         1.5914
  70   1.0000       0.066296         1.8040
  71   1.0000       0.074609         2.0302
  72   0.0000       0.232690         6.3318
  73   0.0000       0.248387         6.7589
  74   0.0000       0.254671         6.9300
  75   0.0000       0.256015         6.9665
  76   0.0000       0.264259         7.1909

MULLIKEN ATOMIC CHARGES AND SPIN POPULATIONS
--------------------------------------------
   0 V :    0.530503    1.194264
   1 S :   -0.410896   -0.003047
   2 S :   -0.355837   -0.032865
   3 S :   -0.425866   -0.030697
   4 S :   -0.380052   -0.022139
   5 O :   -0.546305   -0.134498
   6 C :   -0.245584    0.006030
   7 C :   -0.236859    0.006349
   8 C :   -0.157605    0.002956
   9 H :    0.075513   -0.000900
  10 H :    0.052280    0.002149
  11 H :    0.137866    0.000728
  12 H :    0.005864   -0.000057
  13 H :    0.094771   -0.000134
  14 H :    0.049450   -0.000016
  15 C :   -0.218891   -0.002721
  16 C :   -0.293112    0.004153
  17 C :   -0.074541    0.009093
  18 H :    0.062592    0.000112
  19 H :    0.135784    0.000039
  20 H :    0.005131    0.001205
  21 H :    0.004257    0.000213
  22 H :    0.044586   -0.000774
  23 H :    0.146949    0.000560
Sum of atomic charges         :   -2.0000000

LOEWDIN ATOMIC CHARGES AND SPIN POPULATIONS
-------------------------------------------
   0 V :   -0.208863    1.150647
   1 S :   -0.055978    0.002381
   2 S :   -0.039017   -0.022443
   3 S :   -0.069277   -0.021364
   4 S :   -0.061089   -0.013044
   5 O :   -0.376237   -0.121165
   6 C :   -0.325981    0.005432
   7 C :   -0.314412    0.006872
   8 C :   -0.187537    0.000487
   9 H :    0.036416   -0.000002
  10 H :    0.029548    0.000609
  11 H :    0.070125    0.000337
  12 H :    0.031676    0.000149
  13 H :    0.045109   -0.000061
  14 H :    0.027742   -0.000518
  15 C :   -0.325193    0.002657
  16 C :   -0.343170    0.008065
  17 C :   -0.210673    0.000948
  18 H :    0.030844   -0.000165
  19 H :    0.046994   -0.000613
  20 H :    0.048450    0.000811
  21 H :    0.045984    0.000267
  22 H :    0.037132   -0.000733
  23 H :    0.067407    0.000444

  Mayer bond orders larger than 0.100000
B(  0-V ,  1-S ) :   0.6950 B(  0-V ,  2-S ) :   0.8553 B(  0-V ,  3-S ) :   0.7769
B(  0-V ,  4-S ) :   0.7788 B(  0-V ,  5-O ) :   2.0712 B(  1-S , 15-C ) :   1.0044
B(  2-S ,  6-C ) :   1.0118 B(  3-S , 16-C ) :   1.0041 B(  4-S ,  7-C ) :   1.0710
B(  6-C ,  8-C ) :   0.8989 B(  6-C , 13-H ) :   0.9744 B(  6-C , 14-H ) :   0.9680
B(  7-C ,  8-C ) :   0.9228 B(  7-C ,  9-H ) :   0.9762 B(  7-C , 10-H ) :   0.9689
B(  8-C , 11-H ) :   0.9878 B(  8-C , 12-H ) :   0.9449 B( 15-C , 17-C ) :   0.9531
B( 15-C , 22-H ) :   0.9608 B( 15-C , 23-H ) :   0.9644 B( 16-C , 17-C ) :   0.8329
B( 16-C , 18-H ) :   0.9692 B( 16-C , 19-H ) :   0.9716 B( 17-C , 20-H ) :   0.9405
B( 17-C , 21-H ) :   0.9644

FINAL SINGLE POINT ENERGY     -2847.669060826969

DIPOLE MOMENT
-------------
                                X             Y             Z
Electronic contribution:     -1.58918      -0.63627      -5.66699
Nuclear contribution   :      1.29969       0.68295       6.08275
                        -----------------------------------------
Total Dipole Moment    :     -0.28948       0.04668       0.41576
                        -----------------------------------------
Magnitude (a.u.)       :      0.50876
Magnitude (Debye)      :      1.29317

Rotational constants in cm-1:     0.027199     0.011723     0.009597
Rotational constants in MHz :   815.392077   351.457269   287.702067

                             ****ORCA TERMINATED NORMALLY****
TOTAL RUN TIME: 0 days 0 hours 9 minutes 33 seconds 338 msec
