                         Program Version 5.0.4 -  RELEASE  -
|  1> ! nofrozencore ReducedPop printbasis
|  2> ! B3LYP TZVP
|  3>
|  4> %basis
|  5> newgto V "CP(PPP)" end
|  6> end
|  7>
|  8> %pal
|  9> nprocs 8
| 10> end
| 11>
| 12> % sym SymThresh 1e-2 end
| 13> * xyz -2 2
| 14> V -0.4446404123450829 0.15812237389333617 -0.10718027412229689
| 15> S -0.6391770426523716 -1.1464687526408006 2.151055706876606
| 16> S 0.9290832286004654 1.6175078292836427 1.2829183579310313
| 17> S -0.22398006800652498 -1.9737206979997217 -1.2304490865095892
| 18> S 0.6713723558467467 0.9852912192876214 -2.071973253421361
| 19> O -1.935048628641306 0.7567588907864746 -0.07919452725426059
| 20> C 1.610565484410392 2.9955531713076144 0.293054144534442
| 21> C 0.5778921682519405 2.849213384222374 -1.965158062623502
| 22> C 0.46823200029990264 3.4962586971122662 -0.586793090864225
| 23> H -0.2654617497178487 3.172712310813618 -2.5897993009462046
| 24> H 1.49748295677831 3.226365316225163 -2.4398068611451182
| 25> H -0.4881838954506227 3.230095348482338 -0.11141074015290163
| 26> H 0.47791306741551953 4.601478436594993 -0.7241430241704927
| 27> H 2.444097373415177 2.649715670012491 -0.3383039499389401
| 28> H 1.9949643187316417 3.762940832149725 0.9821123317151317
| 29> C 0.5022358528779466 -2.557999239390572 1.7449741065755722
| 30> C -0.9801920915034318 -3.317317472531914 -0.22072501152702076
| 31> C -0.08025871276937459 -3.7354337932281285 0.9372901393292903
| 32> H -1.1580592609286269 -4.171590059714676 -0.888347900434926
| 33> H -1.9425976945449182 -2.9739743985895 0.16537912269990904
| 34> H 0.7698547365635257 -4.316280621530892 0.5389185581705219
| 35> H -0.6435281453447559 -4.4088985780624235 1.608580079566222
| 36> H 0.9125301756611889 -2.953880163897036 2.683826284961897
| 37> H 1.3382878136639902 -2.139227298727737 1.1837530519096813
| 38> *
| 39>
| 40> % eprnmr
| 41> gtensor true
| 42> Nuclei = all H {aiso,adip,aorb,fgrad,rho}
| 43> Nuclei = all V {aiso,adip,aorb,fgrad,rho}
| 44> end
| 45>
| 46>                          ****END OF INPUT****

CARTESIAN COORDINATES (ANGSTROEM)
---------------------------------
  V     -0.445394    0.158080   -0.107166
  S     -0.639931   -1.146511    2.151070
  S      0.928330    1.617465    1.282933
  S     -0.224734   -1.973763   -1.230435
  S      0.670619    0.985249   -2.071959
  O     -1.935802    0.756717   -0.079180
  C      1.609812    2.995511    0.293068
  C      0.577138    2.849171   -1.965144
  C      0.467478    3.496216   -0.586779
  H     -0.266215    3.172670   -2.589785
  H      1.496729    3.226323   -2.439793
  H     -0.488938    3.230053   -0.111396
  H      0.477159    4.601436   -0.724129
  H      2.443344    2.649673   -0.338290
  H      1.994211    3.762898    0.982127
  C      0.501482   -2.558042    1.744988
  C     -0.980946   -3.317360   -0.220711
  C     -0.081012   -3.735476    0.937304
  H     -1.158813   -4.171632   -0.888334
  H     -1.943351   -2.974017    0.165393
  H      0.769101   -4.316323    0.538933
  H     -0.644282   -4.408941    1.608594
  H      0.911776   -2.953922    2.683841
  H      1.337534   -2.139270    1.183767

 Total Charge           Charge          ....   -2
 Multiplicity           Mult            ....    2
 Number of Electrons    NEL             ....  145
 Basis Dimension        Dim             ....  353

ORBITAL ENERGIES
----------------
                 SPIN UP ORBITALS
  NO   OCC          E(Eh)            E(eV)
   0   1.0000    -196.604371     -5349.8769
   1   1.0000     -88.564149     -2409.9530
   2   1.0000     -88.561293     -2409.8753
   3   1.0000     -88.556187     -2409.7364
   4   1.0000     -88.552688     -2409.6411
   5   1.0000     -21.980037      -598.1072
   6   1.0000     -18.821682      -512.1640
   7   1.0000     -18.487688      -503.0756
   8   1.0000     -18.480716      -502.8858
   9   1.0000     -18.480595      -502.8825
  10   1.0000      -9.944690      -270.6088
  11   1.0000      -9.936727      -270.3921
  12   1.0000      -9.934641      -270.3353
  13   1.0000      -9.931284      -270.2440
  14   1.0000      -9.929645      -270.1994
  15   1.0000      -9.927636      -270.1447
  16   1.0000      -7.618675      -207.3147
  17   1.0000      -7.616300      -207.2501
  18   1.0000      -7.610982      -207.1054
  19   1.0000      -7.606296      -206.9778
  20   1.0000      -5.584094      -151.9509
  21   1.0000      -5.581422      -151.8782
  22   1.0000      -5.577539      -151.7725
  23   1.0000      -5.576332      -151.7397
  24   1.0000      -5.575753      -151.7240
  25   1.0000      -5.575091      -151.7059
  26   1.0000      -5.573646      -151.6666
  27   1.0000      -5.571607      -151.6111
  28   1.0000      -5.569779      -151.5614
  29   1.0000      -5.568007      -151.5132
  30   1.0000      -5.565659      -151.4493
  31   1.0000      -5.563245      -151.3836
  32   1.0000      -2.372949       -64.5712
  33   1.0000      -1.415173       -38.5088
  34   1.0000      -1.401490       -38.1365
  35   1.0000      -1.400849       -38.1190
  36   1.0000      -0.584292       -15.8994
  37   1.0000      -0.556690       -15.1483
  38   1.0000      -0.549457       -14.9515
  39   1.0000      -0.469712       -12.7815
  40   1.0000      -0.463272       -12.6063
  41   1.0000      -0.402365       -10.9489
  42   1.0000      -0.395101       -10.7512
  43   1.0000      -0.335799        -9.1376
  44   1.0000      -0.325696        -8.8626
  45   1.0000      -0.311107        -8.4657
  46   1.0000      -0.283801        -7.7226
  47   1.0000      -0.213729        -5.8159
  48   1.0000      -0.212532        -5.7833
  49   1.0000      -0.201036        -5.4705
  50   1.0000      -0.193351        -5.2613
  51   1.0000      -0.161955        -4.4070
  52   1.0000      -0.132698        -3.6109
  53   1.0000      -0.129960        -3.5364
  54   1.0000      -0.112162        -3.0521
  55   1.0000      -0.105541        -2.8719
  56   1.0000      -0.105241        -2.8638
  57   1.0000      -0.084737        -2.3058
  58   1.0000      -0.070815        -1.9270
  59   1.0000      -0.060592        -1.6488
  60   1.0000      -0.054498        -1.4830
  61   1.0000      -0.043996        -1.1972
  62   1.0000      -0.039698        -1.0802
  63   1.0000      -0.031930        -0.8689
  64   1.0000      -0.002688        -0.0731
  65   1.0000       0.024599         0.6694
  66   1.0000       0.029213         0.7949
  67   1.0000       0.038342         1.0433
  68   1.0000       0.049129         1.3369
  69   1.0000       0.057504         1.5648
  70   1.0000       0.066830         1.8185
  71   1.0000       0.072187         1.9643
  72   1.0000       0.082227         2.2375
  73   0.0000       0.233756         6.3608
  74   0.0000       0.246767         6.7149
  75   0.0000       0.251750         6.8505
  76   0.0000       0.254830         6.9343
  77   0.0000       0.259865         7.0713

                 SPIN DOWN ORBITALS
  NO   OCC          E(Eh)            E(eV)
   0   1.0000    -196.604508     -5349.8806
   1   1.0000     -88.564249     -2409.9557
   2   1.0000     -88.561435     -2409.8792
   3   1.0000     -88.556367     -2409.7412
   4   1.0000     -88.552699     -2409.6414
   5   1.0000     -21.965144      -597.7019
   6   1.0000     -18.825154      -512.2585
   7   1.0000     -18.482518      -502.9349
   8   1.0000     -18.464794      -502.4526
   9   1.0000     -18.464352      -502.4406
  10   1.0000      -9.944423      -270.6015
  11   1.0000      -9.936500      -270.3859
  12   1.0000      -9.934487      -270.3311
  13   1.0000      -9.931246      -270.2429
  14   1.0000      -9.929603      -270.1982
  15   1.0000      -9.927653      -270.1452
  16   1.0000      -7.618769      -207.3172
  17   1.0000      -7.616434      -207.2537
  18   1.0000      -7.611154      -207.1100
  19   1.0000      -7.606308      -206.9782
  20   1.0000      -5.584234      -151.9547
  21   1.0000      -5.581582      -151.8826
  22   1.0000      -5.577903      -151.7825
  23   1.0000      -5.576509      -151.7445
  24   1.0000      -5.575680      -151.7220
  25   1.0000      -5.575453      -151.7158
  26   1.0000      -5.573738      -151.6691
  27   1.0000      -5.571637      -151.6120
  28   1.0000      -5.570231      -151.5737
  29   1.0000      -5.568150      -151.5171
  30   1.0000      -5.566051      -151.4599
  31   1.0000      -5.562874      -151.3735
  32   1.0000      -2.328426       -63.3597
  33   1.0000      -1.396273       -37.9945
  34   1.0000      -1.340470       -36.4760
  35   1.0000      -1.338522       -36.4230
  36   1.0000      -0.591757       -16.1025
  37   1.0000      -0.556534       -15.1440
  38   1.0000      -0.549286       -14.9468
  39   1.0000      -0.469560       -12.7774
  40   1.0000      -0.463142       -12.6027
  41   1.0000      -0.402405       -10.9500
  42   1.0000      -0.395186       -10.7536
  43   1.0000      -0.335930        -9.1411
  44   1.0000      -0.326059        -8.8725
  45   1.0000      -0.310997        -8.4627
  46   1.0000      -0.283795        -7.7224
  47   1.0000      -0.213624        -5.8130
  48   1.0000      -0.212461        -5.7814
  49   1.0000      -0.200912        -5.4671
  50   1.0000      -0.193069        -5.2537
  51   1.0000      -0.161788        -4.4025
  52   1.0000      -0.132539        -3.6066
  53   1.0000      -0.129614        -3.5270
  54   1.0000      -0.112082        -3.0499
  55   1.0000      -0.105370        -2.8673
  56   1.0000      -0.105178        -2.8620
  57   1.0000      -0.083297        -2.2666
  58   1.0000      -0.068477        -1.8633
  59   1.0000      -0.059557        -1.6206
  60   1.0000      -0.054753        -1.4899
  61   1.0000      -0.043787        -1.1915
  62   1.0000      -0.041000        -1.1157
  63   1.0000      -0.033491        -0.9113
  64   1.0000       0.002873         0.0782
  65   1.0000       0.026561         0.7228
  66   1.0000       0.032369         0.8808
  67   1.0000       0.043291         1.1780
  68   1.0000       0.051620         1.4047
  69   1.0000       0.063304         1.7226
  70   1.0000       0.071729         1.9518
  71   1.0000       0.074572         2.0292
  72   0.0000       0.230695         6.2775
  73   0.0000       0.250753         6.8233
  74   0.0000       0.254742         6.9319
  75   0.0000       0.260229         7.0812
  76   0.0000       0.266651         7.2559

MULLIKEN ATOMIC CHARGES AND SPIN POPULATIONS
--------------------------------------------
   0 V :    0.498481    1.185799
   1 S :   -0.442964   -0.007229
   2 S :   -0.336052   -0.033354
   3 S :   -0.402820   -0.024535
   4 S :   -0.371482   -0.019400
   5 O :   -0.543937   -0.134226
   6 C :   -0.248837    0.006882
   7 C :   -0.237626    0.009226
   8 C :   -0.185490    0.004000
   9 H :    0.077257   -0.001232
  10 H :    0.054452    0.002789
  11 H :    0.169803    0.000607
  12 H :    0.000159   -0.000110
  13 H :    0.101574   -0.000346
  14 H :    0.051752   -0.000046
  15 C :   -0.278609   -0.003339
  16 C :   -0.227865    0.005648
  17 C :   -0.069514    0.007642
  18 H :    0.049003    0.000050
  19 H :    0.123176   -0.000702
  20 H :    0.018004    0.000849
  21 H :    0.009599    0.000684
  22 H :    0.047534   -0.000524
  23 H :    0.144403    0.000867
Sum of atomic charges         :   -2.0000000

LOEWDIN ATOMIC CHARGES AND SPIN POPULATIONS
-------------------------------------------
   0 V :   -0.238783    1.141314
   1 S :   -0.109597   -0.002712
   2 S :   -0.015437   -0.022586
   3 S :   -0.033327   -0.015685
   4 S :   -0.036596   -0.009478
   5 O :   -0.380885   -0.120787
   6 C :   -0.331554    0.006159
   7 C :   -0.309017    0.010274
   8 C :   -0.195167    0.000746
   9 H :    0.035811   -0.000125
  10 H :    0.031116    0.000863
  11 H :    0.073684    0.000549
  12 H :    0.029824    0.000200
  13 H :    0.046442   -0.000099
  14 H :    0.027645   -0.000604
  15 C :   -0.325619    0.002016
  16 C :   -0.317458    0.009224
  17 C :   -0.189841    0.000952
  18 H :    0.029848   -0.000370
  19 H :    0.054820   -0.000592
  20 H :    0.038602    0.000322
  21 H :    0.032495    0.000640
  22 H :    0.028176   -0.000562
  23 H :    0.054817    0.000342

  Mayer bond orders larger than 0.100000
B(  0-V ,  1-S ) :   0.6589 B(  0-V ,  2-S ) :   0.8634 B(  0-V ,  3-S ) :   0.8028
B(  0-V ,  4-S ) :   0.8288 B(  0-V ,  5-O ) :   2.0666 B(  1-S , 15-C ) :   1.0645
B(  2-S ,  6-C ) :   1.0088 B(  3-S , 16-C ) :   0.9987 B(  4-S ,  7-C ) :   1.0212
B(  6-C ,  8-C ) :   0.8807 B(  6-C , 13-H ) :   0.9703 B(  6-C , 14-H ) :   0.9599
B(  7-C ,  8-C ) :   0.9127 B(  7-C ,  9-H ) :   0.9754 B(  7-C , 10-H ) :   0.9710
B(  8-C , 11-H ) :   0.9913 B(  8-C , 12-H ) :   0.9261 B( 15-C , 17-C ) :   0.8862
B( 15-C , 22-H ) :   0.9662 B( 15-C , 23-H ) :   0.9819 B( 16-C , 17-C ) :   0.9124
B( 16-C , 18-H ) :   0.9662 B( 16-C , 19-H ) :   0.9727 B( 17-C , 20-H ) :   0.9653
B( 17-C , 21-H ) :   0.9524

FINAL SINGLE POINT ENERGY     -2847.708273691627

DIPOLE MOMENT
-------------
                                X             Y             Z
Electronic contribution:     -6.13311       1.21014      -0.87922
Nuclear contribution   :      6.63299      -1.00592       0.55705
                        -----------------------------------------
Total Dipole Moment    :      0.49987       0.20422      -0.32217
                        -----------------------------------------
Magnitude (a.u.)       :      0.62879
Magnitude (Debye)      :      1.59825

Rotational constants in cm-1:     0.027699     0.011779     0.009687
Rotational constants in MHz :   830.404026   353.129915   290.420457

                             ****ORCA TERMINATED NORMALLY****
TOTAL RUN TIME: 0 days 0 hours 9 minutes 32 seconds 831 msec
