                         Program Version 5.0.4 -  RELEASE  -
|  1> ! nofrozencore ReducedPop printbasis
|  2> ! B3LYP TZVP
|  3>
|  4> %basis
|  5> newgto V "CP(PPP)" end
|  6> end
|  7>
|  8> %pal
|  9> nprocs 4
| 10> end
| 11>
| 12> % sym SymThresh 1e-2 end
| 13> * xyz -2 2
| 14> V -0.3055797105797802 -0.05121114817308512 0.43270255306130584
| 15> S -0.3950697784636929 -2.2245643811763953 -1.1250307461873796
| 16> S 2.292532216658009 -0.7248843708081467 -0.11221934318643563
| 17> S -1.9841875128390731 0.8589590403599643 -0.7886830444851611
| 18> S 0.41439523073852164 2.084458163129284 0.9976735713878864
| 19> O -0.5457567936775782 -0.9161736605953347 1.7936162197939989
| 20> C 3.1198516932470928 0.6075820703461297 1.0124573580873224
| 21> C 1.5845170502930586 2.251658348728086 2.402510387956667
| 22> C 2.587048437054985 1.097217528277728 2.4097917587145314
| 23> H 1.040416847121084 2.2965292041238796 3.3545527683543392
| 24> H 2.087888123655151 3.2214412407826436 2.2717247871376403
| 25> H 2.127285911174816 0.2427366766919206 2.9385055483280436
| 26> H 3.476797348808885 1.4068563463617478 3.0062150323066024
| 27> H 3.2406570752261215 1.4980376888069857 0.38494657020125295
| 28> H 4.131703291159531 0.22139239507713243 1.2124874415714646
| 29> C -0.9036080988942987 -1.3450047866259507 -2.6765537912298556
| 30> C -3.0442952976033655 -0.4260757289211107 -1.5819910584991883
| 31> C -2.3947809957804296 -0.9931535801436971 -2.8379830808807953
| 32> H -3.9998868244255568 0.059626710298471684 -1.8312284382394293
| 33> H -3.235320957487685 -1.2265316401490425 -0.8628638574881142
| 34> H -2.476125872016814 -0.24892508114269327 -3.6486859147020425
| 35> H -2.9586254292772183 -1.8849152029118452 -3.1622686729205967
| 36> H -0.5979180786300942 -1.9448461661315577 -3.5464709741229634
| 37> H -0.32978858160692526 -0.41699910019905806 -2.7174965297366747
| 38> *
| 39>
| 40> % eprnmr
| 41> gtensor true
| 42> Nuclei = all H {aiso,adip,aorb,fgrad,rho}
| 43> Nuclei = all V {aiso,adip,aorb,fgrad,rho}
| 44> end
| 45>
| 46>                          ****END OF INPUT****

CARTESIAN COORDINATES (ANGSTROEM)
---------------------------------
  V     -0.306044   -0.051605    0.433149
  S     -0.395534   -2.224958   -1.124584
  S      2.292068   -0.725278   -0.111773
  S     -1.984652    0.858565   -0.788237
  S      0.413931    2.084064    0.998120
  O     -0.546221   -0.916568    1.794063
  C      3.119387    0.607188    1.012904
  C      1.584053    2.251264    2.402957
  C      2.586584    1.096823    2.410238
  H      1.039953    2.296135    3.354999
  H      2.087424    3.221047    2.272171
  H      2.126822    0.242343    2.938952
  H      3.476333    1.406462    3.006661
  H      3.240193    1.497644    0.385393
  H      4.131239    0.220998    1.212934
  C     -0.904072   -1.345399   -2.676108
  C     -3.044760   -0.426470   -1.581545
  C     -2.395245   -0.993548   -2.837537
  H     -4.000351    0.059233   -1.830782
  H     -3.235785   -1.226926   -0.862418
  H     -2.476590   -0.249319   -3.648240
  H     -2.959090   -1.885309   -3.161822
  H     -0.598382   -1.945240   -3.546025
  H     -0.330253   -0.417393   -2.717050

 Total Charge           Charge          ....   -2
 Multiplicity           Mult            ....    2
 Number of Electrons    NEL             ....  145
 Basis Dimension        Dim             ....  353

ORBITAL ENERGIES
----------------
                 SPIN UP ORBITALS
  NO   OCC          E(Eh)            E(eV)
   0   1.0000    -196.608936     -5350.0011
   1   1.0000     -88.573476     -2410.2068
   2   1.0000     -88.565837     -2409.9990
   3   1.0000     -88.553690     -2409.6684
   4   1.0000     -88.549944     -2409.5665
   5   1.0000     -21.984110      -598.2180
   6   1.0000     -18.822533      -512.1872
   7   1.0000     -18.491750      -503.1861
   8   1.0000     -18.484931      -503.0005
   9   1.0000     -18.484605      -502.9917
  10   1.0000      -9.952395      -270.8184
  11   1.0000      -9.945783      -270.6385
  12   1.0000      -9.935150      -270.3492
  13   1.0000      -9.934964      -270.3441
  14   1.0000      -9.930815      -270.2312
  15   1.0000      -9.929101      -270.1846
  16   1.0000      -7.629898      -207.6201
  17   1.0000      -7.622069      -207.4071
  18   1.0000      -7.604828      -206.9379
  19   1.0000      -7.603424      -206.8997
  20   1.0000      -5.594737      -152.2405
  21   1.0000      -5.588446      -152.0693
  22   1.0000      -5.587480      -152.0431
  23   1.0000      -5.587185      -152.0350
  24   1.0000      -5.580715      -151.8590
  25   1.0000      -5.579453      -151.8246
  26   1.0000      -5.570801      -151.5892
  27   1.0000      -5.568787      -151.5344
  28   1.0000      -5.564125      -151.4075
  29   1.0000      -5.562781      -151.3710
  30   1.0000      -5.561439      -151.3344
  31   1.0000      -5.560257      -151.3023
  32   1.0000      -2.377133       -64.6851
  33   1.0000      -1.417882       -38.5825
  34   1.0000      -1.405841       -38.2549
  35   1.0000      -1.405454       -38.2443
  36   1.0000      -0.583008       -15.8645
  37   1.0000      -0.555372       -15.1124
  38   1.0000      -0.548060       -14.9135
  39   1.0000      -0.468513       -12.7489
  40   1.0000      -0.461459       -12.5569
  41   1.0000      -0.406927       -11.0731
  42   1.0000      -0.395340       -10.7577
  43   1.0000      -0.342300        -9.3145
  44   1.0000      -0.329737        -8.9726
  45   1.0000      -0.297833        -8.1045
  46   1.0000      -0.285755        -7.7758
  47   1.0000      -0.218336        -5.9412
  48   1.0000      -0.206805        -5.6275
  49   1.0000      -0.205536        -5.5929
  50   1.0000      -0.197523        -5.3749
  51   1.0000      -0.154706        -4.2098
  52   1.0000      -0.137962        -3.7541
  53   1.0000      -0.135171        -3.6782
  54   1.0000      -0.112339        -3.0569
  55   1.0000      -0.108904        -2.9634
  56   1.0000      -0.102378        -2.7859
  57   1.0000      -0.091573        -2.4918
  58   1.0000      -0.067370        -1.8332
  59   1.0000      -0.058315        -1.5868
  60   1.0000      -0.056585        -1.5398
  61   1.0000      -0.036601        -0.9960
  62   1.0000      -0.036175        -0.9844
  63   1.0000      -0.027393        -0.7454
  64   1.0000      -0.004730        -0.1287
  65   1.0000       0.017726         0.4823
  66   1.0000       0.022179         0.6035
  67   1.0000       0.034975         0.9517
  68   1.0000       0.040103         1.0913
  69   1.0000       0.063934         1.7397
  70   1.0000       0.076004         2.0682
  71   1.0000       0.079624         2.1667
  72   1.0000       0.085267         2.3202
  73   0.0000       0.222030         6.0417
  74   0.0000       0.228380         6.2145
  75   0.0000       0.242541         6.5999
  76   0.0000       0.250901         6.8274
  77   0.0000       0.256434         6.9779

                 SPIN DOWN ORBITALS
  NO   OCC          E(Eh)            E(eV)
   0   1.0000    -196.609037     -5350.0039
   1   1.0000     -88.573620     -2410.2107
   2   1.0000     -88.565804     -2409.9980
   3   1.0000     -88.553912     -2409.6744
   4   1.0000     -88.550029     -2409.5688
   5   1.0000     -21.969183      -597.8119
   6   1.0000     -18.826109      -512.2845
   7   1.0000     -18.486392      -503.0403
   8   1.0000     -18.468899      -502.5643
   9   1.0000     -18.468525      -502.5541
  10   1.0000      -9.952152      -270.8118
  11   1.0000      -9.945378      -270.6275
  12   1.0000      -9.935130      -270.3486
  13   1.0000      -9.934942      -270.3435
  14   1.0000      -9.930780      -270.2303
  15   1.0000      -9.929069      -270.1837
  16   1.0000      -7.630035      -207.6238
  17   1.0000      -7.622038      -207.4062
  18   1.0000      -7.605041      -206.9437
  19   1.0000      -7.603506      -206.9019
  20   1.0000      -5.594947      -152.2462
  21   1.0000      -5.588747      -152.0775
  22   1.0000      -5.587584      -152.0459
  23   1.0000      -5.587249      -152.0368
  24   1.0000      -5.580932      -151.8649
  25   1.0000      -5.579027      -151.8130
  26   1.0000      -5.570945      -151.5931
  27   1.0000      -5.568853      -151.5362
  28   1.0000      -5.564793      -151.4257
  29   1.0000      -5.563293      -151.3849
  30   1.0000      -5.561580      -151.3383
  31   1.0000      -5.560044      -151.2965
  32   1.0000      -2.332580       -63.4727
  33   1.0000      -1.397824       -38.0367
  34   1.0000      -1.345305       -36.6076
  35   1.0000      -1.343927       -36.5701
  36   1.0000      -0.590937       -16.0802
  37   1.0000      -0.555102       -15.1051
  38   1.0000      -0.547781       -14.9059
  39   1.0000      -0.468282       -12.7426
  40   1.0000      -0.461274       -12.5519
  41   1.0000      -0.406946       -11.0736
  42   1.0000      -0.395310       -10.7569
  43   1.0000      -0.342374        -9.3165
  44   1.0000      -0.330005        -8.9799
  45   1.0000      -0.298031        -8.1098
  46   1.0000      -0.285849        -7.7784
  47   1.0000      -0.218218        -5.9380
  48   1.0000      -0.206680        -5.6241
  49   1.0000      -0.205345        -5.5877
  50   1.0000      -0.197189        -5.3658
  51   1.0000      -0.154359        -4.2003
  52   1.0000      -0.137790        -3.7495
  53   1.0000      -0.134462        -3.6589
  54   1.0000      -0.112229        -3.0539
  55   1.0000      -0.108813        -2.9609
  56   1.0000      -0.102157        -2.7798
  57   1.0000      -0.089577        -2.4375
  58   1.0000      -0.065416        -1.7801
  59   1.0000      -0.056923        -1.5490
  60   1.0000      -0.056362        -1.5337
  61   1.0000      -0.038335        -1.0432
  62   1.0000      -0.037062        -1.0085
  63   1.0000      -0.028826        -0.7844
  64   1.0000       0.002169         0.0590
  65   1.0000       0.020347         0.5537
  66   1.0000       0.029963         0.8153
  67   1.0000       0.036655         0.9974
  68   1.0000       0.047902         1.3035
  69   1.0000       0.068197         1.8557
  70   1.0000       0.077324         2.1041
  71   1.0000       0.080846         2.1999
  72   0.0000       0.224947         6.1211
  73   0.0000       0.242864         6.6087
  74   0.0000       0.246840         6.7169
  75   0.0000       0.251067         6.8319
  76   0.0000       0.257197         6.9987

MULLIKEN ATOMIC CHARGES AND SPIN POPULATIONS
--------------------------------------------
   0 V :    0.532943    1.178002
   1 S :   -0.433755   -0.018534
   2 S :   -0.413184   -0.040345
   3 S :   -0.365675   -0.018778
   4 S :   -0.347963    0.006559
   5 O :   -0.547683   -0.136808
   6 C :   -0.286938    0.001785
   7 C :   -0.217318    0.011148
   8 C :   -0.121335    0.000663
   9 H :    0.077565   -0.001162
  10 H :    0.058481    0.001402
  11 H :    0.111811    0.000262
  12 H :    0.003842    0.000154
  13 H :    0.092040    0.000650
  14 H :    0.038796   -0.001187
  15 C :   -0.293907   -0.003516
  16 C :   -0.219030    0.011547
  17 C :   -0.071825    0.006007
  18 H :    0.051449    0.001024
  19 H :    0.126770   -0.001495
  20 H :    0.018728    0.000259
  21 H :    0.013975    0.001380
  22 H :    0.048252   -0.000361
  23 H :    0.143963    0.001347
Sum of atomic charges         :   -2.0000000

LOEWDIN ATOMIC CHARGES AND SPIN POPULATIONS
-------------------------------------------
   0 V :   -0.211190    1.134888
   1 S :   -0.117202   -0.013978
   2 S :   -0.161080   -0.033621
   3 S :    0.039309   -0.008278
   4 S :    0.015757    0.014270
   5 O :   -0.391314   -0.124570
   6 C :   -0.335583    0.001180
   7 C :   -0.306860    0.010203
   8 C :   -0.184876    0.001398
   9 H :    0.038868    0.000559
  10 H :    0.033058   -0.000025
  11 H :    0.070225    0.000104
  12 H :    0.031980    0.000306
  13 H :    0.041802    0.000096
  14 H :    0.025051   -0.000554
  15 C :   -0.332502    0.001476
  16 C :   -0.309196    0.015855
  17 C :   -0.189351    0.000456
  18 H :    0.031648   -0.000253
  19 H :    0.057680   -0.000602
  20 H :    0.038083    0.000092
  21 H :    0.034800    0.001010
  22 H :    0.028159   -0.000486
  23 H :    0.052733    0.000474

  Mayer bond orders larger than 0.100000
B(  0-V ,  1-S ) :   0.6155 B(  0-V ,  2-S ) :   0.6981 B(  0-V ,  3-S ) :   0.9301
B(  0-V ,  4-S ) :   0.8920 B(  0-V ,  5-O ) :   2.0621 B(  1-S , 15-C ) :   1.0977
B(  1-S , 17-C ) :  -0.1065 B(  2-S ,  6-C ) :   1.0634 B(  3-S , 16-C ) :   0.9516
B(  4-S ,  7-C ) :   1.0414 B(  6-C ,  8-C ) :   0.8908 B(  6-C , 13-H ) :   0.9932
B(  6-C , 14-H ) :   0.9662 B(  7-C ,  8-C ) :   0.9284 B(  7-C ,  9-H ) :   0.9724
B(  7-C , 10-H ) :   0.9681 B(  8-C , 11-H ) :   0.9752 B(  8-C , 12-H ) :   0.9558
B( 15-C , 17-C ) :   0.8830 B( 15-C , 22-H ) :   0.9646 B( 15-C , 23-H ) :   0.9786
B( 16-C , 17-C ) :   0.9175 B( 16-C , 18-H ) :   0.9655 B( 16-C , 19-H ) :   0.9708
B( 17-C , 20-H ) :   0.9650 B( 17-C , 21-H ) :   0.9531

FINAL SINGLE POINT ENERGY     -2847.678237056565

DIPOLE MOMENT
-------------
                                X             Y             Z
Electronic contribution:     -4.13853      -2.28258       4.34134
Nuclear contribution   :      3.74436       3.24589      -4.38121
                        -----------------------------------------
Total Dipole Moment    :     -0.39418       0.96331      -0.03987
                        -----------------------------------------
Magnitude (a.u.)       :      1.04160
Magnitude (Debye)      :      2.64754

Rotational constants in cm-1:     0.026815     0.011679     0.009502
Rotational constants in MHz :   803.907789   350.126785   284.874233

                             ****ORCA TERMINATED NORMALLY****
TOTAL RUN TIME: 0 days 0 hours 14 minutes 59 seconds 622 msec
