                         Program Version 5.0.4 -  RELEASE  -
|  1> ! nofrozencore ReducedPop printbasis
|  2> ! B3LYP TZVP
|  3>
|  4> %basis
|  5> newgto V "CP(PPP)" end
|  6> end
|  7>
|  8> %pal
|  9> nprocs 4
| 10> end
| 11>
| 12> % sym SymThresh 1e-2 end
| 13> * xyz -2 2
| 14> V 0.18738448491039106 -0.046004497394845696 0.45256013888135915
| 15> S -2.2688868529648 -0.44041535073738286 0.9217920498682747
| 16> S -0.07544402519197975 -2.145479166353097 -0.777875877670501
| 17> S -0.32008513434907543 2.3512671699612993 0.05539409084837143
| 18> S 2.1495097260101885 0.5355000131138946 -0.9622437991234981
| 19> O 0.8159665821632619 -0.31548488488319115 1.9018090246723105
| 20> C 1.5703637506232275 -2.5926020898947244 -1.5116917576920423
| 21> C 3.3554707694629156 -0.8663903839512198 -0.8409905493153937
| 22> C 2.7694881532398306 -2.263705920311341 -0.6140253281360781
| 23> H 4.0704552408363615 -0.6495491742480562 -0.03782910595652389
| 24> H 3.921463630378522 -0.8685491099479842 -1.7822744674286473
| 25> H 2.460048817166476 -2.3670665513371376 0.429595535048647
| 26> H 3.577919893484781 -2.9979770844256763 -0.7846211374653195
| 27> H 1.6880062861031746 -2.0858658723125223 -2.4746462285785595
| 28> H 1.5350403675616944 -3.6715345711895973 -1.703039124154134
| 29> C -3.0735985210146706 0.7274370861257873 -0.2656014074722775
| 30> C -1.913049982624771 2.7109538891120524 0.9018985258866988
| 31> C -3.169777476183875 2.174375901325077 0.2380696501806673
| 32> H -1.9799810909657083 3.6384159075037195 1.074055395927104
| 33> H -1.7931785772631328 1.934162669901879 2.4859794035759024
| 34> H -3.396143089080005 2.8059849459589734 -0.5781144605203533
| 35> H -4.03540630508106 2.2534485627331655 0.9683569606167239
| 36> H -4.090019684916123 0.34846235154927674 -0.4893181320055123
| 37> H -2.5193669911004632 0.7084666705498345 -1.1744647926385152
| 38> *
| 39>
| 40> % eprnmr
| 41> gtensor true
| 42> Nuclei = all H {aiso,adip,aorb,fgrad,rho}
| 43> Nuclei = all V {aiso,adip,aorb,fgrad,rho}
| 44> end
| 45>
| 46>                          ****END OF INPUT****

CARTESIAN COORDINATES (ANGSTROEM)
---------------------------------
  V      0.187427   -0.045917    0.453309
  S     -2.268844   -0.440328    0.922541
  S     -0.075402   -2.145391   -0.777127
  S     -0.320043    2.351355    0.056143
  S      2.149552    0.535588   -0.961495
  O      0.816009   -0.315397    1.902558
  C      1.570406   -2.592514   -1.510943
  C      3.355513   -0.866303   -0.840242
  C      2.769531   -2.263618   -0.613277
  H      4.070498   -0.649461   -0.037080
  H      3.921506   -0.868461   -1.781526
  H      2.460091   -2.366979    0.430344
  H      3.577962   -2.997889   -0.783872
  H      1.688049   -2.085778   -2.473898
  H      1.535083   -3.671447   -1.702290
  C     -3.073556    0.727525   -0.264853
  C     -1.913008    2.711042    0.902647
  C     -3.169735    2.174464    0.238818
  H     -1.979939    3.638504    1.074804
  H     -1.793136    1.934251    2.486728
  H     -3.396101    2.806073   -0.577366
  H     -4.035364    2.253536    0.969106
  H     -4.089977    0.348550   -0.488569
  H     -2.519325    0.708555   -1.173716

 Total Charge           Charge          ....   -2
 Multiplicity           Mult            ....    2
 Number of Electrons    NEL             ....  145
 Basis Dimension        Dim             ....  353

ORBITAL ENERGIES
----------------
                 SPIN UP ORBITALS
  NO   OCC          E(Eh)            E(eV)
   0   1.0000    -196.609660     -5350.0208
   1   1.0000     -88.572312     -2410.1751
   2   1.0000     -88.563085     -2409.9241
   3   1.0000     -88.561779     -2409.8885
   4   1.0000     -88.557355     -2409.7681
   5   1.0000     -21.984806      -598.2370
   6   1.0000     -18.826979      -512.3081
   7   1.0000     -18.492545      -503.2077
   8   1.0000     -18.485434      -503.0142
   9   1.0000     -18.485386      -503.0129
  10   1.0000      -9.959200      -271.0036
  11   1.0000      -9.945002      -270.6173
  12   1.0000      -9.936761      -270.3930
  13   1.0000      -9.936512      -270.3862
  14   1.0000      -9.935002      -270.3452
  15   1.0000      -9.930765      -270.2299
  16   1.0000      -7.626160      -207.5184
  17   1.0000      -7.616853      -207.2651
  18   1.0000      -7.616104      -207.2447
  19   1.0000      -7.611589      -207.1219
  20   1.0000      -5.591279      -152.1464
  21   1.0000      -5.585227      -151.9818
  22   1.0000      -5.583465      -151.9338
  23   1.0000      -5.582269      -151.9013
  24   1.0000      -5.581521      -151.8809
  25   1.0000      -5.576829      -151.7532
  26   1.0000      -5.575686      -151.7221
  27   1.0000      -5.575127      -151.7069
  28   1.0000      -5.574032      -151.6771
  29   1.0000      -5.573084      -151.6513
  30   1.0000      -5.570811      -151.5895
  31   1.0000      -5.568608      -151.5295
  32   1.0000      -2.377543       -64.6962
  33   1.0000      -1.420137       -38.6439
  34   1.0000      -1.405914       -38.2569
  35   1.0000      -1.405049       -38.2333
  36   1.0000      -0.589006       -16.0277
  37   1.0000      -0.555796       -15.1240
  38   1.0000      -0.553350       -15.0574
  39   1.0000      -0.471842       -12.8395
  40   1.0000      -0.470509       -12.8032
  41   1.0000      -0.408856       -11.1255
  42   1.0000      -0.399711       -10.8767
  43   1.0000      -0.341356        -9.2888
  44   1.0000      -0.330019        -8.9803
  45   1.0000      -0.307109        -8.3569
  46   1.0000      -0.292744        -7.9660
  47   1.0000      -0.213052        -5.7974
  48   1.0000      -0.209334        -5.6963
  49   1.0000      -0.206871        -5.6292
  50   1.0000      -0.199699        -5.4341
  51   1.0000      -0.162854        -4.4315
  52   1.0000      -0.136207        -3.7064
  53   1.0000      -0.122455        -3.3322
  54   1.0000      -0.114142        -3.1060
  55   1.0000      -0.108114        -2.9419
  56   1.0000      -0.092474        -2.5163
  57   1.0000      -0.076940        -2.0936
  58   1.0000      -0.069984        -1.9044
  59   1.0000      -0.064730        -1.7614
  60   1.0000      -0.050343        -1.3699
  61   1.0000      -0.045534        -1.2390
  62   1.0000      -0.041559        -1.1309
  63   1.0000      -0.037432        -1.0186
  64   1.0000      -0.000282        -0.0077
  65   1.0000       0.026505         0.7212
  66   1.0000       0.029014         0.7895
  67   1.0000       0.033464         0.9106
  68   1.0000       0.044450         1.2095
  69   1.0000       0.053296         1.4503
  70   1.0000       0.060258         1.6397
  71   1.0000       0.070060         1.9064
  72   1.0000       0.082875         2.2551
  73   0.0000       0.218875         5.9559
  74   0.0000       0.233337         6.3494
  75   0.0000       0.244342         6.6489
  76   0.0000       0.250339         6.8121
  77   0.0000       0.251687         6.8487

                 SPIN DOWN ORBITALS
  NO   OCC          E(Eh)            E(eV)
   0   1.0000    -196.609803     -5350.0247
   1   1.0000     -88.572454     -2410.1790
   2   1.0000     -88.563265     -2409.9290
   3   1.0000     -88.561879     -2409.8913
   4   1.0000     -88.557341     -2409.7678
   5   1.0000     -21.969747      -597.8272
   6   1.0000     -18.830493      -512.4038
   7   1.0000     -18.487328      -503.0658
   8   1.0000     -18.469336      -502.5762
   9   1.0000     -18.468954      -502.5658
  10   1.0000      -9.958986      -270.9978
  11   1.0000      -9.944820      -270.6123
  12   1.0000      -9.936633      -270.3895
  13   1.0000      -9.936475      -270.3852
  14   1.0000      -9.934941      -270.3435
  15   1.0000      -9.930785      -270.2304
  16   1.0000      -7.626295      -207.5220
  17   1.0000      -7.617029      -207.2699
  18   1.0000      -7.616199      -207.2473
  19   1.0000      -7.611578      -207.1216
  20   1.0000      -5.591416      -152.1502
  21   1.0000      -5.585593      -151.9917
  22   1.0000      -5.583575      -151.9368
  23   1.0000      -5.582437      -151.9058
  24   1.0000      -5.581642      -151.8842
  25   1.0000      -5.576854      -151.7539
  26   1.0000      -5.576151      -151.7348
  27   1.0000      -5.575528      -151.7178
  28   1.0000      -5.574167      -151.6808
  29   1.0000      -5.573003      -151.6491
  30   1.0000      -5.571171      -151.5993
  31   1.0000      -5.568166      -151.5175
  32   1.0000      -2.332585       -63.4729
  33   1.0000      -1.401051       -38.1245
  34   1.0000      -1.344153       -36.5763
  35   1.0000      -1.342250       -36.5245
  36   1.0000      -0.596546       -16.2329
  37   1.0000      -0.555615       -15.1190
  38   1.0000      -0.553251       -15.0547
  39   1.0000      -0.471743       -12.8368
  40   1.0000      -0.470391       -12.8000
  41   1.0000      -0.408893       -11.1265
  42   1.0000      -0.399890       -10.8816
  43   1.0000      -0.341431        -9.2908
  44   1.0000      -0.330426        -8.9914
  45   1.0000      -0.307063        -8.3556
  46   1.0000      -0.292715        -7.9652
  47   1.0000      -0.213003        -5.7961
  48   1.0000      -0.209279        -5.6948
  49   1.0000      -0.206616        -5.6223
  50   1.0000      -0.199557        -5.4302
  51   1.0000      -0.162723        -4.4279
  52   1.0000      -0.135869        -3.6972
  53   1.0000      -0.122356        -3.3295
  54   1.0000      -0.114132        -3.1057
  55   1.0000      -0.107937        -2.9371
  56   1.0000      -0.091627        -2.4933
  57   1.0000      -0.075529        -2.0552
  58   1.0000      -0.068343        -1.8597
  59   1.0000      -0.064022        -1.7421
  60   1.0000      -0.051259        -1.3948
  61   1.0000      -0.047309        -1.2873
  62   1.0000      -0.041046        -1.1169
  63   1.0000      -0.038218        -1.0400
  64   1.0000       0.003828         0.1042
  65   1.0000       0.027432         0.7465
  66   1.0000       0.031602         0.8599
  67   1.0000       0.041902         1.1402
  68   1.0000       0.045048         1.2258
  69   1.0000       0.057572         1.5666
  70   1.0000       0.070335         1.9139
  71   1.0000       0.074491         2.0270
  72   0.0000       0.220859         6.0099
  73   0.0000       0.231267         6.2931
  74   0.0000       0.250763         6.8236
  75   0.0000       0.253768         6.9054
  76   0.0000       0.261679         7.1206

MULLIKEN ATOMIC CHARGES AND SPIN POPULATIONS
--------------------------------------------
   0 V :    0.525537    1.192936
   1 S :   -0.395554   -0.003028
   2 S :   -0.348409   -0.033899
   3 S :   -0.371670   -0.025735
   4 S :   -0.387736   -0.021536
   5 O :   -0.538525   -0.135714
   6 C :   -0.246379    0.005609
   7 C :   -0.233757    0.006869
   8 C :   -0.160611    0.002854
   9 H :    0.076540   -0.000944
  10 H :    0.052339    0.002173
  11 H :    0.139168    0.000640
  12 H :    0.006948   -0.000019
  13 H :    0.095061   -0.000115
  14 H :    0.049991   -0.000108
  15 C :   -0.249361   -0.002272
  16 C :   -0.255595    0.006381
  17 C :   -0.069863    0.007887
  18 H :    0.122087    0.000227
  19 H :   -0.051294   -0.003979
  20 H :    0.035860    0.001674
  21 H :    0.015265    0.000467
  22 H :    0.049125   -0.000601
  23 H :    0.140831    0.000232
Sum of atomic charges         :   -2.0000000

LOEWDIN ATOMIC CHARGES AND SPIN POPULATIONS
-------------------------------------------
   0 V :   -0.213028    1.149526
   1 S :   -0.056141    0.002182
   2 S :   -0.033703   -0.023342
   3 S :   -0.026675   -0.017347
   4 S :   -0.063871   -0.012261
   5 O :   -0.369508   -0.122343
   6 C :   -0.326642    0.005048
   7 C :   -0.313211    0.007085
   8 C :   -0.187282    0.000458
   9 H :    0.036943   -0.000005
  10 H :    0.029593    0.000669
  11 H :    0.070383    0.000327
  12 H :    0.031949    0.000156
  13 H :    0.045026   -0.000070
  14 H :    0.028038   -0.000554
  15 C :   -0.314282    0.002795
  16 C :   -0.294848    0.009412
  17 C :   -0.188938    0.001011
  18 H :   -0.003289    0.000187
  19 H :   -0.014957   -0.003748
  20 H :    0.036654    0.000649
  21 H :    0.044657    0.000514
  22 H :    0.032794   -0.000631
  23 H :    0.050339    0.000279

  Mayer bond orders larger than 0.100000
B(  0-V ,  1-S ) :   0.7155 B(  0-V ,  2-S ) :   0.8647 B(  0-V ,  3-S ) :   0.7338
B(  0-V ,  4-S ) :   0.7775 B(  0-V ,  5-O ) :   2.0791 B(  1-S , 15-C ) :   1.0410
B(  2-S ,  6-C ) :   1.0082 B(  3-S , 16-C ) :   1.0608 B(  4-S ,  7-C ) :   1.0684
B(  6-C ,  8-C ) :   0.9001 B(  6-C , 13-H ) :   0.9741 B(  6-C , 14-H ) :   0.9680
B(  7-C ,  8-C ) :   0.9194 B(  7-C ,  9-H ) :   0.9769 B(  7-C , 10-H ) :   0.9691
B(  8-C , 11-H ) :   0.9881 B(  8-C , 12-H ) :   0.9454 B( 15-C , 17-C ) :   0.8928
B( 15-C , 22-H ) :   0.9692 B( 15-C , 23-H ) :   0.9809 B( 16-C , 17-C ) :   0.9146
B( 16-C , 18-H ) :   0.9550 B( 16-C , 19-H ) :   0.8679 B( 17-C , 20-H ) :   0.9549
B( 17-C , 21-H ) :   0.9504

FINAL SINGLE POINT ENERGY     -2847.611755571966

DIPOLE MOMENT
-------------
                                X             Y             Z
Electronic contribution:      1.57267       0.53722       4.92448
Nuclear contribution   :     -1.36560      -0.69287      -5.85225
                        -----------------------------------------
Total Dipole Moment    :      0.20708      -0.15564      -0.92777
                        -----------------------------------------
Magnitude (a.u.)       :      0.96326
Magnitude (Debye)      :      2.44841

Rotational constants in cm-1:     0.027136     0.011711     0.009600
Rotational constants in MHz :   813.521879   351.098144   287.802482

                             ****ORCA TERMINATED NORMALLY****
TOTAL RUN TIME: 0 days 0 hours 14 minutes 29 seconds 621 msec
