                         Program Version 5.0.4 -  RELEASE  -
|  1> ! nofrozencore ReducedPop printbasis
|  2> ! B3LYP TZVP
|  3>
|  4> %basis
|  5> newgto V "CP(PPP)" end
|  6> end
|  7>
|  8> %pal
|  9> nprocs 8
| 10> end
| 11>
| 12> % sym SymThresh 1e-2 end
| 13> * xyz -2 2
| 14> V -0.21441958515670106 0.2595068977995348 -0.39381118223038064
| 15> S 0.29261686224221345 1.7767200671989447 1.783322543315454
| 16> S 1.967797261305469 0.7449362562931924 -0.72995308034803
| 17> S -1.562975952729971 -1.2557420997665811 1.3635642271996784
| 18> S -0.26350281679219006 -1.7216958510104237 -1.6052643822237118
| 19> O -1.4150535818131345 1.287454593471429 -0.8610532534757283
| 20> C 2.3035086985615263 -0.05383396407434501 -2.3920872967708395
| 21> C 0.18541993314948618 -1.2934478638419973 -3.3316349479919634
| 22> C 1.166751505897803 -0.11725247378024505 -3.4419415828005597
| 23> H -0.7250061020950569 -1.0495130651320868 -3.8952733865155067
| 24> H 0.6194978456534573 -2.190793190974213 -3.7962658430733947
| 25> H 0.5996318195661753 0.8243552922938772 -3.3949804750089267
| 26> H 1.630957515916223 -0.15500398645802965 -4.448371645276
| 27> H 2.6730012580706735 -1.0709292128126509 -2.2076700805670835
| 28> H 3.1292243714954835 0.523394581262174 -2.8292229414452454
| 29> C 0.48155316617412414 0.4499411799477325 3.081078650706586
| 30> C -1.9794533521698818 -0.2731886792558113 2.8742515484095823
| 31> C -0.7863893121320545 -0.0540817977302449 3.8018996221588672
| 32> H -2.772512935048373 -0.8161332057144235 3.404302387158308
| 33> H -2.373613885160639 0.6965628328664482 2.562372808656399
| 34> H -0.5270551766235182 -1.0093152948884088 4.2931873670162215
| 35> H -1.0750962825695862 0.6521100901356546 4.6034521469769105
| 36> H 1.1921605053202635 0.8064966151344809 3.840433834148059
| 37> H 0.9443990537940996 -0.40541687092378276 2.5867684190265616
| 38> *
| 39>
| 40> % eprnmr
| 41> gtensor true
| 42> Nuclei = all H {aiso,adip,aorb,fgrad,rho}
| 43> Nuclei = all V {aiso,adip,aorb,fgrad,rho}
| 44> end
| 45>
| 46>                          ****END OF INPUT****

CARTESIAN COORDINATES (ANGSTROEM)
---------------------------------
  V     -0.215006    0.259979   -0.393865
  S      0.292030    1.777192    1.783268
  S      1.967211    0.745409   -0.730007
  S     -1.563563   -1.255270    1.363510
  S     -0.264089   -1.721223   -1.605319
  O     -1.415640    1.287927   -0.861108
  C      2.302922   -0.053362   -2.392142
  C      0.184833   -1.292975   -3.331689
  C      1.166165   -0.116780   -3.441996
  H     -0.725593   -1.049041   -3.895328
  H      0.618911   -2.190321   -3.796320
  H      0.599045    0.824828   -3.395035
  H      1.630371   -0.154532   -4.448426
  H      2.672415   -1.070457   -2.207724
  H      3.128638    0.523867   -2.829277
  C      0.480967    0.450414    3.081024
  C     -1.980040   -0.272716    2.874197
  C     -0.786976   -0.053609    3.801845
  H     -2.773100   -0.815661    3.404248
  H     -2.374201    0.697035    2.562319
  H     -0.527642   -1.008843    4.293133
  H     -1.075683    0.652582    4.603398
  H      1.191574    0.806969    3.840380
  H      0.943812   -0.404944    2.586714

 Total Charge           Charge          ....   -2
 Multiplicity           Mult            ....    2
 Number of Electrons    NEL             ....  145
 Basis Dimension        Dim             ....  353

ORBITAL ENERGIES
----------------
                 SPIN UP ORBITALS
  NO   OCC          E(Eh)            E(eV)
   0   1.0000    -196.607231     -5349.9547
   1   1.0000     -88.575259     -2410.2553
   2   1.0000     -88.570020     -2410.1128
   3   1.0000     -88.549919     -2409.5658
   4   1.0000     -88.548418     -2409.5250
   5   1.0000     -21.982631      -598.1778
   6   1.0000     -18.814982      -511.9817
   7   1.0000     -18.489846      -503.1343
   8   1.0000     -18.483580      -502.9638
   9   1.0000     -18.483326      -502.9569
  10   1.0000      -9.954249      -270.8689
  11   1.0000      -9.947123      -270.6750
  12   1.0000      -9.944376      -270.6002
  13   1.0000      -9.926438      -270.1121
  14   1.0000      -9.924330      -270.0548
  15   1.0000      -9.924131      -270.0493
  16   1.0000      -7.630234      -207.6292
  17   1.0000      -7.625923      -207.5119
  18   1.0000      -7.603379      -206.8985
  19   1.0000      -7.601646      -206.8513
  20   1.0000      -5.595659      -152.2656
  21   1.0000      -5.591156      -152.1431
  22   1.0000      -5.588582      -152.0730
  23   1.0000      -5.587512      -152.0439
  24   1.0000      -5.584567      -151.9638
  25   1.0000      -5.583036      -151.9221
  26   1.0000      -5.568619      -151.5298
  27   1.0000      -5.566923      -151.4837
  28   1.0000      -5.562740      -151.3699
  29   1.0000      -5.561267      -151.3298
  30   1.0000      -5.560356      -151.3050
  31   1.0000      -5.558390      -151.2515
  32   1.0000      -2.375580       -64.6428
  33   1.0000      -1.413424       -38.4612
  34   1.0000      -1.405534       -38.2465
  35   1.0000      -1.404840       -38.2276
  36   1.0000      -0.574753       -15.6398
  37   1.0000      -0.561208       -15.2713
  38   1.0000      -0.539268       -14.6742
  39   1.0000      -0.482831       -13.1385
  40   1.0000      -0.453103       -12.3295
  41   1.0000      -0.416252       -11.3268
  42   1.0000      -0.387624       -10.5478
  43   1.0000      -0.348173        -9.4743
  44   1.0000      -0.321730        -8.7547
  45   1.0000      -0.314441        -8.5564
  46   1.0000      -0.274249        -7.4627
  47   1.0000      -0.218004        -5.9322
  48   1.0000      -0.211011        -5.7419
  49   1.0000      -0.202769        -5.5176
  50   1.0000      -0.192615        -5.2413
  51   1.0000      -0.170696        -4.6449
  52   1.0000      -0.126076        -3.4307
  53   1.0000      -0.123014        -3.3474
  54   1.0000      -0.121097        -3.2952
  55   1.0000      -0.117872        -3.2075
  56   1.0000      -0.096804        -2.6342
  57   1.0000      -0.091600        -2.4926
  58   1.0000      -0.075353        -2.0505
  59   1.0000      -0.052873        -1.4388
  60   1.0000      -0.046847        -1.2748
  61   1.0000      -0.038308        -1.0424
  62   1.0000      -0.032392        -0.8814
  63   1.0000      -0.020882        -0.5682
  64   1.0000      -0.004274        -0.1163
  65   1.0000       0.012278         0.3341
  66   1.0000       0.028629         0.7790
  67   1.0000       0.033708         0.9172
  68   1.0000       0.051395         1.3985
  69   1.0000       0.060953         1.6586
  70   1.0000       0.068473         1.8632
  71   1.0000       0.074264         2.0208
  72   1.0000       0.083697         2.2775
  73   0.0000       0.220255         5.9934
  74   0.0000       0.231720         6.3054
  75   0.0000       0.242332         6.5942
  76   0.0000       0.253985         6.9113
  77   0.0000       0.261980         7.1289

                 SPIN DOWN ORBITALS
  NO   OCC          E(Eh)            E(eV)
   0   1.0000    -196.607340     -5349.9577
   1   1.0000     -88.575467     -2410.2610
   2   1.0000     -88.570127     -2410.1157
   3   1.0000     -88.550100     -2409.5707
   4   1.0000     -88.548533     -2409.5281
   5   1.0000     -21.967399      -597.7633
   6   1.0000     -18.819002      -512.0911
   7   1.0000     -18.484241      -502.9818
   8   1.0000     -18.467795      -502.5343
   9   1.0000     -18.466511      -502.4993
  10   1.0000      -9.953839      -270.8577
  11   1.0000      -9.946758      -270.6651
  12   1.0000      -9.944376      -270.6002
  13   1.0000      -9.926380      -270.1105
  14   1.0000      -9.924302      -270.0540
  15   1.0000      -9.924098      -270.0484
  16   1.0000      -7.630429      -207.6345
  17   1.0000      -7.626017      -207.5145
  18   1.0000      -7.603556      -206.9033
  19   1.0000      -7.601759      -206.8544
  20   1.0000      -5.595884      -152.2717
  21   1.0000      -5.591326      -152.1477
  22   1.0000      -5.589067      -152.0862
  23   1.0000      -5.587700      -152.0491
  24   1.0000      -5.584953      -151.9743
  25   1.0000      -5.582960      -151.9201
  26   1.0000      -5.568764      -151.5338
  27   1.0000      -5.567017      -151.4862
  28   1.0000      -5.563245      -151.3836
  29   1.0000      -5.561799      -151.3442
  30   1.0000      -5.560482      -151.3084
  31   1.0000      -5.558253      -151.2478
  32   1.0000      -2.329898       -63.3998
  33   1.0000      -1.392707       -37.8975
  34   1.0000      -1.345047       -36.6006
  35   1.0000      -1.340289       -36.4711
  36   1.0000      -0.583894       -15.8886
  37   1.0000      -0.560866       -15.2619
  38   1.0000      -0.539282       -14.6746
  39   1.0000      -0.482270       -13.1232
  40   1.0000      -0.453295       -12.3348
  41   1.0000      -0.416135       -11.3236
  42   1.0000      -0.388036       -10.5590
  43   1.0000      -0.348319        -9.4782
  44   1.0000      -0.322337        -8.7712
  45   1.0000      -0.314061        -8.5460
  46   1.0000      -0.274547        -7.4708
  47   1.0000      -0.217739        -5.9250
  48   1.0000      -0.210484        -5.7276
  49   1.0000      -0.202822        -5.5191
  50   1.0000      -0.192661        -5.2426
  51   1.0000      -0.170255        -4.6329
  52   1.0000      -0.125798        -3.4231
  53   1.0000      -0.122902        -3.3443
  54   1.0000      -0.121026        -3.2933
  55   1.0000      -0.117518        -3.1978
  56   1.0000      -0.096842        -2.6352
  57   1.0000      -0.089957        -2.4478
  58   1.0000      -0.071824        -1.9544
  59   1.0000      -0.051965        -1.4141
  60   1.0000      -0.047370        -1.2890
  61   1.0000      -0.038097        -1.0367
  62   1.0000      -0.033323        -0.9068
  63   1.0000      -0.023495        -0.6393
  64   1.0000      -0.002689        -0.0732
  65   1.0000       0.014649         0.3986
  66   1.0000       0.030463         0.8289
  67   1.0000       0.043535         1.1847
  68   1.0000       0.053109         1.4452
  69   1.0000       0.062300         1.6953
  70   1.0000       0.073764         2.0072
  71   1.0000       0.080882         2.2009
  72   0.0000       0.225192         6.1278
  73   0.0000       0.238185         6.4813
  74   0.0000       0.248903         6.7730
  75   0.0000       0.252736         6.8773
  76   0.0000       0.265390         7.2216

MULLIKEN ATOMIC CHARGES AND SPIN POPULATIONS
--------------------------------------------
   0 V :    0.509087    1.224935
   1 S :   -0.455948   -0.020898
   2 S :   -0.292857   -0.039637
   3 S :   -0.463140   -0.030407
   4 S :   -0.315133   -0.022317
   5 O :   -0.550258   -0.154729
   6 C :   -0.261573    0.015749
   7 C :   -0.232080    0.011184
   8 C :   -0.162018    0.005523
   9 H :    0.083043   -0.001874
  10 H :    0.054417    0.006313
  11 H :    0.123777    0.001963
  12 H :    0.015568    0.001036
  13 H :    0.095121   -0.000521
  14 H :    0.053470    0.002289
  15 C :   -0.276225   -0.001936
  16 C :   -0.224342   -0.000493
  17 C :   -0.058204    0.005644
  18 H :    0.044672   -0.000825
  19 H :    0.118099   -0.000236
  20 H :    0.011769    0.000144
  21 H :    0.003456   -0.000081
  22 H :    0.042794   -0.000611
  23 H :    0.136505   -0.000216
Sum of atomic charges         :   -2.0000000

LOEWDIN ATOMIC CHARGES AND SPIN POPULATIONS
-------------------------------------------
   0 V :   -0.213456    1.175368
   1 S :   -0.131624   -0.017108
   2 S :    0.044310   -0.023570
   3 S :   -0.125591   -0.025325
   4 S :    0.024687   -0.008466
   5 O :   -0.411523   -0.140869
   6 C :   -0.326061    0.014860
   7 C :   -0.315068    0.015895
   8 C :   -0.187640    0.002274
   9 H :    0.041228    0.000074
  10 H :    0.030104    0.002523
  11 H :    0.069493    0.000970
  12 H :    0.036188    0.000407
  13 H :    0.047781   -0.000110
  14 H :    0.029764    0.000928
  15 C :   -0.327213    0.001550
  16 C :   -0.322165    0.002276
  17 C :   -0.190901    0.000529
  18 H :    0.027440   -0.000919
  19 H :    0.053516   -0.000479
  20 H :    0.036904    0.000138
  21 H :    0.030044    0.000151
  22 H :    0.025790   -0.000679
  23 H :    0.053993   -0.000416

  Mayer bond orders larger than 0.100000
B(  0-V ,  1-S ) :   0.5975 B(  0-V ,  2-S ) :   0.9752 B(  0-V ,  3-S ) :   0.6748
B(  0-V ,  4-S ) :   0.8973 B(  0-V ,  5-O ) :   2.0458 B(  1-S , 15-C ) :   1.0774
B(  2-S ,  6-C ) :   0.9669 B(  3-S , 16-C ) :   1.0457 B(  4-S ,  7-C ) :   1.0595
B(  6-C ,  8-C ) :   0.9070 B(  6-C , 13-H ) :   0.9744 B(  6-C , 14-H ) :   0.9653
B(  7-C ,  8-C ) :   0.9194 B(  7-C ,  9-H ) :   0.9742 B(  7-C , 10-H ) :   0.9619
B(  8-C , 11-H ) :   0.9879 B(  8-C , 12-H ) :   0.9460 B( 15-C , 17-C ) :   0.8896
B( 15-C , 22-H ) :   0.9673 B( 15-C , 23-H ) :   0.9838 B( 16-C , 17-C ) :   0.9096
B( 16-C , 18-H ) :   0.9691 B( 16-C , 19-H ) :   0.9730 B( 17-C , 20-H ) :   0.9637
B( 17-C , 21-H ) :   0.9512

FINAL SINGLE POINT ENERGY     -2847.689642737297

DIPOLE MOMENT
-------------
                                X             Y             Z
Electronic contribution:     -3.15365       3.64867      -3.47199
Nuclear contribution   :      4.06466      -4.16123       2.45851
                        -----------------------------------------
Total Dipole Moment    :      0.91102      -0.51256      -1.01347
                        -----------------------------------------
Magnitude (a.u.)       :      1.45595
Magnitude (Debye)      :      3.70073

Rotational constants in cm-1:     0.027130     0.011691     0.009553
Rotational constants in MHz :   813.337034   350.476789   286.394109

                             ****ORCA TERMINATED NORMALLY****
TOTAL RUN TIME: 0 days 0 hours 9 minutes 44 seconds 647 msec
