                         Program Version 5.0.4 -  RELEASE  -
|  1> ! nofrozencore ReducedPop printbasis
|  2> ! B3LYP TZVP
|  3>
|  4> %basis
|  5> newgto V "CP(PPP)" end
|  6> end
|  7>
|  8> %pal
|  9> nprocs 8
| 10> end
| 11>
| 12> % sym SymThresh 1e-2 end
| 13> * xyz -2 2
| 14> V -0.16943571714469843 -0.35496401216979595 0.29731337045949136
| 15> S 1.9851414294570562 -1.4140953335774933 -0.5064847318296505
| 16> S 1.3896283731841363 1.2121367148027644 1.3367288576647742
| 17> S -1.1334418623225468 -0.699805534452802 -1.9652731656851228
| 18> S -1.9364081453650077 1.3998570560386132 0.36128146449957466
| 19> O -0.6623210919590248 -1.4448990098696337 1.3537783979318614
| 20> C 0.5400851959840031 2.4975987619641025 2.288910000149482
| 21> C -2.196368196777942 1.915984637624008 2.0912582802815654
| 22> C -0.8211791701149775 1.8796790104085166 2.9954258795319797
| 23> H -3.11944004567687 1.5472360454625267 2.630424280503426
| 24> H -2.333026935522299 3.0243972512599404 1.9334494145117282
| 25> H -0.5960326406180209 0.8716095301684612 3.361229095727547
| 26> H -1.0681491081597563 2.4992945864995244 3.880614349685974
| 27> H 0.14928809974273485 3.1526111896876166 1.471009605326775
| 28> H 1.1907576822665653 3.1242918964460555 2.9523410988274486
| 29> C 2.051678819413607 -0.8287439822165653 -2.2675808842780922
| 30> C -0.12598389693963719 -2.0676431469509713 -2.7196694355591426
| 31> C 1.2379539632113148 -1.6634087577920302 -3.2365462331890416
| 32> H -0.7111473531734176 -2.456127508145705 -3.5627161612189107
| 33> H -0.01976741775620716 -2.8653629763576522 -1.9843351867577883
| 34> H 1.1167776649705425 -1.1019874211906482 -4.176460644776809
| 35> H 1.8014915899903705 -2.578939851212742 -3.4798428007153954
| 36> H 3.1022780047926113 -0.8617290279601763 -2.5803213597929586
| 37> H 1.7324492990119655 0.21351195910733448 -2.3035074543087757
| 38> *
| 39>
| 40> % eprnmr
| 41> gtensor true
| 42> Nuclei = all H {aiso,adip,aorb,fgrad,rho}
| 43> Nuclei = all V {aiso,adip,aorb,fgrad,rho}
| 44> end
| 45>
| 46>                          ****END OF INPUT****

CARTESIAN COORDINATES (ANGSTROEM)
---------------------------------
  V     -0.169598   -0.355666    0.297538
  S      1.984979   -1.414797   -0.506260
  S      1.389466    1.211435    1.336954
  S     -1.133604   -0.700507   -1.965048
  S     -1.936571    1.399155    0.361506
  O     -0.662484   -1.445601    1.354003
  C      0.539923    2.496897    2.289135
  C     -2.196531    1.915283    2.091483
  C     -0.821342    1.878977    2.995651
  H     -3.119603    1.546534    2.630649
  H     -2.333190    3.023695    1.933674
  H     -0.596195    0.870908    3.361454
  H     -1.068312    2.498593    3.880839
  H      0.149125    3.151909    1.471235
  H      1.190595    3.123590    2.952566
  C      2.051516   -0.829446   -2.267356
  C     -0.126147   -2.068345   -2.719444
  C      1.237791   -1.664111   -3.236321
  H     -0.711310   -2.456829   -3.562491
  H     -0.019930   -2.866065   -1.984110
  H      1.116615   -1.102689   -4.176236
  H      1.801329   -2.579642   -3.479618
  H      3.102115   -0.862431   -2.580096
  H      1.732287    0.212810   -2.303282

 Total Charge           Charge          ....   -2
 Multiplicity           Mult            ....    2
 Number of Electrons    NEL             ....  145
 Basis Dimension        Dim             ....  353

ORBITAL ENERGIES
----------------
                 SPIN UP ORBITALS
  NO   OCC          E(Eh)            E(eV)
   0   1.0000    -196.607054     -5349.9499
   1   1.0000     -88.562147     -2409.8985
   2   1.0000     -88.559858     -2409.8363
   3   1.0000     -88.558874     -2409.8095
   4   1.0000     -88.557465     -2409.7711
   5   1.0000     -21.982376      -598.1709
   6   1.0000     -18.826571      -512.2971
   7   1.0000     -18.490167      -503.1430
   8   1.0000     -18.482993      -502.9478
   9   1.0000     -18.482891      -502.9450
  10   1.0000      -9.958043      -270.9721
  11   1.0000      -9.947962      -270.6978
  12   1.0000      -9.942587      -270.5516
  13   1.0000      -9.933291      -270.2986
  14   1.0000      -9.933052      -270.2921
  15   1.0000      -9.930031      -270.2099
  16   1.0000      -7.616161      -207.2463
  17   1.0000      -7.614552      -207.2025
  18   1.0000      -7.613563      -207.1756
  19   1.0000      -7.611676      -207.1242
  20   1.0000      -5.581394      -151.8774
  21   1.0000      -5.579986      -151.8391
  22   1.0000      -5.578858      -151.8085
  23   1.0000      -5.576957      -151.7567
  24   1.0000      -5.575153      -151.7076
  25   1.0000      -5.573475      -151.6620
  26   1.0000      -5.573389      -151.6596
  27   1.0000      -5.572356      -151.6315
  28   1.0000      -5.571554      -151.6097
  29   1.0000      -5.570916      -151.5923
  30   1.0000      -5.570725      -151.5871
  31   1.0000      -5.568696      -151.5319
  32   1.0000      -2.375432       -64.6388
  33   1.0000      -1.418907       -38.6104
  34   1.0000      -1.403454       -38.1899
  35   1.0000      -1.402861       -38.1738
  36   1.0000      -0.589056       -16.0290
  37   1.0000      -0.555207       -15.1079
  38   1.0000      -0.528855       -14.3909
  39   1.0000      -0.470577       -12.8050
  40   1.0000      -0.465606       -12.6698
  41   1.0000      -0.403777       -10.9873
  42   1.0000      -0.397345       -10.8123
  43   1.0000      -0.337950        -9.1961
  44   1.0000      -0.321025        -8.7355
  45   1.0000      -0.304988        -8.2991
  46   1.0000      -0.284631        -7.7452
  47   1.0000      -0.217825        -5.9273
  48   1.0000      -0.204541        -5.5658
  49   1.0000      -0.197177        -5.3655
  50   1.0000      -0.181253        -4.9321
  51   1.0000      -0.149271        -4.0619
  52   1.0000      -0.135933        -3.6989
  53   1.0000      -0.132296        -3.6000
  54   1.0000      -0.118955        -3.2369
  55   1.0000      -0.105567        -2.8726
  56   1.0000      -0.099893        -2.7182
  57   1.0000      -0.081636        -2.2214
  58   1.0000      -0.074908        -2.0383
  59   1.0000      -0.066023        -1.7966
  60   1.0000      -0.057024        -1.5517
  61   1.0000      -0.048820        -1.3285
  62   1.0000      -0.043157        -1.1744
  63   1.0000      -0.038578        -1.0498
  64   1.0000       0.001982         0.0539
  65   1.0000       0.025554         0.6954
  66   1.0000       0.031380         0.8539
  67   1.0000       0.037948         1.0326
  68   1.0000       0.048128         1.3096
  69   1.0000       0.055238         1.5031
  70   1.0000       0.066106         1.7988
  71   1.0000       0.071886         1.9561
  72   1.0000       0.081473         2.2170
  73   0.0000       0.234321         6.3762
  74   0.0000       0.245850         6.6899
  75   0.0000       0.248880         6.7724
  76   0.0000       0.252401         6.8682
  77   0.0000       0.257949         7.0192

                 SPIN DOWN ORBITALS
  NO   OCC          E(Eh)            E(eV)
   0   1.0000    -196.607196     -5349.9538
   1   1.0000     -88.562309     -2409.9029
   2   1.0000     -88.559938     -2409.8384
   3   1.0000     -88.559036     -2409.8139
   4   1.0000     -88.557435     -2409.7703
   5   1.0000     -21.967360      -597.7623
   6   1.0000     -18.830029      -512.3911
   7   1.0000     -18.484993      -503.0022
   8   1.0000     -18.466954      -502.5114
   9   1.0000     -18.466462      -502.4980
  10   1.0000      -9.957879      -270.9677
  11   1.0000      -9.947830      -270.6942
  12   1.0000      -9.942615      -270.5523
  13   1.0000      -9.933123      -270.2940
  14   1.0000      -9.932995      -270.2905
  15   1.0000      -9.929994      -270.2089
  16   1.0000      -7.616315      -207.2505
  17   1.0000      -7.614628      -207.2046
  18   1.0000      -7.613721      -207.1799
  19   1.0000      -7.611650      -207.1235
  20   1.0000      -5.581545      -151.8816
  21   1.0000      -5.580087      -151.8419
  22   1.0000      -5.579014      -151.8127
  23   1.0000      -5.576972      -151.7571
  24   1.0000      -5.575579      -151.7192
  25   1.0000      -5.573871      -151.6727
  26   1.0000      -5.573509      -151.6629
  27   1.0000      -5.572768      -151.6427
  28   1.0000      -5.571402      -151.6056
  29   1.0000      -5.571247      -151.6013
  30   1.0000      -5.570845      -151.5904
  31   1.0000      -5.568225      -151.5191
  32   1.0000      -2.330639       -63.4199
  33   1.0000      -1.400054       -38.0974
  34   1.0000      -1.342006       -36.5178
  35   1.0000      -1.340042       -36.4644
  36   1.0000      -0.596400       -16.2289
  37   1.0000      -0.555055       -15.1038
  38   1.0000      -0.528782       -14.3889
  39   1.0000      -0.470551       -12.8044
  40   1.0000      -0.465482       -12.6664
  41   1.0000      -0.403822       -10.9885
  42   1.0000      -0.397443       -10.8150
  43   1.0000      -0.338064        -9.1992
  44   1.0000      -0.321345        -8.7442
  45   1.0000      -0.304975        -8.2988
  46   1.0000      -0.284636        -7.7453
  47   1.0000      -0.217764        -5.9256
  48   1.0000      -0.204439        -5.5631
  49   1.0000      -0.197112        -5.3637
  50   1.0000      -0.181033        -4.9262
  51   1.0000      -0.149107        -4.0574
  52   1.0000      -0.135798        -3.6953
  53   1.0000      -0.132030        -3.5927
  54   1.0000      -0.118930        -3.2362
  55   1.0000      -0.105515        -2.8712
  56   1.0000      -0.099781        -2.7152
  57   1.0000      -0.080672        -2.1952
  58   1.0000      -0.072753        -1.9797
  59   1.0000      -0.064856        -1.7648
  60   1.0000      -0.057520        -1.5652
  61   1.0000      -0.049793        -1.3549
  62   1.0000      -0.043429        -1.1818
  63   1.0000      -0.040076        -1.0905
  64   1.0000       0.007314         0.1990
  65   1.0000       0.028175         0.7667
  66   1.0000       0.034142         0.9291
  67   1.0000       0.046542         1.2665
  68   1.0000       0.048764         1.3269
  69   1.0000       0.064234         1.7479
  70   1.0000       0.068434         1.8622
  71   1.0000       0.073126         1.9899
  72   0.0000       0.233206         6.3459
  73   0.0000       0.250317         6.8115
  74   0.0000       0.256079         6.9683
  75   0.0000       0.260882         7.0990
  76   0.0000       0.263286         7.1644

MULLIKEN ATOMIC CHARGES AND SPIN POPULATIONS
--------------------------------------------
   0 V :    0.524637    1.187009
   1 S :   -0.428316   -0.000935
   2 S :   -0.343678   -0.029807
   3 S :   -0.410369   -0.029641
   4 S :   -0.377909   -0.017811
   5 O :   -0.542292   -0.133208
   6 C :   -0.271391    0.005543
   7 C :   -0.230612    0.004369
   8 C :   -0.157046    0.003413
   9 H :    0.067618   -0.001289
  10 H :    0.052108    0.002156
  11 H :    0.129123    0.000304
  12 H :   -0.000708   -0.000080
  13 H :    0.107990   -0.000292
  14 H :    0.057609   -0.000557
  15 C :   -0.253895   -0.002493
  16 C :   -0.249296    0.002892
  17 C :   -0.066385    0.008904
  18 H :    0.045036   -0.000134
  19 H :    0.130042   -0.000079
  20 H :    0.015326    0.001679
  21 H :    0.013381   -0.000011
  22 H :    0.050219   -0.000529
  23 H :    0.138807    0.000597
Sum of atomic charges         :   -2.0000000

LOEWDIN ATOMIC CHARGES AND SPIN POPULATIONS
-------------------------------------------
   0 V :   -0.211066    1.143902
   1 S :   -0.073745    0.004426
   2 S :   -0.024245   -0.019904
   3 S :   -0.063163   -0.020814
   4 S :   -0.051563   -0.009046
   5 O :   -0.367817   -0.119988
   6 C :   -0.347856    0.004974
   7 C :   -0.329479    0.005948
   8 C :   -0.183784    0.000120
   9 H :    0.034365   -0.000247
  10 H :    0.034073    0.000564
  11 H :    0.064382    0.000177
  12 H :    0.025904    0.000056
  13 H :    0.049699   -0.000282
  14 H :    0.031529   -0.000843
  15 C :   -0.315853    0.002740
  16 C :   -0.322852    0.007066
  17 C :   -0.189993    0.001057
  18 H :    0.028203   -0.000197
  19 H :    0.053957   -0.000567
  20 H :    0.036890    0.000641
  21 H :    0.035950    0.000387
  22 H :    0.030435   -0.000570
  23 H :    0.056030    0.000398

  Mayer bond orders larger than 0.100000
B(  0-V ,  1-S ) :   0.7125 B(  0-V ,  2-S ) :   0.8531 B(  0-V ,  3-S ) :   0.7728
B(  0-V ,  4-S ) :   0.7659 B(  0-V ,  5-O ) :   2.0813 B(  1-S , 15-C ) :   1.0244
B(  2-S ,  6-C ) :   1.0046 B(  3-S , 16-C ) :   1.0207 B(  4-S ,  7-C ) :   1.0836
B(  6-C ,  8-C ) :   0.8923 B(  6-C , 13-H ) :   0.9881 B(  6-C , 14-H ) :   0.9395
B(  7-C ,  8-C ) :   0.9092 B(  7-C ,  9-H ) :   0.9381 B(  7-C , 10-H ) :   0.9856
B(  8-C , 11-H ) :   0.9749 B(  8-C , 12-H ) :   0.9413 B( 15-C , 17-C ) :   0.8971
B( 15-C , 22-H ) :   0.9711 B( 15-C , 23-H ) :   0.9792 B( 16-C , 17-C ) :   0.9041
B( 16-C , 18-H ) :   0.9656 B( 16-C , 19-H ) :   0.9752 B( 17-C , 20-H ) :   0.9587
B( 17-C , 21-H ) :   0.9603

FINAL SINGLE POINT ENERGY     -2847.689267401217

DIPOLE MOMENT
-------------
                                X             Y             Z
Electronic contribution:     -1.86337      -5.46425       2.96479
Nuclear contribution   :      1.93219       5.88716      -3.07399
                        -----------------------------------------
Total Dipole Moment    :      0.06882       0.42291      -0.10920
                        -----------------------------------------
Magnitude (a.u.)       :      0.44217
Magnitude (Debye)      :      1.12391

Rotational constants in cm-1:     0.026923     0.011720     0.009579
Rotational constants in MHz :   807.133227   351.352114   287.164153

                             ****ORCA TERMINATED NORMALLY****
TOTAL RUN TIME: 0 days 0 hours 9 minutes 31 seconds 869 msec
