                         Program Version 5.0.4 -  RELEASE  -
|  1> ! nofrozencore ReducedPop printbasis
|  2> ! B3LYP TZVP
|  3>
|  4> %basis
|  5> newgto V "CP(PPP)" end
|  6> end
|  7>
|  8> %pal
|  9> nprocs 4
| 10> end
| 11>
| 12> % sym SymThresh 1e-2 end
| 13> * xyz -2 2
| 14> V 0.04757384199165255 0.46879772619385696 -0.14048415202656414
| 15> S 1.7441627123154169 0.353980732102603 1.75462517212584
| 16> S 1.629151440020055 -1.0869856406059653 -1.1734209289193798
| 17> S -1.7620548583000701 0.3329526579900593 1.531712440025697
| 18> S -1.7678718720825628 -0.41290997981766314 -1.5920558809147598
| 19> O 0.28978144256452465 1.9581075324262276 -0.6748816480731221
| 20> C 0.9839588487135609 -1.528722074861486 -2.8582752832896405
| 21> C -1.1979749519243077 -0.2572291019701351 -3.349853007777743
| 22> C 0.30991962644125176 -0.36574509411912737 -3.597613159629632
| 23> H -1.5562233406428239 0.6953059332496158 -3.7577107543285404
| 24> H -1.7053212942368132 -1.0557966132879952 -3.9068253541924647
| 25> H 0.7997783288035378 0.5643601473522188 -3.2983130344651643
| 26> H 0.46440334426935714 -0.4751198771047855 -4.686526337519332
| 27> H 0.2803151595891697 -2.3634199462997096 -2.7724377572831416
| 28> H 1.8505457845766144 -1.87826947546959 -3.4314274773538362
| 29> C 0.8918337851570632 -0.7476748693402082 2.867273338573692
| 30> C -1.0453480737097034 0.9365814897105582 3.209297434933223
| 31> C -0.14592028819659295 -0.1078840504199371 3.8436604903619687
| 32> H -1.7778216586472697 1.4902892831175016 3.8673291804616
| 33> H -0.2637251338088775 1.6653290261534832 2.847007149402189
| 34> H -0.6163670713792311 -0.8770313755674904 4.522992317891396
| 35> H 0.5731397230889194 0.48801540131775145 4.4887354401831505
| 36> H 1.733922031093708 -0.9710974464553995 3.593919679023123
| 37> H 0.5975229479165302 -1.7292451756439073 2.3913912598802005
| 38> *
| 39>
| 40> % eprnmr
| 41> gtensor true
| 42> Nuclei = all H {aiso,adip,aorb,fgrad,rho}
| 43> Nuclei = all V {aiso,adip,aorb,fgrad,rho}
| 44> end
| 45>
| 46>                          ****END OF INPUT****

CARTESIAN COORDINATES (ANGSTROEM)
---------------------------------
  V      0.047655    0.469544   -0.140403
  S      1.744244    0.354727    1.754707
  S      1.629233   -1.086240   -1.173339
  S     -1.761973    0.333699    1.531794
  S     -1.767790   -0.412164   -1.591974
  O      0.289863    1.958853   -0.674800
  C      0.984040   -1.527976   -2.858194
  C     -1.197893   -0.256483   -3.349772
  C      0.310001   -0.364999   -3.597532
  H     -1.556142    0.696052   -3.757629
  H     -1.705240   -1.055051   -3.906744
  H      0.799860    0.565106   -3.298232
  H      0.464485   -0.474374   -4.686445
  H      0.280397   -2.362674   -2.772356
  H      1.850627   -1.877524   -3.431346
  C      0.891915   -0.746929    2.867355
  C     -1.045267    0.937327    3.209379
  C     -0.145839   -0.107138    3.843742
  H     -1.777740    1.491035    3.867411
  H     -0.263644    1.666075    2.847089
  H     -0.616286   -0.876285    4.523074
  H      0.573221    0.488761    4.488817
  H      1.734004   -0.970352    3.594001
  H      0.597604   -1.728499    2.391473

 Total Charge           Charge          ....   -2
 Multiplicity           Mult            ....    2
 Number of Electrons    NEL             ....  145
 Basis Dimension        Dim             ....  353

ORBITAL ENERGIES
----------------
                 SPIN UP ORBITALS
  NO   OCC          E(Eh)            E(eV)
   0   1.0000    -196.607104     -5349.9513
   1   1.0000     -88.562612     -2409.9112
   2   1.0000     -88.561412     -2409.8785
   3   1.0000     -88.559706     -2409.8321
   4   1.0000     -88.559087     -2409.8153
   5   1.0000     -21.982537      -598.1752
   6   1.0000     -18.825307      -512.2626
   7   1.0000     -18.490231      -503.1448
   8   1.0000     -18.483183      -502.9530
   9   1.0000     -18.483107      -502.9509
  10   1.0000      -9.942960      -270.5617
  11   1.0000      -9.942689      -270.5543
  12   1.0000      -9.942525      -270.5499
  13   1.0000      -9.941330      -270.5173
  14   1.0000      -9.936105      -270.3752
  15   1.0000      -9.929435      -270.1937
  16   1.0000      -7.615732      -207.2346
  17   1.0000      -7.615259      -207.2217
  18   1.0000      -7.615130      -207.2182
  19   1.0000      -7.613361      -207.1701
  20   1.0000      -5.581180      -151.8716
  21   1.0000      -5.580689      -151.8583
  22   1.0000      -5.580136      -151.8432
  23   1.0000      -5.578831      -151.8077
  24   1.0000      -5.574654      -151.6940
  25   1.0000      -5.574266      -151.6835
  26   1.0000      -5.574097      -151.6789
  27   1.0000      -5.572975      -151.6484
  28   1.0000      -5.572438      -151.6338
  29   1.0000      -5.572404      -151.6328
  30   1.0000      -5.572263      -151.6290
  31   1.0000      -5.570277      -151.5749
  32   1.0000      -2.375306       -64.6354
  33   1.0000      -1.418147       -38.5897
  34   1.0000      -1.403429       -38.1892
  35   1.0000      -1.402920       -38.1754
  36   1.0000      -0.587802       -15.9949
  37   1.0000      -0.551840       -15.0163
  38   1.0000      -0.550232       -14.9726
  39   1.0000      -0.469683       -12.7807
  40   1.0000      -0.465050       -12.6547
  41   1.0000      -0.402661       -10.9570
  42   1.0000      -0.395548       -10.7634
  43   1.0000      -0.335986        -9.1426
  44   1.0000      -0.327494        -8.9116
  45   1.0000      -0.304874        -8.2960
  46   1.0000      -0.277777        -7.5587
  47   1.0000      -0.213182        -5.8010
  48   1.0000      -0.207961        -5.6589
  49   1.0000      -0.199320        -5.4238
  50   1.0000      -0.198412        -5.3991
  51   1.0000      -0.161438        -4.3929
  52   1.0000      -0.127294        -3.4638
  53   1.0000      -0.125798        -3.4231
  54   1.0000      -0.112784        -3.0690
  55   1.0000      -0.106403        -2.8954
  56   1.0000      -0.104884        -2.8540
  57   1.0000      -0.079250        -2.1565
  58   1.0000      -0.073166        -1.9909
  59   1.0000      -0.064063        -1.7432
  60   1.0000      -0.057293        -1.5590
  61   1.0000      -0.046707        -1.2710
  62   1.0000      -0.040379        -1.0988
  63   1.0000      -0.033867        -0.9216
  64   1.0000       0.000314         0.0086
  65   1.0000       0.028362         0.7718
  66   1.0000       0.031130         0.8471
  67   1.0000       0.036330         0.9886
  68   1.0000       0.046581         1.2675
  69   1.0000       0.052558         1.4302
  70   1.0000       0.064893         1.7658
  71   1.0000       0.071198         1.9374
  72   1.0000       0.079448         2.1619
  73   0.0000       0.233527         6.3546
  74   0.0000       0.246031         6.6948
  75   0.0000       0.250204         6.8084
  76   0.0000       0.251497         6.8436
  77   0.0000       0.256335         6.9752

                 SPIN DOWN ORBITALS
  NO   OCC          E(Eh)            E(eV)
   0   1.0000    -196.607245     -5349.9551
   1   1.0000     -88.562778     -2409.9157
   2   1.0000     -88.561588     -2409.8833
   3   1.0000     -88.559712     -2409.8323
   4   1.0000     -88.559189     -2409.8181
   5   1.0000     -21.967503      -597.7661
   6   1.0000     -18.828794      -512.3575
   7   1.0000     -18.485028      -503.0032
   8   1.0000     -18.467148      -502.5167
   9   1.0000     -18.466660      -502.5034
  10   1.0000      -9.942775      -270.5567
  11   1.0000      -9.942486      -270.5488
  12   1.0000      -9.942459      -270.5481
  13   1.0000      -9.941290      -270.5162
  14   1.0000      -9.935960      -270.3712
  15   1.0000      -9.929455      -270.1942
  16   1.0000      -7.615889      -207.2389
  17   1.0000      -7.615430      -207.2264
  18   1.0000      -7.615137      -207.2184
  19   1.0000      -7.613458      -207.1727
  20   1.0000      -5.581368      -151.8767
  21   1.0000      -5.580858      -151.8629
  22   1.0000      -5.580168      -151.8441
  23   1.0000      -5.578952      -151.8110
  24   1.0000      -5.575062      -151.7052
  25   1.0000      -5.574640      -151.6937
  26   1.0000      -5.574551      -151.6912
  27   1.0000      -5.573100      -151.6518
  28   1.0000      -5.572805      -151.6437
  29   1.0000      -5.572570      -151.6373
  30   1.0000      -5.571883      -151.6186
  31   1.0000      -5.570201      -151.5729
  32   1.0000      -2.330407       -63.4136
  33   1.0000      -1.399134       -38.0724
  34   1.0000      -1.341921       -36.5155
  35   1.0000      -1.339980       -36.4627
  36   1.0000      -0.595255       -16.1977
  37   1.0000      -0.551732       -15.0134
  38   1.0000      -0.550062       -14.9680
  39   1.0000      -0.469608       -12.7787
  40   1.0000      -0.464882       -12.6501
  41   1.0000      -0.402782       -10.9603
  42   1.0000      -0.395672       -10.7668
  43   1.0000      -0.336232        -9.1493
  44   1.0000      -0.327898        -8.9226
  45   1.0000      -0.304848        -8.2953
  46   1.0000      -0.277755        -7.5581
  47   1.0000      -0.213048        -5.7973
  48   1.0000      -0.207889        -5.6569
  49   1.0000      -0.199200        -5.4205
  50   1.0000      -0.198282        -5.3955
  51   1.0000      -0.161303        -4.3893
  52   1.0000      -0.126893        -3.4529
  53   1.0000      -0.125592        -3.4175
  54   1.0000      -0.112767        -3.0685
  55   1.0000      -0.106229        -2.8906
  56   1.0000      -0.104769        -2.8509
  57   1.0000      -0.078381        -2.1329
  58   1.0000      -0.071453        -1.9443
  59   1.0000      -0.063129        -1.7178
  60   1.0000      -0.056228        -1.5301
  61   1.0000      -0.047889        -1.3031
  62   1.0000      -0.042719        -1.1624
  63   1.0000      -0.033598        -0.9142
  64   1.0000       0.004940         0.1344
  65   1.0000       0.029980         0.8158
  66   1.0000       0.033678         0.9164
  67   1.0000       0.045550         1.2395
  68   1.0000       0.047151         1.2830
  69   1.0000       0.059192         1.6107
  70   1.0000       0.066419         1.8074
  71   1.0000       0.074601         2.0300
  72   0.0000       0.231267         6.2931
  73   0.0000       0.248447         6.7606
  74   0.0000       0.254668         6.9299
  75   0.0000       0.260500         7.0886
  76   0.0000       0.264489         7.1971

MULLIKEN ATOMIC CHARGES AND SPIN POPULATIONS
--------------------------------------------
   0 V :    0.534909    1.193484
   1 S :   -0.417720   -0.007095
   2 S :   -0.358156   -0.032878
   3 S :   -0.408062   -0.030523
   4 S :   -0.382206   -0.021510
   5 O :   -0.546932   -0.134425
   6 C :   -0.244643    0.006351
   7 C :   -0.235888    0.006676
   8 C :   -0.158401    0.003138
   9 H :    0.075355   -0.000975
  10 H :    0.051962    0.002214
  11 H :    0.138080    0.000674
  12 H :    0.005601   -0.000050
  13 H :    0.095110   -0.000157
  14 H :    0.049306    0.000028
  15 C :   -0.224879   -0.002586
  16 C :   -0.273493    0.006436
  17 C :   -0.079562    0.008406
  18 H :    0.055081    0.000388
  19 H :    0.135976   -0.000651
  20 H :    0.016570    0.001626
  21 H :    0.011936    0.000980
  22 H :    0.032901   -0.000647
  23 H :    0.127155    0.001097
Sum of atomic charges         :   -2.0000000

LOEWDIN ATOMIC CHARGES AND SPIN POPULATIONS
-------------------------------------------
   0 V :   -0.210747    1.149710
   1 S :   -0.044479   -0.000624
   2 S :   -0.039961   -0.022501
   3 S :   -0.076822   -0.021188
   4 S :   -0.060975   -0.012328
   5 O :   -0.375534   -0.121083
   6 C :   -0.325228    0.005757
   7 C :   -0.313716    0.007174
   8 C :   -0.187480    0.000513
   9 H :    0.036146   -0.000016
  10 H :    0.029379    0.000642
  11 H :    0.070095    0.000361
  12 H :    0.031505    0.000163
  13 H :    0.045315   -0.000063
  14 H :    0.027792   -0.000485
  15 C :   -0.344308    0.002188
  16 C :   -0.326142    0.010216
  17 C :   -0.196695    0.000877
  18 H :    0.036768    0.000053
  19 H :    0.065523   -0.000903
  20 H :    0.035130    0.000533
  21 H :    0.039615    0.000863
  22 H :    0.029925   -0.000690
  23 H :    0.054892    0.000829

  Mayer bond orders larger than 0.100000
B(  0-V ,  1-S ) :   0.6891 B(  0-V ,  2-S ) :   0.8507 B(  0-V ,  3-S ) :   0.7796
B(  0-V ,  4-S ) :   0.7767 B(  0-V ,  5-O ) :   2.0735 B(  1-S , 15-C ) :   1.0447
B(  2-S ,  6-C ) :   1.0122 B(  3-S , 16-C ) :   1.0081 B(  4-S ,  7-C ) :   1.0706
B(  6-C ,  8-C ) :   0.9012 B(  6-C , 13-H ) :   0.9741 B(  6-C , 14-H ) :   0.9685
B(  7-C ,  8-C ) :   0.9190 B(  7-C ,  9-H ) :   0.9759 B(  7-C , 10-H ) :   0.9694
B(  8-C , 11-H ) :   0.9880 B(  8-C , 12-H ) :   0.9449 B( 15-C , 17-C ) :   0.8605
B( 15-C , 22-H ) :   0.9785 B( 15-C , 23-H ) :   0.9572 B( 16-C , 17-C ) :   0.9202
B( 16-C , 18-H ) :   0.9549 B( 16-C , 19-H ) :   0.9693 B( 17-C , 20-H ) :   0.9266
B( 17-C , 21-H ) :   0.9942

FINAL SINGLE POINT ENERGY     -2847.691960305026

DIPOLE MOMENT
-------------
                                X             Y             Z
Electronic contribution:     -0.05198       5.90215      -0.76180
Nuclear contribution   :      0.14606      -6.28191       0.49191
                        -----------------------------------------
Total Dipole Moment    :      0.09408      -0.37976      -0.26989
                        -----------------------------------------
Magnitude (a.u.)       :      0.47530
Magnitude (Debye)      :      1.20812

Rotational constants in cm-1:     0.027241     0.011718     0.009589
Rotational constants in MHz :   816.652698   351.288132   287.467957

                             ****ORCA TERMINATED NORMALLY****
TOTAL RUN TIME: 0 days 0 hours 14 minutes 17 seconds 821 msec
