                         Program Version 5.0.4 -  RELEASE  -
|  1> ! nofrozencore ReducedPop printbasis
|  2> ! B3LYP TZVP
|  3>
|  4> %basis
|  5> newgto V "CP(PPP)" end
|  6> end
|  7>
|  8> %pal
|  9> nprocs 8
| 10> end
| 11>
| 12> % sym SymThresh 1e-2 end
| 13> * xyz -2 2
| 14> V -0.4762263228768561 -0.03763218023934497 0.19700689985282713
| 15> S 0.4427833190533554 -2.318596819680392 0.7677909909064236
| 16> S 1.2158018777578434 0.6463067192503991 1.836302273891825
| 17> S -0.6272215115717245 -0.7427241204639701 -2.1844158635050936
| 18> S -0.28550324842306274 2.181914632906958 -0.9076377753219481
| 19> O -1.917757623535234 -0.054698234999012156 0.8968204605853305
| 20> C 1.1846786372330191 2.498782205770472 1.9638679951905043
| 21> C -0.5920174932653886 3.4802692577499736 0.379839554840214
| 22> C -0.21104653513826865 3.1226366801913756 1.8213622937075196
| 23> H -1.6535264679914212 3.762528648568067 0.3549893549197884
| 24> H -0.01746145851671188 4.364960172216243 0.06888500425650743
| 25> H -0.947750377791805 2.4273886750380647 2.234910264980328
| 26> H -0.269993645342606 4.048654824911577 2.4222688197359137
| 27> H 1.8521930770153638 2.9260274380627824 1.205339315551064
| 28> H 1.6009154473204656 2.742116436655719 2.949636363740496
| 29> C 1.5439795302717256 -2.6123999393091912 -0.693592621288777
| 30> C -0.5616101525803211 -2.5963465743993446 -2.183035740720361
| 31> C 0.8232559915037329 -3.2043546947477983 -1.9132459650243485
| 32> H -0.922402673484832 -2.9398490061274947 -3.1605493946844456
| 33> H -1.2563721556476077 -2.958561794997585 -1.4210299297773608
| 34> H 1.4672137246179437 -3.0699304264995555 -2.799763846916379
| 35> H 0.6969287632383494 -4.293832866210898 -1.7680918802791816
| 36> H 2.355139922959146 -3.2861397617125587 -0.38726622327504306
| 37> H 2.0013173676244143 -1.658352479376229 -0.9666005842899118
| 38> *
| 39>
| 40> % eprnmr
| 41> gtensor true
| 42> Nuclei = all H {aiso,adip,aorb,fgrad,rho}
| 43> Nuclei = all V {aiso,adip,aorb,fgrad,rho}
| 44> end
| 45>
| 46>                          ****END OF INPUT****

CARTESIAN COORDINATES (ANGSTROEM)
---------------------------------
  V     -0.476898   -0.037943    0.197158
  S      0.442112   -2.318908    0.767942
  S      1.215131    0.645996    1.836453
  S     -0.627893   -0.743035   -2.184265
  S     -0.286174    2.181604   -0.907487
  O     -1.918429   -0.055009    0.896971
  C      1.184007    2.498471    1.964019
  C     -0.592689    3.479958    0.379991
  C     -0.211718    3.122326    1.821513
  H     -1.654198    3.762218    0.355140
  H     -0.018133    4.364649    0.069036
  H     -0.948422    2.427078    2.235061
  H     -0.270665    4.048344    2.422420
  H      1.851522    2.925716    1.205490
  H      1.600244    2.741805    2.949787
  C      1.543308   -2.612711   -0.693442
  C     -0.562281   -2.596658   -2.182885
  C      0.822585   -3.204666   -1.913095
  H     -0.923074   -2.940160   -3.160398
  H     -1.257043   -2.958873   -1.420879
  H      1.466542   -3.070241   -2.799613
  H      0.696258   -4.294144   -1.767941
  H      2.354469   -3.286451   -0.387115
  H      2.000646   -1.658663   -0.966450

 Total Charge           Charge          ....   -2
 Multiplicity           Mult            ....    2
 Number of Electrons    NEL             ....  145
 Basis Dimension        Dim             ....  353

ORBITAL ENERGIES
----------------
                 SPIN UP ORBITALS
  NO   OCC          E(Eh)            E(eV)
   0   1.0000    -196.606787     -5349.9426
   1   1.0000     -88.560829     -2409.8627
   2   1.0000     -88.559597     -2409.8291
   3   1.0000     -88.559409     -2409.8240
   4   1.0000     -88.558137     -2409.7894
   5   1.0000     -21.982051      -598.1620
   6   1.0000     -18.824857      -512.2504
   7   1.0000     -18.489897      -503.1357
   8   1.0000     -18.482631      -502.9380
   9   1.0000     -18.482559      -502.9360
  10   1.0000      -9.943048      -270.5641
  11   1.0000      -9.935300      -270.3533
  12   1.0000      -9.935226      -270.3512
  13   1.0000      -9.934244      -270.3245
  14   1.0000      -9.932910      -270.2882
  15   1.0000      -9.929069      -270.1837
  16   1.0000      -7.614827      -207.2100
  17   1.0000      -7.613651      -207.1780
  18   1.0000      -7.613438      -207.1722
  19   1.0000      -7.612439      -207.1450
  20   1.0000      -5.580065      -151.8413
  21   1.0000      -5.579080      -151.8145
  22   1.0000      -5.578873      -151.8089
  23   1.0000      -5.577700      -151.7769
  24   1.0000      -5.573813      -151.6712
  25   1.0000      -5.572687      -151.6405
  26   1.0000      -5.572245      -151.6285
  27   1.0000      -5.572061      -151.6235
  28   1.0000      -5.571665      -151.6127
  29   1.0000      -5.570595      -151.5836
  30   1.0000      -5.570590      -151.5835
  31   1.0000      -5.569493      -151.5536
  32   1.0000      -2.374691       -64.6186
  33   1.0000      -1.417535       -38.5731
  34   1.0000      -1.402756       -38.1709
  35   1.0000      -1.402208       -38.1560
  36   1.0000      -0.587272       -15.9805
  37   1.0000      -0.550585       -14.9822
  38   1.0000      -0.549365       -14.9490
  39   1.0000      -0.468674       -12.7533
  40   1.0000      -0.464569       -12.6416
  41   1.0000      -0.403515       -10.9802
  42   1.0000      -0.396053       -10.7772
  43   1.0000      -0.337475        -9.1832
  44   1.0000      -0.326753        -8.8914
  45   1.0000      -0.304759        -8.2929
  46   1.0000      -0.285557        -7.7704
  47   1.0000      -0.213033        -5.7969
  48   1.0000      -0.206904        -5.6302
  49   1.0000      -0.201868        -5.4931
  50   1.0000      -0.196801        -5.3552
  51   1.0000      -0.160812        -4.3759
  52   1.0000      -0.133233        -3.6255
  53   1.0000      -0.130994        -3.5645
  54   1.0000      -0.111924        -3.0456
  55   1.0000      -0.107112        -2.9147
  56   1.0000      -0.105500        -2.8708
  57   1.0000      -0.081877        -2.2280
  58   1.0000      -0.069214        -1.8834
  59   1.0000      -0.063095        -1.7169
  60   1.0000      -0.055579        -1.5124
  61   1.0000      -0.045255        -1.2314
  62   1.0000      -0.040841        -1.1113
  63   1.0000      -0.036944        -1.0053
  64   1.0000      -0.000294        -0.0080
  65   1.0000       0.027600         0.7510
  66   1.0000       0.030640         0.8337
  67   1.0000       0.038462         1.0466
  68   1.0000       0.045006         1.2247
  69   1.0000       0.053300         1.4504
  70   1.0000       0.064734         1.7615
  71   1.0000       0.073464         1.9991
  72   1.0000       0.081471         2.2170
  73   0.0000       0.235837         6.4175
  74   0.0000       0.245774         6.6878
  75   0.0000       0.251802         6.8519
  76   0.0000       0.252125         6.8607
  77   0.0000       0.258476         7.0335

                 SPIN DOWN ORBITALS
  NO   OCC          E(Eh)            E(eV)
   0   1.0000    -196.606929     -5349.9465
   1   1.0000     -88.560992     -2409.8671
   2   1.0000     -88.559773     -2409.8339
   3   1.0000     -88.559508     -2409.8267
   4   1.0000     -88.558102     -2409.7885
   5   1.0000     -21.967001      -597.7525
   6   1.0000     -18.828325      -512.3448
   7   1.0000     -18.484699      -502.9942
   8   1.0000     -18.466548      -502.5003
   9   1.0000     -18.466116      -502.4886
  10   1.0000      -9.942878      -270.5595
  11   1.0000      -9.935175      -270.3498
  12   1.0000      -9.935172      -270.3498
  13   1.0000      -9.934071      -270.3198
  14   1.0000      -9.932873      -270.2872
  15   1.0000      -9.929088      -270.1842
  16   1.0000      -7.614982      -207.2142
  17   1.0000      -7.613744      -207.1805
  18   1.0000      -7.613610      -207.1769
  19   1.0000      -7.612407      -207.1441
  20   1.0000      -5.580222      -151.8456
  21   1.0000      -5.579198      -151.8177
  22   1.0000      -5.579038      -151.8133
  23   1.0000      -5.577711      -151.7772
  24   1.0000      -5.574237      -151.6827
  25   1.0000      -5.573094      -151.6516
  26   1.0000      -5.572702      -151.6409
  27   1.0000      -5.572188      -151.6269
  28   1.0000      -5.572000      -151.6218
  29   1.0000      -5.570720      -151.5870
  30   1.0000      -5.570500      -151.5810
  31   1.0000      -5.568998      -151.5401
  32   1.0000      -2.329777       -63.3965
  33   1.0000      -1.398552       -38.0565
  34   1.0000      -1.341058       -36.4920
  35   1.0000      -1.339375       -36.4462
  36   1.0000      -0.594695       -16.1825
  37   1.0000      -0.550494       -14.9797
  38   1.0000      -0.549215       -14.9449
  39   1.0000      -0.468628       -12.7520
  40   1.0000      -0.464445       -12.6382
  41   1.0000      -0.403568       -10.9816
  42   1.0000      -0.396183       -10.7807
  43   1.0000      -0.337619        -9.1871
  44   1.0000      -0.327153        -8.9023
  45   1.0000      -0.304727        -8.2921
  46   1.0000      -0.285556        -7.7704
  47   1.0000      -0.212979        -5.7954
  48   1.0000      -0.206845        -5.6285
  49   1.0000      -0.201736        -5.4895
  50   1.0000      -0.196646        -5.3510
  51   1.0000      -0.160688        -4.3725
  52   1.0000      -0.133076        -3.6212
  53   1.0000      -0.130736        -3.5575
  54   1.0000      -0.111920        -3.0455
  55   1.0000      -0.107050        -2.9130
  56   1.0000      -0.105344        -2.8665
  57   1.0000      -0.080733        -2.1969
  58   1.0000      -0.066936        -1.8214
  59   1.0000      -0.062324        -1.6959
  60   1.0000      -0.055505        -1.5104
  61   1.0000      -0.046698        -1.2707
  62   1.0000      -0.041477        -1.1286
  63   1.0000      -0.037856        -1.0301
  64   1.0000       0.004222         0.1149
  65   1.0000       0.028785         0.7833
  66   1.0000       0.033717         0.9175
  67   1.0000       0.045420         1.2359
  68   1.0000       0.047315         1.2875
  69   1.0000       0.062178         1.6920
  70   1.0000       0.068496         1.8639
  71   1.0000       0.074350         2.0232
  72   0.0000       0.234075         6.3695
  73   0.0000       0.251706         6.8493
  74   0.0000       0.255270         6.9462
  75   0.0000       0.262217         7.1353
  76   0.0000       0.265753         7.2315

MULLIKEN ATOMIC CHARGES AND SPIN POPULATIONS
--------------------------------------------
   0 V :    0.526451    1.191466
   1 S :   -0.430118   -0.000002
   2 S :   -0.352746   -0.033342
   3 S :   -0.406405   -0.030156
   4 S :   -0.378886   -0.021118
   5 O :   -0.549983   -0.133812
   6 C :   -0.245353    0.005501
   7 C :   -0.236808    0.006115
   8 C :   -0.157843    0.003337
   9 H :    0.074058   -0.000868
  10 H :    0.051170    0.002064
  11 H :    0.139305    0.000695
  12 H :    0.005192   -0.000045
  13 H :    0.091191   -0.000128
  14 H :    0.049202   -0.000096
  15 C :   -0.257339   -0.002581
  16 C :   -0.251297    0.003770
  17 C :   -0.070987    0.008431
  18 H :    0.046874   -0.000263
  19 H :    0.125937    0.000012
  20 H :    0.016772    0.001405
  21 H :    0.012179   -0.000175
  22 H :    0.053955   -0.000552
  23 H :    0.145479    0.000341
Sum of atomic charges         :   -2.0000000

LOEWDIN ATOMIC CHARGES AND SPIN POPULATIONS
-------------------------------------------
   0 V :   -0.208043    1.148016
   1 S :   -0.071474    0.005176
   2 S :   -0.041241   -0.022825
   3 S :   -0.063099   -0.021071
   4 S :   -0.060968   -0.011951
   5 O :   -0.376879   -0.120605
   6 C :   -0.327016    0.004959
   7 C :   -0.315014    0.006611
   8 C :   -0.187447    0.000534
   9 H :    0.035754    0.000008
  10 H :    0.029333    0.000623
  11 H :    0.070921    0.000347
  12 H :    0.031348    0.000141
  13 H :    0.044393   -0.000058
  14 H :    0.027778   -0.000549
  15 C :   -0.315357    0.002486
  16 C :   -0.326500    0.007294
  17 C :   -0.188785    0.001084
  18 H :    0.027771   -0.000242
  19 H :    0.052957   -0.000610
  20 H :    0.037197    0.000567
  21 H :    0.035151    0.000302
  22 H :    0.031375   -0.000579
  23 H :    0.057844    0.000343

  Mayer bond orders larger than 0.100000
B(  0-V ,  1-S ) :   0.7146 B(  0-V ,  2-S ) :   0.8525 B(  0-V ,  3-S ) :   0.7652
B(  0-V ,  4-S ) :   0.7837 B(  0-V ,  5-O ) :   2.0718 B(  1-S , 15-C ) :   1.0173
B(  2-S ,  6-C ) :   1.0137 B(  3-S , 16-C ) :   1.0265 B(  4-S ,  7-C ) :   1.0664
B(  6-C ,  8-C ) :   0.9017 B(  6-C , 13-H ) :   0.9738 B(  6-C , 14-H ) :   0.9685
B(  7-C ,  8-C ) :   0.9202 B(  7-C ,  9-H ) :   0.9754 B(  7-C , 10-H ) :   0.9687
B(  8-C , 11-H ) :   0.9872 B(  8-C , 12-H ) :   0.9447 B( 15-C , 17-C ) :   0.8959
B( 15-C , 22-H ) :   0.9693 B( 15-C , 23-H ) :   0.9796 B( 16-C , 17-C ) :   0.9033
B( 16-C , 18-H ) :   0.9624 B( 16-C , 19-H ) :   0.9738 B( 17-C , 20-H ) :   0.9580
B( 17-C , 21-H ) :   0.9590

FINAL SINGLE POINT ENERGY     -2847.717745151579

DIPOLE MOMENT
-------------
                                X             Y             Z
Electronic contribution:     -6.33416      -1.80620       2.05299
Nuclear contribution   :      6.75040       2.11524      -2.07142
                        -----------------------------------------
Total Dipole Moment    :      0.41624       0.30904      -0.01843
                        -----------------------------------------
Magnitude (a.u.)       :      0.51875
Magnitude (Debye)      :      1.31855

Rotational constants in cm-1:     0.026875     0.011809     0.009669
Rotational constants in MHz :   805.685166   354.037700   289.863257

                             ****ORCA TERMINATED NORMALLY****
TOTAL RUN TIME: 0 days 0 hours 9 minutes 30 seconds 136 msec
