                         Program Version 5.0.4 -  RELEASE  -
|  1> ! nofrozencore ReducedPop printbasis
|  2> ! B3LYP TZVP
|  3>
|  4> %basis
|  5> newgto V "CP(PPP)" end
|  6> end
|  7>
|  8> %pal
|  9> nprocs 4
| 10> end
| 11>
| 12> % sym SymThresh 1e-2 end
| 13> * xyz -2 2
| 14> V 0.25828437031817475 -0.4053391006709606 0.11044485402498744
| 15> S -1.0242352958074963 -0.07370875329653524 2.267507690632956
| 16> S -1.9950869949037016 -0.8170451514564291 -0.7522200312333198
| 17> S 1.6362770504229849 1.5808737382791656 0.6788268479658947
| 18> S 1.0210376057921164 0.20243832504619247 -2.179637839434064
| 19> O 1.0062051553876452 -1.78472972560589 0.4173095809384778
| 20> C -1.8556517595785018 -1.2131149171640523 -2.564815142452622
| 21> C 0.6084890487820875 -1.218977622780775 -3.2949801576073265
| 22> C -0.6230103553045663 -2.0485999713849967 -2.928658444901636
| 23> H 1.4801030689469963 -1.8812920882059405 -3.3526427102523786
| 24> H 0.4637212103085923 -0.7912452868282527 -4.295647485554187
| 25> H -0.3815503042082755 -2.708126259108981 -2.0912308746159445
| 26> H -0.8752770417048483 -2.6965542229270945 -3.7879463416231838
| 27> H -1.8504782979326289 -0.27369245136937814 -3.127002990663389
| 28> H -2.7778844815017303 -1.7525200673066337 -2.809012422402118
| 29> C -1.086845619020027 1.720492593340193 2.405685612795552
| 30> C 1.4873932615302736 1.7675706452587205 2.5545526639374665
| 31> C 0.1794815413790025 2.4312615302306315 2.9729889461802284
| 32> H 2.38021586882285 2.3932360056386117 2.7306740804460405
| 33> H 1.8306230046491903 0.6576963274114099 2.645717429891695
| 34> H 0.2296245952978342 3.5346697779929097 2.890686297092415
| 35> H 0.1698591713334778 2.189915154413757 4.058735933968713
| 36> H -1.8976505247701256 2.1961688608410426 3.01597556945225
| 37> H -1.0239902647703318 2.541588878700711 1.5302900464495122
| 38> *
| 39>
| 40> % eprnmr
| 41> gtensor true
| 42> Nuclei = all H {aiso,adip,aorb,fgrad,rho}
| 43> Nuclei = all V {aiso,adip,aorb,fgrad,rho}
| 44> end
| 45>
| 46>                          ****END OF INPUT****

CARTESIAN COORDINATES (ANGSTROEM)
---------------------------------
  V      0.258704   -0.405805    0.110866
  S     -1.023815   -0.074174    2.267928
  S     -1.994667   -0.817511   -0.751799
  S      1.636697    1.580408    0.679248
  S      1.021458    0.201973   -2.179217
  O      1.006625   -1.785195    0.417730
  C     -1.855232   -1.213581   -2.564394
  C      0.608909   -1.219443   -3.294559
  C     -0.622590   -2.049066   -2.928238
  H      1.480523   -1.881758   -3.352222
  H      0.464141   -0.791711   -4.295227
  H     -0.381130   -2.708592   -2.090810
  H     -0.874857   -2.697020   -3.787526
  H     -1.850058   -0.274158   -3.126582
  H     -2.777465   -1.752986   -2.808592
  C     -1.086426    1.720027    2.406106
  C      1.487813    1.767105    2.554973
  C      0.179901    2.430796    2.973410
  H      2.380636    2.392770    2.731095
  H      1.831043    0.657231    2.646138
  H      0.230045    3.534204    2.891107
  H      0.170279    2.189449    4.059157
  H     -1.897231    2.195703    3.016396
  H     -1.023570    2.541123    1.530711

 Total Charge           Charge          ....   -2
 Multiplicity           Mult            ....    2
 Number of Electrons    NEL             ....  145
 Basis Dimension        Dim             ....  353

ORBITAL ENERGIES
----------------
                 SPIN UP ORBITALS
  NO   OCC          E(Eh)            E(eV)
   0   1.0000    -196.607726     -5349.9682
   1   1.0000     -88.569309     -2410.0934
   2   1.0000     -88.559963     -2409.8391
   3   1.0000     -88.558840     -2409.8086
   4   1.0000     -88.556083     -2409.7335
   5   1.0000     -21.983112      -598.1909
   6   1.0000     -18.826725      -512.3012
   7   1.0000     -18.490907      -503.1632
   8   1.0000     -18.483761      -502.9687
   9   1.0000     -18.483577      -502.9637
  10   1.0000      -9.947171      -270.6763
  11   1.0000      -9.942670      -270.5538
  12   1.0000      -9.942140      -270.5394
  13   1.0000      -9.938497      -270.4403
  14   1.0000      -9.935356      -270.3548
  15   1.0000      -9.929219      -270.1878
  16   1.0000      -7.623531      -207.4468
  17   1.0000      -7.613840      -207.1831
  18   1.0000      -7.613053      -207.1617
  19   1.0000      -7.610483      -207.0918
  20   1.0000      -5.589207      -152.0900
  21   1.0000      -5.582556      -151.9091
  22   1.0000      -5.580352      -151.8491
  23   1.0000      -5.579213      -151.8181
  24   1.0000      -5.578530      -151.7995
  25   1.0000      -5.575389      -151.7141
  26   1.0000      -5.572721      -151.6415
  27   1.0000      -5.572119      -151.6251
  28   1.0000      -5.571009      -151.5949
  29   1.0000      -5.569931      -151.5655
  30   1.0000      -5.569560      -151.5554
  31   1.0000      -5.567849      -151.5089
  32   1.0000      -2.376017       -64.6547
  33   1.0000      -1.419007       -38.6131
  34   1.0000      -1.404288       -38.2126
  35   1.0000      -1.403411       -38.1888
  36   1.0000      -0.589780       -16.0487
  37   1.0000      -0.551786       -15.0149
  38   1.0000      -0.551363       -15.0034
  39   1.0000      -0.469180       -12.7670
  40   1.0000      -0.464949       -12.6519
  41   1.0000      -0.408809       -11.1243
  42   1.0000      -0.397882       -10.8269
  43   1.0000      -0.337683        -9.1888
  44   1.0000      -0.327318        -8.9068
  45   1.0000      -0.304508        -8.2861
  46   1.0000      -0.277894        -7.5619
  47   1.0000      -0.210947        -5.7402
  48   1.0000      -0.208163        -5.6644
  49   1.0000      -0.199075        -5.4171
  50   1.0000      -0.197658        -5.3785
  51   1.0000      -0.160233        -4.3602
  52   1.0000      -0.152193        -4.1414
  53   1.0000      -0.113547        -3.0898
  54   1.0000      -0.107667        -2.9298
  55   1.0000      -0.102598        -2.7918
  56   1.0000      -0.091345        -2.4856
  57   1.0000      -0.087808        -2.3894
  58   1.0000      -0.075314        -2.0494
  59   1.0000      -0.065666        -1.7869
  60   1.0000      -0.052160        -1.4193
  61   1.0000      -0.048126        -1.3096
  62   1.0000      -0.043455        -1.1825
  63   1.0000      -0.022968        -0.6250
  64   1.0000      -0.000759        -0.0207
  65   1.0000       0.024814         0.6752
  66   1.0000       0.032308         0.8791
  67   1.0000       0.037079         1.0090
  68   1.0000       0.046232         1.2580
  69   1.0000       0.054461         1.4820
  70   1.0000       0.066484         1.8091
  71   1.0000       0.071563         1.9473
  72   1.0000       0.080289         2.1848
  73   0.0000       0.233399         6.3511
  74   0.0000       0.246326         6.7029
  75   0.0000       0.249754         6.7962
  76   0.0000       0.251914         6.8549
  77   0.0000       0.256530         6.9805

                 SPIN DOWN ORBITALS
  NO   OCC          E(Eh)            E(eV)
   0   1.0000    -196.607868     -5349.9721
   1   1.0000     -88.569268     -2410.0923
   2   1.0000     -88.560141     -2409.8439
   3   1.0000     -88.558948     -2409.8115
   4   1.0000     -88.556264     -2409.7384
   5   1.0000     -21.968077      -597.7818
   6   1.0000     -18.830144      -512.3943
   7   1.0000     -18.485734      -503.0224
   8   1.0000     -18.467675      -502.5310
   9   1.0000     -18.467148      -502.5166
  10   1.0000      -9.947123      -270.6750
  11   1.0000      -9.942479      -270.5486
  12   1.0000      -9.941969      -270.5347
  13   1.0000      -9.938437      -270.4386
  14   1.0000      -9.935220      -270.3511
  15   1.0000      -9.929238      -270.1883
  16   1.0000      -7.623494      -207.4458
  17   1.0000      -7.614013      -207.1878
  18   1.0000      -7.613155      -207.1645
  19   1.0000      -7.610656      -207.0965
  20   1.0000      -5.589208      -152.0901
  21   1.0000      -5.582846      -151.9170
  22   1.0000      -5.579884      -151.8364
  23   1.0000      -5.579382      -151.8227
  24   1.0000      -5.578653      -151.8029
  25   1.0000      -5.575569      -151.7190
  26   1.0000      -5.573178      -151.6539
  27   1.0000      -5.572536      -151.6364
  28   1.0000      -5.571144      -151.5985
  29   1.0000      -5.570019      -151.5679
  30   1.0000      -5.569859      -151.5636
  31   1.0000      -5.567992      -151.5128
  32   1.0000      -2.331147       -63.4337
  33   1.0000      -1.400141       -38.0998
  34   1.0000      -1.342541       -36.5324
  35   1.0000      -1.340654       -36.4811
  36   1.0000      -0.597040       -16.2463
  37   1.0000      -0.551673       -15.0118
  38   1.0000      -0.551194       -14.9988
  39   1.0000      -0.469130       -12.7657
  40   1.0000      -0.464804       -12.6480
  41   1.0000      -0.408740       -11.1224
  42   1.0000      -0.398068       -10.8320
  43   1.0000      -0.337835        -9.1929
  44   1.0000      -0.327735        -8.9181
  45   1.0000      -0.304497        -8.2858
  46   1.0000      -0.277992        -7.5646
  47   1.0000      -0.210830        -5.7370
  48   1.0000      -0.208099        -5.6627
  49   1.0000      -0.198865        -5.4114
  50   1.0000      -0.197614        -5.3773
  51   1.0000      -0.160112        -4.3569
  52   1.0000      -0.152066        -4.1379
  53   1.0000      -0.113540        -3.0896
  54   1.0000      -0.107429        -2.9233
  55   1.0000      -0.102477        -2.7885
  56   1.0000      -0.090298        -2.4571
  57   1.0000      -0.087444        -2.3795
  58   1.0000      -0.074403        -2.0246
  59   1.0000      -0.064508        -1.7554
  60   1.0000      -0.050754        -1.3811
  61   1.0000      -0.049523        -1.3476
  62   1.0000      -0.045867        -1.2481
  63   1.0000      -0.022066        -0.6005
  64   1.0000       0.003930         0.1069
  65   1.0000       0.026729         0.7273
  66   1.0000       0.035733         0.9723
  67   1.0000       0.045531         1.2390
  68   1.0000       0.048561         1.3214
  69   1.0000       0.060063         1.6344
  70   1.0000       0.067863         1.8466
  71   1.0000       0.075266         2.0481
  72   0.0000       0.232907         6.3377
  73   0.0000       0.248783         6.7697
  74   0.0000       0.255251         6.9457
  75   0.0000       0.259055         7.0492
  76   0.0000       0.264902         7.2083

MULLIKEN ATOMIC CHARGES AND SPIN POPULATIONS
--------------------------------------------
   0 V :    0.522493    1.191038
   1 S :   -0.372834    0.001012
   2 S :   -0.355745   -0.033349
   3 S :   -0.453098   -0.033302
   4 S :   -0.377017   -0.022440
   5 O :   -0.546747   -0.131947
   6 C :   -0.246980    0.005826
   7 C :   -0.237696    0.006139
   8 C :   -0.156385    0.003323
   9 H :    0.074867   -0.000951
  10 H :    0.051612    0.002073
  11 H :    0.138664    0.000569
  12 H :    0.005230   -0.000075
  13 H :    0.097369   -0.000154
  14 H :    0.050233    0.000046
  15 C :   -0.221565   -0.005600
  16 C :   -0.284396    0.005142
  17 C :   -0.058324    0.008468
  18 H :    0.054524    0.000845
  19 H :    0.158041   -0.000808
  20 H :    0.035603    0.002216
  21 H :   -0.002806    0.000436
  22 H :    0.042295   -0.000742
  23 H :    0.082665    0.002234
Sum of atomic charges         :   -2.0000000

LOEWDIN ATOMIC CHARGES AND SPIN POPULATIONS
-------------------------------------------
   0 V :   -0.208701    1.146936
   1 S :   -0.022277    0.005807
   2 S :   -0.039825   -0.022986
   3 S :   -0.091208   -0.023971
   4 S :   -0.057861   -0.013267
   5 O :   -0.378379   -0.118613
   6 C :   -0.324445    0.005458
   7 C :   -0.315035    0.006631
   8 C :   -0.187222    0.000492
   9 H :    0.035998    0.000000
  10 H :    0.029291    0.000578
  11 H :    0.070041    0.000328
  12 H :    0.031575    0.000143
  13 H :    0.046225   -0.000077
  14 H :    0.027903   -0.000495
  15 C :   -0.357120    0.001939
  16 C :   -0.335417    0.008573
  17 C :   -0.201066    0.001723
  18 H :    0.030804   -0.000047
  19 H :    0.085186   -0.000412
  20 H :    0.041752    0.000537
  21 H :    0.029360    0.000727
  22 H :    0.027775   -0.000800
  23 H :    0.062646    0.000794

  Mayer bond orders larger than 0.100000
B(  0-V ,  1-S ) :   0.6826 B(  0-V ,  2-S ) :   0.8589 B(  0-V ,  3-S ) :   0.7943
B(  0-V ,  4-S ) :   0.7790 B(  0-V ,  5-O ) :   2.0647 B(  1-S , 15-C ) :   1.0610
B(  2-S ,  6-C ) :   1.0098 B(  3-S , 16-C ) :   0.9847 B(  4-S ,  7-C ) :   1.0713
B(  6-C ,  8-C ) :   0.9028 B(  6-C , 13-H ) :   0.9737 B(  6-C , 14-H ) :   0.9697
B(  7-C ,  8-C ) :   0.9209 B(  7-C ,  9-H ) :   0.9771 B(  7-C , 10-H ) :   0.9683
B(  8-C , 11-H ) :   0.9883 B(  8-C , 12-H ) :   0.9450 B( 15-C , 17-C ) :   0.8627
B( 15-C , 22-H ) :   0.9564 B( 15-C , 23-H ) :   0.9631 B( 16-C , 17-C ) :   0.9041
B( 16-C , 18-H ) :   0.9633 B( 16-C , 19-H ) :   0.9707 B( 17-C , 20-H ) :   0.9557
B( 17-C , 21-H ) :   0.9451

FINAL SINGLE POINT ENERGY     -2847.657220347851

DIPOLE MOMENT
-------------
                                X             Y             Z
Electronic contribution:      3.07248      -4.99712       2.61177
Nuclear contribution   :     -3.27950       5.01786      -2.93334
                        -----------------------------------------
Total Dipole Moment    :     -0.20702       0.02074      -0.32157
                        -----------------------------------------
Magnitude (a.u.)       :      0.38301
Magnitude (Debye)      :      0.97353

Rotational constants in cm-1:     0.027143     0.011721     0.009604
Rotational constants in MHz :   813.741296   351.377602   287.921846

                             ****ORCA TERMINATED NORMALLY****
TOTAL RUN TIME: 0 days 0 hours 14 minutes 19 seconds 641 msec
