                         Program Version 5.0.4 -  RELEASE  -
|  1> ! nofrozencore ReducedPop printbasis
|  2> ! B3LYP TZVP
|  3>
|  4> %basis
|  5> newgto V "CP(PPP)" end
|  6> end
|  7>
|  8> %pal
|  9> nprocs 4
| 10> end
| 11>
| 12> % sym SymThresh 1e-2 end
| 13> * xyz -2 2
| 14> V -0.16858770178088248 0.25110573233455546 0.38990923588697773
| 15> S -1.5391020634554233 -1.8613954526524576 0.5724803160319238
| 16> S 1.6538557873912814 -1.3100992892527017 0.8731277267942712
| 17> S -1.514612963818633 0.8965241054377145 -1.6010505870273566
| 18> S 1.4516731353403303 1.8039340823162642 -0.6872670079553899
| 19> O -0.6208742673168741 1.0188849307172652 1.716377562289256
| 20> C 3.239314312135559 -0.34513684481141527 0.9270672528173747
| 21> C 2.7854489875080835 2.1576269272072137 0.5485912954463915
| 22> C 3.108237283570092 1.0468906968094704 1.5548054656388992
| 23> H 2.5216419837386117 3.067022710234194 1.1012090474539795
| 24> H 3.69556559893261 2.383712705914213 -0.022874362570419856
| 25> H 2.331545936611157 1.0023112237058367 2.3226493462174425
| 26> H 4.049182289447129 1.3227331969907896 2.064628301404208
| 27> H 3.6360561901789072 -0.25669075798658614 -0.08960596090619509
| 28> H 3.9425802764711473 -0.9502149061853389 1.5109461103238855
| 29> C -1.8177101665040496 -2.2897697436011697 -1.1835548464847139
| 30> C -3.098329410492525 -0.08353926216383163 -1.4661750943530467
| 31> C -3.0744029266222515 -1.4956258819126267 -1.8057854570174197
| 32> H -3.636341994420813 0.7618437975201658 -2.0508642741136525
| 33> H -3.3986100096555654 0.011678505804565968 -0.4232604612648911
| 34> H -2.885785145134978 -1.637113427876864 -2.890295388336556
| 35> H -3.917363102930987 -2.2069124471720785 -1.5517226276228817
| 36> H -2.2544178230582337 -3.309434966577504 -1.6376893067424392
| 37> H -0.8310766890693964 -2.1148561389706844 -1.63136233164477
| 38> *
| 39>
| 40> % eprnmr
| 41> gtensor true
| 42> Nuclei = all H {aiso,adip,aorb,fgrad,rho}
| 43> Nuclei = all V {aiso,adip,aorb,fgrad,rho}
| 44> end
| 45>
| 46>                          ****END OF INPUT****

CARTESIAN COORDINATES (ANGSTROEM)
---------------------------------
  V     -0.169097    0.251378    0.390396
  S     -1.539611   -1.861123    0.572967
  S      1.653347   -1.309827    0.873614
  S     -1.515122    0.896796   -1.600564
  S      1.451164    1.804206   -0.686781
  O     -0.621383    1.019157    1.716864
  C      3.238805   -0.344865    0.927554
  C      2.784940    2.157899    0.549078
  C      3.107728    1.047163    1.555292
  H      2.521133    3.067295    1.101696
  H      3.695057    2.383985   -0.022388
  H      2.331037    1.002583    2.323136
  H      4.048673    1.323005    2.065115
  H      3.635547   -0.256419   -0.089120
  H      3.942071   -0.949943    1.511433
  C     -1.818219   -2.289498   -1.183068
  C     -3.098838   -0.083267   -1.465689
  C     -3.074912   -1.495354   -1.805299
  H     -3.636851    0.762116   -2.050378
  H     -3.399119    0.011951   -0.422774
  H     -2.886294   -1.636841   -2.889809
  H     -3.917872   -2.206640   -1.551236
  H     -2.254927   -3.309163   -1.637203
  H     -0.831586   -2.114584   -1.630876

 Total Charge           Charge          ....   -2
 Multiplicity           Mult            ....    2
 Number of Electrons    NEL             ....  145
 Basis Dimension        Dim             ....  353

ORBITAL ENERGIES
----------------
                 SPIN UP ORBITALS
  NO   OCC          E(Eh)            E(eV)
   0   1.0000    -196.608066     -5349.9775
   1   1.0000     -88.563780     -2409.9430
   2   1.0000     -88.562302     -2409.9027
   3   1.0000     -88.562068     -2409.8964
   4   1.0000     -88.560788     -2409.8616
   5   1.0000     -21.983350      -598.1974
   6   1.0000     -18.827164      -512.3132
   7   1.0000     -18.491163      -503.1701
   8   1.0000     -18.483967      -502.9743
   9   1.0000     -18.483847      -502.9710
  10   1.0000      -9.950198      -270.7587
  11   1.0000      -9.943664      -270.5808
  12   1.0000      -9.938857      -270.4500
  13   1.0000      -9.936322      -270.3811
  14   1.0000      -9.936212      -270.3781
  15   1.0000      -9.930122      -270.2124
  16   1.0000      -7.617892      -207.2934
  17   1.0000      -7.616540      -207.2566
  18   1.0000      -7.616171      -207.2465
  19   1.0000      -7.614971      -207.2139
  20   1.0000      -5.583118      -151.9244
  21   1.0000      -5.581868      -151.8904
  22   1.0000      -5.581559      -151.8819
  23   1.0000      -5.580419      -151.8509
  24   1.0000      -5.576789      -151.7522
  25   1.0000      -5.575696      -151.7224
  26   1.0000      -5.575156      -151.7077
  27   1.0000      -5.574978      -151.7029
  28   1.0000      -5.574045      -151.6775
  29   1.0000      -5.573541      -151.6638
  30   1.0000      -5.573369      -151.6591
  31   1.0000      -5.571902      -151.6192
  32   1.0000      -2.376383       -64.6647
  33   1.0000      -1.419517       -38.6270
  34   1.0000      -1.404556       -38.2199
  35   1.0000      -1.403910       -38.2023
  36   1.0000      -0.590086       -16.0571
  37   1.0000      -0.553532       -15.0624
  38   1.0000      -0.552607       -15.0372
  39   1.0000      -0.470674       -12.8077
  40   1.0000      -0.465870       -12.6770
  41   1.0000      -0.408966       -11.1285
  42   1.0000      -0.399143       -10.8612
  43   1.0000      -0.337136        -9.1739
  44   1.0000      -0.328581        -8.9411
  45   1.0000      -0.305773        -8.3205
  46   1.0000      -0.278158        -7.5691
  47   1.0000      -0.217302        -5.9131
  48   1.0000      -0.208658        -5.6779
  49   1.0000      -0.204000        -5.5511
  50   1.0000      -0.199464        -5.4277
  51   1.0000      -0.162258        -4.4153
  52   1.0000      -0.139576        -3.7981
  53   1.0000      -0.124665        -3.3923
  54   1.0000      -0.113251        -3.0817
  55   1.0000      -0.107359        -2.9214
  56   1.0000      -0.100947        -2.7469
  57   1.0000      -0.079530        -2.1641
  58   1.0000      -0.067153        -1.8273
  59   1.0000      -0.064622        -1.7584
  60   1.0000      -0.056552        -1.5388
  61   1.0000      -0.048749        -1.3265
  62   1.0000      -0.042505        -1.1566
  63   1.0000      -0.033106        -0.9009
  64   1.0000      -0.000256        -0.0070
  65   1.0000       0.026850         0.7306
  66   1.0000       0.030811         0.8384
  67   1.0000       0.035913         0.9772
  68   1.0000       0.043688         1.1888
  69   1.0000       0.051655         1.4056
  70   1.0000       0.061762         1.6806
  71   1.0000       0.070807         1.9268
  72   1.0000       0.080157         2.1812
  73   0.0000       0.233646         6.3578
  74   0.0000       0.245128         6.6703
  75   0.0000       0.246281         6.7016
  76   0.0000       0.250081         6.8050
  77   0.0000       0.250902         6.8274

                 SPIN DOWN ORBITALS
  NO   OCC          E(Eh)            E(eV)
   0   1.0000    -196.608209     -5349.9814
   1   1.0000     -88.563958     -2409.9478
   2   1.0000     -88.562477     -2409.9075
   3   1.0000     -88.562012     -2409.8949
   4   1.0000     -88.560891     -2409.8644
   5   1.0000     -21.968342      -597.7890
   6   1.0000     -18.830577      -512.4060
   7   1.0000     -18.486002      -503.0297
   8   1.0000     -18.467904      -502.5372
   9   1.0000     -18.467451      -502.5249
  10   1.0000      -9.950134      -270.7569
  11   1.0000      -9.943491      -270.5762
  12   1.0000      -9.938817      -270.4490
  13   1.0000      -9.936195      -270.3776
  14   1.0000      -9.936041      -270.3734
  15   1.0000      -9.930142      -270.2129
  16   1.0000      -7.618061      -207.2980
  17   1.0000      -7.616489      -207.2552
  18   1.0000      -7.616342      -207.2512
  19   1.0000      -7.615069      -207.2166
  20   1.0000      -5.583291      -151.9291
  21   1.0000      -5.581867      -151.8903
  22   1.0000      -5.581723      -151.8864
  23   1.0000      -5.580539      -151.8542
  24   1.0000      -5.577250      -151.7647
  25   1.0000      -5.575977      -151.7301
  26   1.0000      -5.575430      -151.7152
  27   1.0000      -5.575290      -151.7114
  28   1.0000      -5.574457      -151.6887
  29   1.0000      -5.573503      -151.6627
  30   1.0000      -5.573022      -151.6497
  31   1.0000      -5.571819      -151.6169
  32   1.0000      -2.331593       -63.4459
  33   1.0000      -1.400701       -38.1150
  34   1.0000      -1.342920       -36.5427
  35   1.0000      -1.341240       -36.4970
  36   1.0000      -0.597324       -16.2540
  37   1.0000      -0.553365       -15.0578
  38   1.0000      -0.552509       -15.0345
  39   1.0000      -0.470629       -12.8065
  40   1.0000      -0.465730       -12.6731
  41   1.0000      -0.408943       -11.1279
  42   1.0000      -0.399319       -10.8660
  43   1.0000      -0.337331        -9.1792
  44   1.0000      -0.328967        -8.9517
  45   1.0000      -0.305757        -8.3201
  46   1.0000      -0.278128        -7.5682
  47   1.0000      -0.217242        -5.9114
  48   1.0000      -0.208601        -5.6763
  49   1.0000      -0.203887        -5.5480
  50   1.0000      -0.199283        -5.4228
  51   1.0000      -0.162136        -4.4119
  52   1.0000      -0.139304        -3.7906
  53   1.0000      -0.124464        -3.3869
  54   1.0000      -0.113246        -3.0816
  55   1.0000      -0.107144        -2.9155
  56   1.0000      -0.100437        -2.7330
  57   1.0000      -0.078803        -2.1443
  58   1.0000      -0.065422        -1.7802
  59   1.0000      -0.063851        -1.7375
  60   1.0000      -0.056089        -1.5262
  61   1.0000      -0.050062        -1.3622
  62   1.0000      -0.043862        -1.1936
  63   1.0000      -0.032703        -0.8899
  64   1.0000       0.004099         0.1115
  65   1.0000       0.028125         0.7653
  66   1.0000       0.033401         0.9089
  67   1.0000       0.043511         1.1840
  68   1.0000       0.045450         1.2368
  69   1.0000       0.060118         1.6359
  70   1.0000       0.066258         1.8030
  71   1.0000       0.071998         1.9592
  72   0.0000       0.232149         6.3171
  73   0.0000       0.245504         6.6805
  74   0.0000       0.253872         6.9082
  75   0.0000       0.255238         6.9454
  76   0.0000       0.263277         7.1641

MULLIKEN ATOMIC CHARGES AND SPIN POPULATIONS
--------------------------------------------
   0 V :    0.522727    1.188633
   1 S :   -0.401634    0.002823
   2 S :   -0.353641   -0.033146
   3 S :   -0.428493   -0.032577
   4 S :   -0.380449   -0.021802
   5 O :   -0.545484   -0.131686
   6 C :   -0.246755    0.005545
   7 C :   -0.236282    0.006339
   8 C :   -0.158564    0.003028
   9 H :    0.075442   -0.000886
  10 H :    0.051311    0.002150
  11 H :    0.138040    0.000630
  12 H :    0.006661   -0.000063
  13 H :    0.095824   -0.000136
  14 H :    0.050162   -0.000092
  15 C :   -0.238786   -0.001871
  16 C :   -0.271686    0.001065
  17 C :   -0.036799    0.010082
  18 H :    0.048636    0.001331
  19 H :    0.135517   -0.000219
  20 H :    0.010129    0.001322
  21 H :    0.020500    0.000665
  22 H :   -0.010215   -0.001323
  23 H :    0.153838    0.000187
Sum of atomic charges         :   -2.0000000

LOEWDIN ATOMIC CHARGES AND SPIN POPULATIONS
-------------------------------------------
   0 V :   -0.213170    1.144872
   1 S :   -0.053021    0.007969
   2 S :   -0.037807   -0.022656
   3 S :   -0.061808   -0.023156
   4 S :   -0.060502   -0.012718
   5 O :   -0.373787   -0.118449
   6 C :   -0.325989    0.005008
   7 C :   -0.314855    0.006682
   8 C :   -0.187400    0.000463
   9 H :    0.036158    0.000010
  10 H :    0.029290    0.000628
  11 H :    0.070036    0.000310
  12 H :    0.031724    0.000139
  13 H :    0.045530   -0.000079
  14 H :    0.028051   -0.000542
  15 C :   -0.332160    0.002872
  16 C :   -0.340300    0.007559
  17 C :   -0.203024    0.001181
  18 H :    0.043023    0.000279
  19 H :    0.055204   -0.000620
  20 H :    0.039261    0.000553
  21 H :    0.040969    0.000638
  22 H :    0.028832   -0.001289
  23 H :    0.055747    0.000346

  Mayer bond orders larger than 0.100000
B(  0-V ,  1-S ) :   0.6962 B(  0-V ,  2-S ) :   0.8577 B(  0-V ,  3-S ) :   0.7770
B(  0-V ,  4-S ) :   0.7799 B(  0-V ,  5-O ) :   2.0703 B(  1-S , 15-C ) :   1.0490
B(  1-S , 17-C ) :  -0.1130 B(  2-S ,  6-C ) :   1.0114 B(  3-S , 16-C ) :   0.9535
B(  4-S ,  7-C ) :   1.0696 B(  6-C ,  8-C ) :   0.9011 B(  6-C , 13-H ) :   0.9749
B(  6-C , 14-H ) :   0.9681 B(  7-C ,  8-C ) :   0.9192 B(  7-C ,  9-H ) :   0.9769
B(  7-C , 10-H ) :   0.9685 B(  8-C , 11-H ) :   0.9878 B(  8-C , 12-H ) :   0.9457
B( 15-C , 17-C ) :   0.8380 B( 15-C , 22-H ) :   0.9368 B( 15-C , 23-H ) :   0.9787
B( 16-C , 17-C ) :   0.9427 B( 16-C , 18-H ) :   0.9698 B( 16-C , 19-H ) :   0.9677
B( 17-C , 20-H ) :   0.9533 B( 17-C , 21-H ) :   0.9596

FINAL SINGLE POINT ENERGY     -2847.670395149015

DIPOLE MOMENT
-------------
                                X             Y             Z
Electronic contribution:     -3.30096       2.99579       4.74706
Nuclear contribution   :      3.81733      -2.93737      -4.84414
                        -----------------------------------------
Total Dipole Moment    :      0.51637       0.05842      -0.09708
                        -----------------------------------------
Magnitude (a.u.)       :      0.52865
Magnitude (Debye)      :      1.34373

Rotational constants in cm-1:     0.027225     0.011723     0.009596
Rotational constants in MHz :   816.189870   351.440374   287.675757

                             ****ORCA TERMINATED NORMALLY****
TOTAL RUN TIME: 0 days 0 hours 14 minutes 27 seconds 922 msec
