                         Program Version 5.0.4 -  RELEASE  -
|  1> ! nofrozencore ReducedPop printbasis
|  2> ! B3LYP TZVP
|  3>
|  4> %basis
|  5> newgto V "CP(PPP)" end
|  6> end
|  7>
|  8> %pal
|  9> nprocs 8
| 10> end
| 11>
| 12> % sym SymThresh 1e-2 end
| 13> * xyz -2 2
| 14> V 0.3860163776269975 0.27861562352230657 0.12011378599481247
| 15> S 0.35011151769268645 -1.3413665309432377 2.0653703071036023
| 16> S 0.927561909415296 -1.766399243329144 -1.1105569736146264
| 17> S -1.6623309168217013 1.3455260825741233 1.0286959465194059
| 18> S -0.4758909991360165 1.30886322189746 -1.9729387195973738
| 19> O 1.7191689677918272 1.1112035707242007 0.44729200910408623
| 20> C 1.1538916711862475 -1.3201373901049918 -2.895182747108512
| 21> C 0.8768257651099274 1.2160936198198937 -3.2362262198792187
| 22> C 1.8442079848345128 0.030121594323123235 -3.1268466340378867
| 23> H 1.4589053487041774 2.144719454340718 -3.2056173617292183
| 24> H 0.38319644990404317 1.1794974399707914 -4.216277144496823
| 25> H 2.5448197449497734 0.19918319481438673 -2.305046264485445
| 26> H 2.4394283084016077 0.010599720100559415 -4.0579582077778555
| 27> H 0.18477737421615736 -1.3147553425701815 -3.4061148338338434
| 28> H 1.760770990087907 -2.112827178050034 -3.349413170945469
| 29> C -1.5052537578301826 -1.5809786705344393 2.323146281630856
| 30> C -1.6914213724526856 0.9420883451747183 2.800666507203818
| 31> C -2.1001658681663846 -0.490489426068235 3.197800770996716
| 32> H -2.337551024887458 1.6004793883111492 3.414262515146538
| 33> H -0.7407111522670567 0.8548080082173654 3.4490096686370237
| 34> H -3.1785328790461946 -0.5935496878724933 2.962106947233806
| 35> H -1.9850276438711676 -0.7062269887745458 4.274893405178978
| 36> H -1.4956286212349912 -2.5871276770060327 2.777315132441598
| 37> H -1.6427687053756808 -1.7440384156640114 1.1937053766283683
| 38> *
| 39>
| 40> % eprnmr
| 41> gtensor true
| 42> Nuclei = all H {aiso,adip,aorb,fgrad,rho}
| 43> Nuclei = all V {aiso,adip,aorb,fgrad,rho}
| 44> end
| 45>
| 46>                          ****END OF INPUT****

CARTESIAN COORDINATES (ANGSTROEM)
---------------------------------
  V      0.386476    0.279013    0.120562
  S      0.350571   -1.340969    2.065818
  S      0.928021   -1.766002   -1.110109
  S     -1.661871    1.345924    1.029144
  S     -0.475432    1.309261   -1.972491
  O      1.719628    1.111601    0.447740
  C      1.154351   -1.319740   -2.894735
  C      0.877285    1.216491   -3.235778
  C      1.844667    0.030519   -3.126399
  H      1.459365    2.145117   -3.205169
  H      0.383656    1.179895   -4.215829
  H      2.545279    0.199581   -2.304598
  H      2.439888    0.010997   -4.057510
  H      0.185237   -1.314358   -3.405667
  H      1.761230   -2.112430   -3.348965
  C     -1.504794   -1.580581    2.323594
  C     -1.690962    0.942486    2.801115
  C     -2.099706   -0.490092    3.198249
  H     -2.337092    1.600877    3.414711
  H     -0.740252    0.855206    3.449458
  H     -3.178073   -0.593152    2.962555
  H     -1.984568   -0.705829    4.275342
  H     -1.495169   -2.586730    2.777763
  H     -1.642309   -1.743641    1.194154

 Total Charge           Charge          ....   -2
 Multiplicity           Mult            ....    2
 Number of Electrons    NEL             ....  145
 Basis Dimension        Dim             ....  353

ORBITAL ENERGIES
----------------
                 SPIN UP ORBITALS
  NO   OCC          E(Eh)            E(eV)
   0   1.0000    -196.607799     -5349.9702
   1   1.0000     -88.569712     -2410.1044
   2   1.0000     -88.562952     -2409.9204
   3   1.0000     -88.560099     -2409.8428
   4   1.0000     -88.552254     -2409.6293
   5   1.0000     -21.983028      -598.1886
   6   1.0000     -18.824779      -512.2483
   7   1.0000     -18.490810      -503.1605
   8   1.0000     -18.483657      -502.9659
   9   1.0000     -18.483558      -502.9632
  10   1.0000      -9.943843      -270.5857
  11   1.0000      -9.941540      -270.5231
  12   1.0000      -9.940469      -270.4939
  13   1.0000      -9.936809      -270.3943
  14   1.0000      -9.936126      -270.3757
  15   1.0000      -9.929670      -270.2001
  16   1.0000      -7.623769      -207.4533
  17   1.0000      -7.616702      -207.2610
  18   1.0000      -7.614490      -207.2008
  19   1.0000      -7.606693      -206.9886
  20   1.0000      -5.589290      -152.0923
  21   1.0000      -5.582604      -151.9104
  22   1.0000      -5.582118      -151.8972
  23   1.0000      -5.580822      -151.8619
  24   1.0000      -5.579903      -151.8369
  25   1.0000      -5.575525      -151.7177
  26   1.0000      -5.573923      -151.6741
  27   1.0000      -5.573502      -151.6627
  28   1.0000      -5.571683      -151.6132
  29   1.0000      -5.571449      -151.6068
  30   1.0000      -5.565985      -151.4582
  31   1.0000      -5.563895      -151.4013
  32   1.0000      -2.375623       -64.6440
  33   1.0000      -1.418118       -38.5889
  34   1.0000      -1.403962       -38.2037
  35   1.0000      -1.403088       -38.1800
  36   1.0000      -0.586834       -15.9686
  37   1.0000      -0.553205       -15.0535
  38   1.0000      -0.552196       -15.0260
  39   1.0000      -0.470495       -12.8028
  40   1.0000      -0.465184       -12.6583
  41   1.0000      -0.407565       -11.0904
  42   1.0000      -0.398585       -10.8461
  43   1.0000      -0.338781        -9.2187
  44   1.0000      -0.329341        -8.9618
  45   1.0000      -0.305581        -8.3153
  46   1.0000      -0.279151        -7.5961
  47   1.0000      -0.211851        -5.7648
  48   1.0000      -0.207793        -5.6543
  49   1.0000      -0.202765        -5.5175
  50   1.0000      -0.198663        -5.4059
  51   1.0000      -0.162486        -4.4215
  52   1.0000      -0.150298        -4.0898
  53   1.0000      -0.112196        -3.0530
  54   1.0000      -0.107468        -2.9243
  55   1.0000      -0.106408        -2.8955
  56   1.0000      -0.098850        -2.6899
  57   1.0000      -0.093745        -2.5509
  58   1.0000      -0.070159        -1.9091
  59   1.0000      -0.063290        -1.7222
  60   1.0000      -0.053076        -1.4443
  61   1.0000      -0.045665        -1.2426
  62   1.0000      -0.043211        -1.1758
  63   1.0000      -0.022418        -0.6100
  64   1.0000      -0.001591        -0.0433
  65   1.0000       0.024982         0.6798
  66   1.0000       0.030707         0.8356
  67   1.0000       0.035073         0.9544
  68   1.0000       0.047555         1.2940
  69   1.0000       0.053186         1.4473
  70   1.0000       0.061749         1.6803
  71   1.0000       0.071719         1.9516
  72   1.0000       0.082235         2.2377
  73   0.0000       0.233849         6.3634
  74   0.0000       0.244881         6.6636
  75   0.0000       0.248005         6.7486
  76   0.0000       0.251024         6.8307
  77   0.0000       0.256475         6.9790

                 SPIN DOWN ORBITALS
  NO   OCC          E(Eh)            E(eV)
   0   1.0000    -196.607940     -5349.9740
   1   1.0000     -88.569857     -2410.1083
   2   1.0000     -88.563128     -2409.9252
   3   1.0000     -88.560200     -2409.8456
   4   1.0000     -88.552243     -2409.6290
   5   1.0000     -21.967964      -597.7787
   6   1.0000     -18.828306      -512.3443
   7   1.0000     -18.485580      -503.0182
   8   1.0000     -18.467599      -502.5289
   9   1.0000     -18.467086      -502.5150
  10   1.0000      -9.943656      -270.5806
  11   1.0000      -9.941373      -270.5185
  12   1.0000      -9.940405      -270.4922
  13   1.0000      -9.936774      -270.3934
  14   1.0000      -9.936000      -270.3723
  15   1.0000      -9.929690      -270.2006
  16   1.0000      -7.623906      -207.4570
  17   1.0000      -7.616874      -207.2657
  18   1.0000      -7.614586      -207.2034
  19   1.0000      -7.606684      -206.9884
  20   1.0000      -5.589424      -152.0960
  21   1.0000      -5.582996      -151.9211
  22   1.0000      -5.582282      -151.9016
  23   1.0000      -5.580924      -151.8647
  24   1.0000      -5.580025      -151.8402
  25   1.0000      -5.575979      -151.7301
  26   1.0000      -5.574055      -151.6778
  27   1.0000      -5.573900      -151.6735
  28   1.0000      -5.571713      -151.6140
  29   1.0000      -5.571374      -151.6048
  30   1.0000      -5.566363      -151.4685
  31   1.0000      -5.563441      -151.3889
  32   1.0000      -2.330646       -63.4201
  33   1.0000      -1.398984       -38.0683
  34   1.0000      -1.342285       -36.5254
  35   1.0000      -1.340191       -36.4685
  36   1.0000      -0.594433       -16.1753
  37   1.0000      -0.553074       -15.0499
  38   1.0000      -0.552096       -15.0233
  39   1.0000      -0.470440       -12.8013
  40   1.0000      -0.465078       -12.6554
  41   1.0000      -0.407624       -11.0920
  42   1.0000      -0.398762       -10.8509
  43   1.0000      -0.338916        -9.2224
  44   1.0000      -0.329728        -8.9724
  45   1.0000      -0.305554        -8.3146
  46   1.0000      -0.279101        -7.5947
  47   1.0000      -0.211807        -5.7636
  48   1.0000      -0.207735        -5.6528
  49   1.0000      -0.202577        -5.5124
  50   1.0000      -0.198519        -5.4020
  51   1.0000      -0.162352        -4.4178
  52   1.0000      -0.150105        -4.0846
  53   1.0000      -0.112179        -3.0526
  54   1.0000      -0.107362        -2.9215
  55   1.0000      -0.106237        -2.8908
  56   1.0000      -0.098664        -2.6848
  57   1.0000      -0.092347        -2.5129
  58   1.0000      -0.068677        -1.8688
  59   1.0000      -0.062146        -1.6911
  60   1.0000      -0.052303        -1.4232
  61   1.0000      -0.047351        -1.2885
  62   1.0000      -0.045318        -1.2332
  63   1.0000      -0.022299        -0.6068
  64   1.0000       0.002929         0.0797
  65   1.0000       0.025947         0.7061
  66   1.0000       0.033431         0.9097
  67   1.0000       0.042515         1.1569
  68   1.0000       0.048150         1.3102
  69   1.0000       0.059635         1.6228
  70   1.0000       0.071661         1.9500
  71   1.0000       0.072411         1.9704
  72   0.0000       0.232460         6.3256
  73   0.0000       0.249951         6.8015
  74   0.0000       0.254456         6.9241
  75   0.0000       0.258990         7.0475
  76   0.0000       0.263158         7.1609

MULLIKEN ATOMIC CHARGES AND SPIN POPULATIONS
--------------------------------------------
   0 V :    0.521271    1.193898
   1 S :   -0.459593   -0.004474
   2 S :   -0.349786   -0.033121
   3 S :   -0.366851   -0.025994
   4 S :   -0.389525   -0.021439
   5 O :   -0.544712   -0.136298
   6 C :   -0.245788    0.005635
   7 C :   -0.233766    0.006910
   8 C :   -0.161223    0.002887
   9 H :    0.075721   -0.000923
  10 H :    0.051789    0.002168
  11 H :    0.138915    0.000638
  12 H :    0.006595   -0.000034
  13 H :    0.094061   -0.000116
  14 H :    0.048741   -0.000166
  15 C :   -0.282210    0.001046
  16 C :   -0.233781    0.001420
  17 C :   -0.056571    0.006363
  18 H :    0.042599   -0.000696
  19 H :    0.091750    0.001054
  20 H :    0.006204    0.001268
  21 H :    0.030048    0.000665
  22 H :    0.060271   -0.000122
  23 H :    0.155841   -0.000570
Sum of atomic charges         :   -2.0000000

LOEWDIN ATOMIC CHARGES AND SPIN POPULATIONS
-------------------------------------------
   0 V :   -0.212306    1.150272
   1 S :   -0.099569    0.001576
   2 S :   -0.035222   -0.022626
   3 S :   -0.025486   -0.017796
   4 S :   -0.065391   -0.012251
   5 O :   -0.375005   -0.122898
   6 C :   -0.327685    0.004947
   7 C :   -0.313359    0.007240
   8 C :   -0.187668    0.000470
   9 H :    0.036418   -0.000010
  10 H :    0.029202    0.000662
  11 H :    0.070160    0.000319
  12 H :    0.031664    0.000150
  13 H :    0.044749   -0.000066
  14 H :    0.027769   -0.000570
  15 C :   -0.324982    0.003198
  16 C :   -0.350845    0.006498
  17 C :   -0.195094    0.000889
  18 H :    0.026994   -0.000322
  19 H :    0.056670   -0.000478
  20 H :    0.033230    0.000714
  21 H :    0.040850    0.000333
  22 H :    0.034534   -0.000394
  23 H :    0.080372    0.000144

  Mayer bond orders larger than 0.100000
B(  0-V ,  1-S ) :   0.7258 B(  0-V ,  2-S ) :   0.8547 B(  0-V ,  3-S ) :   0.7524
B(  0-V ,  4-S ) :   0.7762 B(  0-V ,  5-O ) :   2.0773 B(  1-S , 15-C ) :   0.9999
B(  2-S ,  6-C ) :   1.0118 B(  3-S , 16-C ) :   1.0526 B(  4-S ,  7-C ) :   1.0699
B(  6-C ,  8-C ) :   0.8990 B(  6-C , 13-H ) :   0.9747 B(  6-C , 14-H ) :   0.9669
B(  7-C ,  8-C ) :   0.9188 B(  7-C ,  9-H ) :   0.9760 B(  7-C , 10-H ) :   0.9694
B(  8-C , 11-H ) :   0.9878 B(  8-C , 12-H ) :   0.9455 B( 15-C , 17-C ) :   0.9026
B( 15-C , 22-H ) :   0.9697 B( 15-C , 23-H ) :   0.9688 B( 16-C , 17-C ) :   0.8806
B( 16-C , 18-H ) :   0.9556 B( 16-C , 19-H ) :   0.9618 B( 17-C , 20-H ) :   0.9483
B( 17-C , 21-H ) :   0.9590

FINAL SINGLE POINT ENERGY     -2847.679540678749

DIPOLE MOMENT
-------------
                                X             Y             Z
Electronic contribution:      3.98987       3.89876       2.39843
Nuclear contribution   :     -4.17849      -4.13552      -2.86260
                        -----------------------------------------
Total Dipole Moment    :     -0.18862      -0.23676      -0.46416
                        -----------------------------------------
Magnitude (a.u.)       :      0.55415
Magnitude (Debye)      :      1.40853

Rotational constants in cm-1:     0.027236     0.011721     0.009593
Rotational constants in MHz :   816.523184   351.390702   287.601197

                             ****ORCA TERMINATED NORMALLY****
TOTAL RUN TIME: 0 days 0 hours 9 minutes 35 seconds 436 msec
