                         Program Version 5.0.4 -  RELEASE  -
|  1> ! nofrozencore ReducedPop printbasis
|  2> ! B3LYP TZVP
|  3>
|  4> %basis
|  5> newgto V "CP(PPP)" end
|  6> end
|  7>
|  8> %pal
|  9> nprocs 4
| 10> end
| 11>
| 12> % sym SymThresh 1e-2 end
| 13> * xyz -2 2
| 14> V 0.22604866544019453 -0.3146023726063022 0.3036825319905516
| 15> S -0.2799269155369241 -1.835974057078013 -1.655464030736846
| 16> S 1.6843845621186546 0.74391799058027 -1.3554705996185834
| 17> S -2.1952861905366357 -0.2946336134290007 0.853890878728024
| 18> S 0.13609422716820888 1.8169688517834865 1.5853283705179462
| 19> O 1.0663579562446421 -1.304109414136834 1.2413998987878296
| 20> C 2.535954130366337 2.1785032878697392 -0.558473253646628
| 21> C 1.8932325441530826 2.3105720455051366 1.9436748000123
| 22> C 2.9390401279625613 1.8910266625482623 0.9333520629469846
| 23> H 2.4828497831055416 1.9275097780385515 2.8512404229500783
| 24> H 1.6922449430978963 3.3957906527543327 2.0948740709999494
| 25> H 3.127999755150407 0.8477192183073713 1.3064427133787133
| 26> H 3.8212096034938363 2.492811751682852 1.240554737336628
| 27> H 2.0668052817826146 3.2141058164281255 -0.32190261201702075
| 28> H 3.3169099181354644 2.3073875556197505 -1.3485042273599663
| 29> C -1.9229118958763902 -1.200750399804395 -2.217743620744213
| 30> C -2.8927607895186274 -1.8258074499301986 0.08465840981234385
| 31> C -3.116284599160143 -1.7548173214782639 -1.4295842240844572
| 32> H -3.8459764930009044 -2.0361980159018955 0.5847323965402048
| 33> H -2.2094726732202576 -2.6467966907863034 0.301172449019832
| 34> H -3.9988505086460346 -1.131587894018252 -1.643327473178334
| 35> H -3.343515389468484 -2.7695832497085306 -1.79480782058229
| 36> H -2.049529925210217 -1.4449587906137047 -3.2791615073463496
| 37> H -1.9019242392247477 -0.11380825771706614 -2.1345273496436565
| 38> *
| 39>
| 40> % eprnmr
| 41> gtensor true
| 42> Nuclei = all H {aiso,adip,aorb,fgrad,rho}
| 43> Nuclei = all V {aiso,adip,aorb,fgrad,rho}
| 44> end
| 45>
| 46>                          ****END OF INPUT****

CARTESIAN COORDINATES (ANGSTROEM)
---------------------------------
  V      0.226171   -0.315252    0.304047
  S     -0.279805   -1.836624   -1.655099
  S      1.684507    0.743268   -1.355106
  S     -2.195164   -0.295283    0.854256
  S      0.136216    1.816319    1.585693
  O      1.066480   -1.304759    1.241765
  C      2.536076    2.177854   -0.558109
  C      1.893355    2.309922    1.944040
  C      2.939162    1.890377    0.933717
  H      2.482972    1.926860    2.851605
  H      1.692367    3.395141    2.095239
  H      3.128122    0.847069    1.306807
  H      3.821332    2.492162    1.240919
  H      2.066928    3.213456   -0.321538
  H      3.317032    2.306738   -1.348139
  C     -1.922790   -1.201400   -2.217379
  C     -2.892639   -1.826457    0.085023
  C     -3.116162   -1.755467   -1.429219
  H     -3.845854   -2.036848    0.585097
  H     -2.209350   -2.647446    0.301537
  H     -3.998728   -1.132238   -1.642963
  H     -3.343393   -2.770233   -1.794443
  H     -2.049408   -1.445609   -3.278797
  H     -1.901802   -0.114458   -2.134163

 Total Charge           Charge          ....   -2
 Multiplicity           Mult            ....    2
 Number of Electrons    NEL             ....  145
 Basis Dimension        Dim             ....  353

ORBITAL ENERGIES
----------------
                 SPIN UP ORBITALS
  NO   OCC          E(Eh)            E(eV)
   0   1.0000    -196.607303     -5349.9567
   1   1.0000     -88.566099     -2410.0061
   2   1.0000     -88.562282     -2409.9022
   3   1.0000     -88.562273     -2409.9020
   4   1.0000     -88.558351     -2409.7952
   5   1.0000     -21.982675      -598.1790
   6   1.0000     -18.826040      -512.2826
   7   1.0000     -18.490485      -503.1517
   8   1.0000     -18.483251      -502.9548
   9   1.0000     -18.483202      -502.9535
  10   1.0000      -9.948806      -270.7208
  11   1.0000      -9.948314      -270.7074
  12   1.0000      -9.935736      -270.3651
  13   1.0000      -9.934932      -270.3432
  14   1.0000      -9.934778      -270.3391
  15   1.0000      -9.932640      -270.2809
  16   1.0000      -7.619743      -207.3437
  17   1.0000      -7.616426      -207.2535
  18   1.0000      -7.616361      -207.2517
  19   1.0000      -7.612698      -207.1520
  20   1.0000      -5.585354      -151.9852
  21   1.0000      -5.581840      -151.8896
  22   1.0000      -5.581620      -151.8836
  23   1.0000      -5.578343      -151.7944
  24   1.0000      -5.577922      -151.7830
  25   1.0000      -5.576968      -151.7570
  26   1.0000      -5.575411      -151.7146
  27   1.0000      -5.575274      -151.7109
  28   1.0000      -5.573685      -151.6677
  29   1.0000      -5.573393      -151.6597
  30   1.0000      -5.571928      -151.6199
  31   1.0000      -5.569764      -151.5610
  32   1.0000      -2.375490       -64.6404
  33   1.0000      -1.418395       -38.5965
  34   1.0000      -1.403534       -38.1921
  35   1.0000      -1.403089       -38.1800
  36   1.0000      -0.588552       -16.0153
  37   1.0000      -0.552462       -15.0333
  38   1.0000      -0.551568       -15.0089
  39   1.0000      -0.467667       -12.7259
  40   1.0000      -0.466195       -12.6858
  41   1.0000      -0.405887       -11.0448
  42   1.0000      -0.399016       -10.8578
  43   1.0000      -0.338578        -9.2132
  44   1.0000      -0.330098        -8.9824
  45   1.0000      -0.295867        -8.0509
  46   1.0000      -0.285365        -7.7652
  47   1.0000      -0.215231        -5.8567
  48   1.0000      -0.209386        -5.6977
  49   1.0000      -0.203502        -5.5376
  50   1.0000      -0.194809        -5.3010
  51   1.0000      -0.155747        -4.2381
  52   1.0000      -0.134226        -3.6525
  53   1.0000      -0.132131        -3.5955
  54   1.0000      -0.108551        -2.9538
  55   1.0000      -0.106230        -2.8907
  56   1.0000      -0.093373        -2.5408
  57   1.0000      -0.080067        -2.1787
  58   1.0000      -0.070205        -1.9104
  59   1.0000      -0.064444        -1.7536
  60   1.0000      -0.057461        -1.5636
  61   1.0000      -0.046266        -1.2590
  62   1.0000      -0.038918        -1.0590
  63   1.0000      -0.036856        -1.0029
  64   1.0000      -0.001674        -0.0456
  65   1.0000       0.026836         0.7302
  66   1.0000       0.029436         0.8010
  67   1.0000       0.036534         0.9941
  68   1.0000       0.043309         1.1785
  69   1.0000       0.051189         1.3929
  70   1.0000       0.062661         1.7051
  71   1.0000       0.070075         1.9068
  72   1.0000       0.080364         2.1868
  73   0.0000       0.233891         6.3645
  74   0.0000       0.245604         6.6832
  75   0.0000       0.248644         6.7659
  76   0.0000       0.251907         6.8547
  77   0.0000       0.258069         7.0224

                 SPIN DOWN ORBITALS
  NO   OCC          E(Eh)            E(eV)
   0   1.0000    -196.607446     -5349.9606
   1   1.0000     -88.566283     -2410.0111
   2   1.0000     -88.562435     -2409.9064
   3   1.0000     -88.562381     -2409.9049
   4   1.0000     -88.558324     -2409.7945
   5   1.0000     -21.967631      -597.7696
   6   1.0000     -18.829513      -512.3771
   7   1.0000     -18.485292      -503.0104
   8   1.0000     -18.467205      -502.5182
   9   1.0000     -18.466732      -502.5053
  10   1.0000      -9.948680      -270.7173
  11   1.0000      -9.948146      -270.7028
  12   1.0000      -9.935750      -270.3655
  13   1.0000      -9.934874      -270.3417
  14   1.0000      -9.934610      -270.3345
  15   1.0000      -9.932597      -270.2797
  16   1.0000      -7.619922      -207.3486
  17   1.0000      -7.616580      -207.2577
  18   1.0000      -7.616455      -207.2543
  19   1.0000      -7.612674      -207.1514
  20   1.0000      -5.585524      -151.9898
  21   1.0000      -5.581959      -151.8928
  22   1.0000      -5.581772      -151.8877
  23   1.0000      -5.578816      -151.8073
  24   1.0000      -5.577939      -151.7834
  25   1.0000      -5.577112      -151.7609
  26   1.0000      -5.575835      -151.7262
  27   1.0000      -5.575692      -151.7223
  28   1.0000      -5.573806      -151.6710
  29   1.0000      -5.573289      -151.6569
  30   1.0000      -5.572265      -151.6291
  31   1.0000      -5.569297      -151.5483
  32   1.0000      -2.330583       -63.4184
  33   1.0000      -1.399432       -38.0805
  34   1.0000      -1.341934       -36.5159
  35   1.0000      -1.340159       -36.4676
  36   1.0000      -0.595972       -16.2172
  37   1.0000      -0.552363       -15.0306
  38   1.0000      -0.551416       -15.0048
  39   1.0000      -0.467631       -12.7249
  40   1.0000      -0.466130       -12.6840
  41   1.0000      -0.405945       -11.0463
  42   1.0000      -0.399100       -10.8601
  43   1.0000      -0.338749        -9.2178
  44   1.0000      -0.330480        -8.9928
  45   1.0000      -0.295783        -8.0487
  46   1.0000      -0.285409        -7.7664
  47   1.0000      -0.215169        -5.8551
  48   1.0000      -0.209373        -5.6973
  49   1.0000      -0.203386        -5.5344
  50   1.0000      -0.194622        -5.2959
  51   1.0000      -0.155528        -4.2321
  52   1.0000      -0.134101        -3.6491
  53   1.0000      -0.131869        -3.5883
  54   1.0000      -0.108489        -2.9521
  55   1.0000      -0.106106        -2.8873
  56   1.0000      -0.093271        -2.5380
  57   1.0000      -0.079305        -2.1580
  58   1.0000      -0.067763        -1.8439
  59   1.0000      -0.063606        -1.7308
  60   1.0000      -0.057433        -1.5628
  61   1.0000      -0.047711        -1.2983
  62   1.0000      -0.040657        -1.1063
  63   1.0000      -0.036655        -0.9974
  64   1.0000       0.002405         0.0654
  65   1.0000       0.027950         0.7606
  66   1.0000       0.032369         0.8808
  67   1.0000       0.043545         1.1849
  68   1.0000       0.046353         1.2613
  69   1.0000       0.057534         1.5656
  70   1.0000       0.068453         1.8627
  71   1.0000       0.071171         1.9367
  72   0.0000       0.233164         6.3447
  73   0.0000       0.250434         6.8147
  74   0.0000       0.253895         6.9088
  75   0.0000       0.260087         7.0773
  76   0.0000       0.263962         7.1828

MULLIKEN ATOMIC CHARGES AND SPIN POPULATIONS
--------------------------------------------
   0 V :    0.530356    1.192681
   1 S :   -0.430229   -0.001500
   2 S :   -0.336551   -0.034172
   3 S :   -0.410612   -0.029539
   4 S :   -0.369338   -0.021431
   5 O :   -0.548348   -0.133879
   6 C :   -0.218121    0.004731
   7 C :   -0.227297    0.007194
   8 C :   -0.131137    0.003326
   9 H :    0.031308   -0.000840
  10 H :    0.053844    0.002058
  11 H :    0.125729    0.000226
  12 H :    0.006736   -0.000252
  13 H :    0.047775   -0.000090
  14 H :    0.051315    0.000816
  15 C :   -0.256193   -0.002134
  16 C :   -0.252575    0.003119
  17 C :   -0.069822    0.008469
  18 H :    0.048117   -0.000073
  19 H :    0.131527   -0.000173
  20 H :    0.016100    0.001646
  21 H :    0.013536    0.000056
  22 H :    0.052483   -0.000595
  23 H :    0.141398    0.000357
Sum of atomic charges         :   -2.0000000

LOEWDIN ATOMIC CHARGES AND SPIN POPULATIONS
-------------------------------------------
   0 V :   -0.208252    1.148778
   1 S :   -0.073431    0.003805
   2 S :   -0.019447   -0.023577
   3 S :   -0.060872   -0.020733
   4 S :   -0.052690   -0.011951
   5 O :   -0.375817   -0.120635
   6 C :   -0.343108    0.005057
   7 C :   -0.330028    0.006815
   8 C :   -0.196359    0.000850
   9 H :    0.033933   -0.000008
  10 H :    0.027764    0.000633
  11 H :    0.073262    0.000191
  12 H :    0.034478    0.000118
  13 H :    0.049205    0.000065
  14 H :    0.030993   -0.000301
  15 C :   -0.317289    0.002778
  16 C :   -0.325074    0.007032
  17 C :   -0.188570    0.001173
  18 H :    0.028427   -0.000214
  19 H :    0.054301   -0.000611
  20 H :    0.036503    0.000633
  21 H :    0.035330    0.000384
  22 H :    0.030414   -0.000606
  23 H :    0.056326    0.000324

  Mayer bond orders larger than 0.100000
B(  0-V ,  1-S ) :   0.7081 B(  0-V ,  2-S ) :   0.8554 B(  0-V ,  3-S ) :   0.7721
B(  0-V ,  4-S ) :   0.7738 B(  0-V ,  5-O ) :   2.0709 B(  1-S , 15-C ) :   1.0246
B(  2-S ,  6-C ) :   1.0007 B(  3-S , 16-C ) :   1.0216 B(  4-S ,  7-C ) :   1.0926
B(  4-S ,  8-C ) :  -0.1217 B(  6-C ,  8-C ) :   0.9176 B(  6-C , 13-H ) :   0.9278
B(  6-C , 14-H ) :   0.9761 B(  7-C ,  8-C ) :   0.8903 B(  7-C ,  9-H ) :   0.9446
B(  7-C , 10-H ) :   0.9790 B(  8-C , 11-H ) :   0.9877 B(  8-C , 12-H ) :   0.9466
B( 15-C , 17-C ) :   0.8956 B( 15-C , 22-H ) :   0.9682 B( 15-C , 23-H ) :   0.9800
B( 16-C , 17-C ) :   0.9038 B( 16-C , 18-H ) :   0.9639 B( 16-C , 19-H ) :   0.9760
B( 17-C , 20-H ) :   0.9582 B( 17-C , 21-H ) :   0.9600

FINAL SINGLE POINT ENERGY     -2847.679704822778

DIPOLE MOMENT
-------------
                                X             Y             Z
Electronic contribution:      1.75903      -4.89430       3.11537
Nuclear contribution   :     -1.79886       5.21107      -3.37751
                        -----------------------------------------
Total Dipole Moment    :     -0.03984       0.31677      -0.26213
                        -----------------------------------------
Magnitude (a.u.)       :      0.41309
Magnitude (Debye)      :      1.04999

Rotational constants in cm-1:     0.027149     0.011717     0.009600
Rotational constants in MHz :   813.912537   351.278143   287.802358

                             ****ORCA TERMINATED NORMALLY****
TOTAL RUN TIME: 0 days 0 hours 14 minutes 23 seconds 981 msec
