                         Program Version 5.0.4 -  RELEASE  -
|  1> ! nofrozencore ReducedPop printbasis
|  2> ! B3LYP TZVP
|  3>
|  4> %basis
|  5> newgto V "CP(PPP)" end
|  6> end
|  7>
|  8> %pal
|  9> nprocs 8
| 10> end
| 11>
| 12> % sym SymThresh 1e-2 end
| 13> * xyz -2 2
| 14> V 0.3006314750910621 -0.30317362914965246 -0.2402557135050094
| 15> S 1.7232897066328234 1.7889354226732097 -0.14767102411570887
| 16> S 0.6448936443482599 -0.21073190999079738 2.1798923861592
| 17> S -1.1640528266714052 0.8201613662771866 -1.898966805225318
| 18> S -1.7667449243284805 -1.6480857947480718 0.10512658574389179
| 19> O 1.3319559141106414 -1.3364645373295023 -0.9196704060528019
| 20> C -0.21805259328566204 -1.7537238913963373 2.8942173086788228
| 21> C -1.3658270046311738 -3.125700768479053 1.04110883284347
| 22> C -0.11058065319053734 -2.8747229380153634 2.2025743152852466
| 23> H -1.092779764424052 -4.051580490971999 0.49052626963640655
| 24> H -2.3566299208696777 -3.2909841793216175 1.5148288760868656
| 25> H 0.8197809073568728 -2.841526971140105 1.6234503943408565
| 26> H 0.027217482800565213 -3.6781943333775464 2.9679681480727367
| 27> H -1.3002919781516706 -1.6072998124365754 3.0471618070422126
| 28> H 0.23823321891451496 -1.8547597465979422 3.8858679636115485
| 29> C 0.45749890059385845 3.116731963522545 -0.33279845103502276
| 30> C -0.12605261795318592 2.161401890415584 -2.652476486251308
| 31> C 0.0585224126687327 3.4009487819140114 -1.8088554683691649
| 32> H -0.5938077680614109 2.44615268628524 -3.6029227399957424
| 33> H 0.8502045285316071 1.7305917931982995 -2.873525016230595
| 34> H -0.8751255559249362 3.9849072450014735 -1.8280493181248805
| 35> H 0.8336997967544746 4.018780762567752 -2.2912158751869964
| 36> H 0.8461826846088923 4.031871324263443 0.12893611180437947
| 37> H -0.4306314746771427 2.8208184403685386 0.2266171165009312
| 38> *
| 39>
| 40> % eprnmr
| 41> gtensor true
| 42> Nuclei = all H {aiso,adip,aorb,fgrad,rho}
| 43> Nuclei = all V {aiso,adip,aorb,fgrad,rho}
| 44> end
| 45>
| 46>                          ****END OF INPUT****

CARTESIAN COORDINATES (ANGSTROEM)
---------------------------------
  V      0.301132   -0.303389   -0.240779
  S      1.723790    1.788721   -0.148194
  S      0.645394   -0.210947    2.179370
  S     -1.163553    0.819946   -1.899490
  S     -1.766245   -1.648301    0.104604
  O      1.332456   -1.336679   -0.920193
  C     -0.217552   -1.753939    2.893694
  C     -1.365327   -3.125916    1.040586
  C     -0.110080   -2.874938    2.202051
  H     -1.092279   -4.051795    0.490003
  H     -2.356130   -3.291199    1.514306
  H      0.820281   -2.841742    1.622928
  H      0.027718   -3.678409    2.967445
  H     -1.299792   -1.607515    3.046639
  H      0.238734   -1.854975    3.885345
  C      0.457999    3.116517   -0.333321
  C     -0.125552    2.161187   -2.652999
  C      0.059023    3.400734   -1.809378
  H     -0.593307    2.445938   -3.603446
  H      0.850705    1.730377   -2.874048
  H     -0.874625    3.984692   -1.828572
  H      0.834200    4.018566   -2.291739
  H      0.846683    4.031656    0.128413
  H     -0.430131    2.820604    0.226094

 Total Charge           Charge          ....   -2
 Multiplicity           Mult            ....    2
 Number of Electrons    NEL             ....  145
 Basis Dimension        Dim             ....  353

ORBITAL ENERGIES
----------------
                 SPIN UP ORBITALS
  NO   OCC          E(Eh)            E(eV)
   0   1.0000    -196.607844     -5349.9714
   1   1.0000     -88.562133     -2409.8981
   2   1.0000     -88.561715     -2409.8868
   3   1.0000     -88.561063     -2409.8690
   4   1.0000     -88.558054     -2409.7872
   5   1.0000     -21.983174      -598.1926
   6   1.0000     -18.824464      -512.2397
   7   1.0000     -18.490996      -503.1656
   8   1.0000     -18.483765      -502.9688
   9   1.0000     -18.483692      -502.9668
  10   1.0000      -9.953099      -270.8376
  11   1.0000      -9.935747      -270.3654
  12   1.0000      -9.933352      -270.3003
  13   1.0000      -9.932258      -270.2705
  14   1.0000      -9.922587      -270.0073
  15   1.0000      -9.921079      -269.9663
  16   1.0000      -7.616261      -207.2490
  17   1.0000      -7.616231      -207.2482
  18   1.0000      -7.615009      -207.2149
  19   1.0000      -7.612454      -207.1454
  20   1.0000      -5.581541      -151.8815
  21   1.0000      -5.581435      -151.8786
  22   1.0000      -5.580443      -151.8516
  23   1.0000      -5.577674      -151.7762
  24   1.0000      -5.575211      -151.7092
  25   1.0000      -5.575161      -151.7078
  26   1.0000      -5.573843      -151.6720
  27   1.0000      -5.573492      -151.6624
  28   1.0000      -5.573300      -151.6572
  29   1.0000      -5.572272      -151.6292
  30   1.0000      -5.571676      -151.6130
  31   1.0000      -5.569518      -151.5543
  32   1.0000      -2.375519       -64.6412
  33   1.0000      -1.417582       -38.5744
  34   1.0000      -1.403635       -38.1949
  35   1.0000      -1.403264       -38.1848
  36   1.0000      -0.586415       -15.9572
  37   1.0000      -0.572888       -15.5891
  38   1.0000      -0.551631       -15.0106
  39   1.0000      -0.477343       -12.9892
  40   1.0000      -0.466434       -12.6923
  41   1.0000      -0.403379       -10.9765
  42   1.0000      -0.390526       -10.6267
  43   1.0000      -0.337660        -9.1882
  44   1.0000      -0.326608        -8.8874
  45   1.0000      -0.303762        -8.2658
  46   1.0000      -0.286248        -7.7892
  47   1.0000      -0.222506        -6.0547
  48   1.0000      -0.214808        -5.8452
  49   1.0000      -0.203261        -5.5310
  50   1.0000      -0.190627        -5.1872
  51   1.0000      -0.168684        -4.5901
  52   1.0000      -0.135657        -3.6914
  53   1.0000      -0.132149        -3.5960
  54   1.0000      -0.128264        -3.4902
  55   1.0000      -0.108013        -2.9392
  56   1.0000      -0.092281        -2.5111
  57   1.0000      -0.072767        -1.9801
  58   1.0000      -0.064907        -1.7662
  59   1.0000      -0.060788        -1.6541
  60   1.0000      -0.051340        -1.3970
  61   1.0000      -0.043102        -1.1729
  62   1.0000      -0.041368        -1.1257
  63   1.0000      -0.031982        -0.8703
  64   1.0000      -0.002205        -0.0600
  65   1.0000       0.025927         0.7055
  66   1.0000       0.030963         0.8425
  67   1.0000       0.035895         0.9767
  68   1.0000       0.046514         1.2657
  69   1.0000       0.052697         1.4339
  70   1.0000       0.062996         1.7142
  71   1.0000       0.071311         1.9405
  72   1.0000       0.080442         2.1889
  73   0.0000       0.232675         6.3314
  74   0.0000       0.245143         6.6707
  75   0.0000       0.249347         6.7851
  76   0.0000       0.252694         6.8761
  77   0.0000       0.258043         7.0217

                 SPIN DOWN ORBITALS
  NO   OCC          E(Eh)            E(eV)
   0   1.0000    -196.607984     -5349.9752
   1   1.0000     -88.562295     -2409.9026
   2   1.0000     -88.561902     -2409.8919
   3   1.0000     -88.561165     -2409.8718
   4   1.0000     -88.558027     -2409.7864
   5   1.0000     -21.968060      -597.7813
   6   1.0000     -18.828036      -512.3369
   7   1.0000     -18.485730      -503.0223
   8   1.0000     -18.467697      -502.5316
   9   1.0000     -18.467141      -502.5164
  10   1.0000      -9.952942      -270.8333
  11   1.0000      -9.935692      -270.3639
  12   1.0000      -9.933180      -270.2956
  13   1.0000      -9.932214      -270.2693
  14   1.0000      -9.922589      -270.0074
  15   1.0000      -9.920953      -269.9629
  16   1.0000      -7.616386      -207.2524
  17   1.0000      -7.616358      -207.2516
  18   1.0000      -7.615191      -207.2199
  19   1.0000      -7.612430      -207.1448
  20   1.0000      -5.581653      -151.8845
  21   1.0000      -5.581590      -151.8828
  22   1.0000      -5.580627      -151.8566
  23   1.0000      -5.577691      -151.7767
  24   1.0000      -5.575636      -151.7208
  25   1.0000      -5.575571      -151.7190
  26   1.0000      -5.574318      -151.6849
  27   1.0000      -5.573616      -151.6658
  28   1.0000      -5.573219      -151.6550
  29   1.0000      -5.572413      -151.6331
  30   1.0000      -5.572018      -151.6223
  31   1.0000      -5.569044      -151.5414
  32   1.0000      -2.330392       -63.4132
  33   1.0000      -1.398313       -38.0500
  34   1.0000      -1.341966       -36.5167
  35   1.0000      -1.340038       -36.4643
  36   1.0000      -0.594137       -16.1673
  37   1.0000      -0.572809       -15.5869
  38   1.0000      -0.551476       -15.0064
  39   1.0000      -0.477224       -12.9859
  40   1.0000      -0.466300       -12.6887
  41   1.0000      -0.403428       -10.9778
  42   1.0000      -0.390911       -10.6372
  43   1.0000      -0.337774        -9.1913
  44   1.0000      -0.326944        -8.8966
  45   1.0000      -0.303717        -8.2646
  46   1.0000      -0.286260        -7.7895
  47   1.0000      -0.222439        -6.0529
  48   1.0000      -0.214736        -5.8433
  49   1.0000      -0.203160        -5.5283
  50   1.0000      -0.190439        -5.1821
  51   1.0000      -0.168598        -4.5878
  52   1.0000      -0.135396        -3.6843
  53   1.0000      -0.131917        -3.5896
  54   1.0000      -0.128077        -3.4851
  55   1.0000      -0.107934        -2.9370
  56   1.0000      -0.091453        -2.4886
  57   1.0000      -0.071957        -1.9580
  58   1.0000      -0.063780        -1.7355
  59   1.0000      -0.060596        -1.6489
  60   1.0000      -0.050618        -1.3774
  61   1.0000      -0.044028        -1.1981
  62   1.0000      -0.042539        -1.1575
  63   1.0000      -0.032739        -0.8909
  64   1.0000       0.002106         0.0573
  65   1.0000       0.026919         0.7325
  66   1.0000       0.033800         0.9198
  67   1.0000       0.044564         1.2127
  68   1.0000       0.047124         1.2823
  69   1.0000       0.060506         1.6464
  70   1.0000       0.067962         1.8493
  71   1.0000       0.072164         1.9637
  72   0.0000       0.233651         6.3580
  73   0.0000       0.249546         6.7905
  74   0.0000       0.254655         6.9295
  75   0.0000       0.260370         7.0850
  76   0.0000       0.264340         7.1931

MULLIKEN ATOMIC CHARGES AND SPIN POPULATIONS
--------------------------------------------
   0 V :    0.524819    1.197120
   1 S :   -0.424083   -0.001353
   2 S :   -0.360642   -0.035488
   3 S :   -0.411298   -0.029734
   4 S :   -0.367322   -0.021044
   5 O :   -0.547757   -0.137764
   6 C :   -0.222664    0.006891
   7 C :   -0.235397    0.004850
   8 C :   -0.163314    0.002915
   9 H :    0.067608   -0.001039
  10 H :    0.052290    0.002528
  11 H :    0.138232    0.001013
  12 H :    0.000541    0.000068
  13 H :    0.078049   -0.000307
  14 H :    0.047830    0.000527
  15 C :   -0.253933   -0.002175
  16 C :   -0.253175    0.003263
  17 C :   -0.070562    0.008515
  18 H :    0.047206   -0.000067
  19 H :    0.131697   -0.000188
  20 H :    0.015700    0.001488
  21 H :    0.012930    0.000127
  22 H :    0.053260   -0.000576
  23 H :    0.139984    0.000429
Sum of atomic charges         :   -2.0000000

LOEWDIN ATOMIC CHARGES AND SPIN POPULATIONS
-------------------------------------------
   0 V :   -0.207664    1.153095
   1 S :   -0.068257    0.003969
   2 S :   -0.052678   -0.024489
   3 S :   -0.062919   -0.020856
   4 S :   -0.030551   -0.011924
   5 O :   -0.381572   -0.124377
   6 C :   -0.324192    0.005829
   7 C :   -0.331011    0.005882
   8 C :   -0.195067    0.000656
   9 H :    0.027993    0.000095
  10 H :    0.030113    0.000628
  11 H :    0.070098    0.000585
  12 H :    0.035140    0.000263
  13 H :    0.049539   -0.000076
  14 H :    0.031381   -0.000293
  15 C :   -0.317954    0.002585
  16 C :   -0.324437    0.007287
  17 C :   -0.188803    0.001218
  18 H :    0.028874   -0.000183
  19 H :    0.054188   -0.000614
  20 H :    0.035822    0.000581
  21 H :    0.035739    0.000410
  22 H :    0.029977   -0.000607
  23 H :    0.056242    0.000335

  Mayer bond orders larger than 0.100000
B(  0-V ,  1-S ) :   0.7081 B(  0-V ,  2-S ) :   0.8676 B(  0-V ,  3-S ) :   0.7745
B(  0-V ,  4-S ) :   0.7635 B(  0-V ,  5-O ) :   2.0715 B(  1-S , 15-C ) :   1.0243
B(  2-S ,  6-C ) :   1.0025 B(  3-S , 16-C ) :   1.0231 B(  4-S ,  7-C ) :   1.0770
B(  6-C ,  8-C ) :   0.9245 B(  6-C , 13-H ) :   0.9620 B(  6-C , 14-H ) :   0.9826
B(  7-C ,  8-C ) :   0.8721 B(  7-C ,  9-H ) :   0.9459 B(  7-C , 10-H ) :   0.9752
B(  8-C , 11-H ) :   1.0029 B(  8-C , 12-H ) :   0.9330 B( 15-C , 17-C ) :   0.8953
B( 15-C , 22-H ) :   0.9678 B( 15-C , 23-H ) :   0.9776 B( 16-C , 17-C ) :   0.9036
B( 16-C , 18-H ) :   0.9641 B( 16-C , 19-H ) :   0.9775 B( 17-C , 20-H ) :   0.9591
B( 17-C , 21-H ) :   0.9586

FINAL SINGLE POINT ENERGY     -2847.663045533600

DIPOLE MOMENT
-------------
                                X             Y             Z
Electronic contribution:      3.91225      -2.86742      -3.83513
Nuclear contribution   :     -4.19711       2.96198       4.17318
                        -----------------------------------------
Total Dipole Moment    :     -0.28486       0.09456       0.33806
                        -----------------------------------------
Magnitude (a.u.)       :      0.45207
Magnitude (Debye)      :      1.14907

Rotational constants in cm-1:     0.027160     0.011745     0.009587
Rotational constants in MHz :   814.247051   352.119783   287.398928

                             ****ORCA TERMINATED NORMALLY****
TOTAL RUN TIME: 0 days 0 hours 9 minutes 33 seconds 675 msec
