                         Program Version 5.0.4 -  RELEASE  -
|  1> ! nofrozencore ReducedPop printbasis
|  2> ! B3LYP TZVP
|  3>
|  4> %basis
|  5> newgto V "CP(PPP)" end
|  6> end
|  7>
|  8> %pal
|  9> nprocs 4
| 10> end
| 11>
| 12> % sym SymThresh 1e-2 end
| 13> * xyz -2 2
| 14> V 0.3606908693284077 -0.32270814395780684 0.10235280488303651
| 15> S 1.5596621985479542 1.2249162349722968 -1.503148914707673
| 16> S 0.3496443103475562 1.6917458620076449 1.4709763817205201
| 17> S -0.9616834402808191 -1.2024735917856764 -1.8063523987064936
| 18> S -1.6075762834059009 -1.178123848291236 1.3443401593258755
| 19> O 1.5482141091185608 -1.2890493983925597 0.52934715349759
| 20> C -0.4327199403065726 1.27536320711378 3.1817797903323743
| 21> C -1.1344037409284615 -1.177261382470781 3.223135395200223
| 22> C -0.21472671536784663 -0.0981782024727939 3.5053855547970105
| 23> H -0.6374893845413262 -2.0925101551216216 3.6086430691348528
| 24> H -2.0433063292273452 -1.0227227067 3.8209407103351785
| 25> H 0.8575753354251782 -0.4323275620134047 3.451045557514409
| 26> H -0.45791229352232704 -0.04938012337409972 4.614711913308315
| 27> H -1.507202348757466 1.2338269339883305 2.83719283700649
| 28> H -0.35373430956637636 1.9644383030178805 4.094589597023959
| 29> C 0.21509855406678025 1.6531639253235042 -2.6979014012760665
| 30> C 0.04460731864911921 -0.84332687033348 -3.316663138269166
| 31> C -0.0010407622861262613 0.6096809363002607 -3.802352848181097
| 32> H -0.30994129823158684 -1.5052284502789346 -4.116214836686904
| 33> H 1.0798864936472246 -1.1042694426908095 -3.0972982626901846
| 34> H -0.9698350185012689 0.8062997337672841 -4.28797238564656
| 35> H 0.7760821196763238 0.7351708842936616 -4.573856533546235
| 36> H 0.4507727826328619 2.622691963076849 -3.15227538293207
| 37> H -0.7080406380653207 1.7755933136273576 -2.1309892121671745
| 38> *
| 39>
| 40> % eprnmr
| 41> gtensor true
| 42> Nuclei = all H {aiso,adip,aorb,fgrad,rho}
| 43> Nuclei = all V {aiso,adip,aorb,fgrad,rho}
| 44> end
| 45>
| 46>                          ****END OF INPUT****

CARTESIAN COORDINATES (ANGSTROEM)
---------------------------------
  V      0.361276   -0.323166    0.102217
  S      1.560247    1.224458   -1.503285
  S      0.350229    1.691288    1.470840
  S     -0.961099   -1.202932   -1.806488
  S     -1.606992   -1.178582    1.344204
  O      1.548799   -1.289507    0.529211
  C     -0.432135    1.274905    3.181644
  C     -1.133819   -1.177719    3.222999
  C     -0.214142   -0.098636    3.505249
  H     -0.636905   -2.092968    3.608507
  H     -2.042722   -1.023181    3.820805
  H      0.858160   -0.432786    3.450910
  H     -0.457328   -0.049838    4.614576
  H     -1.506618    1.233369    2.837057
  H     -0.353150    1.963980    4.094454
  C      0.215683    1.652706   -2.698037
  C      0.045192   -0.843785   -3.316799
  C     -0.000456    0.609223   -3.802489
  H     -0.309357   -1.505686   -4.116351
  H      1.080471   -1.104727   -3.097434
  H     -0.969250    0.805842   -4.288108
  H      0.776667    0.734713   -4.573993
  H      0.451358    2.622234   -3.152411
  H     -0.707456    1.775135   -2.131125

 Total Charge           Charge          ....   -2
 Multiplicity           Mult            ....    2
 Number of Electrons    NEL             ....  145
 Basis Dimension        Dim             ....  353

ORBITAL ENERGIES
----------------
                 SPIN UP ORBITALS
  NO   OCC          E(Eh)            E(eV)
   0   1.0000    -196.606759     -5349.9419
   1   1.0000     -88.563170     -2409.9264
   2   1.0000     -88.561728     -2409.8871
   3   1.0000     -88.561598     -2409.8836
   4   1.0000     -88.558325     -2409.7945
   5   1.0000     -21.982113      -598.1637
   6   1.0000     -18.827515      -512.3227
   7   1.0000     -18.489849      -503.1344
   8   1.0000     -18.482765      -502.9416
   9   1.0000     -18.482644      -502.9383
  10   1.0000      -9.947134      -270.6753
  11   1.0000      -9.939938      -270.4795
  12   1.0000      -9.934447      -270.3301
  13   1.0000      -9.934375      -270.3281
  14   1.0000      -9.932164      -270.2679
  15   1.0000      -9.924097      -270.0484
  16   1.0000      -7.616075      -207.2439
  17   1.0000      -7.615776      -207.2358
  18   1.0000      -7.614886      -207.2116
  19   1.0000      -7.612607      -207.1496
  20   1.0000      -5.581779      -151.8879
  21   1.0000      -5.580976      -151.8661
  22   1.0000      -5.580475      -151.8525
  23   1.0000      -5.577831      -151.7805
  24   1.0000      -5.574923      -151.7014
  25   1.0000      -5.574758      -151.6969
  26   1.0000      -5.573881      -151.6730
  27   1.0000      -5.573062      -151.6507
  28   1.0000      -5.573017      -151.6495
  29   1.0000      -5.571933      -151.6200
  30   1.0000      -5.571826      -151.6171
  31   1.0000      -5.569694      -151.5591
  32   1.0000      -2.375471       -64.6399
  33   1.0000      -1.419522       -38.6272
  34   1.0000      -1.403478       -38.1906
  35   1.0000      -1.402863       -38.1738
  36   1.0000      -0.590428       -16.0664
  37   1.0000      -0.577698       -15.7200
  38   1.0000      -0.550978       -14.9929
  39   1.0000      -0.468181       -12.7399
  40   1.0000      -0.466113       -12.6836
  41   1.0000      -0.403339       -10.9754
  42   1.0000      -0.388249       -10.5648
  43   1.0000      -0.342411        -9.3175
  44   1.0000      -0.333179        -9.0663
  45   1.0000      -0.297547        -8.0967
  46   1.0000      -0.286026        -7.7832
  47   1.0000      -0.218472        -5.9449
  48   1.0000      -0.214242        -5.8298
  49   1.0000      -0.204755        -5.5717
  50   1.0000      -0.202396        -5.5075
  51   1.0000      -0.165050        -4.4912
  52   1.0000      -0.134068        -3.6482
  53   1.0000      -0.132134        -3.5955
  54   1.0000      -0.119717        -3.2577
  55   1.0000      -0.108380        -2.9492
  56   1.0000      -0.104039        -2.8310
  57   1.0000      -0.072768        -1.9801
  58   1.0000      -0.068329        -1.8593
  59   1.0000      -0.064014        -1.7419
  60   1.0000      -0.055009        -1.4969
  61   1.0000      -0.049366        -1.3433
  62   1.0000      -0.040668        -1.1066
  63   1.0000      -0.027494        -0.7481
  64   1.0000       0.001813         0.0493
  65   1.0000       0.025025         0.6810
  66   1.0000       0.029374         0.7993
  67   1.0000       0.036973         1.0061
  68   1.0000       0.045522         1.2387
  69   1.0000       0.055791         1.5181
  70   1.0000       0.065738         1.7888
  71   1.0000       0.071427         1.9436
  72   1.0000       0.080161         2.1813
  73   0.0000       0.234442         6.3795
  74   0.0000       0.238718         6.4958
  75   0.0000       0.247694         6.7401
  76   0.0000       0.249394         6.7864
  77   0.0000       0.258614         7.0372

                 SPIN DOWN ORBITALS
  NO   OCC          E(Eh)            E(eV)
   0   1.0000    -196.606901     -5349.9458
   1   1.0000     -88.563334     -2409.9308
   2   1.0000     -88.561827     -2409.8898
   3   1.0000     -88.561755     -2409.8879
   4   1.0000     -88.558289     -2409.7936
   5   1.0000     -21.967233      -597.7588
   6   1.0000     -18.830882      -512.4144
   7   1.0000     -18.484755      -502.9957
   8   1.0000     -18.466845      -502.5084
   9   1.0000     -18.466356      -502.4951
  10   1.0000      -9.946915      -270.6693
  11   1.0000      -9.939773      -270.4750
  12   1.0000      -9.934322      -270.3266
  13   1.0000      -9.934278      -270.3254
  14   1.0000      -9.932122      -270.2668
  15   1.0000      -9.924103      -270.0486
  16   1.0000      -7.616235      -207.2483
  17   1.0000      -7.615926      -207.2399
  18   1.0000      -7.614979      -207.2141
  19   1.0000      -7.612575      -207.1487
  20   1.0000      -5.581956      -151.8927
  21   1.0000      -5.581125      -151.8701
  22   1.0000      -5.580610      -151.8561
  23   1.0000      -5.577841      -151.7808
  24   1.0000      -5.575334      -151.7126
  25   1.0000      -5.575174      -151.7082
  26   1.0000      -5.574278      -151.6838
  27   1.0000      -5.573174      -151.6538
  28   1.0000      -5.573133      -151.6527
  29   1.0000      -5.572148      -151.6258
  30   1.0000      -5.571832      -151.6173
  31   1.0000      -5.569209      -151.5459
  32   1.0000      -2.331072       -63.4317
  33   1.0000      -1.400988       -38.1228
  34   1.0000      -1.342469       -36.5304
  35   1.0000      -1.340524       -36.4775
  36   1.0000      -0.597457       -16.2576
  37   1.0000      -0.577576       -15.7166
  38   1.0000      -0.550824       -14.9887
  39   1.0000      -0.468015       -12.7353
  40   1.0000      -0.465980       -12.6800
  41   1.0000      -0.403321       -10.9749
  42   1.0000      -0.388446       -10.5701
  43   1.0000      -0.342684        -9.3249
  44   1.0000      -0.333426        -9.0730
  45   1.0000      -0.297401        -8.0927
  46   1.0000      -0.286020        -7.7830
  47   1.0000      -0.218359        -5.9419
  48   1.0000      -0.214175        -5.8280
  49   1.0000      -0.204440        -5.5631
  50   1.0000      -0.202333        -5.5058
  51   1.0000      -0.164905        -4.4873
  52   1.0000      -0.133894        -3.6434
  53   1.0000      -0.131861        -3.5881
  54   1.0000      -0.119387        -3.2487
  55   1.0000      -0.108316        -2.9474
  56   1.0000      -0.103730        -2.8226
  57   1.0000      -0.071455        -1.9444
  58   1.0000      -0.066608        -1.8125
  59   1.0000      -0.063758        -1.7349
  60   1.0000      -0.054601        -1.4858
  61   1.0000      -0.050585        -1.3765
  62   1.0000      -0.042019        -1.1434
  63   1.0000      -0.026696        -0.7264
  64   1.0000       0.008240         0.2242
  65   1.0000       0.027107         0.7376
  66   1.0000       0.031985         0.8704
  67   1.0000       0.044540         1.2120
  68   1.0000       0.046136         1.2554
  69   1.0000       0.064384         1.7520
  70   1.0000       0.067633         1.8404
  71   1.0000       0.072527         1.9736
  72   0.0000       0.228136         6.2079
  73   0.0000       0.245282         6.6745
  74   0.0000       0.250957         6.8289
  75   0.0000       0.261193         7.1074
  76   0.0000       0.263151         7.1607

MULLIKEN ATOMIC CHARGES AND SPIN POPULATIONS
--------------------------------------------
   0 V :    0.526732    1.178382
   1 S :   -0.424197   -0.000006
   2 S :   -0.350400   -0.031475
   3 S :   -0.409723   -0.028921
   4 S :   -0.391392   -0.021584
   5 O :   -0.539435   -0.129826
   6 C :   -0.270957    0.008621
   7 C :   -0.208678    0.009666
   8 C :   -0.094158    0.004868
   9 H :    0.061718   -0.001016
  10 H :    0.052109    0.002044
  11 H :    0.112225    0.000317
  12 H :   -0.035545   -0.000498
  13 H :    0.101120   -0.000431
  14 H :    0.049732   -0.000826
  15 C :   -0.256904   -0.002422
  16 C :   -0.252921    0.003253
  17 C :   -0.069838    0.008434
  18 H :    0.047693   -0.000050
  19 H :    0.130675   -0.000188
  20 H :    0.015767    0.001604
  21 H :    0.012598    0.000042
  22 H :    0.052933   -0.000564
  23 H :    0.140844    0.000578
Sum of atomic charges         :   -2.0000000

LOEWDIN ATOMIC CHARGES AND SPIN POPULATIONS
-------------------------------------------
   0 V :   -0.222336    1.135533
   1 S :   -0.068887    0.005314
   2 S :   -0.052617   -0.020950
   3 S :   -0.061018   -0.020125
   4 S :   -0.090625   -0.011909
   5 O :   -0.362712   -0.116711
   6 C :   -0.330956    0.006999
   7 C :   -0.289211    0.008950
   8 C :   -0.206836    0.001967
   9 H :    0.043696   -0.000163
  10 H :    0.029480    0.000877
  11 H :    0.065169    0.000207
  12 H :    0.035434    0.000077
  13 H :    0.064156   -0.000311
  14 H :    0.038871   -0.000548
  15 C :   -0.317887    0.002565
  16 C :   -0.325343    0.007085
  17 C :   -0.188751    0.001156
  18 H :    0.028379   -0.000185
  19 H :    0.053812   -0.000603
  20 H :    0.036176    0.000608
  21 H :    0.035042    0.000374
  22 H :    0.030526   -0.000588
  23 H :    0.056439    0.000384

  Mayer bond orders larger than 0.100000
B(  0-V ,  1-S ) :   0.7079 B(  0-V ,  2-S ) :   0.8529 B(  0-V ,  3-S ) :   0.7687
B(  0-V ,  4-S ) :   0.7719 B(  0-V ,  5-O ) :   2.0808 B(  1-S , 15-C ) :   1.0239
B(  2-S ,  6-C ) :   0.9547 B(  3-S , 16-C ) :   1.0220 B(  4-S ,  7-C ) :   1.0615
B(  4-S ,  8-C ) :  -0.1138 B(  6-C ,  8-C ) :   0.9443 B(  6-C , 13-H ) :   1.0057
B(  6-C , 14-H ) :   0.9536 B(  7-C ,  8-C ) :   0.9499 B(  7-C ,  9-H ) :   0.9660
B(  7-C , 10-H ) :   0.9752 B(  8-C , 11-H ) :   0.9405 B(  8-C , 12-H ) :   0.9435
B( 15-C , 17-C ) :   0.8956 B( 15-C , 22-H ) :   0.9683 B( 15-C , 23-H ) :   0.9802
B( 16-C , 17-C ) :   0.9025 B( 16-C , 18-H ) :   0.9632 B( 16-C , 19-H ) :   0.9762
B( 17-C , 20-H ) :   0.9577 B( 17-C , 21-H ) :   0.9595

FINAL SINGLE POINT ENERGY     -2847.669111686560

DIPOLE MOMENT
-------------
                                X             Y             Z
Electronic contribution:      4.91520      -4.00754      -0.36705
Nuclear contribution   :     -5.20863       4.20482       0.55047
                        -----------------------------------------
Total Dipole Moment    :     -0.29343       0.19729       0.18342
                        -----------------------------------------
Magnitude (a.u.)       :      0.39833
Magnitude (Debye)      :      1.01248

Rotational constants in cm-1:     0.027441     0.011716     0.009604
Rotational constants in MHz :   822.672631   351.243074   287.916431

                             ****ORCA TERMINATED NORMALLY****
TOTAL RUN TIME: 0 days 0 hours 14 minutes 23 seconds 646 msec
