                         Program Version 5.0.4 -  RELEASE  -
|  1> ! nofrozencore ReducedPop printbasis
|  2> ! B3LYP TZVP
|  3>
|  4> %basis
|  5> newgto V "CP(PPP)" end
|  6> end
|  7>
|  8> %pal
|  9> nprocs 8
| 10> end
| 11>
| 12> % sym SymThresh 1e-2 end
| 13> * xyz -2 2
| 14> V 0.011762701070617282 -0.46865587063336406 -0.20221177838693488
| 15> S -1.7628600805449053 -1.0694757299078184 1.3419561063657597
| 16> S -1.4981258973256633 0.5113551306982996 -1.5136962468820163
| 17> S 1.4899126921242207 0.1931023174866575 1.9129793883744384
| 18> S 1.8562164862370947 1.1634351586834675 -1.144351873047268
| 19> O 0.6644419003211459 -1.8705082963025508 -0.6971144051430538
| 20> C -0.9124001379034544 1.3600789202033592 -3.0128715268858084
| 21> C 1.5646379376354143 0.9134456916771825 -2.991503147233075
| 22> C 0.19747008917888392 0.47570879141265293 -3.5369820118562094
| 23> H 2.3041610667452015 0.18418420636940674 -3.3427808223952837
| 24> H 1.8083339156152844 1.8689946835127393 -3.4812031786078803
| 25> H -0.021041976186949432 -0.5598040568360482 -3.2433673885616243
| 26> H 0.2681887119616493 0.4947628908095043 -4.646481096606569
| 27> H -0.5467507520864353 2.3684751181417565 -2.7873570859734333
| 28> H -1.7635056583902433 1.4376381905848445 -3.70198117949329
| 29> C -1.7250927774500509 0.18953310351118074 2.694706444355691
| 30> C 0.6100194417605749 -0.7503080115940363 3.2533938300697507
| 31> C -0.7202118726662708 -0.18683529340211993 3.784910782101989
| 32> H 1.3000874600628691 -0.859952552686681 4.104206311949235
| 33> H 0.4104517187778808 -1.7490825026242451 2.860969135031518
| 34> H -0.5311849765259418 0.6903431509975159 4.425582599466534
| 35> H -1.17061618564582 -0.9629679374443578 4.4273583034501724
| 36> H -2.736066637632796 0.2561056612672281 3.116918343227593
| 37> H -1.4756014748212074 1.1618710435159303 2.2668030964079526
| 38> *
| 39>
| 40> % eprnmr
| 41> gtensor true
| 42> Nuclei = all H {aiso,adip,aorb,fgrad,rho}
| 43> Nuclei = all V {aiso,adip,aorb,fgrad,rho}
| 44> end
| 45>
| 46>                          ****END OF INPUT****

CARTESIAN COORDINATES (ANGSTROEM)
---------------------------------
  V      0.011939   -0.469387   -0.202151
  S     -1.762684   -1.070207    1.342017
  S     -1.497950    0.510624   -1.513635
  S      1.490089    0.192371    1.913040
  S      1.856393    1.162704   -1.144291
  O      0.664618   -1.871240   -0.697054
  C     -0.912224    1.359347   -3.012811
  C      1.564814    0.912714   -2.991442
  C      0.197646    0.474977   -3.536921
  H      2.304337    0.183453   -3.342720
  H      1.808510    1.868263   -3.481142
  H     -0.020866   -0.560536   -3.243307
  H      0.268365    0.494031   -4.646420
  H     -0.546574    2.367744   -2.787296
  H     -1.763329    1.436907   -3.701920
  C     -1.724916    0.188802    2.694767
  C      0.610196   -0.751040    3.253455
  C     -0.720036   -0.187567    3.784972
  H      1.300264   -0.860684    4.104267
  H      0.410628   -1.749814    2.861030
  H     -0.531009    0.689612    4.425643
  H     -1.170440   -0.963700    4.427419
  H     -2.735890    0.255374    3.116979
  H     -1.475425    1.161139    2.266864

 Total Charge           Charge          ....   -2
 Multiplicity           Mult            ....    2
 Number of Electrons    NEL             ....  145
 Basis Dimension        Dim             ....  353

ORBITAL ENERGIES
----------------
                 SPIN UP ORBITALS
  NO   OCC          E(Eh)            E(eV)
   0   1.0000    -196.606378     -5349.9315
   1   1.0000     -88.567496     -2410.0441
   2   1.0000     -88.561844     -2409.8903
   3   1.0000     -88.555883     -2409.7281
   4   1.0000     -88.552452     -2409.6347
   5   1.0000     -21.981718      -598.1530
   6   1.0000     -18.820519      -512.1324
   7   1.0000     -18.489356      -503.1210
   8   1.0000     -18.482488      -502.9341
   9   1.0000     -18.482248      -502.9275
  10   1.0000      -9.943199      -270.5682
  11   1.0000      -9.939004      -270.4541
  12   1.0000      -9.938446      -270.4389
  13   1.0000      -9.930819      -270.2313
  14   1.0000      -9.930116      -270.2122
  15   1.0000      -9.927115      -270.1305
  16   1.0000      -7.624739      -207.4797
  17   1.0000      -7.617047      -207.2704
  18   1.0000      -7.608649      -207.0419
  19   1.0000      -7.605477      -206.9555
  20   1.0000      -5.589639      -152.1018
  21   1.0000      -5.583054      -151.9226
  22   1.0000      -5.582266      -151.9012
  23   1.0000      -5.582205      -151.8995
  24   1.0000      -5.576059      -151.7323
  25   1.0000      -5.574350      -151.6858
  26   1.0000      -5.574300      -151.6844
  27   1.0000      -5.570837      -151.5902
  28   1.0000      -5.568051      -151.5144
  29   1.0000      -5.565194      -151.4366
  30   1.0000      -5.564841      -151.4270
  31   1.0000      -5.562376      -151.3599
  32   1.0000      -2.374803       -64.6217
  33   1.0000      -1.415497       -38.5176
  34   1.0000      -1.404146       -38.2088
  35   1.0000      -1.402949       -38.1762
  36   1.0000      -0.582188       -15.8422
  37   1.0000      -0.560677       -15.2568
  38   1.0000      -0.548907       -14.9365
  39   1.0000      -0.472437       -12.8557
  40   1.0000      -0.462310       -12.5801
  41   1.0000      -0.401507       -10.9256
  42   1.0000      -0.394510       -10.7352
  43   1.0000      -0.339782        -9.2459
  44   1.0000      -0.332128        -9.0377
  45   1.0000      -0.306105        -8.3295
  46   1.0000      -0.282723        -7.6933
  47   1.0000      -0.215902        -5.8750
  48   1.0000      -0.212510        -5.7827
  49   1.0000      -0.200677        -5.4607
  50   1.0000      -0.195904        -5.3308
  51   1.0000      -0.167369        -4.5543
  52   1.0000      -0.131620        -3.5816
  53   1.0000      -0.129137        -3.5140
  54   1.0000      -0.111325        -3.0293
  55   1.0000      -0.108375        -2.9490
  56   1.0000      -0.105372        -2.8673
  57   1.0000      -0.089411        -2.4330
  58   1.0000      -0.068144        -1.8543
  59   1.0000      -0.061242        -1.6665
  60   1.0000      -0.056393        -1.5345
  61   1.0000      -0.039281        -1.0689
  62   1.0000      -0.034903        -0.9497
  63   1.0000      -0.031737        -0.8636
  64   1.0000      -0.004122        -0.1122
  65   1.0000       0.018333         0.4989
  66   1.0000       0.034688         0.9439
  67   1.0000       0.036050         0.9810
  68   1.0000       0.050557         1.3757
  69   1.0000       0.053603         1.4586
  70   1.0000       0.067607         1.8397
  71   1.0000       0.078977         2.1491
  72   1.0000       0.083496         2.2720
  73   0.0000       0.227505         6.1907
  74   0.0000       0.237345         6.4585
  75   0.0000       0.248556         6.7636
  76   0.0000       0.255939         6.9644
  77   0.0000       0.258853         7.0437

                 SPIN DOWN ORBITALS
  NO   OCC          E(Eh)            E(eV)
   0   1.0000    -196.606497     -5349.9348
   1   1.0000     -88.567631     -2410.0478
   2   1.0000     -88.561738     -2409.8874
   3   1.0000     -88.556052     -2409.7327
   4   1.0000     -88.552624     -2409.6394
   5   1.0000     -21.966849      -597.7484
   6   1.0000     -18.824077      -512.2292
   7   1.0000     -18.484111      -502.9782
   8   1.0000     -18.466547      -502.5003
   9   1.0000     -18.466139      -502.4892
  10   1.0000      -9.942832      -270.5582
  11   1.0000      -9.938915      -270.4516
  12   1.0000      -9.938347      -270.4362
  13   1.0000      -9.930759      -270.2297
  14   1.0000      -9.930142      -270.2129
  15   1.0000      -9.927046      -270.1287
  16   1.0000      -7.624870      -207.4833
  17   1.0000      -7.616949      -207.2677
  18   1.0000      -7.608810      -207.0463
  19   1.0000      -7.605641      -206.9600
  20   1.0000      -5.589844      -152.1074
  21   1.0000      -5.583327      -151.9300
  22   1.0000      -5.582354      -151.9036
  23   1.0000      -5.582187      -151.8990
  24   1.0000      -5.576297      -151.7388
  25   1.0000      -5.574478      -151.6893
  26   1.0000      -5.573621      -151.6659
  27   1.0000      -5.570959      -151.5935
  28   1.0000      -5.568608      -151.5295
  29   1.0000      -5.565361      -151.4412
  30   1.0000      -5.565247      -151.4381
  31   1.0000      -5.562485      -151.3629
  32   1.0000      -2.330360       -63.4123
  33   1.0000      -1.396136       -37.9908
  34   1.0000      -1.342968       -36.5440
  35   1.0000      -1.341634       -36.5077
  36   1.0000      -0.590006       -16.0549
  37   1.0000      -0.560476       -15.2513
  38   1.0000      -0.548717       -14.9314
  39   1.0000      -0.472243       -12.8504
  40   1.0000      -0.462159       -12.5760
  41   1.0000      -0.401485       -10.9250
  42   1.0000      -0.394575       -10.7369
  43   1.0000      -0.339734        -9.2446
  44   1.0000      -0.332157        -9.0384
  45   1.0000      -0.306352        -8.3362
  46   1.0000      -0.282824        -7.6960
  47   1.0000      -0.215765        -5.8713
  48   1.0000      -0.212462        -5.7814
  49   1.0000      -0.200430        -5.4540
  50   1.0000      -0.195478        -5.3192
  51   1.0000      -0.167228        -4.5505
  52   1.0000      -0.131463        -3.5773
  53   1.0000      -0.128905        -3.5077
  54   1.0000      -0.111175        -3.0252
  55   1.0000      -0.107941        -2.9372
  56   1.0000      -0.105304        -2.8655
  57   1.0000      -0.087371        -2.3775
  58   1.0000      -0.066069        -1.7978
  59   1.0000      -0.060499        -1.6463
  60   1.0000      -0.055956        -1.5226
  61   1.0000      -0.040580        -1.1042
  62   1.0000      -0.037422        -1.0183
  63   1.0000      -0.031706        -0.8628
  64   1.0000       0.003574         0.0973
  65   1.0000       0.019971         0.5434
  66   1.0000       0.035330         0.9614
  67   1.0000       0.048382         1.3165
  68   1.0000       0.052407         1.4261
  69   1.0000       0.059772         1.6265
  70   1.0000       0.067328         1.8321
  71   1.0000       0.081290         2.2120
  72   0.0000       0.229596         6.2476
  73   0.0000       0.244213         6.6454
  74   0.0000       0.254418         6.9231
  75   0.0000       0.256171         6.9708
  76   0.0000       0.260748         7.0953

MULLIKEN ATOMIC CHARGES AND SPIN POPULATIONS
--------------------------------------------
   0 V :    0.504974    1.179033
   1 S :   -0.411588    0.014101
   2 S :   -0.304400   -0.018050
   3 S :   -0.440577   -0.032660
   4 S :   -0.410608   -0.033420
   5 O :   -0.550839   -0.137460
   6 C :   -0.206881    0.009366
   7 C :   -0.247706    0.003666
   8 C :   -0.196754    0.004169
   9 H :    0.076880   -0.000068
  10 H :    0.045919    0.001687
  11 H :    0.160266    0.000288
  12 H :    0.003387    0.000140
  13 H :    0.100665    0.000424
  14 H :    0.059421    0.000594
  15 C :   -0.232788   -0.001093
  16 C :   -0.275571   -0.001494
  17 C :   -0.067918    0.009183
  18 H :    0.042188   -0.000948
  19 H :    0.135941    0.000992
  20 H :    0.013026    0.003166
  21 H :    0.013455   -0.000612
  22 H :    0.054640   -0.000653
  23 H :    0.134869   -0.000352
Sum of atomic charges         :   -2.0000000

LOEWDIN ATOMIC CHARGES AND SPIN POPULATIONS
-------------------------------------------
   0 V :   -0.226370    1.133990
   1 S :   -0.033315    0.019270
   2 S :    0.078128   -0.006604
   3 S :   -0.126034   -0.025851
   4 S :   -0.120724   -0.025427
   5 O :   -0.393217   -0.124404
   6 C :   -0.316774    0.014266
   7 C :   -0.317115    0.003948
   8 C :   -0.193881    0.000368
   9 H :    0.035844   -0.000038
  10 H :    0.027269    0.000582
  11 H :    0.069030    0.000591
  12 H :    0.029802    0.000194
  13 H :    0.050191    0.000373
  14 H :    0.030716   -0.000589
  15 C :   -0.306293    0.004157
  16 C :   -0.336366    0.003250
  17 C :   -0.189724    0.001879
  18 H :    0.025763   -0.000318
  19 H :    0.052074   -0.000396
  20 H :    0.034736    0.001215
  21 H :    0.036090    0.000145
  22 H :    0.032089   -0.000644
  23 H :    0.058081    0.000045

  Mayer bond orders larger than 0.100000
B(  0-V ,  1-S ) :   0.7947 B(  0-V ,  2-S ) :   1.0116 B(  0-V ,  3-S ) :   0.6714
B(  0-V ,  4-S ) :   0.7003 B(  0-V ,  5-O ) :   2.0515 B(  1-S , 15-C ) :   0.9821
B(  2-S ,  6-C ) :   0.9332 B(  3-S , 16-C ) :   1.0814 B(  4-S ,  7-C ) :   1.0750
B(  6-C ,  8-C ) :   0.8892 B(  6-C , 13-H ) :   0.9599 B(  6-C , 14-H ) :   0.9666
B(  7-C ,  8-C ) :   0.9146 B(  7-C ,  9-H ) :   0.9801 B(  7-C , 10-H ) :   0.9695
B(  8-C , 11-H ) :   0.9969 B(  8-C , 12-H ) :   0.9298 B( 15-C , 17-C ) :   0.9037
B( 15-C , 22-H ) :   0.9703 B( 15-C , 23-H ) :   0.9778 B( 16-C , 17-C ) :   0.8919
B( 16-C , 18-H ) :   0.9622 B( 16-C , 19-H ) :   0.9774 B( 17-C , 20-H ) :   0.9515
B( 17-C , 21-H ) :   0.9648

FINAL SINGLE POINT ENERGY     -2847.689488709004

DIPOLE MOMENT
-------------
                                X             Y             Z
Electronic contribution:      1.20277      -5.75940      -1.37676
Nuclear contribution   :     -2.06628       6.17413       0.90649
                        -----------------------------------------
Total Dipole Moment    :     -0.86351       0.41473      -0.47027
                        -----------------------------------------
Magnitude (a.u.)       :      1.06714
Magnitude (Debye)      :      2.71246

Rotational constants in cm-1:     0.027244     0.011753     0.009642
Rotational constants in MHz :   816.756328   352.346999   289.070126

                             ****ORCA TERMINATED NORMALLY****
TOTAL RUN TIME: 0 days 0 hours 9 minutes 44 seconds 442 msec
