                         Program Version 5.0.4 -  RELEASE  -
|  1> ! nofrozencore ReducedPop printbasis
|  2> ! B3LYP TZVP
|  3>
|  4> %basis
|  5> newgto V "CP(PPP)" end
|  6> end
|  7>
|  8> %pal
|  9> nprocs 8
| 10> end
| 11>
| 12> % sym SymThresh 1e-2 end
| 13> * xyz -2 2
| 14> V 0.18880390946392475 -0.16818391906082134 0.42379363059569597
| 15> S -1.197321585618445 -2.145868138815361 0.07795734720493766
| 16> S 1.2843304077340876 -1.0395765265745844 -1.5623564562092458
| 17> S -1.8500137337707323 1.198954633490766 0.8849397275186021
| 18> S 1.1315053231418002 2.173650778726527 -0.1306613645012678
| 19> O 1.0271047671034297 -0.5051716972098396 1.7495110624676082
| 20> C 2.7380044789707862 0.04058219316143282 -1.9962741083892064
| 21> C 2.9705218828229762 1.9824588568486023 -0.28429115294425666
| 22> C 3.50427402218973 0.6400603573442231 -0.8093192218003934
| 23> H 3.430701443235444 2.1729552535934733 0.6934612241450595
| 24> H 3.307598448379978 2.7839606413507076 -0.9559750436504707
| 25> H 3.506298772079548 -0.09346222638762966 0.003141098871472098
| 26> H 4.55988194859031 0.7964508724932334 -1.1017430730192976
| 27> H 2.399903585475062 0.8476400742164066 -2.656308379736876
| 28> H 3.4145054179838232 -0.602140465435164 -2.5735717464088
| 29> C -2.7469859164056523 -1.3444872276289288 -0.5997084039887026
| 30> C -3.1375533885503293 0.06199040383641863 1.5233717979149237
| 31> C -3.7714226077070263 -0.645666841304893 0.33922277896051545
| 32> H -3.886164467170977 0.6404077357865977 2.0788145567614738
| 33> H -2.689646813915268 -0.6678229668983516 2.202974173307652
| 34> H -4.305120274215996 0.11505603047515559 -0.28676760459069883
| 35> H -4.546311724528819 -1.3798888143872077 0.6943917369315853
| 36> H -3.280500431240841 -2.122664259133001 -1.1582284256868354
| 37> H -2.40327495960267 -0.6120004001309133 -1.3296154157768283
| 38> *
| 39>
| 40> % eprnmr
| 41> gtensor true
| 42> Nuclei = all H {aiso,adip,aorb,fgrad,rho}
| 43> Nuclei = all V {aiso,adip,aorb,fgrad,rho}
| 44> end
| 45>
| 46>                          ****END OF INPUT****

CARTESIAN COORDINATES (ANGSTROEM)
---------------------------------
  V      0.188856   -0.168441    0.424502
  S     -1.197270   -2.146125    0.078665
  S      1.284382   -1.039833   -1.561648
  S     -1.849962    1.198698    0.885648
  S      1.131557    2.173394   -0.129953
  O      1.027156   -0.505428    1.750219
  C      2.738056    0.040326   -1.995566
  C      2.970574    1.982202   -0.283583
  C      3.504326    0.639804   -0.808611
  H      3.430753    2.172699    0.694169
  H      3.307650    2.783704   -0.955267
  H      3.506350   -0.093719    0.003849
  H      4.559934    0.796194   -1.101035
  H      2.399955    0.847383   -2.655600
  H      3.414557   -0.602397   -2.572864
  C     -2.746934   -1.344744   -0.599000
  C     -3.137502    0.061734    1.524080
  C     -3.771371   -0.645924    0.339931
  H     -3.886113    0.640151    2.079523
  H     -2.689595   -0.668080    2.203682
  H     -4.305069    0.114799   -0.286059
  H     -4.546260   -1.380145    0.695100
  H     -3.280449   -2.122921   -1.157520
  H     -2.403223   -0.612257   -1.328907

 Total Charge           Charge          ....   -2
 Multiplicity           Mult            ....    2
 Number of Electrons    NEL             ....  145
 Basis Dimension        Dim             ....  353

ORBITAL ENERGIES
----------------
                 SPIN UP ORBITALS
  NO   OCC          E(Eh)            E(eV)
   0   1.0000    -196.606973     -5349.9477
   1   1.0000     -88.564309     -2409.9574
   2   1.0000     -88.562028     -2409.8953
   3   1.0000     -88.559820     -2409.8352
   4   1.0000     -88.553920     -2409.6747
   5   1.0000     -21.982261      -598.1677
   6   1.0000     -18.824452      -512.2394
   7   1.0000     -18.490044      -503.1397
   8   1.0000     -18.482886      -502.9449
   9   1.0000     -18.482779      -502.9420
  10   1.0000      -9.939769      -270.4749
  11   1.0000      -9.938817      -270.4490
  12   1.0000      -9.937567      -270.4149
  13   1.0000      -9.937215      -270.4054
  14   1.0000      -9.935359      -270.3549
  15   1.0000      -9.928761      -270.1753
  16   1.0000      -7.618542      -207.3111
  17   1.0000      -7.615866      -207.2383
  18   1.0000      -7.614521      -207.2017
  19   1.0000      -7.607672      -207.0153
  20   1.0000      -5.583846      -151.9442
  21   1.0000      -5.581256      -151.8737
  22   1.0000      -5.579717      -151.8318
  23   1.0000      -5.577540      -151.7726
  24   1.0000      -5.575765      -151.7243
  25   1.0000      -5.574628      -151.6934
  26   1.0000      -5.573519      -151.6632
  27   1.0000      -5.573202      -151.6545
  28   1.0000      -5.573113      -151.6521
  29   1.0000      -5.571655      -151.6124
  30   1.0000      -5.566864      -151.4821
  31   1.0000      -5.564490      -151.4175
  32   1.0000      -2.375000       -64.6270
  33   1.0000      -1.417562       -38.5738
  34   1.0000      -1.403241       -38.1841
  35   1.0000      -1.402616       -38.1671
  36   1.0000      -0.586751       -15.9663
  37   1.0000      -0.552519       -15.0348
  38   1.0000      -0.547492       -14.8980
  39   1.0000      -0.468450       -12.7472
  40   1.0000      -0.466567       -12.6959
  41   1.0000      -0.403819       -10.9885
  42   1.0000      -0.394937       -10.7468
  43   1.0000      -0.340108        -9.2548
  44   1.0000      -0.327043        -8.8993
  45   1.0000      -0.300214        -8.1692
  46   1.0000      -0.288243        -7.8435
  47   1.0000      -0.213173        -5.8007
  48   1.0000      -0.204867        -5.5747
  49   1.0000      -0.204101        -5.5539
  50   1.0000      -0.196594        -5.3496
  51   1.0000      -0.158367        -4.3094
  52   1.0000      -0.139055        -3.7839
  53   1.0000      -0.131507        -3.5785
  54   1.0000      -0.110058        -2.9948
  55   1.0000      -0.107196        -2.9170
  56   1.0000      -0.104520        -2.8441
  57   1.0000      -0.078236        -2.1289
  58   1.0000      -0.072416        -1.9705
  59   1.0000      -0.063305        -1.7226
  60   1.0000      -0.054981        -1.4961
  61   1.0000      -0.046279        -1.2593
  62   1.0000      -0.041613        -1.1324
  63   1.0000      -0.035467        -0.9651
  64   1.0000      -0.000839        -0.0228
  65   1.0000       0.024249         0.6598
  66   1.0000       0.031796         0.8652
  67   1.0000       0.036789         1.0011
  68   1.0000       0.047125         1.2823
  69   1.0000       0.052473         1.4279
  70   1.0000       0.064332         1.7506
  71   1.0000       0.075139         2.0446
  72   1.0000       0.080716         2.1964
  73   0.0000       0.233599         6.3566
  74   0.0000       0.245907         6.6915
  75   0.0000       0.249335         6.7847
  76   0.0000       0.253165         6.8890
  77   0.0000       0.255892         6.9632

                 SPIN DOWN ORBITALS
  NO   OCC          E(Eh)            E(eV)
   0   1.0000    -196.607116     -5349.9516
   1   1.0000     -88.564277     -2409.9565
   2   1.0000     -88.562194     -2409.8998
   3   1.0000     -88.559970     -2409.8393
   4   1.0000     -88.554044     -2409.6780
   5   1.0000     -21.967195      -597.7578
   6   1.0000     -18.827942      -512.3343
   7   1.0000     -18.484828      -502.9977
   8   1.0000     -18.466780      -502.5066
   9   1.0000     -18.466334      -502.4945
  10   1.0000      -9.939641      -270.4714
  11   1.0000      -9.938770      -270.4477
  12   1.0000      -9.937462      -270.4121
  13   1.0000      -9.937038      -270.4006
  14   1.0000      -9.935246      -270.3518
  15   1.0000      -9.928784      -270.1759
  16   1.0000      -7.618512      -207.3102
  17   1.0000      -7.616029      -207.2427
  18   1.0000      -7.614662      -207.2055
  19   1.0000      -7.607790      -207.0185
  20   1.0000      -5.583872      -151.9449
  21   1.0000      -5.581411      -151.8779
  22   1.0000      -5.579860      -151.8357
  23   1.0000      -5.577866      -151.7814
  24   1.0000      -5.575277      -151.7110
  25   1.0000      -5.575068      -151.7053
  26   1.0000      -5.573931      -151.6744
  27   1.0000      -5.573321      -151.6578
  28   1.0000      -5.573222      -151.6551
  29   1.0000      -5.571753      -151.6151
  30   1.0000      -5.567309      -151.4942
  31   1.0000      -5.564466      -151.4168
  32   1.0000      -2.330037       -63.4035
  33   1.0000      -1.398485       -38.0547
  34   1.0000      -1.341513       -36.5044
  35   1.0000      -1.339774       -36.4571
  36   1.0000      -0.594246       -16.1702
  37   1.0000      -0.552337       -15.0299
  38   1.0000      -0.547449       -14.8969
  39   1.0000      -0.468273       -12.7424
  40   1.0000      -0.466546       -12.6954
  41   1.0000      -0.403779       -10.9874
  42   1.0000      -0.395152       -10.7526
  43   1.0000      -0.340210        -9.2576
  44   1.0000      -0.327485        -8.9113
  45   1.0000      -0.300240        -8.1700
  46   1.0000      -0.288225        -7.8430
  47   1.0000      -0.213085        -5.7984
  48   1.0000      -0.204733        -5.5711
  49   1.0000      -0.204077        -5.5532
  50   1.0000      -0.196482        -5.3465
  51   1.0000      -0.158288        -4.3072
  52   1.0000      -0.138856        -3.7785
  53   1.0000      -0.131192        -3.5699
  54   1.0000      -0.110075        -2.9953
  55   1.0000      -0.107067        -2.9134
  56   1.0000      -0.104337        -2.8392
  57   1.0000      -0.077442        -2.1073
  58   1.0000      -0.069753        -1.8981
  59   1.0000      -0.062372        -1.6972
  60   1.0000      -0.054853        -1.4926
  61   1.0000      -0.047114        -1.2820
  62   1.0000      -0.043032        -1.1710
  63   1.0000      -0.036433        -0.9914
  64   1.0000       0.003769         0.1026
  65   1.0000       0.026400         0.7184
  66   1.0000       0.033614         0.9147
  67   1.0000       0.046539         1.2664
  68   1.0000       0.049379         1.3437
  69   1.0000       0.058415         1.5896
  70   1.0000       0.065956         1.7948
  71   1.0000       0.077817         2.1175
  72   0.0000       0.234491         6.3808
  73   0.0000       0.249564         6.7910
  74   0.0000       0.256264         6.9733
  75   0.0000       0.259173         7.0525
  76   0.0000       0.262863         7.1529

MULLIKEN ATOMIC CHARGES AND SPIN POPULATIONS
--------------------------------------------
   0 V :    0.525712    1.192331
   1 S :   -0.398380   -0.000190
   2 S :   -0.352113   -0.031251
   3 S :   -0.406626   -0.028008
   4 S :   -0.412428   -0.024864
   5 O :   -0.547666   -0.134798
   6 C :   -0.236437    0.004708
   7 C :   -0.235958    0.004962
   8 C :   -0.148878    0.001923
   9 H :    0.073082   -0.000581
  10 H :    0.048485    0.001457
  11 H :    0.128255    0.000539
  12 H :    0.004384    0.000029
  13 H :    0.090464    0.000049
  14 H :    0.047788   -0.000111
  15 C :   -0.275504    0.000935
  16 C :   -0.239763    0.004218
  17 C :   -0.070239    0.006385
  18 H :    0.053290    0.000185
  19 H :    0.124594   -0.000380
  20 H :    0.029581    0.001104
  21 H :   -0.001740    0.001120
  22 H :    0.051781   -0.000332
  23 H :    0.148314    0.000570
Sum of atomic charges         :   -2.0000000

LOEWDIN ATOMIC CHARGES AND SPIN POPULATIONS
-------------------------------------------
   0 V :   -0.209947    1.148449
   1 S :   -0.044190    0.006606
   2 S :   -0.033369   -0.020932
   3 S :   -0.052285   -0.019198
   4 S :   -0.103036   -0.017005
   5 O :   -0.376885   -0.121557
   6 C :   -0.324591    0.004413
   7 C :   -0.317172    0.004912
   8 C :   -0.185692    0.000160
   9 H :    0.035821    0.000001
  10 H :    0.027790    0.000344
  11 H :    0.068507    0.000213
  12 H :    0.031610    0.000130
  13 H :    0.044886    0.000013
  14 H :    0.028105   -0.000609
  15 C :   -0.320284    0.004849
  16 C :   -0.321799    0.007332
  17 C :   -0.192536    0.001179
  18 H :    0.029690   -0.000106
  19 H :    0.054529   -0.000572
  20 H :    0.045578    0.000491
  21 H :    0.027606    0.000623
  22 H :    0.030587   -0.000422
  23 H :    0.057076    0.000684

  Mayer bond orders larger than 0.100000
B(  0-V ,  1-S ) :   0.7721 B(  0-V ,  2-S ) :   0.8725 B(  0-V ,  3-S ) :   0.7591
B(  0-V ,  4-S ) :   0.7132 B(  0-V ,  5-O ) :   2.0728 B(  1-S , 15-C ) :   1.0157
B(  2-S ,  6-C ) :   1.0001 B(  3-S , 16-C ) :   1.0130 B(  4-S ,  7-C ) :   1.0974
B(  6-C ,  8-C ) :   0.9093 B(  6-C , 13-H ) :   0.9730 B(  6-C , 14-H ) :   0.9703
B(  7-C ,  8-C ) :   0.9191 B(  7-C ,  9-H ) :   0.9775 B(  7-C , 10-H ) :   0.9699
B(  8-C , 11-H ) :   0.9877 B(  8-C , 12-H ) :   0.9487 B( 15-C , 17-C ) :   0.8724
B( 15-C , 22-H ) :   0.9657 B( 15-C , 23-H ) :   0.9864 B( 16-C , 17-C ) :   0.9121
B( 16-C , 18-H ) :   0.9654 B( 16-C , 19-H ) :   0.9717 B( 17-C , 20-H ) :   0.9733
B( 17-C , 21-H ) :   0.9368

FINAL SINGLE POINT ENERGY     -2847.710458791376

DIPOLE MOMENT
-------------
                                X             Y             Z
Electronic contribution:      1.25889      -2.59899       5.63955
Nuclear contribution   :     -1.30084       2.52540      -6.02585
                        -----------------------------------------
Total Dipole Moment    :     -0.04195      -0.07359      -0.38630
                        -----------------------------------------
Magnitude (a.u.)       :      0.39548
Magnitude (Debye)      :      1.00522

Rotational constants in cm-1:     0.027067     0.011703     0.009572
Rotational constants in MHz :   811.437146   350.855060   286.953036

                             ****ORCA TERMINATED NORMALLY****
TOTAL RUN TIME: 0 days 0 hours 9 minutes 32 seconds 301 msec
