                         Program Version 5.0.4 -  RELEASE  -
|  1> ! nofrozencore ReducedPop printbasis
|  2> ! B3LYP TZVP
|  3>
|  4> %basis
|  5> newgto V "CP(PPP)" end
|  6> end
|  7>
|  8> %pal
|  9> nprocs 4
| 10> end
| 11>
| 12> % sym SymThresh 1e-2 end
| 13> * xyz -2 2
| 14> V -0.29382463141295323 0.10984718562096388 -0.3792360513192221
| 15> S 1.0661871895952146 2.2308762995188647 -0.20066759509715332
| 16> S 1.8843626287342392 -0.8204174318590978 -0.9932410683582866
| 17> S -1.4489625805279345 0.7594871481687878 1.7151874246441026
| 18> S -1.0481536404548668 -2.1492188801259946 0.34281281094524113
| 19> O -1.168113801603506 0.4140435987684557 -1.6873317654753826
| 20> C 1.6852173295012178 -2.623029846512091 -1.3411310808856616
| 21> C -0.8274272821688439 -3.2984121935587636 -1.0863882393902962
| 22> C 0.34634379521852005 -2.9754751986455994 -2.0507675911032837
| 23> H -1.7626162044757296 -3.3889084551592803 -1.654144377826347
| 24> H -0.6293704604042994 -4.281085130747488 -0.6365523871059185
| 25> H 0.07215467126502727 -2.1447672322355027 -2.70617738519124
| 26> H 0.4901394443659679 -3.8611967177242987 -2.695866508680414
| 27> H 1.7242669065580425 -3.159293603987284 -0.3863060191710715
| 28> H 2.544996560157194 -2.944937753808539 -1.9421208687811289
| 29> C 1.424999532673668 2.4123322779303358 1.545029489753276
| 30> C -1.3942844438310311 2.5312665592697674 1.8956448678018218
| 31> C 0.11941056932008486 3.100957897141331 2.380510087074715
| 32> H -2.3046004435461325 3.02620700778135 2.3650007736087573
| 33> H -1.378438442749753 2.8256869406706535 0.8081406672225832
| 34> H 0.30611110631147925 2.892586256505798 3.4495081507941876
| 35> H 0.09030297974555339 4.198876317324366 2.26195805723993
| 36> H 2.467361359274979 2.7569124104124954 1.8467679461024047
| 37> H 1.3356307035928676 1.3367943712889168 1.8709017165111297
| 38> *
| 39>
| 40> % eprnmr
| 41> gtensor true
| 42> Nuclei = all H {aiso,adip,aorb,fgrad,rho}
| 43> Nuclei = all V {aiso,adip,aorb,fgrad,rho}
| 44> end
| 45>
| 46>                          ****END OF INPUT****

CARTESIAN COORDINATES (ANGSTROEM)
---------------------------------
  V     -0.294278    0.110271   -0.379666
  S      1.065734    2.231300   -0.201098
  S      1.883909   -0.819994   -0.993671
  S     -1.449416    0.759911    1.714757
  S     -1.048607   -2.148795    0.342383
  O     -1.168567    0.414467   -1.687762
  C      1.684764   -2.622606   -1.341561
  C     -0.827880   -3.297988   -1.086818
  C      0.345891   -2.975051   -2.051198
  H     -1.763069   -3.388485   -1.654575
  H     -0.629824   -4.280661   -0.636983
  H      0.071701   -2.144344   -2.706608
  H      0.489686   -3.860773   -2.696297
  H      1.723814   -3.158870   -0.386736
  H      2.544543   -2.944514   -1.942551
  C      1.424546    2.412756    1.544599
  C     -1.394738    2.531690    1.895215
  C      0.118957    3.101382    2.380080
  H     -2.305054    3.026631    2.364571
  H     -1.378892    2.826111    0.807710
  H      0.305658    2.893010    3.449078
  H      0.089850    4.199300    2.261528
  H      2.466908    2.757336    1.846338
  H      1.335178    1.337218    1.870472

 Total Charge           Charge          ....   -2
 Multiplicity           Mult            ....    2
 Number of Electrons    NEL             ....  145
 Basis Dimension        Dim             ....  353

ORBITAL ENERGIES
----------------
                 SPIN UP ORBITALS
  NO   OCC          E(Eh)            E(eV)
   0   1.0000    -196.609392     -5350.0135
   1   1.0000     -88.562220     -2409.9005
   2   1.0000     -88.561383     -2409.8777
   3   1.0000     -88.560969     -2409.8665
   4   1.0000     -88.558623     -2409.8026
   5   1.0000     -21.984696      -598.2340
   6   1.0000     -18.827861      -512.3321
   7   1.0000     -18.492500      -503.2065
   8   1.0000     -18.485327      -503.0113
   9   1.0000     -18.485193      -503.0077
  10   1.0000      -9.950785      -270.7746
  11   1.0000      -9.949312      -270.7346
  12   1.0000      -9.947392      -270.6823
  13   1.0000      -9.946353      -270.6540
  14   1.0000      -9.938431      -270.4384
  15   1.0000      -9.932983      -270.2902
  16   1.0000      -7.616747      -207.2622
  17   1.0000      -7.616212      -207.2477
  18   1.0000      -7.615346      -207.2241
  19   1.0000      -7.613896      -207.1847
  20   1.0000      -5.581651      -151.8844
  21   1.0000      -5.581582      -151.8826
  22   1.0000      -5.580757      -151.8601
  23   1.0000      -5.578905      -151.8097
  24   1.0000      -5.575613      -151.7201
  25   1.0000      -5.575037      -151.7045
  26   1.0000      -5.574391      -151.6869
  27   1.0000      -5.574148      -151.6803
  28   1.0000      -5.573417      -151.6604
  29   1.0000      -5.572957      -151.6479
  30   1.0000      -5.572282      -151.6295
  31   1.0000      -5.571134      -151.5983
  32   1.0000      -2.377559       -64.6967
  33   1.0000      -1.420421       -38.6516
  34   1.0000      -1.405698       -38.2510
  35   1.0000      -1.405143       -38.2359
  36   1.0000      -0.590274       -16.0622
  37   1.0000      -0.548362       -14.9217
  38   1.0000      -0.523300       -14.2397
  39   1.0000      -0.471754       -12.8371
  40   1.0000      -0.469741       -12.7823
  41   1.0000      -0.406226       -11.0540
  42   1.0000      -0.399578       -10.8731
  43   1.0000      -0.331899        -9.0314
  44   1.0000      -0.321845        -8.7578
  45   1.0000      -0.307210        -8.3596
  46   1.0000      -0.287990        -7.8366
  47   1.0000      -0.207342        -5.6421
  48   1.0000      -0.196948        -5.3592
  49   1.0000      -0.188229        -5.1220
  50   1.0000      -0.186022        -5.0619
  51   1.0000      -0.160311        -4.3623
  52   1.0000      -0.135208        -3.6792
  53   1.0000      -0.115744        -3.1495
  54   1.0000      -0.115120        -3.1326
  55   1.0000      -0.108368        -2.9489
  56   1.0000      -0.106232        -2.8907
  57   1.0000      -0.087231        -2.3737
  58   1.0000      -0.074034        -2.0146
  59   1.0000      -0.066489        -1.8093
  60   1.0000      -0.061732        -1.6798
  61   1.0000      -0.050235        -1.3670
  62   1.0000      -0.045430        -1.2362
  63   1.0000      -0.041628        -1.1328
  64   1.0000       0.000650         0.0177
  65   1.0000       0.028666         0.7800
  66   1.0000       0.030480         0.8294
  67   1.0000       0.035298         0.9605
  68   1.0000       0.047757         1.2995
  69   1.0000       0.053914         1.4671
  70   1.0000       0.064989         1.7684
  71   1.0000       0.071505         1.9458
  72   1.0000       0.080427         2.1885
  73   0.0000       0.231852         6.3090
  74   0.0000       0.243080         6.6145
  75   0.0000       0.246899         6.7185
  76   0.0000       0.251061         6.8317
  77   0.0000       0.257342         7.0026

                 SPIN DOWN ORBITALS
  NO   OCC          E(Eh)            E(eV)
   0   1.0000    -196.609532     -5350.0174
   1   1.0000     -88.562395     -2409.9053
   2   1.0000     -88.561535     -2409.8819
   3   1.0000     -88.561073     -2409.8693
   4   1.0000     -88.558573     -2409.8013
   5   1.0000     -21.969666      -597.8250
   6   1.0000     -18.831325      -512.4264
   7   1.0000     -18.487301      -503.0650
   8   1.0000     -18.469243      -502.5737
   9   1.0000     -18.468799      -502.5616
  10   1.0000      -9.950752      -270.7737
  11   1.0000      -9.949157      -270.7303
  12   1.0000      -9.947290      -270.6795
  13   1.0000      -9.946171      -270.6491
  14   1.0000      -9.938306      -270.4351
  15   1.0000      -9.933004      -270.2908
  16   1.0000      -7.616891      -207.2662
  17   1.0000      -7.616382      -207.2523
  18   1.0000      -7.615444      -207.2268
  19   1.0000      -7.613852      -207.1834
  20   1.0000      -5.581797      -151.8884
  21   1.0000      -5.581745      -151.8870
  22   1.0000      -5.580878      -151.8634
  23   1.0000      -5.578908      -151.8098
  24   1.0000      -5.576009      -151.7309
  25   1.0000      -5.575487      -151.7167
  26   1.0000      -5.574803      -151.6981
  27   1.0000      -5.574263      -151.6834
  28   1.0000      -5.573548      -151.6640
  29   1.0000      -5.573272      -151.6564
  30   1.0000      -5.572201      -151.6273
  31   1.0000      -5.570603      -151.5838
  32   1.0000      -2.332706       -63.4762
  33   1.0000      -1.401429       -38.1348
  34   1.0000      -1.344175       -36.5769
  35   1.0000      -1.342363       -36.5276
  36   1.0000      -0.597690       -16.2640
  37   1.0000      -0.548270       -14.9192
  38   1.0000      -0.523157       -14.2358
  39   1.0000      -0.471701       -12.8356
  40   1.0000      -0.469661       -12.7801
  41   1.0000      -0.406209       -11.0535
  42   1.0000      -0.399713       -10.8768
  43   1.0000      -0.332223        -9.0402
  44   1.0000      -0.322011        -8.7624
  45   1.0000      -0.307185        -8.3589
  46   1.0000      -0.288005        -7.8370
  47   1.0000      -0.207284        -5.6405
  48   1.0000      -0.196727        -5.3532
  49   1.0000      -0.188108        -5.1187
  50   1.0000      -0.185946        -5.0598
  51   1.0000      -0.160184        -4.3588
  52   1.0000      -0.135039        -3.6746
  53   1.0000      -0.115648        -3.1469
  54   1.0000      -0.114780        -3.1233
  55   1.0000      -0.108175        -2.9436
  56   1.0000      -0.106123        -2.8878
  57   1.0000      -0.086043        -2.3413
  58   1.0000      -0.072696        -1.9782
  59   1.0000      -0.065551        -1.7837
  60   1.0000      -0.061276        -1.6674
  61   1.0000      -0.050322        -1.3693
  62   1.0000      -0.046833        -1.2744
  63   1.0000      -0.043174        -1.1748
  64   1.0000       0.006267         0.1705
  65   1.0000       0.030107         0.8193
  66   1.0000       0.033945         0.9237
  67   1.0000       0.044692         1.2161
  68   1.0000       0.048289         1.3140
  69   1.0000       0.061889         1.6841
  70   1.0000       0.068561         1.8656
  71   1.0000       0.073144         1.9903
  72   0.0000       0.230886         6.2827
  73   0.0000       0.249275         6.7831
  74   0.0000       0.254319         6.9204
  75   0.0000       0.260473         7.0878
  76   0.0000       0.262177         7.1342

MULLIKEN ATOMIC CHARGES AND SPIN POPULATIONS
--------------------------------------------
   0 V :    0.491808    1.188744
   1 S :   -0.397582    0.001530
   2 S :   -0.350961   -0.032775
   3 S :   -0.387782   -0.027297
   4 S :   -0.375875   -0.021518
   5 O :   -0.542951   -0.133739
   6 C :   -0.250439    0.005287
   7 C :   -0.236638    0.006347
   8 C :   -0.159399    0.003133
   9 H :    0.075668   -0.001010
  10 H :    0.053474    0.002183
  11 H :    0.137960    0.000555
  12 H :    0.005542   -0.000049
  13 H :    0.098414   -0.000146
  14 H :    0.052067   -0.000135
  15 C :   -0.271727   -0.001898
  16 C :   -0.273474    0.004211
  17 C :   -0.109401    0.007237
  18 H :    0.058548   -0.000208
  19 H :    0.141510   -0.001314
  20 H :    0.018461    0.001523
  21 H :    0.014672    0.000395
  22 H :    0.063837   -0.001081
  23 H :    0.144267    0.000025
Sum of atomic charges         :   -2.0000000

LOEWDIN ATOMIC CHARGES AND SPIN POPULATIONS
-------------------------------------------
   0 V :   -0.220477    1.145335
   1 S :   -0.044945    0.006906
   2 S :   -0.033716   -0.022396
   3 S :   -0.032905   -0.018699
   4 S :   -0.056687   -0.012484
   5 O :   -0.375467   -0.120408
   6 C :   -0.329227    0.004849
   7 C :   -0.315035    0.006964
   8 C :   -0.185783    0.000394
   9 H :    0.035504   -0.000038
  10 H :    0.029851    0.000617
  11 H :    0.069122    0.000301
  12 H :    0.030747    0.000126
  13 H :    0.045588   -0.000106
  14 H :    0.028187   -0.000582
  15 C :   -0.347207    0.001596
  16 C :   -0.359560    0.006248
  17 C :   -0.192912    0.003015
  18 H :    0.034710   -0.000398
  19 H :    0.061509   -0.001169
  20 H :    0.030391    0.000613
  21 H :    0.028971    0.000293
  22 H :    0.036939   -0.000873
  23 H :    0.062403   -0.000103

  Mayer bond orders larger than 0.100000
B(  0-V ,  1-S ) :   0.7183 B(  0-V ,  2-S ) :   0.8627 B(  0-V ,  3-S ) :   0.7808
B(  0-V ,  4-S ) :   0.7874 B(  0-V ,  5-O ) :   2.0724 B(  1-S , 15-C ) :   1.0443
B(  2-S ,  6-C ) :   1.0096 B(  3-S , 16-C ) :   1.0314 B(  4-S ,  7-C ) :   1.0734
B(  6-C ,  8-C ) :   0.8990 B(  6-C , 13-H ) :   0.9766 B(  6-C , 14-H ) :   0.9640
B(  7-C ,  8-C ) :   0.9173 B(  7-C ,  9-H ) :   0.9700 B(  7-C , 10-H ) :   0.9720
B(  8-C , 11-H ) :   0.9861 B(  8-C , 12-H ) :   0.9448 B( 15-C , 17-C ) :   0.8750
B( 15-C , 22-H ) :   0.9410 B( 15-C , 23-H ) :   0.9811 B( 16-C , 17-C ) :   0.8818
B( 16-C , 18-H ) :   0.9390 B( 16-C , 19-H ) :   0.9790 B( 17-C , 20-H ) :   0.9510
B( 17-C , 21-H ) :   0.9484

FINAL SINGLE POINT ENERGY     -2847.675354476945

DIPOLE MOMENT
-------------
                                X             Y             Z
Electronic contribution:     -3.84982       2.56043      -4.12397
Nuclear contribution   :      4.09834      -3.07313       4.12217
                        -----------------------------------------
Total Dipole Moment    :      0.24852      -0.51269      -0.00180
                        -----------------------------------------
Magnitude (a.u.)       :      0.56975
Magnitude (Debye)      :      1.44820

Rotational constants in cm-1:     0.026831     0.011709     0.009554
Rotational constants in MHz :   804.365150   351.038949   286.426767

                             ****ORCA TERMINATED NORMALLY****
TOTAL RUN TIME: 0 days 0 hours 14 minutes 16 seconds 902 msec
