                         Program Version 5.0.4 -  RELEASE  -
|  1> ! nofrozencore ReducedPop printbasis
|  2> ! B3LYP TZVP
|  3>
|  4> %basis
|  5> newgto V "CP(PPP)" end
|  6> end
|  7>
|  8> %pal
|  9> nprocs 8
| 10> end
| 11>
| 12> % sym SymThresh 1e-2 end
| 13> * xyz -2 2
| 14> V 0.48638206585415017 -0.06256270182102708 0.03605569213456291
| 15> S -0.33508365326647793 -2.3038865734729566 0.8789026469601909
| 16> S -0.5117065950889249 -0.8784530832286481 -2.0446211793167413
| 17> S -0.32762515539003845 0.9761187669392062 2.1381516297233776
| 18> S 0.23192958604566802 2.2798510802355985 -0.7622941228221953
| 19> O 2.071670512671859 -0.30623066291245976 0.03613029669283031
| 20> C -0.25536633153429317 0.41518412377262587 -3.35240339281893
| 21> C 1.0782598847885785 2.400796674496987 -2.4035205451120922
| 22> C 1.0972520063277516 1.1345826574185927 -3.2693829400355794
| 23> H 2.11367519985921 2.7317988118271845 -2.2582798142924436
| 24> H 0.5708077812815755 3.1902346502729126 -2.974256000494993
| 25> H 1.8431636917565855 0.4424553535487679 -2.8703617493043043
| 26> H 1.426339748391157 1.413444665848622 -4.286668414256055
| 27> H -1.065321706973332 1.1503202898299847 -3.2975708963511132
| 28> H -0.3400815861431284 -0.10277862157356178 -4.314839936734944
| 29> C -1.8425061960616724 -1.850105999642139 1.7835644614348845
| 30> C -0.4097689108254402 -0.35857748363372 3.358370187288596
| 31> C -1.6117504411606611 -1.339322129878338 3.2365034102428454
| 32> H -0.4237689293537777 -0.03934244481595959 4.422576526941874
| 33> H 0.3699611607614992 -1.1819875476746997 3.3761920989721474
| 34> H -2.379184881812726 -0.6709043806496167 3.723207432879871
| 35> H -1.5712887363568002 -2.361861857182184 3.7198791665036888
| 36> H -2.5979932083232495 -2.6537588701961705 1.8730041965437274
| 37> H -2.4496973342311237 -0.9734516119647548 1.4302668844555368
| 38> *
| 39>
| 40> % eprnmr
| 41> gtensor true
| 42> Nuclei = all H {aiso,adip,aorb,fgrad,rho}
| 43> Nuclei = all V {aiso,adip,aorb,fgrad,rho}
| 44> end
| 45>
| 46>                          ****END OF INPUT****

CARTESIAN COORDINATES (ANGSTROEM)
---------------------------------
  V      0.487035   -0.062781    0.036365
  S     -0.334430   -2.304105    0.879211
  S     -0.511053   -0.878672   -2.044312
  S     -0.326972    0.975900    2.138460
  S      0.232583    2.279632   -0.761985
  O      2.072324   -0.306449    0.036439
  C     -0.254713    0.414965   -3.352095
  C      1.078913    2.400578   -2.403212
  C      1.097905    1.134364   -3.269074
  H      2.114329    2.731580   -2.257971
  H      0.571461    3.190016   -2.973947
  H      1.843817    0.442237   -2.870053
  H      1.426993    1.413226   -4.286360
  H     -1.064668    1.150102   -3.297262
  H     -0.339428   -0.102997   -4.314531
  C     -1.841853   -1.850325    1.783873
  C     -0.409116   -0.358796    3.358679
  C     -1.611097   -1.339541    3.236812
  H     -0.423116   -0.039561    4.422885
  H      0.370614   -1.182206    3.376501
  H     -2.378532   -0.671123    3.723516
  H     -1.570635   -2.362081    3.720188
  H     -2.597340   -2.653978    1.873313
  H     -2.449044   -0.973670    1.430576

 Total Charge           Charge          ....   -2
 Multiplicity           Mult            ....    2
 Number of Electrons    NEL             ....  145
 Basis Dimension        Dim             ....  353

ORBITAL ENERGIES
----------------
                 SPIN UP ORBITALS
  NO   OCC          E(Eh)            E(eV)
   0   1.0000    -196.611254     -5350.0642
   1   1.0000     -88.569179     -2410.0899
   2   1.0000     -88.563905     -2409.9464
   3   1.0000     -88.562832     -2409.9172
   4   1.0000     -88.562481     -2409.9076
   5   1.0000     -21.986391      -598.2801
   6   1.0000     -18.828334      -512.3450
   7   1.0000     -18.494154      -503.2515
   8   1.0000     -18.487033      -503.0577
   9   1.0000     -18.486928      -503.0549
  10   1.0000      -9.945011      -270.6175
  11   1.0000      -9.937127      -270.4030
  12   1.0000      -9.936617      -270.3891
  13   1.0000      -9.935397      -270.3559
  14   1.0000      -9.930718      -270.2286
  15   1.0000      -9.930531      -270.2235
  16   1.0000      -7.623425      -207.4439
  17   1.0000      -7.618246      -207.3030
  18   1.0000      -7.616750      -207.2623
  19   1.0000      -7.616674      -207.2602
  20   1.0000      -5.588823      -152.0796
  21   1.0000      -5.583643      -151.9387
  22   1.0000      -5.582320      -151.9027
  23   1.0000      -5.582179      -151.8988
  24   1.0000      -5.582041      -151.8951
  25   1.0000      -5.580508      -151.8534
  26   1.0000      -5.577424      -151.7694
  27   1.0000      -5.575818      -151.7257
  28   1.0000      -5.575554      -151.7185
  29   1.0000      -5.575179      -151.7083
  30   1.0000      -5.573818      -151.6713
  31   1.0000      -5.573688      -151.6678
  32   1.0000      -2.379021       -64.7365
  33   1.0000      -1.421464       -38.6800
  34   1.0000      -1.407221       -38.2924
  35   1.0000      -1.406697       -38.2782
  36   1.0000      -0.590478       -16.0677
  37   1.0000      -0.553307       -15.0563
  38   1.0000      -0.547165       -14.8891
  39   1.0000      -0.471399       -12.8274
  40   1.0000      -0.466403       -12.6915
  41   1.0000      -0.404725       -11.0131
  42   1.0000      -0.397179       -10.8078
  43   1.0000      -0.343921        -9.3586
  44   1.0000      -0.330960        -9.0059
  45   1.0000      -0.306550        -8.3416
  46   1.0000      -0.276196        -7.5157
  47   1.0000      -0.216974        -5.9042
  48   1.0000      -0.209093        -5.6897
  49   1.0000      -0.200765        -5.4631
  50   1.0000      -0.195143        -5.3101
  51   1.0000      -0.161809        -4.4031
  52   1.0000      -0.118745        -3.2312
  53   1.0000      -0.113266        -3.0821
  54   1.0000      -0.109026        -2.9668
  55   1.0000      -0.108232        -2.9451
  56   1.0000      -0.102939        -2.8011
  57   1.0000      -0.078697        -2.1415
  58   1.0000      -0.068076        -1.8524
  59   1.0000      -0.066228        -1.8022
  60   1.0000      -0.051891        -1.4120
  61   1.0000      -0.050033        -1.3615
  62   1.0000      -0.046641        -1.2692
  63   1.0000      -0.040785        -1.1098
  64   1.0000      -0.003741        -0.1018
  65   1.0000       0.023732         0.6458
  66   1.0000       0.026439         0.7194
  67   1.0000       0.032807         0.8927
  68   1.0000       0.041967         1.1420
  69   1.0000       0.051302         1.3960
  70   1.0000       0.061416         1.6712
  71   1.0000       0.069460         1.8901
  72   1.0000       0.077820         2.1176
  73   0.0000       0.230904         6.2832
  74   0.0000       0.242398         6.5960
  75   0.0000       0.246027         6.6947
  76   0.0000       0.250071         6.8048
  77   0.0000       0.258112         7.0236

                 SPIN DOWN ORBITALS
  NO   OCC          E(Eh)            E(eV)
   0   1.0000    -196.611397     -5350.0681
   1   1.0000     -88.569328     -2410.0939
   2   1.0000     -88.563880     -2409.9457
   3   1.0000     -88.563013     -2409.9221
   4   1.0000     -88.562586     -2409.9105
   5   1.0000     -21.971316      -597.8699
   6   1.0000     -18.831854      -512.4408
   7   1.0000     -18.488927      -503.1093
   8   1.0000     -18.470945      -502.6200
   9   1.0000     -18.470455      -502.6066
  10   1.0000      -9.944830      -270.6126
  11   1.0000      -9.936994      -270.3994
  12   1.0000      -9.936454      -270.3846
  13   1.0000      -9.935347      -270.3545
  14   1.0000      -9.930738      -270.2291
  15   1.0000      -9.930476      -270.2220
  16   1.0000      -7.623566      -207.4478
  17   1.0000      -7.618224      -207.3024
  18   1.0000      -7.616852      -207.2651
  19   1.0000      -7.616848      -207.2650
  20   1.0000      -5.588958      -152.0833
  21   1.0000      -5.583656      -151.9390
  22   1.0000      -5.582722      -151.9136
  23   1.0000      -5.582301      -151.9021
  24   1.0000      -5.582210      -151.8997
  25   1.0000      -5.580616      -151.8563
  26   1.0000      -5.577752      -151.7783
  27   1.0000      -5.576229      -151.7369
  28   1.0000      -5.576021      -151.7312
  29   1.0000      -5.574729      -151.6961
  30   1.0000      -5.573955      -151.6750
  31   1.0000      -5.573615      -151.6658
  32   1.0000      -2.334016       -63.5118
  33   1.0000      -1.402354       -38.1600
  34   1.0000      -1.345547       -36.6142
  35   1.0000      -1.343688       -36.5636
  36   1.0000      -0.598047       -16.2737
  37   1.0000      -0.553212       -15.0537
  38   1.0000      -0.547022       -14.8852
  39   1.0000      -0.471350       -12.8261
  40   1.0000      -0.466314       -12.6891
  41   1.0000      -0.404831       -11.0160
  42   1.0000      -0.397285       -10.8107
  43   1.0000      -0.344019        -9.3612
  44   1.0000      -0.331393        -9.0177
  45   1.0000      -0.306540        -8.3414
  46   1.0000      -0.276165        -7.5148
  47   1.0000      -0.216904        -5.9023
  48   1.0000      -0.209032        -5.6880
  49   1.0000      -0.200552        -5.4573
  50   1.0000      -0.195058        -5.3078
  51   1.0000      -0.161668        -4.3992
  52   1.0000      -0.118061        -3.2126
  53   1.0000      -0.113257        -3.0819
  54   1.0000      -0.108773        -2.9599
  55   1.0000      -0.108137        -2.9426
  56   1.0000      -0.102543        -2.7903
  57   1.0000      -0.077745        -2.1155
  58   1.0000      -0.066245        -1.8026
  59   1.0000      -0.065418        -1.7801
  60   1.0000      -0.052214        -1.4208
  61   1.0000      -0.049487        -1.3466
  62   1.0000      -0.048652        -1.3239
  63   1.0000      -0.042345        -1.1523
  64   1.0000       0.000723         0.0197
  65   1.0000       0.024806         0.6750
  66   1.0000       0.029500         0.8027
  67   1.0000       0.042276         1.1504
  68   1.0000       0.042725         1.1626
  69   1.0000       0.058542         1.5930
  70   1.0000       0.066235         1.8023
  71   1.0000       0.070968         1.9311
  72   0.0000       0.230208         6.2643
  73   0.0000       0.248258         6.7554
  74   0.0000       0.253287         6.8923
  75   0.0000       0.259024         7.0484
  76   0.0000       0.261872         7.1259

MULLIKEN ATOMIC CHARGES AND SPIN POPULATIONS
--------------------------------------------
   0 V :    0.532985    1.193386
   1 S :   -0.396920   -0.001577
   2 S :   -0.346519   -0.033898
   3 S :   -0.374080   -0.026961
   4 S :   -0.381210   -0.022136
   5 O :   -0.543764   -0.135823
   6 C :   -0.245969    0.005802
   7 C :   -0.233299    0.006749
   8 C :   -0.164353    0.002953
   9 H :    0.075319   -0.000942
  10 H :    0.051140    0.002107
  11 H :    0.139994    0.000557
  12 H :    0.007390   -0.000048
  13 H :    0.095829   -0.000133
  14 H :    0.050025   -0.000075
  15 C :   -0.238367   -0.001920
  16 C :   -0.227731    0.002869
  17 C :   -0.132547    0.007129
  18 H :    0.041840   -0.000506
  19 H :    0.104438    0.000659
  20 H :    0.011288    0.001167
  21 H :    0.006421    0.000346
  22 H :    0.048275   -0.000810
  23 H :    0.119817    0.001106
Sum of atomic charges         :   -2.0000000

LOEWDIN ATOMIC CHARGES AND SPIN POPULATIONS
-------------------------------------------
   0 V :   -0.196841    1.150376
   1 S :   -0.040413    0.003781
   2 S :   -0.033841   -0.023438
   3 S :   -0.024267   -0.018467
   4 S :   -0.058815   -0.012854
   5 O :   -0.374104   -0.122522
   6 C :   -0.325867    0.005269
   7 C :   -0.314091    0.006993
   8 C :   -0.187514    0.000417
   9 H :    0.036114   -0.000018
  10 H :    0.029172    0.000628
  11 H :    0.069892    0.000321
  12 H :    0.031893    0.000150
  13 H :    0.045511   -0.000070
  14 H :    0.027959   -0.000550
  15 C :   -0.341835    0.002233
  16 C :   -0.354610    0.006394
  17 C :   -0.214457    0.001413
  18 H :    0.024844   -0.000281
  19 H :    0.051617   -0.000602
  20 H :    0.034528    0.000614
  21 H :    0.035147    0.000578
  22 H :    0.026024   -0.000784
  23 H :    0.053953    0.000421

  Mayer bond orders larger than 0.100000
B(  0-V ,  1-S ) :   0.6946 B(  0-V ,  2-S ) :   0.8674 B(  0-V ,  3-S ) :   0.7508
B(  0-V ,  4-S ) :   0.7765 B(  0-V ,  5-O ) :   2.0755 B(  1-S , 15-C ) :   1.0294
B(  2-S ,  6-C ) :   1.0103 B(  3-S , 16-C ) :   1.0257 B(  4-S ,  7-C ) :   1.0720
B(  6-C ,  8-C ) :   0.9013 B(  6-C , 13-H ) :   0.9737 B(  6-C , 14-H ) :   0.9688
B(  7-C ,  8-C ) :   0.9170 B(  7-C ,  9-H ) :   0.9771 B(  7-C , 10-H ) :   0.9682
B(  8-C , 11-H ) :   0.9890 B(  8-C , 12-H ) :   0.9462 B( 15-C , 17-C ) :   0.8574
B( 15-C , 22-H ) :   0.9730 B( 15-C , 23-H ) :   0.9717 B( 16-C , 17-C ) :   0.8668
B( 16-C , 18-H ) :   0.9660 B( 16-C , 19-H ) :   0.9600 B( 17-C , 20-H ) :   0.9682
B( 17-C , 21-H ) :   0.9698

FINAL SINGLE POINT ENERGY     -2847.680617813109

DIPOLE MOMENT
-------------
                                X             Y             Z
Electronic contribution:      6.22484      -0.91605       0.99224
Nuclear contribution   :     -6.41159       1.16697      -1.53702
                        -----------------------------------------
Total Dipole Moment    :     -0.18675       0.25092      -0.54478
                        -----------------------------------------
Magnitude (a.u.)       :      0.62819
Magnitude (Debye)      :      1.59673

Rotational constants in cm-1:     0.027182     0.011728     0.009594
Rotational constants in MHz :   814.903440   351.598906   287.625082

                             ****ORCA TERMINATED NORMALLY****
TOTAL RUN TIME: 0 days 0 hours 9 minutes 40 seconds 916 msec
