                         Program Version 5.0.4 -  RELEASE  -
|  1> ! nofrozencore ReducedPop printbasis
|  2> ! B3LYP TZVP
|  3>
|  4> %basis
|  5> newgto V "CP(PPP)" end
|  6> end
|  7>
|  8> %pal
|  9> nprocs 8
| 10> end
| 11>
| 12> % sym SymThresh 1e-2 end
| 13> * xyz -2 2
| 14> V -0.2457155408512922 -0.09897323108471437 -0.4147101046246748
| 15> S 2.08629391203772 0.26655977147550264 -1.3295773673932156
| 16> S 0.8488001120368307 -2.0252302014493297 0.6246489045606121
| 17> S -0.40477705237833334 2.338786250953296 0.027945901179498377
| 18> S -1.994477209228627 -0.13934329889475927 1.354208317890093
| 19> O -1.0232262736381748 -0.5398458192939122 -1.7442926652108643
| 20> C -0.4370526470924691 -2.9471126367572293 1.5942748728021512
| 21> C -2.7108178986335822 -1.8476821775788144 1.353395012081255
| 22> C -1.8160191654008264 -3.0159307524734342 0.9371836064389476
| 23> H -3.746145920476915 -1.8448027431406997 0.8916472738374294
| 24> H -3.2911922196342926 -1.9929306691254798 2.315619848617593
| 25> H -1.5679106245911012 -2.759831540075462 -0.13020954910469157
| 26> H -2.3348878098428063 -3.861812814163235 1.4698377896322792
| 27> H -0.438768188686354 -2.5986085570661923 2.6445773378519783
| 28> H -0.023543284925904538 -3.947447513417183 1.8474346139228837
| 29> C 2.7164013023034204 1.6187825052089349 -0.2369387018445214
| 30> C 0.821805893591217 3.1320657582901457 -1.1076512346402714
| 31> C 2.285638407095665 3.0275161112116833 -0.6664682051207538
| 32> H 0.5489158687701845 4.190204931127059 -1.2007190377098025
| 33> H 0.7202823506447829 2.6633975629774813 -2.0863556210486363
| 34> H 2.466934145645372 3.719796722424742 0.17062720880061674
| 35> H 2.918545195070407 3.3587318197502847 -1.5056823861393824
| 36> H 3.8111724283947845 1.5640306959159533 -0.21619600409827763
| 37> H 2.3616190184170227 1.4256006184590468 0.7758128342565626
| 38> *
| 39>
| 40> % eprnmr
| 41> gtensor true
| 42> Nuclei = all H {aiso,adip,aorb,fgrad,rho}
| 43> Nuclei = all V {aiso,adip,aorb,fgrad,rho}
| 44> end
| 45>
| 46>                          ****END OF INPUT****

CARTESIAN COORDINATES (ANGSTROEM)
---------------------------------
  V     -0.245920   -0.098900   -0.415433
  S      2.086090    0.266633   -1.330300
  S      0.848596   -2.025157    0.623926
  S     -0.404981    2.338860    0.027223
  S     -1.994681   -0.139270    1.353485
  O     -1.023430   -0.539772   -1.745016
  C     -0.437257   -2.947039    1.593552
  C     -2.711022   -1.847609    1.352672
  C     -1.816223   -3.015857    0.936461
  H     -3.746350   -1.844729    0.890924
  H     -3.291396   -1.992857    2.314897
  H     -1.568115   -2.759758   -0.130932
  H     -2.335092   -3.861739    1.469115
  H     -0.438972   -2.598535    2.643854
  H     -0.023747   -3.947374    1.846712
  C      2.716197    1.618856   -0.237662
  C      0.821602    3.132139   -1.108374
  C      2.285434    3.027590   -0.667191
  H      0.548712    4.190279   -1.201442
  H      0.720078    2.663471   -2.087079
  H      2.466730    3.719870    0.169904
  H      2.918341    3.358805   -1.506405
  H      3.810968    1.564104   -0.216919
  H      2.361415    1.425674    0.775090

 Total Charge           Charge          ....   -2
 Multiplicity           Mult            ....    2
 Number of Electrons    NEL             ....  145
 Basis Dimension        Dim             ....  353

ORBITAL ENERGIES
----------------
                 SPIN UP ORBITALS
  NO   OCC          E(Eh)            E(eV)
   0   1.0000    -196.608686     -5349.9943
   1   1.0000     -88.563319     -2409.9304
   2   1.0000     -88.562469     -2409.9073
   3   1.0000     -88.560854     -2409.8633
   4   1.0000     -88.558598     -2409.8020
   5   1.0000     -21.984034      -598.2160
   6   1.0000     -18.826740      -512.3016
   7   1.0000     -18.491813      -503.1878
   8   1.0000     -18.484650      -502.9929
   9   1.0000     -18.484563      -502.9905
  10   1.0000      -9.947936      -270.6971
  11   1.0000      -9.940111      -270.4842
  12   1.0000      -9.937140      -270.4033
  13   1.0000      -9.935063      -270.3468
  14   1.0000      -9.934993      -270.3449
  15   1.0000      -9.932636      -270.2808
  16   1.0000      -7.617099      -207.2718
  17   1.0000      -7.616668      -207.2601
  18   1.0000      -7.614854      -207.2107
  19   1.0000      -7.612906      -207.1577
  20   1.0000      -5.582506      -151.9077
  21   1.0000      -5.581837      -151.8895
  22   1.0000      -5.580371      -151.8496
  23   1.0000      -5.578140      -151.7889
  24   1.0000      -5.575936      -151.7289
  25   1.0000      -5.575670      -151.7217
  26   1.0000      -5.574273      -151.6837
  27   1.0000      -5.573990      -151.6760
  28   1.0000      -5.573902      -151.6736
  29   1.0000      -5.572154      -151.6260
  30   1.0000      -5.571703      -151.6138
  31   1.0000      -5.569963      -151.5664
  32   1.0000      -2.376715       -64.6737
  33   1.0000      -1.419457       -38.6254
  34   1.0000      -1.404789       -38.2262
  35   1.0000      -1.404346       -38.2142
  36   1.0000      -0.589421       -16.0390
  37   1.0000      -0.553660       -15.0659
  38   1.0000      -0.551676       -15.0119
  39   1.0000      -0.468991       -12.7619
  40   1.0000      -0.466645       -12.6981
  41   1.0000      -0.404739       -11.0135
  42   1.0000      -0.396428       -10.7874
  43   1.0000      -0.339454        -9.2370
  44   1.0000      -0.330779        -9.0010
  45   1.0000      -0.311952        -8.4887
  46   1.0000      -0.287015        -7.8101
  47   1.0000      -0.216387        -5.8882
  48   1.0000      -0.215019        -5.8510
  49   1.0000      -0.203461        -5.5365
  50   1.0000      -0.185906        -5.0588
  51   1.0000      -0.156485        -4.2582
  52   1.0000      -0.134797        -3.6680
  53   1.0000      -0.132650        -3.6096
  54   1.0000      -0.108682        -2.9574
  55   1.0000      -0.103773        -2.8238
  56   1.0000      -0.085507        -2.3268
  57   1.0000      -0.076064        -2.0698
  58   1.0000      -0.073272        -1.9938
  59   1.0000      -0.065614        -1.7855
  60   1.0000      -0.057784        -1.5724
  61   1.0000      -0.048625        -1.3232
  62   1.0000      -0.041683        -1.1342
  63   1.0000      -0.037588        -1.0228
  64   1.0000      -0.002184        -0.0594
  65   1.0000       0.026065         0.7093
  66   1.0000       0.028850         0.7851
  67   1.0000       0.035906         0.9771
  68   1.0000       0.044529         1.2117
  69   1.0000       0.052134         1.4186
  70   1.0000       0.062784         1.7084
  71   1.0000       0.072824         1.9816
  72   1.0000       0.080717         2.1964
  73   0.0000       0.233110         6.3432
  74   0.0000       0.240699         6.5498
  75   0.0000       0.244985         6.6664
  76   0.0000       0.248261         6.7555
  77   0.0000       0.257981         7.0200

                 SPIN DOWN ORBITALS
  NO   OCC          E(Eh)            E(eV)
   0   1.0000    -196.608827     -5349.9982
   1   1.0000     -88.563493     -2409.9352
   2   1.0000     -88.562630     -2409.9117
   3   1.0000     -88.560958     -2409.8662
   4   1.0000     -88.558569     -2409.8012
   5   1.0000     -21.969020      -597.8074
   6   1.0000     -18.830189      -512.3955
   7   1.0000     -18.486628      -503.0467
   8   1.0000     -18.468630      -502.5570
   9   1.0000     -18.468132      -502.5434
  10   1.0000      -9.947754      -270.6922
  11   1.0000      -9.940101      -270.4839
  12   1.0000      -9.937012      -270.3998
  13   1.0000      -9.934937      -270.3434
  14   1.0000      -9.934888      -270.3420
  15   1.0000      -9.932593      -270.2796
  16   1.0000      -7.617269      -207.2764
  17   1.0000      -7.616821      -207.2642
  18   1.0000      -7.614953      -207.2134
  19   1.0000      -7.612881      -207.1570
  20   1.0000      -5.582669      -151.9122
  21   1.0000      -5.581991      -151.8937
  22   1.0000      -5.580489      -151.8528
  23   1.0000      -5.578155      -151.7893
  24   1.0000      -5.576380      -151.7410
  25   1.0000      -5.576095      -151.7333
  26   1.0000      -5.574405      -151.6873
  27   1.0000      -5.574395      -151.6870
  28   1.0000      -5.574023      -151.6769
  29   1.0000      -5.572491      -151.6352
  30   1.0000      -5.571634      -151.6119
  31   1.0000      -5.569488      -151.5535
  32   1.0000      -2.331893       -63.4540
  33   1.0000      -1.400519       -38.1101
  34   1.0000      -1.343318       -36.5535
  35   1.0000      -1.341540       -36.5052
  36   1.0000      -0.596789       -16.2395
  37   1.0000      -0.553557       -15.0630
  38   1.0000      -0.551519       -15.0076
  39   1.0000      -0.468939       -12.7605
  40   1.0000      -0.466525       -12.6948
  41   1.0000      -0.404769       -11.0143
  42   1.0000      -0.396584       -10.7916
  43   1.0000      -0.339628        -9.2418
  44   1.0000      -0.331145        -9.0109
  45   1.0000      -0.311920        -8.4878
  46   1.0000      -0.287005        -7.8098
  47   1.0000      -0.216217        -5.8836
  48   1.0000      -0.214947        -5.8490
  49   1.0000      -0.203374        -5.5341
  50   1.0000      -0.185782        -5.0554
  51   1.0000      -0.156442        -4.2570
  52   1.0000      -0.134618        -3.6632
  53   1.0000      -0.132386        -3.6024
  54   1.0000      -0.108617        -2.9556
  55   1.0000      -0.103467        -2.8155
  56   1.0000      -0.084989        -2.3127
  57   1.0000      -0.075790        -2.0624
  58   1.0000      -0.070651        -1.9225
  59   1.0000      -0.064612        -1.7582
  60   1.0000      -0.057944        -1.5767
  61   1.0000      -0.049647        -1.3510
  62   1.0000      -0.042674        -1.1612
  63   1.0000      -0.038460        -1.0465
  64   1.0000       0.002703         0.0736
  65   1.0000       0.027131         0.7383
  66   1.0000       0.031627         0.8606
  67   1.0000       0.044648         1.2149
  68   1.0000       0.045491         1.2379
  69   1.0000       0.059953         1.6314
  70   1.0000       0.067225         1.8293
  71   1.0000       0.075191         2.0461
  72   0.0000       0.228332         6.2132
  73   0.0000       0.247153         6.7254
  74   0.0000       0.250354         6.8125
  75   0.0000       0.259967         7.0741
  76   0.0000       0.263475         7.1695

MULLIKEN ATOMIC CHARGES AND SPIN POPULATIONS
--------------------------------------------
   0 V :    0.513433    1.189621
   1 S :   -0.426124   -0.001055
   2 S :   -0.347070   -0.032696
   3 S :   -0.409447   -0.029584
   4 S :   -0.365486   -0.021345
   5 O :   -0.544722   -0.133116
   6 C :   -0.237920    0.005585
   7 C :   -0.240296    0.005454
   8 C :   -0.169208    0.005212
   9 H :    0.056824   -0.000800
  10 H :    0.026471    0.002551
  11 H :    0.185819    0.000183
  12 H :    0.001995   -0.000666
  13 H :    0.087058   -0.000269
  14 H :    0.045900   -0.000076
  15 C :   -0.256702   -0.002311
  16 C :   -0.252838    0.003435
  17 C :   -0.070488    0.008573
  18 H :    0.048221   -0.000095
  19 H :    0.131589   -0.000182
  20 H :    0.016207    0.001594
  21 H :    0.013365    0.000085
  22 H :    0.052937   -0.000573
  23 H :    0.140483    0.000474
Sum of atomic charges         :   -2.0000000

LOEWDIN ATOMIC CHARGES AND SPIN POPULATIONS
-------------------------------------------
   0 V :   -0.213111    1.146211
   1 S :   -0.071044    0.004214
   2 S :   -0.034787   -0.022242
   3 S :   -0.059442   -0.020708
   4 S :   -0.054463   -0.012643
   5 O :   -0.376487   -0.119896
   6 C :   -0.336416    0.004968
   7 C :   -0.335952    0.006756
   8 C :   -0.198263    0.001978
   9 H :    0.029036   -0.000245
  10 H :    0.021002    0.000685
  11 H :    0.099930    0.000548
  12 H :    0.054484   -0.000049
  13 H :    0.041241   -0.000115
  14 H :    0.023899   -0.000593
  15 C :   -0.317600    0.002705
  16 C :   -0.324822    0.007308
  17 C :   -0.188790    0.001173
  18 H :    0.028612   -0.000213
  19 H :    0.054300   -0.000617
  20 H :    0.036417    0.000622
  21 H :    0.035370    0.000396
  22 H :    0.030518   -0.000597
  23 H :    0.056367    0.000355

  Mayer bond orders larger than 0.100000
B(  0-V ,  1-S ) :   0.7116 B(  0-V ,  2-S ) :   0.8616 B(  0-V ,  3-S ) :   0.7733
B(  0-V ,  4-S ) :   0.7804 B(  0-V ,  5-O ) :   2.0666 B(  1-S , 15-C ) :   1.0249
B(  2-S ,  6-C ) :   0.9929 B(  3-S , 16-C ) :   1.0236 B(  4-S ,  7-C ) :   1.0614
B(  6-C ,  8-C ) :   0.9211 B(  6-C , 13-H ) :   0.9580 B(  6-C , 14-H ) :   0.9644
B(  7-C ,  8-C ) :   0.9454 B(  7-C ,  9-H ) :   0.9630 B(  7-C , 10-H ) :   0.9539
B(  8-C , 11-H ) :   0.9716 B(  8-C , 12-H ) :   0.9415 B( 15-C , 17-C ) :   0.8955
B( 15-C , 22-H ) :   0.9686 B( 15-C , 23-H ) :   0.9794 B( 16-C , 17-C ) :   0.9026
B( 16-C , 18-H ) :   0.9639 B( 16-C , 19-H ) :   0.9759 B( 17-C , 20-H ) :   0.9584
B( 17-C , 21-H ) :   0.9598

FINAL SINGLE POINT ENERGY     -2847.676391112874

DIPOLE MOMENT
-------------
                                X             Y             Z
Electronic contribution:     -2.30787      -0.41613      -6.08913
Nuclear contribution   :      2.44102       0.35885       6.53604
                        -----------------------------------------
Total Dipole Moment    :      0.13315      -0.05728       0.44691
                        -----------------------------------------
Magnitude (a.u.)       :      0.46983
Magnitude (Debye)      :      1.19422

Rotational constants in cm-1:     0.027220     0.011722     0.009596
Rotational constants in MHz :   816.027310   351.405968   287.667141

                             ****ORCA TERMINATED NORMALLY****
TOTAL RUN TIME: 0 days 0 hours 9 minutes 33 seconds 673 msec
