                         Program Version 5.0.4 -  RELEASE  -
|  1> ! nofrozencore ReducedPop printbasis
|  2> ! B3LYP TZVP
|  3>
|  4> %basis
|  5> newgto V "CP(PPP)" end
|  6> end
|  7>
|  8> %pal
|  9> nprocs 4
| 10> end
| 11>
| 12> % sym SymThresh 1e-2 end
| 13> * xyz -2 2
| 14> V 0.48482542354331104 -0.08014343510222505 -0.09239264616334213
| 15> S -0.009735423051388276 -1.8441299637651485 1.6602645779581526
| 16> S -1.0931701326658287 -1.472454973778805 -1.3680557679683356
| 17> S 0.41378929855654745 1.6566246969927576 1.682284156353716
| 18> S -0.14040686245426243 1.8283335348344663 -1.5437994670142414
| 19> O 2.003617317018796 -0.4089499832870687 -0.4881187207615658
| 20> C -1.468616163725544 -0.617706796897142 -2.980943997680792
| 21> C 0.21447795917455223 1.3195276175313226 -3.295931236749552
| 22> C -0.20542246176212345 -0.11685012813715497 -3.699935600596708
| 23> H 1.2965209243361153 1.4575747287195076 -3.500977444037005
| 24> H -0.3334132013740032 2.051662094402517 -3.9303937323813267
| 25> H 0.6183938288952899 -0.8198656766692547 -3.481498756718274
| 26> H -0.3606451697986826 -0.13802037317712365 -4.802088724264986
| 27> H -2.153576602799341 0.2278814548718109 -2.785509326063504
| 28> H -1.9990735474862982 -1.3507942035639677 -3.617275111307341
| 29> C -1.1129571968592427 -0.9210369115809554 2.8227637724879906
| 30> C 0.8015354939410889 0.747626714713117 3.2480831638931122
| 31> C -0.36120792846659383 -0.05442413803595854 3.841782448411924
| 32> H 1.146629588017407 1.4849902607875078 3.983686882452395
| 33> H 1.6268102326051554 0.06615778688610702 3.0406732452916567
| 34> H -1.0792592422257046 0.6345458534153748 4.315534347792142
| 35> H 0.04035301784570089 -0.7003198322272899 4.639928931533207
| 36> H -1.7392445465557025 -1.6484102119181236 3.353264622010213
| 37> H -1.7767727991035294 -0.28883409628059964 2.231036599087648
| 38> *
| 39>
| 40> % eprnmr
| 41> gtensor true
| 42> Nuclei = all H {aiso,adip,aorb,fgrad,rho}
| 43> Nuclei = all V {aiso,adip,aorb,fgrad,rho}
| 44> end
| 45>
| 46>                          ****END OF INPUT****

CARTESIAN COORDINATES (ANGSTROEM)
---------------------------------
  V      0.485550   -0.080311   -0.092261
  S     -0.009011   -1.844297    1.660396
  S     -1.092446   -1.472622   -1.367924
  S      0.414514    1.656458    1.682416
  S     -0.139682    1.828166   -1.543668
  O      2.004342   -0.409117   -0.487987
  C     -1.467892   -0.617874   -2.980812
  C      0.215202    1.319360   -3.295800
  C     -0.204698   -0.117017   -3.699804
  H      1.297245    1.457408   -3.500846
  H     -0.332689    2.051495   -3.930262
  H      0.619118   -0.820033   -3.481367
  H     -0.359921   -0.138188   -4.801957
  H     -2.152852    0.227714   -2.785378
  H     -1.998349   -1.350961   -3.617143
  C     -1.112233   -0.921204    2.822895
  C      0.802260    0.747460    3.248215
  C     -0.360484   -0.054591    3.841914
  H      1.147354    1.484823    3.983819
  H      1.627535    0.065991    3.040805
  H     -1.078535    0.634379    4.315666
  H      0.041077   -0.700487    4.640061
  H     -1.738520   -1.648577    3.353396
  H     -1.776048   -0.289001    2.231168

 Total Charge           Charge          ....   -2
 Multiplicity           Mult            ....    2
 Number of Electrons    NEL             ....  145
 Basis Dimension        Dim             ....  353

ORBITAL ENERGIES
----------------
                 SPIN UP ORBITALS
  NO   OCC          E(Eh)            E(eV)
   0   1.0000    -196.607536     -5349.9630
   1   1.0000     -88.561984     -2409.8941
   2   1.0000     -88.561258     -2409.8743
   3   1.0000     -88.560466     -2409.8528
   4   1.0000     -88.557112     -2409.7615
   5   1.0000     -21.982786      -598.1820
   6   1.0000     -18.825071      -512.2562
   7   1.0000     -18.490571      -503.1540
   8   1.0000     -18.483389      -502.9586
   9   1.0000     -18.483333      -502.9571
  10   1.0000      -9.947621      -270.6885
  11   1.0000      -9.936095      -270.3749
  12   1.0000      -9.934563      -270.3332
  13   1.0000      -9.934365      -270.3278
  14   1.0000      -9.933214      -270.2965
  15   1.0000      -9.932096      -270.2661
  16   1.0000      -7.616103      -207.2447
  17   1.0000      -7.615476      -207.2276
  18   1.0000      -7.614123      -207.1908
  19   1.0000      -7.611478      -207.1188
  20   1.0000      -5.581301      -151.8749
  21   1.0000      -5.580946      -151.8653
  22   1.0000      -5.579516      -151.8264
  23   1.0000      -5.576710      -151.7500
  24   1.0000      -5.575130      -151.7070
  25   1.0000      -5.574466      -151.6889
  26   1.0000      -5.573333      -151.6581
  27   1.0000      -5.572966      -151.6481
  28   1.0000      -5.572453      -151.6342
  29   1.0000      -5.571318      -151.6033
  30   1.0000      -5.570699      -151.5864
  31   1.0000      -5.568505      -151.5267
  32   1.0000      -2.375336       -64.6362
  33   1.0000      -1.417923       -38.5837
  34   1.0000      -1.403445       -38.1897
  35   1.0000      -1.402938       -38.1759
  36   1.0000      -0.587314       -15.9816
  37   1.0000      -0.550836       -14.9890
  38   1.0000      -0.547309       -14.8930
  39   1.0000      -0.466284       -12.6882
  40   1.0000      -0.464948       -12.6519
  41   1.0000      -0.403777       -10.9873
  42   1.0000      -0.396433       -10.7875
  43   1.0000      -0.337710        -9.1896
  44   1.0000      -0.327416        -8.9094
  45   1.0000      -0.300444        -8.1755
  46   1.0000      -0.285461        -7.7678
  47   1.0000      -0.213864        -5.8195
  48   1.0000      -0.203380        -5.5342
  49   1.0000      -0.203132        -5.5275
  50   1.0000      -0.200171        -5.4469
  51   1.0000      -0.155877        -4.2416
  52   1.0000      -0.133514        -3.6331
  53   1.0000      -0.131664        -3.5828
  54   1.0000      -0.109630        -2.9832
  55   1.0000      -0.108044        -2.9400
  56   1.0000      -0.106630        -2.9015
  57   1.0000      -0.080371        -2.1870
  58   1.0000      -0.069025        -1.8783
  59   1.0000      -0.063424        -1.7258
  60   1.0000      -0.054486        -1.4826
  61   1.0000      -0.046406        -1.2628
  62   1.0000      -0.041686        -1.1343
  63   1.0000      -0.037361        -1.0167
  64   1.0000      -0.001112        -0.0302
  65   1.0000       0.027390         0.7453
  66   1.0000       0.029925         0.8143
  67   1.0000       0.038693         1.0529
  68   1.0000       0.045243         1.2311
  69   1.0000       0.052874         1.4388
  70   1.0000       0.064623         1.7585
  71   1.0000       0.071531         1.9465
  72   1.0000       0.080252         2.1838
  73   0.0000       0.235166         6.3992
  74   0.0000       0.245248         6.6735
  75   0.0000       0.250255         6.8098
  76   0.0000       0.252165         6.8618
  77   0.0000       0.258776         7.0417

                 SPIN DOWN ORBITALS
  NO   OCC          E(Eh)            E(eV)
   0   1.0000    -196.607679     -5349.9669
   1   1.0000     -88.562145     -2409.8985
   2   1.0000     -88.561356     -2409.8770
   3   1.0000     -88.560647     -2409.8577
   4   1.0000     -88.557109     -2409.7614
   5   1.0000     -21.967724      -597.7722
   6   1.0000     -18.828537      -512.3505
   7   1.0000     -18.485363      -503.0123
   8   1.0000     -18.467254      -502.5195
   9   1.0000     -18.466922      -502.5105
  10   1.0000      -9.947437      -270.6835
  11   1.0000      -9.935970      -270.3715
  12   1.0000      -9.934378      -270.3282
  13   1.0000      -9.934290      -270.3258
  14   1.0000      -9.933227      -270.2969
  15   1.0000      -9.932057      -270.2650
  16   1.0000      -7.616255      -207.2488
  17   1.0000      -7.615570      -207.2302
  18   1.0000      -7.614298      -207.1956
  19   1.0000      -7.611477      -207.1188
  20   1.0000      -5.581455      -151.8791
  21   1.0000      -5.581065      -151.8685
  22   1.0000      -5.579681      -151.8308
  23   1.0000      -5.576744      -151.7509
  24   1.0000      -5.575554      -151.7185
  25   1.0000      -5.574873      -151.7000
  26   1.0000      -5.573450      -151.6613
  27   1.0000      -5.573427      -151.6607
  28   1.0000      -5.572357      -151.6316
  29   1.0000      -5.571462      -151.6072
  30   1.0000      -5.571053      -151.5961
  31   1.0000      -5.568109      -151.5160
  32   1.0000      -2.330373       -63.4127
  33   1.0000      -1.398866       -38.0651
  34   1.0000      -1.341613       -36.5071
  35   1.0000      -1.340151       -36.4674
  36   1.0000      -0.594746       -16.1839
  37   1.0000      -0.550676       -14.9846
  38   1.0000      -0.547203       -14.8902
  39   1.0000      -0.466177       -12.6853
  40   1.0000      -0.464867       -12.6497
  41   1.0000      -0.403836       -10.9889
  42   1.0000      -0.396587       -10.7917
  43   1.0000      -0.337888        -9.1944
  44   1.0000      -0.327836        -8.9209
  45   1.0000      -0.300416        -8.1747
  46   1.0000      -0.285497        -7.7688
  47   1.0000      -0.213796        -5.8177
  48   1.0000      -0.203315        -5.5325
  49   1.0000      -0.202990        -5.5236
  50   1.0000      -0.200063        -5.4440
  51   1.0000      -0.155748        -4.2381
  52   1.0000      -0.133339        -3.6283
  53   1.0000      -0.131391        -3.5753
  54   1.0000      -0.109584        -2.9819
  55   1.0000      -0.107977        -2.9382
  56   1.0000      -0.106478        -2.8974
  57   1.0000      -0.079041        -2.1508
  58   1.0000      -0.066896        -1.8203
  59   1.0000      -0.062563        -1.7024
  60   1.0000      -0.054296        -1.4775
  61   1.0000      -0.047336        -1.2881
  62   1.0000      -0.042594        -1.1590
  63   1.0000      -0.038488        -1.0473
  64   1.0000       0.003515         0.0956
  65   1.0000       0.028380         0.7723
  66   1.0000       0.033228         0.9042
  67   1.0000       0.044974         1.2238
  68   1.0000       0.048505         1.3199
  69   1.0000       0.058829         1.6008
  70   1.0000       0.070684         1.9234
  71   1.0000       0.071975         1.9585
  72   0.0000       0.233325         6.3491
  73   0.0000       0.251520         6.8442
  74   0.0000       0.255072         6.9409
  75   0.0000       0.261394         7.1129
  76   0.0000       0.265063         7.2127

MULLIKEN ATOMIC CHARGES AND SPIN POPULATIONS
--------------------------------------------
   0 V :    0.528516    1.194089
   1 S :   -0.429812   -0.004908
   2 S :   -0.354233   -0.033456
   3 S :   -0.414113   -0.029619
   4 S :   -0.378384   -0.020090
   5 O :   -0.548171   -0.133951
   6 C :   -0.249679    0.005399
   7 C :   -0.231617    0.006861
   8 C :   -0.154512    0.002331
   9 H :    0.079494   -0.000940
  10 H :    0.050090    0.002225
  11 H :    0.121429    0.000360
  12 H :    0.004311   -0.000065
  13 H :    0.106551    0.000064
  14 H :    0.043419   -0.000548
  15 C :   -0.254234   -0.001578
  16 C :   -0.253651    0.004372
  17 C :   -0.067957    0.008280
  18 H :    0.047307    0.000218
  19 H :    0.135254   -0.000457
  20 H :    0.014359    0.001539
  21 H :    0.013314    0.000172
  22 H :    0.053035   -0.000577
  23 H :    0.139282    0.000281
Sum of atomic charges         :   -2.0000000

LOEWDIN ATOMIC CHARGES AND SPIN POPULATIONS
-------------------------------------------
   0 V :   -0.207047    1.150181
   1 S :   -0.075269    0.000772
   2 S :   -0.043397   -0.023469
   3 S :   -0.062345   -0.020466
   4 S :   -0.053861   -0.011426
   5 O :   -0.377118   -0.120733
   6 C :   -0.332092    0.005063
   7 C :   -0.314533    0.007230
   8 C :   -0.191106    0.000457
   9 H :    0.041424    0.000142
  10 H :    0.031132    0.000548
  11 H :    0.066392    0.000163
  12 H :    0.030607    0.000163
  13 H :    0.048529   -0.000099
  14 H :    0.027281   -0.000679
  15 C :   -0.317153    0.003346
  16 C :   -0.323729    0.007709
  17 C :   -0.188984    0.001019
  18 H :    0.028366   -0.000091
  19 H :    0.055092   -0.000580
  20 H :    0.035751    0.000642
  21 H :    0.035560    0.000403
  22 H :    0.030386   -0.000588
  23 H :    0.056113    0.000293

  Mayer bond orders larger than 0.100000
B(  0-V ,  1-S ) :   0.7105 B(  0-V ,  2-S ) :   0.8490 B(  0-V ,  3-S ) :   0.7705
B(  0-V ,  4-S ) :   0.7809 B(  0-V ,  5-O ) :   2.0753 B(  1-S , 15-C ) :   1.0220
B(  2-S ,  6-C ) :   1.0076 B(  3-S , 16-C ) :   1.0195 B(  4-S ,  7-C ) :   1.0696
B(  6-C ,  8-C ) :   0.8984 B(  6-C , 13-H ) :   0.9768 B(  6-C , 14-H ) :   0.9602
B(  7-C ,  8-C ) :   0.9137 B(  7-C ,  9-H ) :   0.9773 B(  7-C , 10-H ) :   0.9683
B(  8-C , 11-H ) :   0.9891 B(  8-C , 12-H ) :   0.9451 B( 15-C , 17-C ) :   0.8958
B( 15-C , 22-H ) :   0.9684 B( 15-C , 23-H ) :   0.9786 B( 16-C , 17-C ) :   0.9033
B( 16-C , 18-H ) :   0.9633 B( 16-C , 19-H ) :   0.9765 B( 17-C , 20-H ) :   0.9574
B( 17-C , 21-H ) :   0.9595

FINAL SINGLE POINT ENERGY     -2847.716462966662

DIPOLE MOMENT
-------------
                                X             Y             Z
Electronic contribution:      6.20342      -1.14939      -0.05494
Nuclear contribution   :     -6.60512       1.27472      -0.11104
                        -----------------------------------------
Total Dipole Moment    :     -0.40170       0.12534      -0.16598
                        -----------------------------------------
Magnitude (a.u.)       :      0.45235
Magnitude (Debye)      :      1.14979

Rotational constants in cm-1:     0.027347     0.011614     0.009555
Rotational constants in MHz :   819.844807   348.186718   286.465205

                             ****ORCA TERMINATED NORMALLY****
TOTAL RUN TIME: 0 days 0 hours 14 minutes 16 seconds 338 msec
