                         Program Version 5.0.4 -  RELEASE  -
|  1> ! nofrozencore ReducedPop printbasis
|  2> ! B3LYP TZVP
|  3>
|  4> %basis
|  5> newgto V "CP(PPP)" end
|  6> end
|  7>
|  8> %pal
|  9> nprocs 8
| 10> end
| 11>
| 12> % sym SymThresh 1e-2 end
| 13> * xyz -2 2
| 14> V -0.4829819045644129 -0.046053549702741996 -0.08141156215863599
| 15> S -0.48490921878819276 1.6662242645585623 1.7831688993453487
| 16> S 0.5994744783463071 1.789577740903976 -1.2852394512982572
| 17> S 0.2017176472894858 -1.772320082574178 1.5660782554870158
| 18> S 0.5560890907464225 -1.680609520810748 -1.6429886278069867
| 19> O -2.0453304785157176 -0.10827615867618211 -0.4324026903454644
| 20> C 0.9524396950448205 1.2147865571662688 -3.0150921336317493
| 21> C 0.08337763548631022 -1.1809800313481196 -3.3638302999271095
| 22> C -0.13591511326307326 0.31475402429151134 -3.61302373450106
| 23> H -0.8256726392576383 -1.7233034989332037 -3.65258090701122
| 24> H 0.8901246805521325 -1.5347399143965024 -4.020195035892685
| 25> H -1.1014982875699808 0.6178287432718921 -3.2007026780215737
| 26> H -0.19001606310288757 0.46787238579294255 -4.706188517582067
| 27> H 1.9099646012253009 0.6870539304577471 -3.0334895975707314
| 28> H 1.058037050965642 2.120425944822971 -3.620473325013118
| 29> C 0.9298372040392663 1.0911083040152498 2.82545434652153
| 30> C -0.3251812333294202 -1.1268820452487553 3.2196342767049395
| 31> C 0.5309693474809425 -0.008974001440471509 3.816090327260062
| 32> H -0.36587206728646426 -1.9294658847516248 3.873231929915011
| 33> H -1.3616901247532969 -0.7149200640705744 3.1075116214340497
| 34> H 1.8564761202215736 -0.6557999186476651 4.318940141541415
| 35> H 0.18707237257393242 0.28587184118499825 4.449387815448105
| 36> H 1.3220608210268374 1.9650287116919978 3.3936708179347526
| 37> H 1.694379915168266 0.7662324448816941 2.188009067140034
| 38> *
| 39>
| 40> % eprnmr
| 41> gtensor true
| 42> Nuclei = all H {aiso,adip,aorb,fgrad,rho}
| 43> Nuclei = all V {aiso,adip,aorb,fgrad,rho}
| 44> end
| 45>
| 46>                          ****END OF INPUT****

CARTESIAN COORDINATES (ANGSTROEM)
---------------------------------
  V     -0.483714   -0.046117   -0.081240
  S     -0.485642    1.666161    1.783341
  S      0.598742    1.789514   -1.285068
  S      0.200985   -1.772384    1.566250
  S      0.555357   -1.680673   -1.642817
  O     -2.046063   -0.108340   -0.432231
  C      0.951707    1.214723   -3.014920
  C      0.082645   -1.181044   -3.363658
  C     -0.136647    0.314690   -3.612852
  H     -0.826405   -1.723367   -3.652409
  H      0.889392   -1.534804   -4.020023
  H     -1.102231    0.617765   -3.200531
  H     -0.190748    0.467809   -4.706017
  H      1.909232    0.686990   -3.033318
  H      1.057305    2.120362   -3.620302
  C      0.929105    1.091045    2.825626
  C     -0.325914   -1.126946    3.219806
  C      0.530237   -0.009038    3.816262
  H     -0.366604   -1.929530    3.873404
  H     -1.362422   -0.714984    3.107683
  H      1.855744   -0.655864    4.319112
  H      0.186340    0.285808    4.449560
  H      1.321328    1.964965    3.393843
  H      1.693648    0.766169    2.188181

 Total Charge           Charge          ....   -2
 Multiplicity           Mult            ....    2
 Number of Electrons    NEL             ....  145
 Basis Dimension        Dim             ....  353

ORBITAL ENERGIES
----------------
                 SPIN UP ORBITALS
  NO   OCC          E(Eh)            E(eV)
   0   1.0000    -196.609375     -5350.0131
   1   1.0000     -88.563686     -2409.9404
   2   1.0000     -88.562862     -2409.9180
   3   1.0000     -88.562845     -2409.9175
   4   1.0000     -88.560731     -2409.8600
   5   1.0000     -21.984766      -598.2359
   6   1.0000     -18.827153      -512.3129
   7   1.0000     -18.492535      -503.2074
   8   1.0000     -18.485383      -503.0128
   9   1.0000     -18.485301      -503.0106
  10   1.0000      -9.944197      -270.5954
  11   1.0000      -9.938920      -270.4518
  12   1.0000      -9.936667      -270.3904
  13   1.0000      -9.936052      -270.3737
  14   1.0000      -9.935798      -270.3668
  15   1.0000      -9.930434      -270.2208
  16   1.0000      -7.617757      -207.2897
  17   1.0000      -7.617187      -207.2742
  18   1.0000      -7.616711      -207.2613
  19   1.0000      -7.614972      -207.2139
  20   1.0000      -5.583012      -151.9215
  21   1.0000      -5.582519      -151.9081
  22   1.0000      -5.582101      -151.8967
  23   1.0000      -5.580413      -151.8508
  24   1.0000      -5.576770      -151.7516
  25   1.0000      -5.576256      -151.7376
  26   1.0000      -5.575557      -151.7186
  27   1.0000      -5.574904      -151.7009
  28   1.0000      -5.574295      -151.6843
  29   1.0000      -5.574039      -151.6773
  30   1.0000      -5.573889      -151.6732
  31   1.0000      -5.571904      -151.6192
  32   1.0000      -2.377413       -64.6927
  33   1.0000      -1.420059       -38.6418
  34   1.0000      -1.405528       -38.2464
  35   1.0000      -1.405067       -38.2338
  36   1.0000      -0.589662       -16.0455
  37   1.0000      -0.567513       -15.4428
  38   1.0000      -0.553060       -15.0495
  39   1.0000      -0.472835       -12.8665
  40   1.0000      -0.470746       -12.8096
  41   1.0000      -0.425164       -11.5693
  42   1.0000      -0.400592       -10.9007
  43   1.0000      -0.341874        -9.3029
  44   1.0000      -0.329881        -8.9765
  45   1.0000      -0.312702        -8.5091
  46   1.0000      -0.302489        -8.2311
  47   1.0000      -0.223177        -6.0730
  48   1.0000      -0.209184        -5.6922
  49   1.0000      -0.200154        -5.4465
  50   1.0000      -0.193495        -5.2653
  51   1.0000      -0.162691        -4.4271
  52   1.0000      -0.153973        -4.1898
  53   1.0000      -0.120793        -3.2869
  54   1.0000      -0.113914        -3.0997
  55   1.0000      -0.108971        -2.9653
  56   1.0000      -0.104343        -2.8393
  57   1.0000      -0.087235        -2.3738
  58   1.0000      -0.068425        -1.8619
  59   1.0000      -0.066008        -1.7962
  60   1.0000      -0.050934        -1.3860
  61   1.0000      -0.048569        -1.3216
  62   1.0000      -0.044886        -1.2214
  63   1.0000      -0.034464        -0.9378
  64   1.0000      -0.003064        -0.0834
  65   1.0000       0.024601         0.6694
  66   1.0000       0.028177         0.7667
  67   1.0000       0.034749         0.9456
  68   1.0000       0.042684         1.1615
  69   1.0000       0.050623         1.3775
  70   1.0000       0.062321         1.6958
  71   1.0000       0.069989         1.9045
  72   1.0000       0.077955         2.1213
  73   0.0000       0.225972         6.1490
  74   0.0000       0.233301         6.3484
  75   0.0000       0.244241         6.6461
  76   0.0000       0.248187         6.7535
  77   0.0000       0.250677         6.8213

                 SPIN DOWN ORBITALS
  NO   OCC          E(Eh)            E(eV)
   0   1.0000    -196.609517     -5350.0169
   1   1.0000     -88.563846     -2409.9448
   2   1.0000     -88.563022     -2409.9224
   3   1.0000     -88.562850     -2409.9177
   4   1.0000     -88.560836     -2409.8629
   5   1.0000     -21.969716      -597.8264
   6   1.0000     -18.830630      -512.4075
   7   1.0000     -18.487332      -503.0659
   8   1.0000     -18.469314      -502.5756
   9   1.0000     -18.468848      -502.5629
  10   1.0000      -9.944018      -270.5905
  11   1.0000      -9.938884      -270.4508
  12   1.0000      -9.936530      -270.3867
  13   1.0000      -9.935997      -270.3722
  14   1.0000      -9.935619      -270.3619
  15   1.0000      -9.930454      -270.2214
  16   1.0000      -7.617909      -207.2938
  17   1.0000      -7.617176      -207.2739
  18   1.0000      -7.616884      -207.2659
  19   1.0000      -7.615071      -207.2166
  20   1.0000      -5.583163      -151.9256
  21   1.0000      -5.582546      -151.9088
  22   1.0000      -5.582268      -151.9012
  23   1.0000      -5.580536      -151.8541
  24   1.0000      -5.577193      -151.7631
  25   1.0000      -5.576594      -151.7468
  26   1.0000      -5.576014      -151.7311
  27   1.0000      -5.575025      -151.7041
  28   1.0000      -5.574449      -151.6885
  29   1.0000      -5.574022      -151.6769
  30   1.0000      -5.573876      -151.6729
  31   1.0000      -5.571829      -151.6172
  32   1.0000      -2.332481       -63.4700
  33   1.0000      -1.401059       -38.1248
  34   1.0000      -1.343895       -36.5692
  35   1.0000      -1.342132       -36.5213
  36   1.0000      -0.597104       -16.2480
  37   1.0000      -0.567399       -15.4397
  38   1.0000      -0.552960       -15.0468
  39   1.0000      -0.472712       -12.8632
  40   1.0000      -0.470685       -12.8080
  41   1.0000      -0.425184       -11.5698
  42   1.0000      -0.400795       -10.9062
  43   1.0000      -0.341972        -9.3055
  44   1.0000      -0.330292        -8.9877
  45   1.0000      -0.312684        -8.5086
  46   1.0000      -0.302594        -8.2340
  47   1.0000      -0.223108        -6.0711
  48   1.0000      -0.209123        -5.6905
  49   1.0000      -0.199936        -5.4405
  50   1.0000      -0.193438        -5.2637
  51   1.0000      -0.162560        -4.4235
  52   1.0000      -0.153821        -4.1857
  53   1.0000      -0.120621        -3.2823
  54   1.0000      -0.113902        -3.0994
  55   1.0000      -0.108684        -2.9574
  56   1.0000      -0.104198        -2.8354
  57   1.0000      -0.085648        -2.3306
  58   1.0000      -0.066618        -1.8128
  59   1.0000      -0.064784        -1.7629
  60   1.0000      -0.052353        -1.4246
  61   1.0000      -0.049339        -1.3426
  62   1.0000      -0.045323        -1.2333
  63   1.0000      -0.035123        -0.9557
  64   1.0000       0.001597         0.0435
  65   1.0000       0.025823         0.7027
  66   1.0000       0.030953         0.8423
  67   1.0000       0.043044         1.1713
  68   1.0000       0.044358         1.2070
  69   1.0000       0.058015         1.5787
  70   1.0000       0.064683         1.7601
  71   1.0000       0.072394         1.9699
  72   0.0000       0.225556         6.1377
  73   0.0000       0.232116         6.3162
  74   0.0000       0.251241         6.8366
  75   0.0000       0.254008         6.9119
  76   0.0000       0.262379         7.1397

MULLIKEN ATOMIC CHARGES AND SPIN POPULATIONS
--------------------------------------------
   0 V :    0.526839    1.192888
   1 S :   -0.427425   -0.003765
   2 S :   -0.353006   -0.033240
   3 S :   -0.398903   -0.029391
   4 S :   -0.381738   -0.021923
   5 O :   -0.546384   -0.134285
   6 C :   -0.246355    0.005947
   7 C :   -0.235781    0.006540
   8 C :   -0.159533    0.003053
   9 H :    0.075458   -0.000935
  10 H :    0.052158    0.002146
  11 H :    0.138950    0.000642
  12 H :    0.006557   -0.000052
  13 H :    0.096632   -0.000136
  14 H :    0.050557   -0.000032
  15 C :   -0.248191   -0.002081
  16 C :   -0.261790    0.004255
  17 C :   -0.109741    0.008949
  18 H :    0.079984   -0.000085
  19 H :    0.122578   -0.000617
  20 H :   -0.146532    0.003541
  21 H :    0.161128   -0.001383
  22 H :    0.044461   -0.000635
  23 H :    0.160076    0.000599
Sum of atomic charges         :   -2.0000000

LOEWDIN ATOMIC CHARGES AND SPIN POPULATIONS
-------------------------------------------
   0 V :   -0.208404    1.149381
   1 S :   -0.065277    0.002048
   2 S :   -0.037578   -0.022810
   3 S :   -0.052432   -0.020467
   4 S :   -0.060469   -0.012771
   5 O :   -0.376778   -0.120992
   6 C :   -0.325220    0.005411
   7 C :   -0.314078    0.006958
   8 C :   -0.187248    0.000478
   9 H :    0.036444   -0.000005
  10 H :    0.029535    0.000626
  11 H :    0.070081    0.000337
  12 H :    0.031803    0.000151
  13 H :    0.045482   -0.000065
  14 H :    0.027895   -0.000521
  15 C :   -0.304681    0.002611
  16 C :   -0.315795    0.007423
  17 C :   -0.085825    0.000826
  18 H :    0.025032   -0.000137
  19 H :    0.065066   -0.000693
  20 H :   -0.028741    0.002380
  21 H :   -0.055001    0.000058
  22 H :    0.034038   -0.000635
  23 H :    0.052152    0.000408

  Mayer bond orders larger than 0.100000
B(  0-V ,  1-S ) :   0.6966 B(  0-V ,  2-S ) :   0.8593 B(  0-V ,  3-S ) :   0.7776
B(  0-V ,  4-S ) :   0.7798 B(  0-V ,  5-O ) :   2.0716 B(  1-S , 15-C ) :   0.9870
B(  2-S ,  6-C ) :   1.0101 B(  3-S , 16-C ) :   1.0292 B(  4-S ,  7-C ) :   1.0705
B(  6-C ,  8-C ) :   0.9011 B(  6-C , 13-H ) :   0.9747 B(  6-C , 14-H ) :   0.9686
B(  7-C ,  8-C ) :   0.9195 B(  7-C ,  9-H ) :   0.9765 B(  7-C , 10-H ) :   0.9688
B(  8-C , 11-H ) :   0.9881 B(  8-C , 12-H ) :   0.9454 B( 15-C , 17-C ) :   0.9208
B( 15-C , 22-H ) :   0.9703 B( 15-C , 23-H ) :   0.9744 B( 16-C , 17-C ) :   0.8910
B( 16-C , 18-H ) :   0.9665 B( 16-C , 19-H ) :   0.9665 B( 17-C , 20-H ) :   0.8614
B( 17-C , 21-H ) :   0.9568

FINAL SINGLE POINT ENERGY     -2847.547023629600

DIPOLE MOMENT
-------------
                                X             Y             Z
Electronic contribution:     -6.92843      -0.32835       0.02045
Nuclear contribution   :      6.93251       0.54115      -0.48811
                        -----------------------------------------
Total Dipole Moment    :      0.00409       0.21280      -0.46766
                        -----------------------------------------
Magnitude (a.u.)       :      0.51382
Magnitude (Debye)      :      1.30603

Rotational constants in cm-1:     0.027170     0.011720     0.009602
Rotational constants in MHz :   814.530660   351.352520   287.847760

                             ****ORCA TERMINATED NORMALLY****
TOTAL RUN TIME: 0 days 0 hours 9 minutes 32 seconds 918 msec
