                         Program Version 5.0.4 -  RELEASE  -
|  1> ! nofrozencore ReducedPop printbasis
|  2> ! B3LYP TZVP
|  3>
|  4> %basis
|  5> newgto V "CP(PPP)" end
|  6> end
|  7>
|  8> %pal
|  9> nprocs 4
| 10> end
| 11>
| 12> % sym SymThresh 1e-2 end
| 13> * xyz -2 2
| 14> V 0.013227814204706364 -0.37512916355009973 -0.3492321650414926
| 15> S -2.1278212016141484 -1.0752863754135902 0.5626858967632152
| 16> S -1.313451070324307 1.562052385295552 -1.086043844198939
| 17> S 1.1528959875689337 -1.0626717459910018 1.8444458379035935
| 18> S 2.160637297012968 1.0711415698860038 -0.4095339846272122
| 19> O 0.39364539904619095 -1.4285160832704078 -1.506864619598436
| 20> C -0.09654349912294329 2.629198713017468 -2.0823803589967396
| 21> C 2.4201755618048715 1.7075265465466811 -2.1147980028602826
| 22> C 1.1178714290854548 2.0450604170907396 -2.8717789056652836
| 23> H 2.9804636531396604 0.9711265204039016 -2.713500264301922
| 24> H 3.0585572514482324 2.604258377047702 -2.0335968391778882
| 25> H 0.7760902013915754 1.12808286539578 -3.394700292675398
| 26> H 1.3710373195873615 2.7879486830387803 -3.668576952058527
| 27> H 0.2775208411777213 3.4066714277215144 -1.3943128917014536
| 28> H -0.7365612924050885 3.1318740085996137 -2.8280696347635668
| 29> C -2.1120970481629007 -0.6111580857663323 2.34426479386779
| 30> C -0.12876152468154656 -2.248397915087104 2.5037811815138014
| 31> C -1.4079095352258186 -1.691352572570437 3.1602639445153287
| 32> H 0.36885237436737917 -2.9033884189133663 3.235339237065611
| 33> H -0.4374956471720027 -2.869641454087045 1.6617659506599427
| 34> H -1.185610390668906 -1.3115274193772213 4.174820181362264
| 35> H -2.0988833173839656 -2.5465178547135183 3.280538853636936
| 36> H -3.1518382479594247 -0.49455203178942686 2.677449560228168
| 37> H -1.6113773718616342 0.3525372209117034 2.4626686764413
| 38> *
| 39>
| 40> % eprnmr
| 41> gtensor true
| 42> Nuclei = all H {aiso,adip,aorb,fgrad,rho}
| 43> Nuclei = all V {aiso,adip,aorb,fgrad,rho}
| 44> end
| 45>
| 46>                          ****END OF INPUT****

CARTESIAN COORDINATES (ANGSTROEM)
---------------------------------
  V      0.013247   -0.375827   -0.349520
  S     -2.127802   -1.075984    0.562399
  S     -1.313432    1.561355   -1.086331
  S      1.152915   -1.063370    1.844158
  S      2.160657    1.070444   -0.409821
  O      0.393665   -1.429214   -1.507152
  C     -0.096524    2.628501   -2.082668
  C      2.420195    1.706829   -2.115085
  C      1.117891    2.044363   -2.872066
  H      2.980483    0.970429   -2.713788
  H      3.058576    2.603561   -2.033884
  H      0.776109    1.127385   -3.394988
  H      1.371057    2.787251   -3.668864
  H      0.277540    3.405974   -1.394600
  H     -0.736542    3.131176   -2.828357
  C     -2.112078   -0.611856    2.343977
  C     -0.128742   -2.249096    2.503494
  C     -1.407890   -1.692050    3.159977
  H      0.368872   -2.904086    3.235052
  H     -0.437476   -2.870339    1.661479
  H     -1.185591   -1.312225    4.174533
  H     -2.098864   -2.547216    3.280251
  H     -3.151819   -0.495250    2.677162
  H     -1.611358    0.351839    2.462381

 Total Charge           Charge          ....   -2
 Multiplicity           Mult            ....    2
 Number of Electrons    NEL             ....  145
 Basis Dimension        Dim             ....  353

ORBITAL ENERGIES
----------------
                 SPIN UP ORBITALS
  NO   OCC          E(Eh)            E(eV)
   0   1.0000    -196.611719     -5350.0769
   1   1.0000     -88.567517     -2410.0447
   2   1.0000     -88.562954     -2409.9205
   3   1.0000     -88.562284     -2409.9023
   4   1.0000     -88.553371     -2409.6597
   5   1.0000     -21.986612      -598.2861
   6   1.0000     -18.827342      -512.3180
   7   1.0000     -18.494477      -503.2603
   8   1.0000     -18.487243      -503.0635
   9   1.0000     -18.487097      -503.0595
  10   1.0000      -9.942426      -270.5472
  11   1.0000      -9.941071      -270.5103
  12   1.0000      -9.940933      -270.5065
  13   1.0000      -9.937272      -270.4069
  14   1.0000      -9.935245      -270.3518
  15   1.0000      -9.933137      -270.2944
  16   1.0000      -7.620298      -207.3588
  17   1.0000      -7.618358      -207.3061
  18   1.0000      -7.615462      -207.2272
  19   1.0000      -7.607459      -207.0095
  20   1.0000      -5.585879      -151.9995
  21   1.0000      -5.583531      -151.9356
  22   1.0000      -5.580761      -151.8602
  23   1.0000      -5.579215      -151.8181
  24   1.0000      -5.577450      -151.7701
  25   1.0000      -5.577344      -151.7672
  26   1.0000      -5.575527      -151.7178
  27   1.0000      -5.574677      -151.6947
  28   1.0000      -5.572942      -151.6474
  29   1.0000      -5.572543      -151.6366
  30   1.0000      -5.566663      -151.4766
  31   1.0000      -5.564189      -151.4093
  32   1.0000      -2.378873       -64.7324
  33   1.0000      -1.420685       -38.6588
  34   1.0000      -1.406986       -38.2860
  35   1.0000      -1.406566       -38.2746
  36   1.0000      -0.589102       -16.0303
  37   1.0000      -0.553581       -15.0637
  38   1.0000      -0.542578       -14.7643
  39   1.0000      -0.467368       -12.7177
  40   1.0000      -0.465501       -12.6669
  41   1.0000      -0.405300       -11.0288
  42   1.0000      -0.395946       -10.7742
  43   1.0000      -0.340897        -9.2763
  44   1.0000      -0.329011        -8.9528
  45   1.0000      -0.296633        -8.0718
  46   1.0000      -0.286065        -7.7842
  47   1.0000      -0.216117        -5.8808
  48   1.0000      -0.205111        -5.5813
  49   1.0000      -0.203567        -5.5393
  50   1.0000      -0.193813        -5.2739
  51   1.0000      -0.154789        -4.2120
  52   1.0000      -0.135949        -3.6994
  53   1.0000      -0.133897        -3.6435
  54   1.0000      -0.112828        -3.0702
  55   1.0000      -0.109359        -2.9758
  56   1.0000      -0.104272        -2.8374
  57   1.0000      -0.076992        -2.0951
  58   1.0000      -0.070762        -1.9255
  59   1.0000      -0.064708        -1.7608
  60   1.0000      -0.055139        -1.5004
  61   1.0000      -0.045716        -1.2440
  62   1.0000      -0.043905        -1.1947
  63   1.0000      -0.037049        -1.0082
  64   1.0000       0.000892         0.0243
  65   1.0000       0.023041         0.6270
  66   1.0000       0.031486         0.8568
  67   1.0000       0.034994         0.9522
  68   1.0000       0.043904         1.1947
  69   1.0000       0.052987         1.4418
  70   1.0000       0.063398         1.7251
  71   1.0000       0.074048         2.0149
  72   1.0000       0.081488         2.2174
  73   0.0000       0.228741         6.2244
  74   0.0000       0.240650         6.5484
  75   0.0000       0.244444         6.6517
  76   0.0000       0.251269         6.8374
  77   0.0000       0.256181         6.9710

                 SPIN DOWN ORBITALS
  NO   OCC          E(Eh)            E(eV)
   0   1.0000    -196.611861     -5350.0807
   1   1.0000     -88.567684     -2410.0492
   2   1.0000     -88.562887     -2409.9187
   3   1.0000     -88.562461     -2409.9071
   4   1.0000     -88.553496     -2409.6631
   5   1.0000     -21.971339      -597.8705
   6   1.0000     -18.830945      -512.4161
   7   1.0000     -18.489144      -503.1152
   8   1.0000     -18.470941      -502.6199
   9   1.0000     -18.470441      -502.6063
  10   1.0000      -9.942312      -270.5441
  11   1.0000      -9.940985      -270.5080
  12   1.0000      -9.940833      -270.5038
  13   1.0000      -9.937294      -270.4075
  14   1.0000      -9.935197      -270.3504
  15   1.0000      -9.933016      -270.2911
  16   1.0000      -7.620462      -207.3633
  17   1.0000      -7.618294      -207.3043
  18   1.0000      -7.615630      -207.2318
  19   1.0000      -7.607577      -207.0127
  20   1.0000      -5.586022      -152.0034
  21   1.0000      -5.583536      -151.9357
  22   1.0000      -5.580900      -151.8640
  23   1.0000      -5.579672      -151.8306
  24   1.0000      -5.577629      -151.7750
  25   1.0000      -5.577555      -151.7730
  26   1.0000      -5.575172      -151.7081
  27   1.0000      -5.574946      -151.7020
  28   1.0000      -5.573061      -151.6507
  29   1.0000      -5.572677      -151.6402
  30   1.0000      -5.567141      -151.4896
  31   1.0000      -5.564138      -151.4079
  32   1.0000      -2.333337       -63.4933
  33   1.0000      -1.401191       -38.1283
  34   1.0000      -1.344554       -36.5872
  35   1.0000      -1.343054       -36.5463
  36   1.0000      -0.596926       -16.2432
  37   1.0000      -0.553393       -15.0586
  38   1.0000      -0.542549       -14.7635
  39   1.0000      -0.467256       -12.7147
  40   1.0000      -0.465514       -12.6673
  41   1.0000      -0.405280       -11.0282
  42   1.0000      -0.396208       -10.7814
  43   1.0000      -0.341021        -9.2797
  44   1.0000      -0.329477        -8.9655
  45   1.0000      -0.296671        -8.0728
  46   1.0000      -0.286168        -7.7870
  47   1.0000      -0.216046        -5.8789
  48   1.0000      -0.204931        -5.5764
  49   1.0000      -0.203520        -5.5381
  50   1.0000      -0.193749        -5.2722
  51   1.0000      -0.154691        -4.2094
  52   1.0000      -0.135778        -3.6947
  53   1.0000      -0.133653        -3.6369
  54   1.0000      -0.112833        -3.0703
  55   1.0000      -0.109287        -2.9738
  56   1.0000      -0.104140        -2.8338
  57   1.0000      -0.075846        -2.0639
  58   1.0000      -0.069065        -1.8794
  59   1.0000      -0.064141        -1.7454
  60   1.0000      -0.054596        -1.4856
  61   1.0000      -0.047610        -1.2955
  62   1.0000      -0.045147        -1.2285
  63   1.0000      -0.037523        -1.0210
  64   1.0000       0.004466         0.1215
  65   1.0000       0.024826         0.6755
  66   1.0000       0.035548         0.9673
  67   1.0000       0.042590         1.1589
  68   1.0000       0.050242         1.3672
  69   1.0000       0.059414         1.6167
  70   1.0000       0.064605         1.7580
  71   1.0000       0.077309         2.1037
  72   0.0000       0.234838         6.3903
  73   0.0000       0.245737         6.6868
  74   0.0000       0.254050         6.9130
  75   0.0000       0.257157         6.9976
  76   0.0000       0.259896         7.0721

MULLIKEN ATOMIC CHARGES AND SPIN POPULATIONS
--------------------------------------------
   0 V :    0.555942    1.200986
   1 S :   -0.403721    0.005488
   2 S :   -0.369543   -0.031795
   3 S :   -0.417391   -0.033586
   4 S :   -0.397272   -0.026118
   5 O :   -0.550973   -0.138578
   6 C :   -0.237522    0.004384
   7 C :   -0.229358    0.005028
   8 C :   -0.131110    0.001558
   9 H :    0.071016   -0.000571
  10 H :    0.048366    0.001363
  11 H :    0.104458    0.000503
  12 H :    0.003368   -0.000038
  13 H :    0.084551    0.000068
  14 H :    0.044274   -0.000099
  15 C :   -0.229792   -0.000976
  16 C :   -0.280861    0.000856
  17 C :   -0.073082    0.009751
  18 H :    0.044082   -0.000471
  19 H :    0.140951    0.000350
  20 H :    0.012917    0.002958
  21 H :    0.017740   -0.000446
  22 H :    0.057743   -0.000665
  23 H :    0.135217    0.000050
Sum of atomic charges         :   -2.0000000

LOEWDIN ATOMIC CHARGES AND SPIN POPULATIONS
-------------------------------------------
   0 V :   -0.169206    1.158246
   1 S :   -0.024771    0.012126
   2 S :   -0.062681   -0.021903
   3 S :   -0.093679   -0.025073
   4 S :   -0.089515   -0.017682
   5 O :   -0.381585   -0.125442
   6 C :   -0.322944    0.003868
   7 C :   -0.323566    0.004393
   8 C :   -0.184168    0.000112
   9 H :    0.036258    0.000137
  10 H :    0.027702    0.000324
  11 H :    0.067269    0.000130
  12 H :    0.033690    0.000093
  13 H :    0.045005   -0.000016
  14 H :    0.028897   -0.000462
  15 C :   -0.307441    0.003959
  16 C :   -0.334285    0.005370
  17 C :   -0.189766    0.001512
  18 H :    0.026885   -0.000075
  19 H :    0.053247   -0.000635
  20 H :    0.033844    0.001187
  21 H :    0.039088    0.000219
  22 H :    0.033469   -0.000654
  23 H :    0.058253    0.000265

  Mayer bond orders larger than 0.100000
B(  0-V ,  1-S ) :   0.7765 B(  0-V ,  2-S ) :   0.8489 B(  0-V ,  3-S ) :   0.7357
B(  0-V ,  4-S ) :   0.7153 B(  0-V ,  5-O ) :   2.0711 B(  1-S , 15-C ) :   0.9802
B(  2-S ,  6-C ) :   0.9910 B(  3-S , 16-C ) :   1.0535 B(  4-S ,  7-C ) :   1.1212
B(  4-S ,  8-C ) :  -0.1093 B(  6-C ,  8-C ) :   0.9185 B(  6-C , 13-H ) :   0.9775
B(  6-C , 14-H ) :   0.9691 B(  7-C ,  8-C ) :   0.9234 B(  7-C ,  9-H ) :   0.9730
B(  7-C , 10-H ) :   0.9692 B(  8-C , 11-H ) :   0.9843 B(  8-C , 12-H ) :   0.9537
B( 15-C , 17-C ) :   0.9050 B( 15-C , 22-H ) :   0.9705 B( 15-C , 23-H ) :   0.9754
B( 16-C , 17-C ) :   0.8892 B( 16-C , 18-H ) :   0.9598 B( 16-C , 19-H ) :   0.9781
B( 17-C , 20-H ) :   0.9475 B( 17-C , 21-H ) :   0.9676

FINAL SINGLE POINT ENERGY     -2847.704403958187

DIPOLE MOMENT
-------------
                                X             Y             Z
Electronic contribution:      0.04670      -5.35883      -2.88205
Nuclear contribution   :     -0.41669       5.68810       2.93371
                        -----------------------------------------
Total Dipole Moment    :     -0.37000       0.32927       0.05166
                        -----------------------------------------
Magnitude (a.u.)       :      0.49798
Magnitude (Debye)      :      1.26577

Rotational constants in cm-1:     0.026520     0.011640     0.009476
Rotational constants in MHz :   795.057450   348.966538   284.074923

                             ****ORCA TERMINATED NORMALLY****
TOTAL RUN TIME: 0 days 0 hours 14 minutes 36 seconds 342 msec
