                         Program Version 5.0.4 -  RELEASE  -
|  1> ! nofrozencore ReducedPop printbasis
|  2> ! B3LYP TZVP
|  3>
|  4> %basis
|  5> newgto V "CP(PPP)" end
|  6> end
|  7>
|  8> %pal
|  9> nprocs 4
| 10> end
| 11>
| 12> % sym SymThresh 1e-2 end
| 13> * xyz -2 2
| 14> V 0.2599412714292863 -0.3057854517279603 -0.0579872566884603
| 15> S 0.3399269504515303 0.34003140624841244 -2.3492819989882974
| 16> S 1.3402274909628533 1.6703956358676857 0.3121233774929468
| 17> S -1.9336963358879118 -1.1730425347860967 -0.3787285895100524
| 18> S -0.33325125127847066 -0.3217615673194788 2.21184838806629
| 19> O 1.2860529703198014 -1.541365800051986 0.054834731281528944
| 20> C 1.6737084777622606 1.8427496313122405 2.1285360685413197
| 21> C 0.998552975703812 -0.0897948442148703 3.4903884698913514
| 22> C 2.198245158708119 0.5923333083232994 2.862861922501344
| 23> H 1.2687008848312473 -1.0571939865362505 3.9780268628998723
| 24> H 0.5618416684680427 0.5747490570829926 4.278963343623226
| 25> H 2.6919420315760196 -0.08168816042411997 2.1549760382403087
| 26> H 2.9363867547286375 0.8759717138909742 3.638716498209517
| 27> H 0.7360596525688277 2.1539534384980654 2.613996860961699
| 28> H 2.392860475150467 2.6753482640851876 2.212811961168877
| 29> C -1.3747928297991765 0.9413921130229975 -2.6783020511409594
| 30> C -2.1856256384801283 -1.4489006719026505 -2.1891990121604707
| 31> C -2.3571504988255105 -0.17991194966584906 -3.033430964825322
| 32> H -3.0783249832630943 -2.080371931073813 -2.2999737328996797
| 33> H -1.326744205339534 -2.0089517495881264 -2.566639022441172
| 34> H -3.384661178056977 0.2020772501397798 -2.923185687402
| 35> H -2.2283047497396367 -0.45258986560280295 -4.0935468130125745
| 36> H -1.334779136796449 1.669448197488239 -3.4980940867459807
| 37> H -1.7285598908713655 1.467522404795126 -1.7900859325633234
| 38> *
| 39>
| 40> % eprnmr
| 41> gtensor true
| 42> Nuclei = all H {aiso,adip,aorb,fgrad,rho}
| 43> Nuclei = all V {aiso,adip,aorb,fgrad,rho}
| 44> end
| 45>
| 46>                          ****END OF INPUT****

CARTESIAN COORDINATES (ANGSTROEM)
---------------------------------
  V      0.260247   -0.306416   -0.058267
  S      0.340233    0.339400   -2.349562
  S      1.340533    1.669765    0.311843
  S     -1.933391   -1.173674   -0.379009
  S     -0.332945   -0.322393    2.211568
  O      1.286359   -1.541997    0.054555
  C      1.674014    1.842119    2.128256
  C      0.998859   -0.090426    3.490109
  C      2.198551    0.591702    2.862582
  H      1.269007   -1.057825    3.977747
  H      0.562147    0.574118    4.278683
  H      2.692248   -0.082319    2.154696
  H      2.936693    0.875341    3.638437
  H      0.736365    2.153322    2.613717
  H      2.393166    2.674717    2.212532
  C     -1.374487    0.940761   -2.678582
  C     -2.185320   -1.449532   -2.189479
  C     -2.356845   -0.180543   -3.033711
  H     -3.078019   -2.081003   -2.300254
  H     -1.326438   -2.009583   -2.566919
  H     -3.384355    0.201446   -2.923466
  H     -2.227999   -0.453221   -4.093827
  H     -1.334473    1.668817   -3.498374
  H     -1.728254    1.466891   -1.790366

 Total Charge           Charge          ....   -2
 Multiplicity           Mult            ....    2
 Number of Electrons    NEL             ....  145
 Basis Dimension        Dim             ....  353

ORBITAL ENERGIES
----------------
                 SPIN UP ORBITALS
  NO   OCC          E(Eh)            E(eV)
   0   1.0000    -196.581142     -5349.2448
   1   1.0000     -88.556445     -2409.7434
   2   1.0000     -88.554088     -2409.6792
   3   1.0000     -88.553788     -2409.6711
   4   1.0000     -88.546607     -2409.4757
   5   1.0000     -21.958345      -597.5170
   6   1.0000     -18.804426      -511.6945
   7   1.0000     -18.465905      -502.4828
   8   1.0000     -18.459016      -502.2954
   9   1.0000     -18.458788      -502.2892
  10   1.0000      -9.944908      -270.6147
  11   1.0000      -9.933988      -270.3175
  12   1.0000      -9.932563      -270.2788
  13   1.0000      -9.931363      -270.2461
  14   1.0000      -9.930738      -270.2291
  15   1.0000      -9.926516      -270.1142
  16   1.0000      -7.611767      -207.1267
  17   1.0000      -7.609413      -207.0627
  18   1.0000      -7.609161      -207.0558
  19   1.0000      -7.602544      -206.8758
  20   1.0000      -5.577073      -151.7599
  21   1.0000      -5.574665      -151.6943
  22   1.0000      -5.574456      -151.6887
  23   1.0000      -5.570132      -151.5710
  24   1.0000      -5.569220      -151.5462
  25   1.0000      -5.568204      -151.5185
  26   1.0000      -5.568122      -151.5163
  27   1.0000      -5.567808      -151.5078
  28   1.0000      -5.566681      -151.4771
  29   1.0000      -5.566450      -151.4708
  30   1.0000      -5.561139      -151.3263
  31   1.0000      -5.559460      -151.2806
  32   1.0000      -2.353804       -64.0503
  33   1.0000      -1.396191       -37.9923
  34   1.0000      -1.384035       -37.6615
  35   1.0000      -1.382584       -37.6220
  36   1.0000      -0.568692       -15.4749
  37   1.0000      -0.552994       -15.0477
  38   1.0000      -0.550533       -14.9808
  39   1.0000      -0.464577       -12.6418
  40   1.0000      -0.459261       -12.4971
  41   1.0000      -0.404978       -11.0200
  42   1.0000      -0.394467       -10.7340
  43   1.0000      -0.336135        -9.1467
  44   1.0000      -0.323364        -8.7992
  45   1.0000      -0.306252        -8.3335
  46   1.0000      -0.285407        -7.7663
  47   1.0000      -0.215039        -5.8515
  48   1.0000      -0.209090        -5.6896
  49   1.0000      -0.201132        -5.4731
  50   1.0000      -0.193626        -5.2688
  51   1.0000      -0.152154        -4.1403
  52   1.0000      -0.135661        -3.6915
  53   1.0000      -0.129632        -3.5275
  54   1.0000      -0.112641        -3.0651
  55   1.0000      -0.105727        -2.8770
  56   1.0000      -0.101106        -2.7512
  57   1.0000      -0.081985        -2.2309
  58   1.0000      -0.072044        -1.9604
  59   1.0000      -0.056225        -1.5300
  60   1.0000      -0.044572        -1.2129
  61   1.0000      -0.041833        -1.1383
  62   1.0000      -0.029759        -0.8098
  63   1.0000      -0.025073        -0.6823
  64   1.0000      -0.001802        -0.0490
  65   1.0000       0.024971         0.6795
  66   1.0000       0.033899         0.9224
  67   1.0000       0.045056         1.2260
  68   1.0000       0.053412         1.4534
  69   1.0000       0.060625         1.6497
  70   1.0000       0.069125         1.8810
  71   1.0000       0.080790         2.1984
  72   1.0000       0.096626         2.6293
  73   0.0000       0.245602         6.6832
  74   0.0000       0.254387         6.9222
  75   0.0000       0.260575         7.0906
  76   0.0000       0.265092         7.2135
  77   0.0000       0.272292         7.4095

                 SPIN DOWN ORBITALS
  NO   OCC          E(Eh)            E(eV)
   0   1.0000    -196.581266     -5349.2482
   1   1.0000     -88.556588     -2409.7473
   2   1.0000     -88.554230     -2409.6831
   3   1.0000     -88.553673     -2409.6680
   4   1.0000     -88.546674     -2409.4775
   5   1.0000     -21.944385      -597.1371
   6   1.0000     -18.807453      -511.7768
   7   1.0000     -18.461167      -502.3539
   8   1.0000     -18.443784      -501.8809
   9   1.0000     -18.443766      -501.8804
  10   1.0000      -9.944565      -270.6054
  11   1.0000      -9.933871      -270.3144
  12   1.0000      -9.932273      -270.2709
  13   1.0000      -9.931306      -270.2446
  14   1.0000      -9.930552      -270.2241
  15   1.0000      -9.926541      -270.1149
  16   1.0000      -7.611909      -207.1306
  17   1.0000      -7.609305      -207.0597
  18   1.0000      -7.609291      -207.0593
  19   1.0000      -7.602601      -206.8773
  20   1.0000      -5.577232      -151.7642
  21   1.0000      -5.574643      -151.6937
  22   1.0000      -5.574629      -151.6934
  23   1.0000      -5.570467      -151.5801
  24   1.0000      -5.569323      -151.5490
  25   1.0000      -5.568399      -151.5238
  26   1.0000      -5.568273      -151.5204
  27   1.0000      -5.568147      -151.5170
  28   1.0000      -5.566558      -151.4737
  29   1.0000      -5.566015      -151.4590
  30   1.0000      -5.561394      -151.3332
  31   1.0000      -5.559363      -151.2780
  32   1.0000      -2.311965       -62.9118
  33   1.0000      -1.378794       -37.5189
  34   1.0000      -1.325910       -36.0799
  35   1.0000      -1.324595       -36.0441
  36   1.0000      -0.575061       -15.6482
  37   1.0000      -0.552808       -15.0427
  38   1.0000      -0.550215       -14.9721
  39   1.0000      -0.464125       -12.6295
  40   1.0000      -0.458954       -12.4888
  41   1.0000      -0.404625       -11.0104
  42   1.0000      -0.394297       -10.7294
  43   1.0000      -0.335863        -9.1393
  44   1.0000      -0.323426        -8.8009
  45   1.0000      -0.305994        -8.3265
  46   1.0000      -0.285180        -7.7601
  47   1.0000      -0.214888        -5.8474
  48   1.0000      -0.208876        -5.6838
  49   1.0000      -0.200853        -5.4655
  50   1.0000      -0.193278        -5.2594
  51   1.0000      -0.151896        -4.1333
  52   1.0000      -0.135290        -3.6814
  53   1.0000      -0.129216        -3.5161
  54   1.0000      -0.112447        -3.0598
  55   1.0000      -0.105569        -2.8727
  56   1.0000      -0.100857        -2.7445
  57   1.0000      -0.080104        -2.1797
  58   1.0000      -0.068892        -1.8747
  59   1.0000      -0.055003        -1.4967
  60   1.0000      -0.043241        -1.1767
  61   1.0000      -0.041009        -1.1159
  62   1.0000      -0.030265        -0.8236
  63   1.0000      -0.026188        -0.7126
  64   1.0000       0.004996         0.1359
  65   1.0000       0.026882         0.7315
  66   1.0000       0.036171         0.9843
  67   1.0000       0.049421         1.3448
  68   1.0000       0.056393         1.5345
  69   1.0000       0.066216         1.8018
  70   1.0000       0.071013         1.9324
  71   1.0000       0.083191         2.2637
  72   0.0000       0.236832         6.4445
  73   0.0000       0.254423         6.9232
  74   0.0000       0.258779         7.0417
  75   0.0000       0.268175         7.2974
  76   0.0000       0.277883         7.5616

MULLIKEN ATOMIC CHARGES AND SPIN POPULATIONS
--------------------------------------------
   0 V :    0.371892    1.124259
   1 S :   -0.394215    0.014750
   2 S :   -0.304284   -0.023829
   3 S :   -0.376095   -0.026609
   4 S :   -0.336557   -0.010181
   5 O :   -0.541191   -0.119126
   6 C :   -0.265097    0.006450
   7 C :   -0.220343    0.010335
   8 C :   -0.171457    0.002956
   9 H :    0.061533   -0.001456
  10 H :    0.051167    0.003224
  11 H :    0.153927    0.000359
  12 H :    0.004397    0.000239
  13 H :    0.113095   -0.000060
  14 H :    0.039530   -0.000355
  15 C :   -0.247431   -0.000463
  16 C :   -0.242296    0.007496
  17 C :   -0.082571    0.009961
  18 H :    0.045013   -0.000139
  19 H :    0.122217   -0.000267
  20 H :    0.012907    0.002598
  21 H :    0.014354   -0.000041
  22 H :    0.051868   -0.000491
  23 H :    0.139638    0.000389
Sum of atomic charges         :   -2.0000000

LOEWDIN ATOMIC CHARGES AND SPIN POPULATIONS
-------------------------------------------
   0 V :   -0.431953    1.074787
   1 S :   -0.016428    0.020655
   2 S :    0.036225   -0.013295
   3 S :   -0.017921   -0.015502
   4 S :    0.002467   -0.002439
   5 O :   -0.392448   -0.105739
   6 C :   -0.335248    0.007305
   7 C :   -0.307539    0.012898
   8 C :   -0.188822    0.000246
   9 H :    0.032162   -0.000224
  10 H :    0.032234    0.000912
  11 H :    0.075204    0.000436
  12 H :    0.028616    0.000583
  13 H :    0.049732   -0.000099
  14 H :    0.024227   -0.000698
  15 C :   -0.314292    0.005368
  16 C :   -0.324935    0.012038
  17 C :   -0.188543    0.001645
  18 H :    0.028280   -0.000050
  19 H :    0.052137   -0.000609
  20 H :    0.035186    0.001107
  21 H :    0.035070    0.000493
  22 H :    0.030595   -0.000490
  23 H :    0.055995    0.000672

  Mayer bond orders larger than 0.100000
B(  0-V ,  1-S ) :   0.7641 B(  0-V ,  2-S ) :   0.9477 B(  0-V ,  3-S ) :   0.8068
B(  0-V ,  4-S ) :   0.8414 B(  0-V ,  5-O ) :   2.0528 B(  1-S , 15-C ) :   1.0054
B(  2-S ,  6-C ) :   0.9664 B(  3-S , 16-C ) :   1.0211 B(  4-S ,  7-C ) :   1.0234
B(  6-C ,  8-C ) :   0.8786 B(  6-C , 13-H ) :   0.9862 B(  6-C , 14-H ) :   0.9555
B(  7-C ,  8-C ) :   0.9340 B(  7-C ,  9-H ) :   0.9622 B(  7-C , 10-H ) :   0.9668
B(  8-C , 11-H ) :   0.9819 B(  8-C , 12-H ) :   0.9403 B( 15-C , 17-C ) :   0.9022
B( 15-C , 22-H ) :   0.9676 B( 15-C , 23-H ) :   0.9790 B( 16-C , 17-C ) :   0.9083
B( 16-C , 18-H ) :   0.9624 B( 16-C , 19-H ) :   0.9737 B( 17-C , 20-H ) :   0.9564
B( 17-C , 21-H ) :   0.9618

FINAL SINGLE POINT ENERGY     -2847.694363888897

DIPOLE MOMENT
-------------
                                X             Y             Z
Electronic contribution:      3.36210      -4.51974      -1.76127
Nuclear contribution   :     -3.50327       5.06676       1.87349
                        -----------------------------------------
Total Dipole Moment    :     -0.14116       0.54703       0.11222
                        -----------------------------------------
Magnitude (a.u.)       :      0.57599
Magnitude (Debye)      :      1.46404

Rotational constants in cm-1:     0.030281     0.011998     0.009962
Rotational constants in MHz :   907.794319   359.684498   298.642358

                             ****ORCA TERMINATED NORMALLY****
TOTAL RUN TIME: 0 days 0 hours 14 minutes 24 seconds 686 msec
