                         Program Version 5.0.4 -  RELEASE  -
|  1> ! nofrozencore ReducedPop printbasis
|  2> ! B3LYP TZVP
|  3>
|  4> %basis
|  5> newgto V "CP(PPP)" end
|  6> end
|  7>
|  8> %pal
|  9> nprocs 4
| 10> end
| 11>
| 12> % sym SymThresh 1e-2 end
| 13> * xyz -2 2
| 14> V 0.2202318217494109 -0.31346497354003744 0.3092303197205593
| 15> S 0.3704245886984412 -1.613933935081062 -1.8569814369862045
| 16> S 1.7333703031533727 1.1836614249323156 -0.8985693504088516
| 17> S -2.2224945380373446 -0.7554791249550447 0.3526349259947619
| 18> S -0.4893092085877371 1.578363344849752 1.7614853113665028
| 19> O 1.0418348490433817 -1.2744057915699813 1.2924550427932273
| 20> C 2.158165561865102 2.5955724223084786 0.22795675196884468
| 21> C 1.0397296690420597 2.2999917387248248 2.5230614811144116
| 22> C 2.3280359422476056 2.206328436369792 1.6955057485397484
| 23> H 1.2155486921290057 1.8008454397175024 3.482308914410975
| 24> H 0.816673238035289 3.3606390325267825 2.6912132040259107
| 25> H 2.7294269140594354 1.190840459115998 1.7467852947736273
| 26> H 3.0829577421357444 2.854354024443574 2.1777242653910647
| 27> H 1.4218665119590415 3.402394437116152 0.11121020271311564
| 28> H 3.0702085341760483 3.0621830563643675 -0.17299065617987505
| 29> C -1.2376830523469342 -1.1995505544774694 -2.655048946854271
| 30> C -2.4804348506212506 -2.279349107042389 -0.683842325573372
| 31> C -2.4497004399967905 -2.036094854280224 -2.222988844846533
| 32> H -3.553300123231209 -2.5244259435071656 -0.5188215068807688
| 33> H -1.5497165562529047 -2.8562940656484215 -0.5056173427674817
| 34> H -3.2808493695671306 -1.291194044483757 -2.401961888223592
| 35> H -2.1653155507685535 -3.064584156633529 -2.596371426636921
| 36> H -1.1265878425182616 -1.0077386496441694 -3.7872786407677212
| 37> H -1.3870918703195403 -0.07020824927189337 -2.7627282975487506
| 38> *
| 39>
| 40> % eprnmr
| 41> gtensor true
| 42> Nuclei = all H {aiso,adip,aorb,fgrad,rho}
| 43> Nuclei = all V {aiso,adip,aorb,fgrad,rho}
| 44> end
| 45>
| 46>                          ****END OF INPUT****

CARTESIAN COORDINATES (ANGSTROEM)
---------------------------------
  V      0.220402   -0.314130    0.309543
  S      0.370595   -1.614599   -1.856668
  S      1.733540    1.182996   -0.898256
  S     -2.222324   -0.756145    0.352948
  S     -0.489139    1.577698    1.761798
  O      1.042005   -1.275071    1.292768
  C      2.158336    2.594907    0.228270
  C      1.039900    2.299326    2.523375
  C      2.328206    2.205663    1.695819
  H      1.215719    1.800180    3.482622
  H      0.816843    3.359974    2.691526
  H      2.729597    1.190175    1.747098
  H      3.083128    2.853689    2.178037
  H      1.422037    3.401729    0.111523
  H      3.070379    3.061518   -0.172678
  C     -1.237513   -1.200216   -2.654736
  C     -2.480265   -2.280015   -0.683529
  C     -2.449530   -2.036760   -2.222676
  H     -3.553130   -2.525091   -0.518508
  H     -1.549546   -2.856960   -0.505304
  H     -3.280679   -1.291860   -2.401649
  H     -2.165145   -3.065250   -2.596058
  H     -1.126418   -1.008404   -3.786966
  H     -1.386922   -0.070874   -2.762415

 Total Charge           Charge          ....   -2
 Multiplicity           Mult            ....    2
 Number of Electrons    NEL             ....  145
 Basis Dimension        Dim             ....  353

ORBITAL ENERGIES
----------------
                 SPIN UP ORBITALS
  NO   OCC          E(Eh)            E(eV)
   0   1.0000    -196.607533     -5349.9630
   1   1.0000     -88.563676     -2409.9402
   2   1.0000     -88.561816     -2409.8895
   3   1.0000     -88.559081     -2409.8151
   4   1.0000     -88.558519     -2409.7998
   5   1.0000     -21.982926      -598.1858
   6   1.0000     -18.825582      -512.2701
   7   1.0000     -18.490699      -503.1575
   8   1.0000     -18.483549      -502.9629
   9   1.0000     -18.483443      -502.9601
  10   1.0000      -9.943708      -270.5820
  11   1.0000      -9.942858      -270.5589
  12   1.0000      -9.941940      -270.5339
  13   1.0000      -9.938965      -270.4530
  14   1.0000      -9.936558      -270.3875
  15   1.0000      -9.929947      -270.2076
  16   1.0000      -7.617676      -207.2875
  17   1.0000      -7.615669      -207.2329
  18   1.0000      -7.613335      -207.1694
  19   1.0000      -7.612796      -207.1547
  20   1.0000      -5.582915      -151.9189
  21   1.0000      -5.581087      -151.8691
  22   1.0000      -5.578386      -151.7956
  23   1.0000      -5.578246      -151.7918
  24   1.0000      -5.576775      -151.7518
  25   1.0000      -5.574912      -151.7011
  26   1.0000      -5.574495      -151.6897
  27   1.0000      -5.572829      -151.6444
  28   1.0000      -5.572418      -151.6332
  29   1.0000      -5.571869      -151.6183
  30   1.0000      -5.570611      -151.5840
  31   1.0000      -5.569696      -151.5591
  32   1.0000      -2.375640       -64.6445
  33   1.0000      -1.418313       -38.5943
  34   1.0000      -1.403753       -38.1981
  35   1.0000      -1.403327       -38.1865
  36   1.0000      -0.588271       -16.0077
  37   1.0000      -0.552050       -15.0221
  38   1.0000      -0.551054       -14.9949
  39   1.0000      -0.469810       -12.7842
  40   1.0000      -0.463806       -12.6208
  41   1.0000      -0.402794       -10.9606
  42   1.0000      -0.395475       -10.7614
  43   1.0000      -0.340819        -9.2742
  44   1.0000      -0.329258        -8.9596
  45   1.0000      -0.306003        -8.3268
  46   1.0000      -0.282519        -7.6877
  47   1.0000      -0.238631        -6.4935
  48   1.0000      -0.206364        -5.6154
  49   1.0000      -0.198677        -5.4063
  50   1.0000      -0.189004        -5.1430
  51   1.0000      -0.162232        -4.4146
  52   1.0000      -0.138630        -3.7723
  53   1.0000      -0.124725        -3.3939
  54   1.0000      -0.110294        -3.0012
  55   1.0000      -0.107439        -2.9236
  56   1.0000      -0.080492        -2.1903
  57   1.0000      -0.076473        -2.0809
  58   1.0000      -0.065338        -1.7779
  59   1.0000      -0.060788        -1.6541
  60   1.0000      -0.057216        -1.5569
  61   1.0000      -0.046465        -1.2644
  62   1.0000      -0.040421        -1.0999
  63   1.0000      -0.032716        -0.8903
  64   1.0000       0.000334         0.0091
  65   1.0000       0.028317         0.7705
  66   1.0000       0.030615         0.8331
  67   1.0000       0.035866         0.9760
  68   1.0000       0.046891         1.2760
  69   1.0000       0.052532         1.4295
  70   1.0000       0.065325         1.7776
  71   1.0000       0.070909         1.9295
  72   1.0000       0.079364         2.1596
  73   0.0000       0.234053         6.3689
  74   0.0000       0.246102         6.6968
  75   0.0000       0.248515         6.7624
  76   0.0000       0.251181         6.8350
  77   0.0000       0.256539         6.9808

                 SPIN DOWN ORBITALS
  NO   OCC          E(Eh)            E(eV)
   0   1.0000    -196.607675     -5349.9668
   1   1.0000     -88.563662     -2409.9398
   2   1.0000     -88.561992     -2409.8943
   3   1.0000     -88.559247     -2409.8196
   4   1.0000     -88.558624     -2409.8027
   5   1.0000     -21.967871      -597.7762
   6   1.0000     -18.829049      -512.3645
   7   1.0000     -18.485500      -503.0160
   8   1.0000     -18.467465      -502.5253
   9   1.0000     -18.466990      -502.5123
  10   1.0000      -9.943646      -270.5804
  11   1.0000      -9.942680      -270.5541
  12   1.0000      -9.941908      -270.5331
  13   1.0000      -9.938789      -270.4482
  14   1.0000      -9.936420      -270.3837
  15   1.0000      -9.929967      -270.2081
  16   1.0000      -7.617664      -207.2872
  17   1.0000      -7.615840      -207.2375
  18   1.0000      -7.613493      -207.1737
  19   1.0000      -7.612895      -207.1574
  20   1.0000      -5.582937      -151.9194
  21   1.0000      -5.581252      -151.8736
  22   1.0000      -5.578550      -151.8001
  23   1.0000      -5.578370      -151.7952
  24   1.0000      -5.577114      -151.7610
  25   1.0000      -5.574949      -151.7021
  26   1.0000      -5.574491      -151.6896
  27   1.0000      -5.572961      -151.6480
  28   1.0000      -5.572847      -151.6449
  29   1.0000      -5.572279      -151.6294
  30   1.0000      -5.570735      -151.5874
  31   1.0000      -5.569620      -151.5571
  32   1.0000      -2.330695       -63.4214
  33   1.0000      -1.399334       -38.0778
  34   1.0000      -1.342096       -36.5203
  35   1.0000      -1.340343       -36.4726
  36   1.0000      -0.595679       -16.2093
  37   1.0000      -0.551951       -15.0194
  38   1.0000      -0.550891       -14.9905
  39   1.0000      -0.469752       -12.7826
  40   1.0000      -0.463685       -12.6175
  41   1.0000      -0.402904       -10.9636
  42   1.0000      -0.395573       -10.7641
  43   1.0000      -0.340941        -9.2775
  44   1.0000      -0.329671        -8.9708
  45   1.0000      -0.305987        -8.3263
  46   1.0000      -0.282577        -7.6893
  47   1.0000      -0.238544        -6.4911
  48   1.0000      -0.206296        -5.6136
  49   1.0000      -0.198460        -5.4004
  50   1.0000      -0.188912        -5.1406
  51   1.0000      -0.162120        -4.4115
  52   1.0000      -0.138355        -3.7648
  53   1.0000      -0.124512        -3.3881
  54   1.0000      -0.110173        -2.9979
  55   1.0000      -0.107395        -2.9224
  56   1.0000      -0.079704        -2.1689
  57   1.0000      -0.075554        -2.0559
  58   1.0000      -0.064113        -1.7446
  59   1.0000      -0.060617        -1.6495
  60   1.0000      -0.055805        -1.5185
  61   1.0000      -0.047783        -1.3002
  62   1.0000      -0.042237        -1.1493
  63   1.0000      -0.032652        -0.8885
  64   1.0000       0.005021         0.1366
  65   1.0000       0.029292         0.7971
  66   1.0000       0.033564         0.9133
  67   1.0000       0.047364         1.2888
  68   1.0000       0.047405         1.2899
  69   1.0000       0.057238         1.5575
  70   1.0000       0.066422         1.8074
  71   1.0000       0.074910         2.0384
  72   0.0000       0.232736         6.3331
  73   0.0000       0.248910         6.7732
  74   0.0000       0.254569         6.9272
  75   0.0000       0.258459         7.0330
  76   0.0000       0.264851         7.2070

MULLIKEN ATOMIC CHARGES AND SPIN POPULATIONS
--------------------------------------------
   0 V :    0.528138    1.193367
   1 S :   -0.409308   -0.004094
   2 S :   -0.353622   -0.032880
   3 S :   -0.403336   -0.030295
   4 S :   -0.384297   -0.022055
   5 O :   -0.547253   -0.133807
   6 C :   -0.247857    0.006050
   7 C :   -0.232245    0.006621
   8 C :   -0.156723    0.003139
   9 H :    0.075735   -0.000979
  10 H :    0.052570    0.002139
  11 H :    0.137769    0.000692
  12 H :    0.006059   -0.000060
  13 H :    0.091671   -0.000175
  14 H :    0.047542   -0.000073
  15 C :   -0.245991   -0.001206
  16 C :   -0.288903    0.003297
  17 C :   -0.059252    0.008571
  18 H :    0.056492    0.000172
  19 H :    0.158060    0.000288
  20 H :    0.023988    0.001771
  21 H :    0.031536    0.000207
  22 H :    0.025643   -0.001182
  23 H :    0.093585    0.000495
Sum of atomic charges         :   -2.0000000

LOEWDIN ATOMIC CHARGES AND SPIN POPULATIONS
-------------------------------------------
   0 V :   -0.207704    1.149771
   1 S :   -0.060851    0.002156
   2 S :   -0.037270   -0.022480
   3 S :   -0.066620   -0.021261
   4 S :   -0.062098   -0.012789
   5 O :   -0.378018   -0.120474
   6 C :   -0.327060    0.005416
   7 C :   -0.313113    0.006941
   8 C :   -0.186958    0.000491
   9 H :    0.037525    0.000007
  10 H :    0.030613    0.000608
  11 H :    0.070033    0.000328
  12 H :    0.031685    0.000152
  13 H :    0.042947   -0.000066
  14 H :    0.026154   -0.000553
  15 C :   -0.360017    0.003045
  16 C :   -0.343985    0.007837
  17 C :   -0.212846    0.000796
  18 H :    0.040623   -0.000217
  19 H :    0.068921   -0.000646
  20 H :    0.062158    0.000767
  21 H :    0.060038    0.000754
  22 H :    0.032079   -0.000932
  23 H :    0.053767    0.000350

  Mayer bond orders larger than 0.100000
B(  0-V ,  1-S ) :   0.6917 B(  0-V ,  2-S ) :   0.8519 B(  0-V ,  3-S ) :   0.7863
B(  0-V ,  4-S ) :   0.7770 B(  0-V ,  5-O ) :   2.0707 B(  1-S , 15-C ) :   1.0108
B(  2-S ,  6-C ) :   1.0102 B(  3-S , 16-C ) :   1.0595 B(  3-S , 17-C ) :  -0.1105
B(  4-S ,  7-C ) :   1.0751 B(  6-C ,  8-C ) :   0.9085 B(  6-C , 13-H ) :   0.9720
B(  6-C , 14-H ) :   0.9655 B(  7-C ,  8-C ) :   0.9153 B(  7-C ,  9-H ) :   0.9771
B(  7-C , 10-H ) :   0.9697 B(  8-C , 11-H ) :   0.9899 B(  8-C , 12-H ) :   0.9444
B( 15-C , 17-C ) :   0.9511 B( 15-C , 22-H ) :   0.9452 B( 15-C , 23-H ) :   0.9560
B( 16-C , 17-C ) :   0.8789 B( 16-C , 18-H ) :   0.9721 B( 16-C , 19-H ) :   0.9571
B( 17-C , 20-H ) :   0.9436 B( 17-C , 21-H ) :   0.9522

FINAL SINGLE POINT ENERGY     -2847.654245361623

DIPOLE MOMENT
-------------
                                X             Y             Z
Electronic contribution:      1.76840      -5.42554       3.68714
Nuclear contribution   :     -1.66541       5.97130      -3.76972
                        -----------------------------------------
Total Dipole Moment    :      0.10299       0.54577      -0.08259
                        -----------------------------------------
Magnitude (a.u.)       :      0.56151
Magnitude (Debye)      :      1.42724

Rotational constants in cm-1:     0.027153     0.011719     0.009603
Rotational constants in MHz :   814.025903   351.332151   287.875816

                             ****ORCA TERMINATED NORMALLY****
TOTAL RUN TIME: 0 days 0 hours 14 minutes 20 seconds 100 msec
