                         Program Version 5.0.4 -  RELEASE  -
|  1> ! nofrozencore ReducedPop printbasis
|  2> ! B3LYP TZVP
|  3>
|  4> %basis
|  5> newgto V "CP(PPP)" end
|  6> end
|  7>
|  8> %pal
|  9> nprocs 8
| 10> end
| 11>
| 12> % sym SymThresh 1e-2 end
| 13> * xyz -2 2
| 14> V 0.1774722300585278 -0.18775871619497944 -0.36090117418327433
| 15> S 2.1987623432824397 1.076362257936769 0.5077662936365268
| 16> S 0.41703318824995445 -1.591267343289661 1.6604733524471091
| 17> S -0.6886711905317834 2.071421168434966 -1.094098921608579
| 18> S -2.210108413508467 -0.9371100118878128 -0.572637109160513
| 19> O 0.8821206779712211 -0.9690253004458802 -1.5613696085105424
| 20> C -0.8884987815535635 -2.9124769303140314 1.6621315161419656
| 21> C -2.2845634424184307 -2.793771428221358 -0.4962448038259381
| 22> C -1.1861225479129578 -3.5202198864300986 0.286888059374273
| 23> H -2.300972705607776 -3.1848515274063156 -1.5206496804299428
| 24> H -3.2559175004682563 -3.0368557059823202 -0.045879590060968645
| 25> H -0.2609592224345429 -3.5298833907824214 -0.29557314136733254
| 26> H -1.5040396315821114 -4.572324257928216 0.4061315745180878
| 27> H -1.814049045825485 -2.511992645731182 2.089790400827342
| 28> H -0.5190708022576117 -3.6922898808015416 2.3382009925120153
| 29> C 1.4594768512683374 2.59478681494395 1.2738576269147546
| 30> C 0.7184040394020655 3.283225466997045 -1.09282230769912
| 31> C 1.2048796847033925 3.7451888883529056 0.2856079176825802
| 32> H 0.38995430529643144 4.155593892766164 -1.6712754633358122
| 33> H 1.55659520934695 2.822269513197169 -1.617829291628736
| 34> H 0.46993329846149684 4.436883648778026 0.7291690438336601
| 35> H 2.137252425052347 4.318158795925483 0.14049156547011155
| 36> H 2.12915777242407 2.936794156487066 2.0732595049514657
| 37> H 0.5169648687119741 2.3095155900966367 1.7434981121891686
| 38> *
| 39>
| 40> % eprnmr
| 41> gtensor true
| 42> Nuclei = all H {aiso,adip,aorb,fgrad,rho}
| 43> Nuclei = all V {aiso,adip,aorb,fgrad,rho}
| 44> end
| 45>
| 46>                          ****END OF INPUT****

CARTESIAN COORDINATES (ANGSTROEM)
---------------------------------
  V      0.177908   -0.187795   -0.361517
  S      2.199198    1.076326    0.507151
  S      0.417469   -1.591303    1.659858
  S     -0.688236    2.071385   -1.094715
  S     -2.209673   -0.937146   -0.573253
  O      0.882556   -0.969061   -1.561985
  C     -0.888063   -2.912513    1.661516
  C     -2.284128   -2.793808   -0.496860
  C     -1.185687   -3.520256    0.286272
  H     -2.300537   -3.184888   -1.521265
  H     -3.255482   -3.036892   -0.046495
  H     -0.260524   -3.529919   -0.296189
  H     -1.503604   -4.572360    0.405516
  H     -1.813614   -2.512029    2.089175
  H     -0.518635   -3.692326    2.337585
  C      1.459912    2.594751    1.273242
  C      0.718839    3.283189   -1.093438
  C      1.205315    3.745153    0.284992
  H      0.390390    4.155558   -1.671891
  H      1.557031    2.822233   -1.618445
  H      0.470369    4.436848    0.728553
  H      2.137688    4.318123    0.139876
  H      2.129593    2.936758    2.072644
  H      0.517400    2.309480    1.742882

 Total Charge           Charge          ....   -2
 Multiplicity           Mult            ....    2
 Number of Electrons    NEL             ....  145
 Basis Dimension        Dim             ....  353

ORBITAL ENERGIES
----------------
                 SPIN UP ORBITALS
  NO   OCC          E(Eh)            E(eV)
   0   1.0000    -196.612234     -5350.0909
   1   1.0000     -88.562537     -2409.9092
   2   1.0000     -88.562216     -2409.9004
   3   1.0000     -88.560813     -2409.8622
   4   1.0000     -88.558902     -2409.8102
   5   1.0000     -21.987030      -598.2975
   6   1.0000     -18.829966      -512.3894
   7   1.0000     -18.494865      -503.2709
   8   1.0000     -18.487652      -503.0746
   9   1.0000     -18.487567      -503.0723
  10   1.0000      -9.945306      -270.6255
  11   1.0000      -9.938855      -270.4500
  12   1.0000      -9.936942      -270.3979
  13   1.0000      -9.936273      -270.3797
  14   1.0000      -9.934574      -270.3335
  15   1.0000      -9.931819      -270.2585
  16   1.0000      -7.616285      -207.2497
  17   1.0000      -7.615984      -207.2415
  18   1.0000      -7.614796      -207.2091
  19   1.0000      -7.613043      -207.1614
  20   1.0000      -5.581695      -151.8856
  21   1.0000      -5.581203      -151.8723
  22   1.0000      -5.580278      -151.8471
  23   1.0000      -5.578346      -151.7945
  24   1.0000      -5.575173      -151.7082
  25   1.0000      -5.574970      -151.7026
  26   1.0000      -5.573832      -151.6717
  27   1.0000      -5.573459      -151.6615
  28   1.0000      -5.573299      -151.6572
  29   1.0000      -5.572251      -151.6287
  30   1.0000      -5.571795      -151.6163
  31   1.0000      -5.570103      -151.5702
  32   1.0000      -2.379508       -64.7497
  33   1.0000      -1.423060       -38.7234
  34   1.0000      -1.407319       -38.2951
  35   1.0000      -1.406545       -38.2740
  36   1.0000      -0.591573       -16.0975
  37   1.0000      -0.553338       -15.0571
  38   1.0000      -0.551376       -15.0037
  39   1.0000      -0.471026       -12.8173
  40   1.0000      -0.465559       -12.6685
  41   1.0000      -0.404314       -11.0019
  42   1.0000      -0.398829       -10.8527
  43   1.0000      -0.336800        -9.1648
  44   1.0000      -0.329793        -8.9741
  45   1.0000      -0.306005        -8.3268
  46   1.0000      -0.287548        -7.8246
  47   1.0000      -0.215863        -5.8739
  48   1.0000      -0.209889        -5.7114
  49   1.0000      -0.203385        -5.5344
  50   1.0000      -0.199732        -5.4350
  51   1.0000      -0.163454        -4.4478
  52   1.0000      -0.136247        -3.7075
  53   1.0000      -0.131693        -3.5835
  54   1.0000      -0.114348        -3.1116
  55   1.0000      -0.108323        -2.9476
  56   1.0000      -0.108060        -2.9405
  57   1.0000      -0.080042        -2.1781
  58   1.0000      -0.071366        -1.9420
  59   1.0000      -0.066994        -1.8230
  60   1.0000      -0.059917        -1.6304
  61   1.0000      -0.050169        -1.3652
  62   1.0000      -0.046250        -1.2585
  63   1.0000      -0.039572        -1.0768
  64   1.0000      -0.001924        -0.0524
  65   1.0000       0.025171         0.6849
  66   1.0000       0.030590         0.8324
  67   1.0000       0.037059         1.0084
  68   1.0000       0.047831         1.3016
  69   1.0000       0.053931         1.4675
  70   1.0000       0.063083         1.7166
  71   1.0000       0.070167         1.9093
  72   1.0000       0.079530         2.1641
  73   0.0000       0.229865         6.2549
  74   0.0000       0.240651         6.5484
  75   0.0000       0.245995         6.6939
  76   0.0000       0.249642         6.7931
  77   0.0000       0.256728         6.9859

                 SPIN DOWN ORBITALS
  NO   OCC          E(Eh)            E(eV)
   0   1.0000    -196.612377     -5350.0948
   1   1.0000     -88.562712     -2409.9139
   2   1.0000     -88.562375     -2409.9047
   3   1.0000     -88.560908     -2409.8648
   4   1.0000     -88.558859     -2409.8091
   5   1.0000     -21.971865      -597.8848
   6   1.0000     -18.833615      -512.4887
   7   1.0000     -18.489584      -503.1272
   8   1.0000     -18.471320      -502.6302
   9   1.0000     -18.471166      -502.6260
  10   1.0000      -9.945125      -270.6206
  11   1.0000      -9.938711      -270.4461
  12   1.0000      -9.936901      -270.3968
  13   1.0000      -9.936117      -270.3755
  14   1.0000      -9.934528      -270.3322
  15   1.0000      -9.931841      -270.2591
  16   1.0000      -7.616455      -207.2543
  17   1.0000      -7.616135      -207.2456
  18   1.0000      -7.614885      -207.2116
  19   1.0000      -7.613005      -207.1604
  20   1.0000      -5.581863      -151.8902
  21   1.0000      -5.581356      -151.8764
  22   1.0000      -5.580397      -151.8503
  23   1.0000      -5.578352      -151.7947
  24   1.0000      -5.575628      -151.7205
  25   1.0000      -5.575389      -151.7140
  26   1.0000      -5.574223      -151.6823
  27   1.0000      -5.573585      -151.6650
  28   1.0000      -5.573418      -151.6604
  29   1.0000      -5.572586      -151.6378
  30   1.0000      -5.571704      -151.6138
  31   1.0000      -5.569581      -151.5560
  32   1.0000      -2.334287       -63.5192
  33   1.0000      -1.403802       -38.1994
  34   1.0000      -1.344559       -36.5873
  35   1.0000      -1.344077       -36.5742
  36   1.0000      -0.599407       -16.3107
  37   1.0000      -0.553234       -15.0542
  38   1.0000      -0.551228       -14.9997
  39   1.0000      -0.470954       -12.8153
  40   1.0000      -0.465458       -12.6658
  41   1.0000      -0.404364       -11.0033
  42   1.0000      -0.398966       -10.8564
  43   1.0000      -0.336950        -9.1689
  44   1.0000      -0.330195        -8.9851
  45   1.0000      -0.305992        -8.3265
  46   1.0000      -0.287561        -7.8249
  47   1.0000      -0.215820        -5.8728
  48   1.0000      -0.209831        -5.7098
  49   1.0000      -0.203264        -5.5311
  50   1.0000      -0.199588        -5.4311
  51   1.0000      -0.163333        -4.4445
  52   1.0000      -0.136132        -3.7043
  53   1.0000      -0.131463        -3.5773
  54   1.0000      -0.114342        -3.1114
  55   1.0000      -0.108249        -2.9456
  56   1.0000      -0.107934        -2.9370
  57   1.0000      -0.078966        -2.1488
  58   1.0000      -0.069145        -1.8815
  59   1.0000      -0.066667        -1.8141
  60   1.0000      -0.059833        -1.6281
  61   1.0000      -0.051718        -1.4073
  62   1.0000      -0.046946        -1.2775
  63   1.0000      -0.040634        -1.1057
  64   1.0000       0.003777         0.1028
  65   1.0000       0.026097         0.7101
  66   1.0000       0.034085         0.9275
  67   1.0000       0.047184         1.2839
  68   1.0000       0.048560         1.3214
  69   1.0000       0.061461         1.6724
  70   1.0000       0.067022         1.8238
  71   1.0000       0.071356         1.9417
  72   0.0000       0.231329         6.2948
  73   0.0000       0.247124         6.7246
  74   0.0000       0.252567         6.8727
  75   0.0000       0.258775         7.0416
  76   0.0000       0.260266         7.0822

MULLIKEN ATOMIC CHARGES AND SPIN POPULATIONS
--------------------------------------------
   0 V :    0.542533    1.196326
   1 S :   -0.423844    0.000401
   2 S :   -0.366104   -0.032403
   3 S :   -0.424410   -0.028328
   4 S :   -0.399875   -0.020358
   5 O :   -0.524062   -0.140959
   6 C :   -0.245130    0.006034
   7 C :   -0.232550    0.007183
   8 C :   -0.148079    0.002260
   9 H :    0.074295   -0.000932
  10 H :    0.053159    0.001850
  11 H :    0.132221    0.000511
  12 H :    0.005778   -0.000009
  13 H :    0.093084   -0.000147
  14 H :    0.050888   -0.000046
  15 C :   -0.262887   -0.002456
  16 C :   -0.242470    0.002226
  17 C :   -0.075315    0.008419
  18 H :    0.047434   -0.000941
  19 H :    0.122316    0.000459
  20 H :    0.018511    0.001340
  21 H :    0.014132   -0.000181
  22 H :    0.052937   -0.000528
  23 H :    0.137438    0.000280
Sum of atomic charges         :   -2.0000000

LOEWDIN ATOMIC CHARGES AND SPIN POPULATIONS
-------------------------------------------
   0 V :   -0.188471    1.153755
   1 S :   -0.074131    0.005362
   2 S :   -0.049323   -0.022587
   3 S :   -0.082331   -0.020604
   4 S :   -0.077261   -0.011655
   5 O :   -0.357865   -0.127022
   6 C :   -0.323150    0.005697
   7 C :   -0.312298    0.007091
   8 C :   -0.185558    0.000185
   9 H :    0.035869   -0.000025
  10 H :    0.029987    0.000516
  11 H :    0.069554    0.000280
  12 H :    0.032066    0.000240
  13 H :    0.044904   -0.000042
  14 H :    0.028781   -0.000581
  15 C :   -0.316865    0.002084
  16 C :   -0.324941    0.006662
  17 C :   -0.188485    0.001350
  18 H :    0.028464   -0.000598
  19 H :    0.051917   -0.000550
  20 H :    0.037251    0.000506
  21 H :    0.035105    0.000339
  22 H :    0.031112   -0.000589
  23 H :    0.055670    0.000186

  Mayer bond orders larger than 0.100000
B(  0-V ,  1-S ) :   0.7093 B(  0-V ,  2-S ) :   0.8419 B(  0-V ,  3-S ) :   0.7539
B(  0-V ,  4-S ) :   0.7655 B(  0-V ,  5-O ) :   2.1026 B(  1-S , 15-C ) :   1.0370
B(  2-S ,  6-C ) :   1.0200 B(  3-S , 16-C ) :   1.0345 B(  4-S ,  7-C ) :   1.0669
B(  6-C ,  8-C ) :   0.9007 B(  6-C , 13-H ) :   0.9745 B(  6-C , 14-H ) :   0.9701
B(  7-C ,  8-C ) :   0.9205 B(  7-C ,  9-H ) :   0.9771 B(  7-C , 10-H ) :   0.9708
B(  8-C , 11-H ) :   0.9863 B(  8-C , 12-H ) :   0.9477 B( 15-C , 17-C ) :   0.8952
B( 15-C , 22-H ) :   0.9706 B( 15-C , 23-H ) :   0.9825 B( 16-C , 17-C ) :   0.9053
B( 16-C , 18-H ) :   0.9632 B( 16-C , 19-H ) :   0.9729 B( 17-C , 20-H ) :   0.9598
B( 17-C , 21-H ) :   0.9613

FINAL SINGLE POINT ENERGY     -2847.715294505158

DIPOLE MOMENT
-------------
                                X             Y             Z
Electronic contribution:      2.87091      -1.42148      -5.31078
Nuclear contribution   :     -3.09983       1.25875       5.72622
                        -----------------------------------------
Total Dipole Moment    :     -0.22893      -0.16273       0.41544
                        -----------------------------------------
Magnitude (a.u.)       :      0.50148
Magnitude (Debye)      :      1.27465

Rotational constants in cm-1:     0.027643     0.011106     0.009165
Rotational constants in MHz :   828.725970   332.950768   274.760541

                             ****ORCA TERMINATED NORMALLY****
TOTAL RUN TIME: 0 days 0 hours 9 minutes 32 seconds 926 msec
