                         Program Version 5.0.4 -  RELEASE  -
|  1> ! nofrozencore ReducedPop printbasis
|  2> ! B3LYP TZVP
|  3>
|  4> %basis
|  5> newgto V "CP(PPP)" end
|  6> end
|  7>
|  8> %pal
|  9> nprocs 8
| 10> end
| 11>
| 12> % sym SymThresh 1e-2 end
| 13> * xyz -2 2
| 14> V 0.044180562216213894 0.11034596145522887 -0.4834022666266475
| 15> S -1.909486714352623 -1.3773931859071218 -0.4329680863948902
| 16> S -1.5265038540788805 1.522837750089331 0.7780947781177993
| 17> S 1.4968509979985372 -1.8268929420285418 -0.033129300129665855
| 18> S 1.9665906677750502 1.288531743149564 0.5373514142570278
| 19> O 0.01280378187021709 0.5045242288600819 -2.0410784660294077
| 20> C -0.6374383903192703 3.094241771462312 1.202473927149337
| 21> C 1.7289450931806252 3.0910614789398787 0.17943551923085982
| 22> C 0.2850489821869432 3.599025398576307 0.0861680806206082
| 23> H 2.2465539251753 3.3357877529303326 -0.7555672439660506
| 24> H 2.24423145747434 3.6351135139122595 0.9821004905914994
| 25> H -0.14508896449749956 3.304737065007702 -0.8746229666469569
| 26> H 0.32092059451892135 4.70366427305099 0.09698110013463686
| 27> H -0.05435173776834771 2.9450005387610965 2.1176048034221147
| 28> H -1.4092566891422722 3.8437229896336333 1.4155055938761392
| 29> C -1.5998472121288085 -2.7302577836345954 0.8057329087808094
| 30> C 0.5584483627652275 -3.34124444612028 -0.5362713045998445
| 31> C -0.5742071107388658 -3.80991946064365 0.3831790689830574
| 32> H 1.2899217186727971 -4.154830233758919 -0.6301395692622528
| 33> H 0.13904588419545127 -3.1541431591942124 -1.5272250892987769
| 34> H -0.1451021837532526 -4.251992212839195 1.2975995850854287
| 35> H -1.1019548029221231 -4.626924694771073 -0.14574985582313854
| 36> H -2.580612274835769 -3.2228545933757857 1.017659611079538
| 37> H -1.2626754890471448 -2.2510396526854457 1.7531797505707567
| 38> *
| 39>
| 40> % eprnmr
| 41> gtensor true
| 42> Nuclei = all H {aiso,adip,aorb,fgrad,rho}
| 43> Nuclei = all V {aiso,adip,aorb,fgrad,rho}
| 44> end
| 45>
| 46>                          ****END OF INPUT****

CARTESIAN COORDINATES (ANGSTROEM)
---------------------------------
  V      0.044173    0.110214   -0.484146
  S     -1.909495   -1.377525   -0.433711
  S     -1.526512    1.522706    0.777351
  S      1.496843   -1.827025   -0.033873
  S      1.966583    1.288400    0.536608
  O      0.012796    0.504392   -2.041822
  C     -0.637446    3.094110    1.201731
  C      1.728937    3.090929    0.178692
  C      0.285041    3.598893    0.085425
  H      2.246546    3.335656   -0.756311
  H      2.244224    3.634981    0.981357
  H     -0.145097    3.304605   -0.875366
  H      0.320913    4.703532    0.096238
  H     -0.054360    2.944868    2.116861
  H     -1.409265    3.843591    1.414762
  C     -1.599855   -2.730390    0.804990
  C      0.558440   -3.341377   -0.537015
  C     -0.574215   -3.810052    0.382436
  H      1.289914   -4.154962   -0.630883
  H      0.139038   -3.154275   -1.527968
  H     -0.145110   -4.252124    1.296856
  H     -1.101963   -4.627057   -0.146493
  H     -2.580620   -3.222987    1.016916
  H     -1.262683   -2.251172    1.752436

 Total Charge           Charge          ....   -2
 Multiplicity           Mult            ....    2
 Number of Electrons    NEL             ....  145
 Basis Dimension        Dim             ....  353

ORBITAL ENERGIES
----------------
                 SPIN UP ORBITALS
  NO   OCC          E(Eh)            E(eV)
   0   1.0000    -196.602954     -5349.8384
   1   1.0000     -88.561414     -2409.8786
   2   1.0000     -88.558430     -2409.7974
   3   1.0000     -88.558354     -2409.7953
   4   1.0000     -88.557944     -2409.7842
   5   1.0000     -21.978518      -598.0659
   6   1.0000     -18.820851      -512.1414
   7   1.0000     -18.486368      -503.0396
   8   1.0000     -18.479056      -502.8407
   9   1.0000     -18.479033      -502.8401
  10   1.0000      -9.943602      -270.5792
  11   1.0000      -9.941513      -270.5223
  12   1.0000      -9.936129      -270.3758
  13   1.0000      -9.935922      -270.3702
  14   1.0000      -9.932501      -270.2771
  15   1.0000      -9.927113      -270.1305
  16   1.0000      -7.615580      -207.2305
  17   1.0000      -7.612822      -207.1554
  18   1.0000      -7.612790      -207.1546
  19   1.0000      -7.611795      -207.1275
  20   1.0000      -5.580822      -151.8619
  21   1.0000      -5.578240      -151.7916
  22   1.0000      -5.578206      -151.7907
  23   1.0000      -5.577236      -151.7643
  24   1.0000      -5.574465      -151.6889
  25   1.0000      -5.572868      -151.6454
  26   1.0000      -5.571809      -151.6166
  27   1.0000      -5.571748      -151.6150
  28   1.0000      -5.570612      -151.5840
  29   1.0000      -5.569896      -151.5646
  30   1.0000      -5.569809      -151.5622
  31   1.0000      -5.568929      -151.5383
  32   1.0000      -2.371298       -64.5263
  33   1.0000      -1.413559       -38.4649
  34   1.0000      -1.399770       -38.0897
  35   1.0000      -1.399055       -38.0702
  36   1.0000      -0.583690       -15.8830
  37   1.0000      -0.549623       -14.9560
  38   1.0000      -0.548605       -14.9283
  39   1.0000      -0.468089       -12.7374
  40   1.0000      -0.465659       -12.6712
  41   1.0000      -0.405358       -11.0303
  42   1.0000      -0.395699       -10.7675
  43   1.0000      -0.337554        -9.1853
  44   1.0000      -0.325766        -8.8646
  45   1.0000      -0.303678        -8.2635
  46   1.0000      -0.285853        -7.7785
  47   1.0000      -0.215630        -5.8676
  48   1.0000      -0.205352        -5.5879
  49   1.0000      -0.199879        -5.4390
  50   1.0000      -0.196626        -5.3505
  51   1.0000      -0.159163        -4.3310
  52   1.0000      -0.137258        -3.7350
  53   1.0000      -0.129332        -3.5193
  54   1.0000      -0.110652        -3.0110
  55   1.0000      -0.108094        -2.9414
  56   1.0000      -0.104289        -2.8379
  57   1.0000      -0.081980        -2.2308
  58   1.0000      -0.072360        -1.9690
  59   1.0000      -0.059818        -1.6277
  60   1.0000      -0.056117        -1.5270
  61   1.0000      -0.042164        -1.1474
  62   1.0000      -0.039060        -1.0629
  63   1.0000      -0.032346        -0.8802
  64   1.0000      -0.001220        -0.0332
  65   1.0000       0.027596         0.7509
  66   1.0000       0.031358         0.8533
  67   1.0000       0.038919         1.0590
  68   1.0000       0.044658         1.2152
  69   1.0000       0.054430         1.4811
  70   1.0000       0.066215         1.8018
  71   1.0000       0.074302         2.0219
  72   1.0000       0.083321         2.2673
  73   0.0000       0.238213         6.4821
  74   0.0000       0.248921         6.7735
  75   0.0000       0.252968         6.8836
  76   0.0000       0.253670         6.9027
  77   0.0000       0.257095         6.9959

                 SPIN DOWN ORBITALS
  NO   OCC          E(Eh)            E(eV)
   0   1.0000    -196.603094     -5349.8422
   1   1.0000     -88.561571     -2409.8829
   2   1.0000     -88.558522     -2409.7999
   3   1.0000     -88.558315     -2409.7943
   4   1.0000     -88.558122     -2409.7890
   5   1.0000     -21.963613      -597.6603
   6   1.0000     -18.824242      -512.2337
   7   1.0000     -18.481239      -502.9001
   8   1.0000     -18.463103      -502.4066
   9   1.0000     -18.462753      -502.3970
  10   1.0000      -9.943525      -270.5771
  11   1.0000      -9.941322      -270.5171
  12   1.0000      -9.936033      -270.3732
  13   1.0000      -9.935784      -270.3664
  14   1.0000      -9.932393      -270.2742
  15   1.0000      -9.927128      -270.1309
  16   1.0000      -7.615730      -207.2346
  17   1.0000      -7.612909      -207.1578
  18   1.0000      -7.612755      -207.1536
  19   1.0000      -7.611968      -207.1322
  20   1.0000      -5.580978      -151.8661
  21   1.0000      -5.578354      -151.7947
  22   1.0000      -5.578228      -151.7913
  23   1.0000      -5.577395      -151.7686
  24   1.0000      -5.574869      -151.6999
  25   1.0000      -5.572987      -151.6487
  26   1.0000      -5.572195      -151.6271
  27   1.0000      -5.572062      -151.6235
  28   1.0000      -5.571075      -151.5967
  29   1.0000      -5.569711      -151.5596
  30   1.0000      -5.569393      -151.5509
  31   1.0000      -5.569064      -151.5419
  32   1.0000      -2.326792       -63.3152
  33   1.0000      -1.394819       -37.9549
  34   1.0000      -1.338560       -36.4241
  35   1.0000      -1.336816       -36.3766
  36   1.0000      -0.590965       -16.0810
  37   1.0000      -0.549521       -14.9532
  38   1.0000      -0.548415       -14.9231
  39   1.0000      -0.468018       -12.7354
  40   1.0000      -0.465490       -12.6666
  41   1.0000      -0.405308       -11.0290
  42   1.0000      -0.395833       -10.7712
  43   1.0000      -0.337652        -9.1880
  44   1.0000      -0.326156        -8.8752
  45   1.0000      -0.303608        -8.2616
  46   1.0000      -0.285828        -7.7778
  47   1.0000      -0.215542        -5.8652
  48   1.0000      -0.205287        -5.5862
  49   1.0000      -0.199687        -5.4338
  50   1.0000      -0.196493        -5.3468
  51   1.0000      -0.159020        -4.3272
  52   1.0000      -0.137082        -3.7302
  53   1.0000      -0.128995        -3.5101
  54   1.0000      -0.110634        -3.0105
  55   1.0000      -0.108032        -2.9397
  56   1.0000      -0.104104        -2.8328
  57   1.0000      -0.080827        -2.1994
  58   1.0000      -0.070321        -1.9135
  59   1.0000      -0.058878        -1.6021
  60   1.0000      -0.055518        -1.5107
  61   1.0000      -0.042914        -1.1677
  62   1.0000      -0.039987        -1.0881
  63   1.0000      -0.033483        -0.9111
  64   1.0000       0.003478         0.0946
  65   1.0000       0.028578         0.7777
  66   1.0000       0.034427         0.9368
  67   1.0000       0.043936         1.1956
  68   1.0000       0.048936         1.3316
  69   1.0000       0.062767         1.7080
  70   1.0000       0.069655         1.8954
  71   1.0000       0.074883         2.0377
  72   0.0000       0.234909         6.3922
  73   0.0000       0.250805         6.8247
  74   0.0000       0.256836         6.9889
  75   0.0000       0.261186         7.1072
  76   0.0000       0.268845         7.3157

MULLIKEN ATOMIC CHARGES AND SPIN POPULATIONS
--------------------------------------------
   0 V :    0.510149    1.182339
   1 S :   -0.386167    0.001647
   2 S :   -0.356813   -0.034170
   3 S :   -0.397507   -0.028090
   4 S :   -0.388122   -0.020308
   5 O :   -0.551759   -0.131340
   6 C :   -0.248420    0.004824
   7 C :   -0.236712    0.006848
   8 C :   -0.159334    0.004001
   9 H :    0.075598   -0.001017
  10 H :    0.050743    0.002512
  11 H :    0.139337    0.000633
  12 H :    0.004484    0.000034
  13 H :    0.095740   -0.000118
  14 H :    0.046812   -0.000047
  15 C :   -0.240988    0.001159
  16 C :   -0.249611    0.003097
  17 C :   -0.075347    0.006482
  18 H :    0.046131   -0.000431
  19 H :    0.125169    0.000035
  20 H :    0.020912    0.001589
  21 H :    0.011707    0.000693
  22 H :    0.045750   -0.000742
  23 H :    0.118250    0.000369
Sum of atomic charges         :   -2.0000000

LOEWDIN ATOMIC CHARGES AND SPIN POPULATIONS
-------------------------------------------
   0 V :   -0.242190    1.138121
   1 S :   -0.032820    0.007085
   2 S :   -0.044455   -0.023325
   3 S :   -0.051739   -0.019483
   4 S :   -0.061656   -0.010729
   5 O :   -0.385269   -0.118102
   6 C :   -0.329283    0.004320
   7 C :   -0.314654    0.007455
   8 C :   -0.188595    0.000741
   9 H :    0.036498    0.000043
  10 H :    0.028781    0.000830
  11 H :    0.069770    0.000355
  12 H :    0.031052    0.000138
  13 H :    0.044936   -0.000083
  14 H :    0.026791   -0.000490
  15 C :   -0.317533    0.003960
  16 C :   -0.327022    0.007513
  17 C :   -0.187370    0.001525
  18 H :    0.029394   -0.000363
  19 H :    0.053298   -0.000593
  20 H :    0.037822    0.000632
  21 H :    0.035333    0.000543
  22 H :    0.033571   -0.000702
  23 H :    0.055340    0.000610

  Mayer bond orders larger than 0.100000
B(  0-V ,  1-S ) :   0.7491 B(  0-V ,  2-S ) :   0.8421 B(  0-V ,  3-S ) :   0.7838
B(  0-V ,  4-S ) :   0.7717 B(  0-V ,  5-O ) :   2.0593 B(  1-S , 15-C ) :   1.0348
B(  2-S ,  6-C ) :   1.0156 B(  3-S , 16-C ) :   1.0333 B(  4-S ,  7-C ) :   1.0687
B(  6-C ,  8-C ) :   0.8991 B(  6-C , 13-H ) :   0.9756 B(  6-C , 14-H ) :   0.9666
B(  7-C ,  8-C ) :   0.9168 B(  7-C ,  9-H ) :   0.9775 B(  7-C , 10-H ) :   0.9688
B(  8-C , 11-H ) :   0.9893 B(  8-C , 12-H ) :   0.9437 B( 15-C , 17-C ) :   0.8921
B( 15-C , 22-H ) :   0.9682 B( 15-C , 23-H ) :   0.9803 B( 16-C , 17-C ) :   0.9043
B( 16-C , 18-H ) :   0.9628 B( 16-C , 19-H ) :   0.9777 B( 17-C , 20-H ) :   0.9626
B( 17-C , 21-H ) :   0.9613

FINAL SINGLE POINT ENERGY     -2847.714659799428

DIPOLE MOMENT
-------------
                                X             Y             Z
Electronic contribution:      0.61079       0.47393      -6.22452
Nuclear contribution   :     -0.63496      -0.39254       6.62923
                        -----------------------------------------
Total Dipole Moment    :     -0.02417       0.08138       0.40471
                        -----------------------------------------
Magnitude (a.u.)       :      0.41352
Magnitude (Debye)      :      1.05108

Rotational constants in cm-1:     0.027140     0.011792     0.009630
Rotational constants in MHz :   813.635097   353.522628   288.706787

                             ****ORCA TERMINATED NORMALLY****
TOTAL RUN TIME: 0 days 0 hours 9 minutes 31 seconds 378 msec
