                         Program Version 5.0.4 -  RELEASE  -
|  1> ! nofrozencore ReducedPop printbasis
|  2> ! B3LYP TZVP
|  3>
|  4> %basis
|  5> newgto V "CP(PPP)" end
|  6> end
|  7>
|  8> %pal
|  9> nprocs 4
| 10> end
| 11>
| 12> % sym SymThresh 1e-2 end
| 13> * xyz -2 2
| 14> V 0.44254423073455795 -0.17594465716050262 -0.1925135077422661
| 15> S 0.09075148080531624 1.878690228697557 -1.6447517250731079
| 16> S 0.7453011384076691 1.537917711138364 1.5254668273774978
| 17> S -1.4882409091729005 -1.2442314434762674 -1.3396932391578242
| 18> S -0.20455886612951263 -1.8662525129989622 1.5215791174532687
| 19> O 1.8562806162232917 -0.6720224655009438 -0.7676211285397962
| 20> C 0.9837973724463324 0.7311862822930659 3.1814432531736503
| 21> C 0.9524526223515617 -1.834998506031985 2.9942477865201833
| 22> C 1.7979928825904936 -0.5723259829344507 3.1674339558137663
| 23> H 1.6376918319488352 -2.714368610787939 2.93718576036437
| 24> H 0.32488285996499244 -1.9723272691048546 3.907806151572434
| 25> H 2.5464678451736376 -0.5123159969101084 2.3674142342365294
| 26> H 2.351533442727255 -0.6748394110675482 4.120079407274004
| 27> H 0.00203186392909135 0.5376694274947672 3.633966763157228
| 28> H 1.4917603402100823 1.4760462536431855 3.8057309898231404
| 29> C -1.7379532142134246 1.885617241343969 -1.9202490441493745
| 30> C -1.5437518072939915 -0.4407475876267316 -3.0062099181658537
| 31> C -2.206929410491509 0.9410089358010791 -3.035179257058654
| 32> H -2.0811458949710167 -1.1158594048176151 -3.6838302236268117
| 33> H -0.5192829344554714 -0.34757670516726746 -3.3667479709074426
| 34> H -3.30084939020556 0.8262421039475846 -2.960896568182154
| 35> H -1.9975265697061364 1.4019841789596947 -4.014685723521674
| 36> H -2.046697480765574 2.910840376027163 -2.157428917179405
| 37> H -2.222782944873321 1.6054516508846746 -0.984363591874446
| 38> *
| 39>
| 40> % eprnmr
| 41> gtensor true
| 42> Nuclei = all H {aiso,adip,aorb,fgrad,rho}
| 43> Nuclei = all V {aiso,adip,aorb,fgrad,rho}
| 44> end
| 45>
| 46>                          ****END OF INPUT****

CARTESIAN COORDINATES (ANGSTROEM)
---------------------------------
  V      0.443052   -0.176149   -0.193034
  S      0.091259    1.878486   -1.645272
  S      0.745809    1.537714    1.524947
  S     -1.487733   -1.244436   -1.340213
  S     -0.204051   -1.866457    1.521059
  O      1.856789   -0.672227   -0.768141
  C      0.984305    0.730982    3.180923
  C      0.952961   -1.835203    2.993728
  C      1.798501   -0.572530    3.166914
  H      1.638200   -2.714573    2.936666
  H      0.325391   -1.972531    3.907286
  H      2.546976   -0.512520    2.366894
  H      2.352041   -0.675044    4.119559
  H      0.002540    0.537465    3.633447
  H      1.492268    1.475842    3.805211
  C     -1.737445    1.885413   -1.920769
  C     -1.543244   -0.440952   -3.006730
  C     -2.206421    0.940805   -3.035699
  H     -2.080638   -1.116064   -3.684350
  H     -0.518775   -0.347781   -3.367268
  H     -3.300341    0.826038   -2.961417
  H     -1.997019    1.401780   -4.015206
  H     -2.046189    2.910636   -2.157949
  H     -2.222275    1.605247   -0.984884

 Total Charge           Charge          ....   -2
 Multiplicity           Mult            ....    2
 Number of Electrons    NEL             ....  145
 Basis Dimension        Dim             ....  353

ORBITAL ENERGIES
----------------
                 SPIN UP ORBITALS
  NO   OCC          E(Eh)            E(eV)
   0   1.0000    -196.608836     -5349.9984
   1   1.0000     -88.562062     -2409.8962
   2   1.0000     -88.561625     -2409.8843
   3   1.0000     -88.560649     -2409.8578
   4   1.0000     -88.556945     -2409.7570
   5   1.0000     -21.984208      -598.2207
   6   1.0000     -18.824536      -512.2417
   7   1.0000     -18.491892      -503.1900
   8   1.0000     -18.484871      -502.9989
   9   1.0000     -18.484813      -502.9973
  10   1.0000      -9.949448      -270.7382
  11   1.0000      -9.938263      -270.4339
  12   1.0000      -9.934453      -270.3302
  13   1.0000      -9.933731      -270.3106
  14   1.0000      -9.932748      -270.2838
  15   1.0000      -9.931913      -270.2611
  16   1.0000      -7.615881      -207.2387
  17   1.0000      -7.615838      -207.2375
  18   1.0000      -7.614490      -207.2008
  19   1.0000      -7.611188      -207.1110
  20   1.0000      -5.581317      -151.8754
  21   1.0000      -5.581011      -151.8670
  22   1.0000      -5.580066      -151.8413
  23   1.0000      -5.576431      -151.7424
  24   1.0000      -5.574889      -151.7005
  25   1.0000      -5.574681      -151.6948
  26   1.0000      -5.573453      -151.6614
  27   1.0000      -5.573047      -151.6503
  28   1.0000      -5.573015      -151.6494
  29   1.0000      -5.571409      -151.6057
  30   1.0000      -5.570457      -151.5798
  31   1.0000      -5.568210      -151.5187
  32   1.0000      -2.376473       -64.6671
  33   1.0000      -1.418543       -38.6005
  34   1.0000      -1.404849       -38.2279
  35   1.0000      -1.404128       -38.2083
  36   1.0000      -0.586799       -15.9676
  37   1.0000      -0.551844       -15.0164
  38   1.0000      -0.550444       -14.9783
  39   1.0000      -0.468435       -12.7468
  40   1.0000      -0.465256       -12.6603
  41   1.0000      -0.403787       -10.9876
  42   1.0000      -0.396264       -10.7829
  43   1.0000      -0.337904        -9.1948
  44   1.0000      -0.327728        -8.9179
  45   1.0000      -0.306844        -8.3497
  46   1.0000      -0.285664        -7.7733
  47   1.0000      -0.213543        -5.8108
  48   1.0000      -0.208819        -5.6822
  49   1.0000      -0.202609        -5.5133
  50   1.0000      -0.195721        -5.3258
  51   1.0000      -0.162656        -4.4261
  52   1.0000      -0.133561        -3.6344
  53   1.0000      -0.131401        -3.5756
  54   1.0000      -0.114502        -3.1158
  55   1.0000      -0.107495        -2.9251
  56   1.0000      -0.106365        -2.8943
  57   1.0000      -0.083328        -2.2675
  58   1.0000      -0.071207        -1.9376
  59   1.0000      -0.063452        -1.7266
  60   1.0000      -0.055546        -1.5115
  61   1.0000      -0.045971        -1.2509
  62   1.0000      -0.041198        -1.1210
  63   1.0000      -0.034699        -0.9442
  64   1.0000      -0.000339        -0.0092
  65   1.0000       0.027794         0.7563
  66   1.0000       0.030753         0.8368
  67   1.0000       0.037908         1.0315
  68   1.0000       0.045412         1.2357
  69   1.0000       0.051127         1.3912
  70   1.0000       0.064403         1.7525
  71   1.0000       0.072972         1.9857
  72   1.0000       0.078877         2.1463
  73   0.0000       0.233742         6.3604
  74   0.0000       0.245315         6.6754
  75   0.0000       0.247833         6.7439
  76   0.0000       0.248867         6.7720
  77   0.0000       0.258993         7.0476

                 SPIN DOWN ORBITALS
  NO   OCC          E(Eh)            E(eV)
   0   1.0000    -196.608980     -5350.0023
   1   1.0000     -88.562240     -2409.9011
   2   1.0000     -88.561779     -2409.8885
   3   1.0000     -88.560783     -2409.8614
   4   1.0000     -88.556939     -2409.7568
   5   1.0000     -21.969135      -597.8106
   6   1.0000     -18.828080      -512.3381
   7   1.0000     -18.486654      -503.0474
   8   1.0000     -18.468721      -502.5595
   9   1.0000     -18.468421      -502.5513
  10   1.0000      -9.949229      -270.7323
  11   1.0000      -9.938116      -270.4299
  12   1.0000      -9.934276      -270.3254
  13   1.0000      -9.933664      -270.3087
  14   1.0000      -9.932771      -270.2844
  15   1.0000      -9.931864      -270.2598
  16   1.0000      -7.616054      -207.2434
  17   1.0000      -7.615984      -207.2415
  18   1.0000      -7.614616      -207.2042
  19   1.0000      -7.611184      -207.1108
  20   1.0000      -5.581490      -151.8801
  21   1.0000      -5.581157      -151.8710
  22   1.0000      -5.580222      -151.8455
  23   1.0000      -5.576462      -151.7432
  24   1.0000      -5.575323      -151.7122
  25   1.0000      -5.575126      -151.7069
  26   1.0000      -5.573858      -151.6724
  27   1.0000      -5.573189      -151.6542
  28   1.0000      -5.573105      -151.6519
  29   1.0000      -5.571432      -151.6064
  30   1.0000      -5.570816      -151.5896
  31   1.0000      -5.567795      -151.5074
  32   1.0000      -2.331430       -63.4414
  33   1.0000      -1.399400       -38.0796
  34   1.0000      -1.342918       -36.5426
  35   1.0000      -1.341272       -36.4979
  36   1.0000      -0.594439       -16.1755
  37   1.0000      -0.551732       -15.0134
  38   1.0000      -0.550278       -14.9738
  39   1.0000      -0.468366       -12.7449
  40   1.0000      -0.465132       -12.6569
  41   1.0000      -0.403860       -10.9896
  42   1.0000      -0.396429       -10.7874
  43   1.0000      -0.338088        -9.1998
  44   1.0000      -0.328161        -8.9297
  45   1.0000      -0.306823        -8.3491
  46   1.0000      -0.285695        -7.7742
  47   1.0000      -0.213473        -5.8089
  48   1.0000      -0.208760        -5.6806
  49   1.0000      -0.202484        -5.5099
  50   1.0000      -0.195522        -5.3204
  51   1.0000      -0.162525        -4.4225
  52   1.0000      -0.133382        -3.6295
  53   1.0000      -0.131131        -3.5682
  54   1.0000      -0.114490        -3.1154
  55   1.0000      -0.107429        -2.9233
  56   1.0000      -0.106203        -2.8899
  57   1.0000      -0.082159        -2.2357
  58   1.0000      -0.068775        -1.8715
  59   1.0000      -0.062535        -1.7017
  60   1.0000      -0.055715        -1.5161
  61   1.0000      -0.046946        -1.2775
  62   1.0000      -0.042193        -1.1481
  63   1.0000      -0.035617        -0.9692
  64   1.0000       0.004358         0.1186
  65   1.0000       0.028645         0.7795
  66   1.0000       0.033585         0.9139
  67   1.0000       0.044001         1.1973
  68   1.0000       0.047570         1.2944
  69   1.0000       0.058887         1.6024
  70   1.0000       0.070100         1.9075
  71   1.0000       0.073696         2.0054
  72   0.0000       0.229885         6.2555
  73   0.0000       0.250755         6.8234
  74   0.0000       0.253035         6.8854
  75   0.0000       0.259817         7.0700
  76   0.0000       0.264015         7.1842

MULLIKEN ATOMIC CHARGES AND SPIN POPULATIONS
--------------------------------------------
   0 V :    0.533642    1.198436
   1 S :   -0.425242   -0.004576
   2 S :   -0.351979   -0.032909
   3 S :   -0.411429   -0.028639
   4 S :   -0.383822   -0.025331
   5 O :   -0.544990   -0.136882
   6 C :   -0.247730    0.005427
   7 C :   -0.231080    0.007356
   8 C :   -0.154813    0.003968
   9 H :    0.064614   -0.000891
  10 H :    0.048857    0.001719
  11 H :    0.135351    0.000400
  12 H :    0.004964    0.000101
  13 H :    0.091185   -0.000245
  14 H :    0.051225    0.000232
  15 C :   -0.256238   -0.001739
  16 C :   -0.254206    0.003320
  17 C :   -0.068070    0.008484
  18 H :    0.047951    0.000048
  19 H :    0.136465   -0.000345
  20 H :    0.014131    0.001797
  21 H :    0.012981    0.000447
  22 H :    0.051325   -0.000648
  23 H :    0.136908    0.000470
Sum of atomic charges         :   -2.0000000

LOEWDIN ATOMIC CHARGES AND SPIN POPULATIONS
-------------------------------------------
   0 V :   -0.202333    1.154273
   1 S :   -0.073545    0.000974
   2 S :   -0.035812   -0.022515
   3 S :   -0.061151   -0.019838
   4 S :   -0.071142   -0.016529
   5 O :   -0.377782   -0.123511
   6 C :   -0.326676    0.005764
   7 C :   -0.314852    0.008564
   8 C :   -0.186834    0.000411
   9 H :    0.034412   -0.000224
  10 H :    0.030984    0.000521
  11 H :    0.070360    0.000452
  12 H :    0.031689    0.000241
  13 H :    0.045113   -0.000058
  14 H :    0.028510   -0.000471
  15 C :   -0.318989    0.003185
  16 C :   -0.323182    0.007422
  17 C :   -0.189311    0.001239
  18 H :    0.028607   -0.000176
  19 H :    0.055717   -0.000569
  20 H :    0.035556    0.000688
  21 H :    0.035337    0.000508
  22 H :    0.029717   -0.000640
  23 H :    0.055607    0.000291

  Mayer bond orders larger than 0.100000
B(  0-V ,  1-S ) :   0.7096 B(  0-V ,  2-S ) :   0.8538 B(  0-V ,  3-S ) :   0.7660
B(  0-V ,  4-S ) :   0.7708 B(  0-V ,  5-O ) :   2.0747 B(  1-S , 15-C ) :   1.0305
B(  2-S ,  6-C ) :   1.0147 B(  3-S , 16-C ) :   1.0221 B(  4-S ,  7-C ) :   1.0613
B(  6-C ,  8-C ) :   0.8974 B(  6-C , 13-H ) :   0.9758 B(  6-C , 14-H ) :   0.9702
B(  7-C ,  8-C ) :   0.9259 B(  7-C ,  9-H ) :   0.9721 B(  7-C , 10-H ) :   0.9664
B(  8-C , 11-H ) :   0.9852 B(  8-C , 12-H ) :   0.9460 B( 15-C , 17-C ) :   0.8962
B( 15-C , 22-H ) :   0.9677 B( 15-C , 23-H ) :   0.9785 B( 16-C , 17-C ) :   0.9032
B( 16-C , 18-H ) :   0.9646 B( 16-C , 19-H ) :   0.9769 B( 17-C , 20-H ) :   0.9577
B( 17-C , 21-H ) :   0.9591

FINAL SINGLE POINT ENERGY     -2847.716956295073

DIPOLE MOMENT
-------------
                                X             Y             Z
Electronic contribution:      5.32094      -2.01723      -3.78772
Nuclear contribution   :     -5.56868       2.12645       4.25494
                        -----------------------------------------
Total Dipole Moment    :     -0.24773       0.10922       0.46722
                        -----------------------------------------
Magnitude (a.u.)       :      0.53999
Magnitude (Debye)      :      1.37255

Rotational constants in cm-1:     0.027000     0.011585     0.009469
Rotational constants in MHz :   809.425358   347.310290   283.884033

                             ****ORCA TERMINATED NORMALLY****
TOTAL RUN TIME: 0 days 0 hours 14 minutes 31 seconds 36 msec
