                         Program Version 5.0.4 -  RELEASE  -
|  1> ! nofrozencore ReducedPop printbasis
|  2> ! B3LYP TZVP
|  3>
|  4> %basis
|  5> newgto V "CP(PPP)" end
|  6> end
|  7>
|  8> %pal
|  9> nprocs 4
| 10> end
| 11>
| 12> % sym SymThresh 1e-2 end
| 13> * xyz -2 2
| 14> V 0.2526740775601066 0.3505873265541389 0.2351265693403679
| 15> S -2.09939635866245 1.2694012518527626 0.41537954816225964
| 16> S -0.6960301623234926 -1.385322595484996 1.6764552983657652
| 17> S 0.22999949119160737 0.8927319098445167 -2.1873495990773772
| 18> S 1.9989425127814533 -1.2455099340393592 -0.5347067499473339
| 19> O 1.0617584552185648 1.426621586134625 1.1042946996592962
| 20> C 0.6516950784204452 -2.632162298660251 2.0009663620978624
| 21> C 2.862325621572739 -1.8916199238963354 0.9724446539719646
| 22> C 2.027683551065904 -1.9818903185934746 2.2563515742614713
| 23> H 3.732054045804976 -1.2771033518031456 1.1683935828880094
| 24> H 3.228415101046363 -2.8982798674927635 0.7107988337890918
| 25> H 1.9167585573575423 -1.089512412026998 2.6449880536812915
| 26> H 2.6251821524010563 -2.6063294642393777 3.007289563899465
| 27> H 0.6778503796657848 -2.9895803530715996 1.6597162399856913
| 28> H 0.24130370142672497 -3.274429614089222 3.227616810777461
| 29> C -2.8290099231885195 0.7694745317438584 -1.2086273423704488
| 30> C -1.0515122422520415 2.211673685745906 -2.3903003348295377
| 31> C -2.503422245925912 1.7234997886540755 -2.365226466920582
| 32> H -0.8564889634852222 2.718268218820534 -3.343408575388783
| 33> H -0.9135607085647318 2.9365077974737623 -1.5888491921096535
| 34> H -2.737747154929479 1.2173990346773 -3.3142276900507786
| 35> H -3.159679949361262 2.606896664940741 -2.3015897245328603
| 36> H -3.915806707854099 0.6980353960207457 -1.090871522073981
| 37> H -2.4614068907710784 -0.22887424222103459 -1.4495285037505812
| 38> *
| 39>
| 40> % eprnmr
| 41> gtensor true
| 42> Nuclei = all H {aiso,adip,aorb,fgrad,rho}
| 43> Nuclei = all V {aiso,adip,aorb,fgrad,rho}
| 44> end
| 45>
| 46>                          ****END OF INPUT****

CARTESIAN COORDINATES (ANGSTROEM)
---------------------------------
  V      0.252873    0.351288    0.235326
  S     -2.099198    1.270102    0.415579
  S     -0.695832   -1.384622    1.676655
  S      0.230198    0.893432   -2.187150
  S      1.999141   -1.244809   -0.534507
  O      1.061957    1.427322    1.104494
  C      0.651894   -2.631462    2.001166
  C      2.862524   -1.890919    0.972644
  C      2.027882   -1.981190    2.256551
  H      3.732253   -1.276403    1.168593
  H      3.228614   -2.897579    0.710998
  H      1.916957   -1.088812    2.645188
  H      2.625381   -2.605629    3.007489
  H      0.678049   -2.988880    1.659916
  H      0.241502   -3.273729    3.227816
  C     -2.828811    0.770175   -1.208428
  C     -1.051314    2.212374   -2.390101
  C     -2.503224    1.724200   -2.365027
  H     -0.856290    2.718969   -3.343209
  H     -0.913362    2.937208   -1.588650
  H     -2.737549    1.218099   -3.314028
  H     -3.159481    2.607597   -2.301390
  H     -3.915608    0.698736   -1.090672
  H     -2.461208   -0.228174   -1.449329

 Total Charge           Charge          ....   -2
 Multiplicity           Mult            ....    2
 Number of Electrons    NEL             ....  145
 Basis Dimension        Dim             ....  353

ORBITAL ENERGIES
----------------
                 SPIN UP ORBITALS
  NO   OCC          E(Eh)            E(eV)
   0   1.0000    -196.609478     -5350.0159
   1   1.0000     -88.567196     -2410.0359
   2   1.0000     -88.563367     -2409.9317
   3   1.0000     -88.561289     -2409.8752
   4   1.0000     -88.559574     -2409.8285
   5   1.0000     -21.984755      -598.2356
   6   1.0000     -18.827379      -512.3190
   7   1.0000     -18.492555      -503.2080
   8   1.0000     -18.485367      -503.0124
   9   1.0000     -18.485270      -503.0098
  10   1.0000      -9.990419      -271.8531
  11   1.0000      -9.944350      -270.5995
  12   1.0000      -9.935826      -270.3676
  13   1.0000      -9.935755      -270.3656
  14   1.0000      -9.933370      -270.3007
  15   1.0000      -9.925878      -270.0969
  16   1.0000      -7.620343      -207.3601
  17   1.0000      -7.617543      -207.2839
  18   1.0000      -7.615620      -207.2316
  19   1.0000      -7.613902      -207.1848
  20   1.0000      -5.585986      -152.0024
  21   1.0000      -5.582729      -151.9138
  22   1.0000      -5.581072      -151.8687
  23   1.0000      -5.579205      -151.8179
  24   1.0000      -5.579130      -151.8158
  25   1.0000      -5.577378      -151.7682
  26   1.0000      -5.576542      -151.7454
  27   1.0000      -5.574785      -151.6976
  28   1.0000      -5.574638      -151.6936
  29   1.0000      -5.573138      -151.6528
  30   1.0000      -5.572550      -151.6368
  31   1.0000      -5.570963      -151.5936
  32   1.0000      -2.377463       -64.6940
  33   1.0000      -1.420170       -38.6448
  34   1.0000      -1.405583       -38.2479
  35   1.0000      -1.405083       -38.2343
  36   1.0000      -0.589901       -16.0520
  37   1.0000      -0.576587       -15.6897
  38   1.0000      -0.552538       -15.0353
  39   1.0000      -0.497702       -13.5432
  40   1.0000      -0.467735       -12.7277
  41   1.0000      -0.412071       -11.2130
  42   1.0000      -0.403369       -10.9762
  43   1.0000      -0.373663       -10.1679
  44   1.0000      -0.338291        -9.2054
  45   1.0000      -0.321961        -8.7610
  46   1.0000      -0.288252        -7.8437
  47   1.0000      -0.215779        -5.8716
  48   1.0000      -0.210020        -5.7149
  49   1.0000      -0.204463        -5.5637
  50   1.0000      -0.187878        -5.1124
  51   1.0000      -0.185641        -5.0516
  52   1.0000      -0.135536        -3.6881
  53   1.0000      -0.133257        -3.6261
  54   1.0000      -0.128119        -3.4863
  55   1.0000      -0.109545        -2.9809
  56   1.0000      -0.099305        -2.7022
  57   1.0000      -0.084604        -2.3022
  58   1.0000      -0.070633        -1.9220
  59   1.0000      -0.065783        -1.7901
  60   1.0000      -0.058368        -1.5883
  61   1.0000      -0.048213        -1.3119
  62   1.0000      -0.043177        -1.1749
  63   1.0000      -0.038548        -1.0489
  64   1.0000      -0.002741        -0.0746
  65   1.0000       0.025562         0.6956
  66   1.0000       0.028291         0.7698
  67   1.0000       0.034594         0.9414
  68   1.0000       0.042825         1.1653
  69   1.0000       0.049147         1.3374
  70   1.0000       0.060807         1.6547
  71   1.0000       0.070684         1.9234
  72   1.0000       0.078657         2.1404
  73   0.0000       0.231714         6.3052
  74   0.0000       0.232767         6.3339
  75   0.0000       0.245058         6.6684
  76   0.0000       0.247875         6.7450
  77   0.0000       0.257285         7.0011

                 SPIN DOWN ORBITALS
  NO   OCC          E(Eh)            E(eV)
   0   1.0000    -196.609620     -5350.0198
   1   1.0000     -88.567370     -2410.0407
   2   1.0000     -88.563528     -2409.9361
   3   1.0000     -88.561393     -2409.8780
   4   1.0000     -88.559544     -2409.8277
   5   1.0000     -21.969712      -597.8263
   6   1.0000     -18.830848      -512.4134
   7   1.0000     -18.487359      -503.0666
   8   1.0000     -18.469297      -502.5751
   9   1.0000     -18.468831      -502.5624
  10   1.0000      -9.990265      -271.8489
  11   1.0000      -9.944174      -270.5947
  12   1.0000      -9.935698      -270.3641
  13   1.0000      -9.935650      -270.3628
  14   1.0000      -9.933328      -270.2996
  15   1.0000      -9.925898      -270.0974
  16   1.0000      -7.620512      -207.3647
  17   1.0000      -7.617696      -207.2880
  18   1.0000      -7.615719      -207.2342
  19   1.0000      -7.613875      -207.1841
  20   1.0000      -5.586148      -152.0068
  21   1.0000      -5.582883      -151.9180
  22   1.0000      -5.581194      -151.8720
  23   1.0000      -5.579656      -151.8302
  24   1.0000      -5.579145      -151.8162
  25   1.0000      -5.577509      -151.7717
  26   1.0000      -5.576968      -151.7570
  27   1.0000      -5.575044      -151.7047
  28   1.0000      -5.574904      -151.7009
  29   1.0000      -5.573474      -151.6619
  30   1.0000      -5.572476      -151.6348
  31   1.0000      -5.570484      -151.5806
  32   1.0000      -2.332553       -63.4720
  33   1.0000      -1.401196       -38.1285
  34   1.0000      -1.343937       -36.5704
  35   1.0000      -1.342212       -36.5235
  36   1.0000      -0.597298       -16.2533
  37   1.0000      -0.576481       -15.6868
  38   1.0000      -0.552379       -15.0310
  39   1.0000      -0.497543       -13.5388
  40   1.0000      -0.467602       -12.7241
  41   1.0000      -0.412106       -11.2140
  42   1.0000      -0.403352       -10.9758
  43   1.0000      -0.374140       -10.1809
  44   1.0000      -0.338398        -9.2083
  45   1.0000      -0.322146        -8.7660
  46   1.0000      -0.288233        -7.8432
  47   1.0000      -0.215713        -5.8699
  48   1.0000      -0.209929        -5.7125
  49   1.0000      -0.204352        -5.5607
  50   1.0000      -0.187740        -5.1087
  51   1.0000      -0.185382        -5.0445
  52   1.0000      -0.135369        -3.6836
  53   1.0000      -0.132986        -3.6187
  54   1.0000      -0.128075        -3.4851
  55   1.0000      -0.109479        -2.9791
  56   1.0000      -0.098992        -2.6937
  57   1.0000      -0.083564        -2.2739
  58   1.0000      -0.068479        -1.8634
  59   1.0000      -0.064927        -1.7667
  60   1.0000      -0.058377        -1.5885
  61   1.0000      -0.049428        -1.3450
  62   1.0000      -0.044070        -1.1992
  63   1.0000      -0.039350        -1.0708
  64   1.0000       0.001548         0.0421
  65   1.0000       0.026523         0.7217
  66   1.0000       0.031282         0.8512
  67   1.0000       0.041745         1.1360
  68   1.0000       0.044553         1.2123
  69   1.0000       0.056840         1.5467
  70   1.0000       0.066259         1.8030
  71   1.0000       0.072101         1.9620
  72   0.0000       0.227333         6.1860
  73   0.0000       0.239081         6.5057
  74   0.0000       0.249502         6.7893
  75   0.0000       0.259254         7.0547
  76   0.0000       0.262411         7.1406

MULLIKEN ATOMIC CHARGES AND SPIN POPULATIONS
--------------------------------------------
   0 V :    0.523132    1.192176
   1 S :   -0.427696   -0.001116
   2 S :   -0.343385   -0.032496
   3 S :   -0.408482   -0.029620
   4 S :   -0.385314   -0.021642
   5 O :   -0.545917   -0.134145
   6 C :   -0.273100    0.003428
   7 C :   -0.247150    0.007394
   8 C :   -0.177660    0.002548
   9 H :    0.083077   -0.000973
  10 H :    0.052570    0.001846
  11 H :    0.163462    0.000555
  12 H :   -0.003395   -0.000177
  13 H :    0.246338    0.003699
  14 H :   -0.082727   -0.002592
  15 C :   -0.256407   -0.002146
  16 C :   -0.253105    0.003464
  17 C :   -0.070652    0.008472
  18 H :    0.048431   -0.000095
  19 H :    0.131644   -0.000197
  20 H :    0.016849    0.001646
  21 H :    0.013826    0.000100
  22 H :    0.054005   -0.000571
  23 H :    0.141654    0.000442
Sum of atomic charges         :   -2.0000000

LOEWDIN ATOMIC CHARGES AND SPIN POPULATIONS
-------------------------------------------
   0 V :   -0.203833    1.148599
   1 S :   -0.071176    0.004332
   2 S :   -0.008455   -0.022375
   3 S :   -0.059381   -0.020693
   4 S :   -0.060478   -0.012617
   5 O :   -0.375962   -0.120884
   6 C :   -0.052174    0.005256
   7 C :   -0.306624    0.006892
   8 C :   -0.137873    0.000388
   9 H :    0.035908    0.000037
  10 H :    0.031685    0.000590
  11 H :    0.045339    0.000289
  12 H :    0.037566    0.000111
  13 H :   -0.297862    0.001036
  14 H :    0.011448   -0.002210
  15 C :   -0.317187    0.002741
  16 C :   -0.324672    0.007364
  17 C :   -0.188433    0.001181
  18 H :    0.028655   -0.000205
  19 H :    0.054147   -0.000615
  20 H :    0.036526    0.000629
  21 H :    0.035484    0.000400
  22 H :    0.030722   -0.000597
  23 H :    0.056631    0.000350

  Mayer bond orders larger than 0.100000
B(  0-V ,  1-S ) :   0.7114 B(  0-V ,  2-S ) :   0.8518 B(  0-V ,  3-S ) :   0.7730
B(  0-V ,  4-S ) :   0.7791 B(  0-V ,  5-O ) :   2.0750 B(  1-S , 15-C ) :   1.0228
B(  2-S ,  6-C ) :   0.9879 B(  3-S , 16-C ) :   1.0237 B(  4-S ,  7-C ) :   1.0676
B(  6-C ,  8-C ) :   0.9379 B(  6-C , 13-H ) :   0.9465 B(  6-C , 14-H ) :   0.9996
B(  7-C ,  8-C ) :   0.9178 B(  7-C ,  9-H ) :   0.9780 B(  7-C , 10-H ) :   0.9709
B(  8-C , 11-H ) :   0.9880 B(  8-C , 12-H ) :   0.9408 B( 15-C , 17-C ) :   0.8961
B( 15-C , 22-H ) :   0.9689 B( 15-C , 23-H ) :   0.9795 B( 16-C , 17-C ) :   0.9027
B( 16-C , 18-H ) :   0.9636 B( 16-C , 19-H ) :   0.9762 B( 17-C , 20-H ) :   0.9587
B( 17-C , 21-H ) :   0.9599

FINAL SINGLE POINT ENERGY     -2846.725598662154

DIPOLE MOMENT
-------------
                                X             Y             Z
Electronic contribution:      2.65424       5.31085       1.42691
Nuclear contribution   :     -2.65763      -5.50986      -1.67951
                        -----------------------------------------
Total Dipole Moment    :     -0.00339      -0.19900      -0.25260
                        -----------------------------------------
Magnitude (a.u.)       :      0.32159
Magnitude (Debye)      :      0.81741

Rotational constants in cm-1:     0.027228     0.011728     0.009597
Rotational constants in MHz :   816.282562   351.608517   287.699925

                             ****ORCA TERMINATED NORMALLY****
TOTAL RUN TIME: 0 days 0 hours 14 minutes 32 seconds 218 msec
