                         Program Version 5.0.4 -  RELEASE  -
|  1> ! nofrozencore ReducedPop printbasis
|  2> ! B3LYP TZVP
|  3>
|  4> %basis
|  5> newgto V "CP(PPP)" end
|  6> end
|  7>
|  8> %pal
|  9> nprocs 8
| 10> end
| 11>
| 12> % sym SymThresh 1e-2 end
| 13> * xyz -2 2
| 14> V -0.274889606857217 -0.3309624824233288 -0.2563381150162271
| 15> S 0.3438230847983794 1.2176492985323635 -2.0530921862815537
| 16> S 2.217440218256603 -0.8542497841196542 -0.2517796528308707
| 17> S -1.6352528119120566 1.4656338753946514 0.5377021247487946
| 18> S -0.4718638969543614 -1.0719473040204472 2.155613056491897
| 19> O -1.2686842604136122 -1.3190424160320366 -1.06219233991831
| 20> C 2.4153491376117224 -2.110035099366443 1.1032734193811409
| 21> C 0.19911578015429449 -2.7977600837218652 2.2033332184722236
| 22> C 1.2560007628715937 -3.125195425619097 1.1445824298513614
| 23> H -0.6325920755100444 -3.506098462006166 2.105485026578887
| 24> H 0.6352290874729902 -2.949820539049846 3.2012306115678246
| 25> H 0.7844060239207847 -3.1604962586487373 0.15230699925190735
| 26> H 1.6421745957803349 -4.14712942243588 1.353121475997754
| 27> H 2.473695133295345 -1.5943742357394082 2.0710868178785513
| 28> H 3.374521114028284 -2.6259378420387507 0.9373852943198875
| 29> C 0.4549406220239246 2.8487908601031395 -1.1857147274135125
| 30> C -2.0377301471388902 2.6086732166685853 -0.8604462780878852
| 31> C -0.8950401485975313 3.5753374331989805 -1.183900081445068
| 32> H -2.943642269952293 3.1630904710899648 -0.5826035452612491
| 33> H -2.2548495879580734 2.0027405447879194 -1.739457786676324
| 34> H -0.8724356004526865 4.391854964375736 -0.4437718446791799
| 35> H -1.0740174344671691 4.030752900396769 -2.1728215166075167
| 36> H 1.2248253096149515 3.4600735945181067 -1.6777068016698238
| 37> H 0.7759631789481871 2.666773532570507 -0.1575445124910575
| 38> *
| 39>
| 40> % eprnmr
| 41> gtensor true
| 42> Nuclei = all H {aiso,adip,aorb,fgrad,rho}
| 43> Nuclei = all V {aiso,adip,aorb,fgrad,rho}
| 44> end
| 45>
| 46>                          ****END OF INPUT****

CARTESIAN COORDINATES (ANGSTROEM)
---------------------------------
  V     -0.275408   -0.331190   -0.256838
  S      0.343305    1.217422   -2.053592
  S      2.216922   -0.854477   -0.252280
  S     -1.635771    1.465406    0.537202
  S     -0.472382   -1.072175    2.155113
  O     -1.269202   -1.319270   -1.062692
  C      2.414831   -2.110263    1.102773
  C      0.198598   -2.797988    2.202833
  C      1.255483   -3.125423    1.144082
  H     -0.633110   -3.506326    2.104985
  H      0.634711   -2.950048    3.200731
  H      0.783888   -3.160724    0.151807
  H      1.641657   -4.147357    1.352621
  H      2.473177   -1.594602    2.070587
  H      3.374003   -2.626166    0.936885
  C      0.454423    2.848563   -1.186215
  C     -2.038248    2.608446   -0.860946
  C     -0.895558    3.575110   -1.184400
  H     -2.944160    3.162863   -0.583104
  H     -2.255368    2.002513   -1.739958
  H     -0.872954    4.391627   -0.444272
  H     -1.074535    4.030525   -2.173322
  H      1.224307    3.459846   -1.678207
  H      0.775445    2.666546   -0.158044

 Total Charge           Charge          ....   -2
 Multiplicity           Mult            ....    2
 Number of Electrons    NEL             ....  145
 Basis Dimension        Dim             ....  353

ORBITAL ENERGIES
----------------
                 SPIN UP ORBITALS
  NO   OCC          E(Eh)            E(eV)
   0   1.0000    -196.607147     -5349.9524
   1   1.0000     -88.562698     -2409.9135
   2   1.0000     -88.558435     -2409.7975
   3   1.0000     -88.558018     -2409.7862
   4   1.0000     -88.557357     -2409.7682
   5   1.0000     -21.982378      -598.1709
   6   1.0000     -18.822204      -512.1782
   7   1.0000     -18.490272      -503.1459
   8   1.0000     -18.482951      -502.9467
   9   1.0000     -18.482869      -502.9444
  10   1.0000      -9.941159      -270.5127
  11   1.0000      -9.935711      -270.3644
  12   1.0000      -9.934935      -270.3433
  13   1.0000      -9.934210      -270.3236
  14   1.0000      -9.933797      -270.3124
  15   1.0000      -9.927177      -270.1322
  16   1.0000      -7.617576      -207.2848
  17   1.0000      -7.612976      -207.1596
  18   1.0000      -7.611857      -207.1292
  19   1.0000      -7.611472      -207.1187
  20   1.0000      -5.582688      -151.9127
  21   1.0000      -5.578212      -151.7909
  22   1.0000      -5.577267      -151.7651
  23   1.0000      -5.576907      -151.7554
  24   1.0000      -5.576518      -151.7448
  25   1.0000      -5.574764      -151.6970
  26   1.0000      -5.572118      -151.6250
  27   1.0000      -5.570781      -151.5887
  28   1.0000      -5.570599      -151.5837
  29   1.0000      -5.569999      -151.5674
  30   1.0000      -5.569087      -151.5426
  31   1.0000      -5.568366      -151.5229
  32   1.0000      -2.374645       -64.6174
  33   1.0000      -1.415998       -38.5313
  34   1.0000      -1.403114       -38.1807
  35   1.0000      -1.402614       -38.1671
  36   1.0000      -0.584214       -15.8973
  37   1.0000      -0.555879       -15.1262
  38   1.0000      -0.548086       -14.9142
  39   1.0000      -0.466082       -12.6827
  40   1.0000      -0.464079       -12.6282
  41   1.0000      -0.406462       -11.0604
  42   1.0000      -0.392634       -10.6841
  43   1.0000      -0.339093        -9.2272
  44   1.0000      -0.324607        -8.8330
  45   1.0000      -0.304240        -8.2788
  46   1.0000      -0.288893        -7.8612
  47   1.0000      -0.216802        -5.8995
  48   1.0000      -0.206478        -5.6186
  49   1.0000      -0.204931        -5.5765
  50   1.0000      -0.192306        -5.2329
  51   1.0000      -0.156507        -4.2588
  52   1.0000      -0.138510        -3.7691
  53   1.0000      -0.133660        -3.6371
  54   1.0000      -0.111640        -3.0379
  55   1.0000      -0.106976        -2.9110
  56   1.0000      -0.101925        -2.7735
  57   1.0000      -0.081553        -2.2192
  58   1.0000      -0.067149        -1.8272
  59   1.0000      -0.060395        -1.6434
  60   1.0000      -0.056946        -1.5496
  61   1.0000      -0.042639        -1.1603
  62   1.0000      -0.040160        -1.0928
  63   1.0000      -0.032523        -0.8850
  64   1.0000      -0.002899        -0.0789
  65   1.0000       0.025946         0.7060
  66   1.0000       0.031983         0.8703
  67   1.0000       0.037836         1.0296
  68   1.0000       0.045244         1.2312
  69   1.0000       0.055237         1.5031
  70   1.0000       0.065539         1.7834
  71   1.0000       0.073282         1.9941
  72   1.0000       0.081682         2.2227
  73   0.0000       0.233744         6.3605
  74   0.0000       0.242758         6.6058
  75   0.0000       0.249904         6.8002
  76   0.0000       0.254081         6.9139
  77   0.0000       0.258168         7.0251

                 SPIN DOWN ORBITALS
  NO   OCC          E(Eh)            E(eV)
   0   1.0000    -196.607285     -5349.9562
   1   1.0000     -88.562869     -2409.9182
   2   1.0000     -88.558597     -2409.8019
   3   1.0000     -88.557965     -2409.7847
   4   1.0000     -88.557479     -2409.7715
   5   1.0000     -21.967347      -597.7619
   6   1.0000     -18.825777      -512.2754
   7   1.0000     -18.485030      -503.0032
   8   1.0000     -18.466767      -502.5063
   9   1.0000     -18.466613      -502.5021
  10   1.0000      -9.940970      -270.5075
  11   1.0000      -9.935486      -270.3583
  12   1.0000      -9.934860      -270.3413
  13   1.0000      -9.934147      -270.3219
  14   1.0000      -9.933713      -270.3101
  15   1.0000      -9.927182      -270.1323
  16   1.0000      -7.617737      -207.2892
  17   1.0000      -7.612928      -207.1583
  18   1.0000      -7.612015      -207.1335
  19   1.0000      -7.611585      -207.1218
  20   1.0000      -5.582874      -151.9177
  21   1.0000      -5.578220      -151.7911
  22   1.0000      -5.577407      -151.7690
  23   1.0000      -5.577037      -151.7589
  24   1.0000      -5.576948      -151.7565
  25   1.0000      -5.574891      -151.7005
  26   1.0000      -5.572432      -151.6336
  27   1.0000      -5.571221      -151.6006
  28   1.0000      -5.571018      -151.5951
  29   1.0000      -5.569447      -151.5524
  30   1.0000      -5.569199      -151.5456
  31   1.0000      -5.568356      -151.5227
  32   1.0000      -2.329738       -63.3954
  33   1.0000      -1.396777       -38.0082
  34   1.0000      -1.341220       -36.4964
  35   1.0000      -1.340287       -36.4711
  36   1.0000      -0.592030       -16.1100
  37   1.0000      -0.555648       -15.1200
  38   1.0000      -0.547994       -14.9117
  39   1.0000      -0.466060       -12.6821
  40   1.0000      -0.463885       -12.6230
  41   1.0000      -0.406389       -11.0584
  42   1.0000      -0.392868       -10.6905
  43   1.0000      -0.339103        -9.2275
  44   1.0000      -0.325074        -8.8457
  45   1.0000      -0.304200        -8.2777
  46   1.0000      -0.288851        -7.8600
  47   1.0000      -0.216717        -5.8972
  48   1.0000      -0.206267        -5.6128
  49   1.0000      -0.204887        -5.5753
  50   1.0000      -0.192143        -5.2285
  51   1.0000      -0.156372        -4.2551
  52   1.0000      -0.138324        -3.7640
  53   1.0000      -0.133349        -3.6286
  54   1.0000      -0.111620        -3.0373
  55   1.0000      -0.106865        -2.9079
  56   1.0000      -0.101798        -2.7701
  57   1.0000      -0.079914        -2.1746
  58   1.0000      -0.065640        -1.7862
  59   1.0000      -0.059785        -1.6268
  60   1.0000      -0.056367        -1.5338
  61   1.0000      -0.043059        -1.1717
  62   1.0000      -0.041482        -1.1288
  63   1.0000      -0.034272        -0.9326
  64   1.0000       0.002164         0.0589
  65   1.0000       0.027736         0.7547
  66   1.0000       0.034826         0.9477
  67   1.0000       0.045709         1.2438
  68   1.0000       0.046845         1.2747
  69   1.0000       0.063208         1.7200
  70   1.0000       0.069473         1.8905
  71   1.0000       0.073928         2.0117
  72   0.0000       0.232207         6.3187
  73   0.0000       0.250020         6.8034
  74   0.0000       0.257731         7.0132
  75   0.0000       0.259533         7.0623
  76   0.0000       0.263584         7.1725

MULLIKEN ATOMIC CHARGES AND SPIN POPULATIONS
--------------------------------------------
   0 V :    0.509184    1.189180
   1 S :   -0.394273    0.004948
   2 S :   -0.406203   -0.030809
   3 S :   -0.359910   -0.029260
   4 S :   -0.404260   -0.025656
   5 O :   -0.550406   -0.138202
   6 C :   -0.243114    0.003757
   7 C :   -0.238337    0.006943
   8 C :   -0.176184    0.004271
   9 H :    0.074707   -0.000986
  10 H :    0.050399    0.002432
  11 H :    0.154670    0.001019
  12 H :    0.002612    0.000608
  13 H :    0.104824   -0.000081
  14 H :    0.044691    0.000057
  15 C :   -0.262821   -0.003096
  16 C :   -0.242381    0.003986
  17 C :   -0.090074    0.010335
  18 H :    0.049241   -0.001214
  19 H :    0.135876    0.000080
  20 H :    0.016478    0.002091
  21 H :    0.017624   -0.000011
  22 H :    0.055029   -0.000627
  23 H :    0.152629    0.000236
Sum of atomic charges         :   -2.0000000

LOEWDIN ATOMIC CHARGES AND SPIN POPULATIONS
-------------------------------------------
   0 V :   -0.220114    1.146936
   1 S :   -0.030498    0.009497
   2 S :   -0.093618   -0.022031
   3 S :    0.003674   -0.020206
   4 S :   -0.085289   -0.016146
   5 O :   -0.389612   -0.124926
   6 C :   -0.329193    0.003399
   7 C :   -0.315632    0.007484
   8 C :   -0.192342    0.001173
   9 H :    0.034807   -0.000066
  10 H :    0.028546    0.000785
  11 H :    0.071094    0.000620
  12 H :    0.031199    0.000218
  13 H :    0.047263   -0.000091
  14 H :    0.025972   -0.000428
  15 C :   -0.316216    0.003404
  16 C :   -0.322517    0.009641
  17 C :   -0.192205    0.001641
  18 H :    0.028677   -0.000751
  19 H :    0.055315   -0.000730
  20 H :    0.035652    0.000806
  21 H :    0.035672    0.000497
  22 H :    0.030844   -0.000610
  23 H :    0.058521   -0.000114

  Mayer bond orders larger than 0.100000
B(  0-V ,  1-S ) :   0.7712 B(  0-V ,  2-S ) :   0.7792 B(  0-V ,  3-S ) :   0.8529
B(  0-V ,  4-S ) :   0.7408 B(  0-V ,  5-O ) :   2.0633 B(  1-S , 15-C ) :   1.0093
B(  2-S ,  6-C ) :   1.0109 B(  3-S , 16-C ) :   1.0036 B(  4-S ,  7-C ) :   1.0659
B(  6-C ,  8-C ) :   0.8876 B(  6-C , 13-H ) :   0.9768 B(  6-C , 14-H ) :   0.9633
B(  7-C ,  8-C ) :   0.9180 B(  7-C ,  9-H ) :   0.9743 B(  7-C , 10-H ) :   0.9668
B(  8-C , 11-H ) :   0.9902 B(  8-C , 12-H ) :   0.9392 B( 15-C , 17-C ) :   0.9028
B( 15-C , 22-H ) :   0.9666 B( 15-C , 23-H ) :   0.9729 B( 16-C , 17-C ) :   0.9093
B( 16-C , 18-H ) :   0.9626 B( 16-C , 19-H ) :   0.9692 B( 17-C , 20-H ) :   0.9559
B( 17-C , 21-H ) :   0.9597

FINAL SINGLE POINT ENERGY     -2847.710027324288

DIPOLE MOMENT
-------------
                                X             Y             Z
Electronic contribution:     -3.98959      -2.88992      -3.80398
Nuclear contribution   :      4.17524       3.11169       4.01332
                        -----------------------------------------
Total Dipole Moment    :      0.18565       0.22178       0.20934
                        -----------------------------------------
Magnitude (a.u.)       :      0.35704
Magnitude (Debye)      :      0.90751

Rotational constants in cm-1:     0.027556     0.011737     0.009721
Rotational constants in MHz :   826.104046   351.859917   291.422372

                             ****ORCA TERMINATED NORMALLY****
TOTAL RUN TIME: 0 days 0 hours 9 minutes 34 seconds 775 msec
