                         Program Version 5.0.4 -  RELEASE  -
|  1> ! nofrozencore ReducedPop printbasis
|  2> ! B3LYP TZVP
|  3>
|  4> %basis
|  5> newgto V "CP(PPP)" end
|  6> end
|  7>
|  8> %pal
|  9> nprocs 8
| 10> end
| 11>
| 12> % sym SymThresh 1e-2 end
| 13> * xyz -2 2
| 14> V -0.328862912727208 0.3282626493742596 -0.16157670680320432
| 15> S -1.8669252135838408 -1.4880710561895962 0.7011033686623609
| 16> S 0.22131382099293495 0.4986965567448145 2.2172255075831537
| 17> S 0.2894081174100684 -1.1567176249479485 -2.052465449129397
| 18> S 1.8710699145949488 1.3352953219889558 -0.7409734719226202
| 19> O -1.3946506888963148 1.4507017169467387 -0.5768353440409312
| 20> C 1.4783936055624982 1.8499658964911645 2.4227382337754855
| 21> C 2.0207110664199828 2.9321172959670174 0.17865161812836558
| 22> C 1.2574925415861813 3.05459024171777 1.4975981948746149
| 23> H 1.5029802764134175 4.0264403731071035 -0.7452774900091744
| 24> H 2.8768406412183976 3.099725833647572 0.2977409636680533
| 25> H 0.25707072828412525 3.1632451963802604 1.3355977817062585
| 26> H 1.6093675035790806 3.9821211619611767 2.0021475060830585
| 27> H 2.4780332214632605 1.4423171982386516 2.2567770406585184
| 28> H 1.4150562798767379 2.1648796476226404 3.4587387755742234
| 29> C -0.929782124388251 -3.033032163066017 0.2787237238129307
| 30> C -1.1071950606897878 -2.3616530317627644 -2.2246869820931843
| 31> C -1.1250692809220249 -3.4925439436792556 -1.1832285959145645
| 32> H -1.0598350075353495 -2.7570423292905515 -3.1381419466862357
| 33> H -2.0228652998991996 -1.811970921807735 -2.143896302812929
| 34> H -0.36601042682673135 -4.197537626883084 -1.414714323187845
| 35> H -2.0528656002213506 -3.993836944971369 -1.2628140914911425
| 36> H -1.1629009997237654 -3.653147054580019 0.8038826326528006
| 37> H 0.07774889203058062 -2.8429191986413036 0.4378532109379863
| 38> *
| 39>
| 40> % eprnmr
| 41> gtensor true
| 42> Nuclei = all H {aiso,adip,aorb,fgrad,rho}
| 43> Nuclei = all V {aiso,adip,aorb,fgrad,rho}
| 44> end
| 45>
| 46>                          ****END OF INPUT****

CARTESIAN COORDINATES (ANGSTROEM)
---------------------------------
  V     -0.329488    0.328512   -0.161919
  S     -1.867550   -1.487822    0.700761
  S      0.220689    0.498946    2.216883
  S      0.288783   -1.156468   -2.052808
  S      1.870445    1.335545   -0.741316
  O     -1.395275    1.450951   -0.577178
  C      1.477769    1.850215    2.422396
  C      2.020086    2.932367    0.178309
  C      1.256868    3.054840    1.497256
  H      1.502356    4.026690   -0.745620
  H      2.876216    3.099975    0.297398
  H      0.256446    3.163494    1.335255
  H      1.608743    3.982370    2.001805
  H      2.477408    1.442567    2.256435
  H      1.414432    2.165129    3.458396
  C     -0.930407   -3.032783    0.278381
  C     -1.107820   -2.361404   -2.225030
  C     -1.125694   -3.492295   -1.183571
  H     -1.060460   -2.756793   -3.138484
  H     -2.023490   -1.811722   -2.144239
  H     -0.366635   -4.197288   -1.415057
  H     -2.053490   -3.993588   -1.263157
  H     -1.163526   -3.652898    0.803540
  H      0.077124   -2.842670    0.437511

 Total Charge           Charge          ....   -2
 Multiplicity           Mult            ....    2
 Number of Electrons    NEL             ....  145
 Basis Dimension        Dim             ....  353

ORBITAL ENERGIES
----------------
                 SPIN UP ORBITALS
  NO   OCC          E(Eh)            E(eV)
   0   1.0000    -196.608442     -5349.9877
   1   1.0000     -88.565966     -2410.0025
   2   1.0000     -88.562573     -2409.9101
   3   1.0000     -88.561826     -2409.8898
   4   1.0000     -88.556964     -2409.7575
   5   1.0000     -21.983686      -598.2065
   6   1.0000     -18.826244      -512.2881
   7   1.0000     -18.491461      -503.1782
   8   1.0000     -18.484310      -502.9837
   9   1.0000     -18.484215      -502.9811
  10   1.0000      -9.953503      -270.8486
  11   1.0000      -9.936382      -270.3827
  12   1.0000      -9.924568      -270.0612
  13   1.0000      -9.922149      -269.9954
  14   1.0000      -9.921551      -269.9791
  15   1.0000      -9.901336      -269.4291
  16   1.0000      -7.619960      -207.3496
  17   1.0000      -7.616395      -207.2527
  18   1.0000      -7.616031      -207.2427
  19   1.0000      -7.611232      -207.1122
  20   1.0000      -5.585319      -151.9842
  21   1.0000      -5.581836      -151.8895
  22   1.0000      -5.581135      -151.8704
  23   1.0000      -5.578837      -151.8079
  24   1.0000      -5.577207      -151.7635
  25   1.0000      -5.576395      -151.7414
  26   1.0000      -5.575198      -151.7088
  27   1.0000      -5.575051      -151.7048
  28   1.0000      -5.573580      -151.6648
  29   1.0000      -5.573333      -151.6581
  30   1.0000      -5.570519      -151.5815
  31   1.0000      -5.568340      -151.5222
  32   1.0000      -2.376388       -64.6648
  33   1.0000      -1.418993       -38.6128
  34   1.0000      -1.404570       -38.2203
  35   1.0000      -1.404032       -38.2056
  36   1.0000      -0.588251       -16.0071
  37   1.0000      -0.560428       -15.2500
  38   1.0000      -0.559160       -15.2155
  39   1.0000      -0.485429       -13.2092
  40   1.0000      -0.475041       -12.9265
  41   1.0000      -0.409062       -11.1312
  42   1.0000      -0.402833       -10.9616
  43   1.0000      -0.347111        -9.4454
  44   1.0000      -0.334909        -9.1133
  45   1.0000      -0.323673        -8.8076
  46   1.0000      -0.309697        -8.4273
  47   1.0000      -0.227438        -6.1889
  48   1.0000      -0.215528        -5.8648
  49   1.0000      -0.208883        -5.6840
  50   1.0000      -0.186301        -5.0695
  51   1.0000      -0.163572        -4.4510
  52   1.0000      -0.140593        -3.8257
  53   1.0000      -0.135690        -3.6923
  54   1.0000      -0.123168        -3.3516
  55   1.0000      -0.119066        -3.2400
  56   1.0000      -0.091743        -2.4965
  57   1.0000      -0.074654        -2.0314
  58   1.0000      -0.071786        -1.9534
  59   1.0000      -0.064640        -1.7589
  60   1.0000      -0.056979        -1.5505
  61   1.0000      -0.047907        -1.3036
  62   1.0000      -0.043287        -1.1779
  63   1.0000      -0.036013        -0.9800
  64   1.0000      -0.003449        -0.0938
  65   1.0000       0.025637         0.6976
  66   1.0000       0.027764         0.7555
  67   1.0000       0.036246         0.9863
  68   1.0000       0.043111         1.1731
  69   1.0000       0.052129         1.4185
  70   1.0000       0.063204         1.7199
  71   1.0000       0.070566         1.9202
  72   1.0000       0.079488         2.1630
  73   0.0000       0.232960         6.3392
  74   0.0000       0.236401         6.4328
  75   0.0000       0.245384         6.6773
  76   0.0000       0.248930         6.7737
  77   0.0000       0.260277         7.0825

                 SPIN DOWN ORBITALS
  NO   OCC          E(Eh)            E(eV)
   0   1.0000    -196.608585     -5349.9916
   1   1.0000     -88.566068     -2410.0052
   2   1.0000     -88.562747     -2409.9149
   3   1.0000     -88.561986     -2409.8942
   4   1.0000     -88.556936     -2409.7567
   5   1.0000     -21.968623      -597.7966
   6   1.0000     -18.829765      -512.3839
   7   1.0000     -18.486247      -503.0364
   8   1.0000     -18.468233      -502.5462
   9   1.0000     -18.467750      -502.5330
  10   1.0000      -9.953323      -270.8437
  11   1.0000      -9.936254      -270.3792
  12   1.0000      -9.924591      -270.0618
  13   1.0000      -9.922105      -269.9942
  14   1.0000      -9.921376      -269.9744
  15   1.0000      -9.901282      -269.4276
  16   1.0000      -7.620056      -207.3523
  17   1.0000      -7.616565      -207.2573
  18   1.0000      -7.616183      -207.2469
  19   1.0000      -7.611208      -207.1115
  20   1.0000      -5.585437      -151.9875
  21   1.0000      -5.581998      -151.8939
  22   1.0000      -5.581289      -151.8746
  23   1.0000      -5.579231      -151.8186
  24   1.0000      -5.577139      -151.7617
  25   1.0000      -5.576411      -151.7419
  26   1.0000      -5.575644      -151.7210
  27   1.0000      -5.575474      -151.7164
  28   1.0000      -5.573710      -151.6684
  29   1.0000      -5.573451      -151.6613
  30   1.0000      -5.570858      -151.5908
  31   1.0000      -5.567865      -151.5093
  32   1.0000      -2.331423       -63.4412
  33   1.0000      -1.399951       -38.0946
  34   1.0000      -1.342893       -36.5420
  35   1.0000      -1.341085       -36.4928
  36   1.0000      -0.595802       -16.2126
  37   1.0000      -0.560283       -15.2461
  38   1.0000      -0.559050       -15.2125
  39   1.0000      -0.485293       -13.2055
  40   1.0000      -0.474969       -12.9246
  41   1.0000      -0.409132       -11.1330
  42   1.0000      -0.402962       -10.9652
  43   1.0000      -0.347179        -9.4472
  44   1.0000      -0.335143        -9.1197
  45   1.0000      -0.323812        -8.8114
  46   1.0000      -0.309791        -8.4298
  47   1.0000      -0.227405        -6.1880
  48   1.0000      -0.215373        -5.8606
  49   1.0000      -0.208777        -5.6811
  50   1.0000      -0.186113        -5.0644
  51   1.0000      -0.163561        -4.4507
  52   1.0000      -0.140366        -3.8195
  53   1.0000      -0.135545        -3.6884
  54   1.0000      -0.123102        -3.3498
  55   1.0000      -0.118911        -3.2357
  56   1.0000      -0.090993        -2.4760
  57   1.0000      -0.074175        -2.0184
  58   1.0000      -0.069386        -1.8881
  59   1.0000      -0.063760        -1.7350
  60   1.0000      -0.057146        -1.5550
  61   1.0000      -0.048667        -1.3243
  62   1.0000      -0.044362        -1.2072
  63   1.0000      -0.037178        -1.0117
  64   1.0000       0.001200         0.0327
  65   1.0000       0.026532         0.7220
  66   1.0000       0.030834         0.8390
  67   1.0000       0.042855         1.1662
  68   1.0000       0.045647         1.2421
  69   1.0000       0.060854         1.6559
  70   1.0000       0.067677         1.8416
  71   1.0000       0.071055         1.9335
  72   0.0000       0.231522         6.3000
  73   0.0000       0.239339         6.5127
  74   0.0000       0.251577         6.8458
  75   0.0000       0.261159         7.1065
  76   0.0000       0.264875         7.2076

MULLIKEN ATOMIC CHARGES AND SPIN POPULATIONS
--------------------------------------------
   0 V :    0.528065    1.193218
   1 S :   -0.447449   -0.001329
   2 S :   -0.352644   -0.032690
   3 S :   -0.422636   -0.029667
   4 S :   -0.350568   -0.021690
   5 O :   -0.541290   -0.135819
   6 C :   -0.270197    0.005438
   7 C :   -0.225327    0.008309
   8 C :   -0.147310    0.002122
   9 H :   -0.097436   -0.000874
  10 H :    0.146457    0.000992
  11 H :    0.165727    0.000727
  12 H :   -0.000235   -0.000094
  13 H :    0.096345   -0.000068
  14 H :    0.055963   -0.000080
  15 C :   -0.296931   -0.002154
  16 C :   -0.258566    0.003915
  17 C :   -0.107141    0.008367
  18 H :    0.080433   -0.000104
  19 H :    0.128648   -0.000151
  20 H :    0.021305    0.001553
  21 H :    0.019430   -0.000083
  22 H :    0.139355   -0.000098
  23 H :    0.136003    0.000260
Sum of atomic charges         :   -2.0000000

LOEWDIN ATOMIC CHARGES AND SPIN POPULATIONS
-------------------------------------------
   0 V :   -0.203972    1.149602
   1 S :   -0.073114    0.004031
   2 S :   -0.037238   -0.022316
   3 S :   -0.063143   -0.020643
   4 S :   -0.032201   -0.012224
   5 O :   -0.370667   -0.122508
   6 C :   -0.323313    0.005086
   7 C :   -0.259704    0.007196
   8 C :   -0.176993    0.000331
   9 H :   -0.022506   -0.000418
  10 H :   -0.022256    0.000461
  11 H :    0.058452    0.000316
  12 H :    0.035072    0.000143
  13 H :    0.043707   -0.000056
  14 H :    0.027698   -0.000529
  15 C :   -0.262167    0.002536
  16 C :   -0.305794    0.007451
  17 C :   -0.166168    0.001174
  18 H :    0.014303   -0.000035
  19 H :    0.052434   -0.000587
  20 H :    0.031831    0.000574
  21 H :    0.030880    0.000342
  22 H :   -0.028165   -0.000241
  23 H :    0.053025    0.000314

  Mayer bond orders larger than 0.100000
B(  0-V ,  1-S ) :   0.7176 B(  0-V ,  2-S ) :   0.8550 B(  0-V ,  3-S ) :   0.7787
B(  0-V ,  4-S ) :   0.7587 B(  0-V ,  5-O ) :   2.0809 B(  1-S , 15-C ) :   1.0017
B(  2-S ,  6-C ) :   1.0108 B(  3-S , 16-C ) :   1.0148 B(  4-S ,  7-C ) :   1.1048
B(  6-C ,  8-C ) :   0.8838 B(  6-C , 13-H ) :   0.9759 B(  6-C , 14-H ) :   0.9656
B(  7-C ,  8-C ) :   0.9382 B(  7-C ,  9-H ) :   0.8841 B(  7-C , 10-H ) :   0.9604
B(  8-C , 11-H ) :   0.9864 B(  8-C , 12-H ) :   0.9504 B( 15-C , 17-C ) :   0.8844
B( 15-C , 22-H ) :   0.9764 B( 15-C , 23-H ) :   0.9978 B( 16-C , 17-C ) :   0.9023
B( 16-C , 18-H ) :   0.9707 B( 16-C , 19-H ) :   0.9849 B( 17-C , 20-H ) :   0.9650
B( 17-C , 21-H ) :   0.9686

FINAL SINGLE POINT ENERGY     -2847.554028420146

DIPOLE MOMENT
-------------
                                X             Y             Z
Electronic contribution:     -4.43741       2.10837      -2.08395
Nuclear contribution   :      4.81388      -2.76373       2.50385
                        -----------------------------------------
Total Dipole Moment    :      0.37648      -0.65536       0.41990
                        -----------------------------------------
Magnitude (a.u.)       :      0.86461
Magnitude (Debye)      :      2.19767

Rotational constants in cm-1:     0.027208     0.011725     0.009604
Rotational constants in MHz :   815.676755   351.517134   287.906401

                             ****ORCA TERMINATED NORMALLY****
TOTAL RUN TIME: 0 days 0 hours 9 minutes 42 seconds 958 msec
