                         Program Version 5.0.4 -  RELEASE  -
|  1> ! nofrozencore ReducedPop printbasis
|  2> ! B3LYP TZVP
|  3>
|  4> %basis
|  5> newgto V "CP(PPP)" end
|  6> end
|  7>
|  8> %pal
|  9> nprocs 8
| 10> end
| 11>
| 12> % sym SymThresh 1e-2 end
| 13> * xyz -2 2
| 14> V 0.2011460072568211 0.33535092577730524 -0.2966072110568844
| 15> S -2.1025234647682396 1.3304261601548437 0.03475622353762056
| 16> S 0.37115345973933833 0.8340366965998287 2.08956558636822
| 17> S -0.8170151270807962 -1.440550480747731 -1.7005562748664425
| 18> S 1.9623080376140387 -1.4025355114459614 -0.05949472240758599
| 19> O 0.9038942501916682 1.4888869446840722 -1.166591488737069
| 20> C 1.9984209591181605 0.3296062955554588 2.660354606126495
| 21> C 3.4291936338754456 -0.6102621730381547 0.6818055322449854
| 22> C 3.2025370466750736 0.5747440073876905 1.681619486646618
| 23> H 4.187092771027347 -0.19393065659392858 -0.020356678918257383
| 24> H 4.088955094660878 -1.2333784968591432 1.359719961486677
| 25> H 2.849362552356803 1.4457391629763803 1.1140721065407204
| 26> H 4.204025478011622 0.845993743227915 2.0870100693389992
| 27> H 2.3195908320639926 -0.7468819597878121 2.932328729355082
| 28> H 2.5606586161497527 0.8089299404756733 3.5667418820202084
| 29> C -3.162927812385876 -0.18067752642810614 0.09919435674329487
| 30> C -2.4205713927368238 -0.7392222303668813 -2.3035371324258103
| 31> C -3.5590727490376435 -0.7354314537586927 -1.2774130083356001
| 32> H -2.7318738130848543 -1.3238340628295626 -3.177826790034251
| 33> H -2.2181941872280517 0.27936123835050514 -2.633458421775433
| 34> H -3.9511119466030222 -1.7559694790479587 -1.1456236339081496
| 35> H -4.379570971919513 -0.1282670648172627 -1.6931353410061867
| 36> H -4.075381510455057 0.04676392595360719 0.6634564232340119
| 37> H -2.6291993830571463 -0.9554473294741032 0.6508977374401637
| 38> *
| 39>
| 40> % eprnmr
| 41> gtensor true
| 42> Nuclei = all H {aiso,adip,aorb,fgrad,rho}
| 43> Nuclei = all V {aiso,adip,aorb,fgrad,rho}
| 44> end
| 45>
| 46>                          ****END OF INPUT****

CARTESIAN COORDINATES (ANGSTROEM)
---------------------------------
  V      0.201183    0.335842   -0.297179
  S     -2.102486    1.330918    0.034184
  S      0.371191    0.834528    2.088994
  S     -0.816978   -1.440059   -1.701128
  S      1.962345   -1.402044   -0.060067
  O      0.903931    1.489378   -1.167163
  C      1.998458    0.330098    2.659783
  C      3.429231   -0.609771    0.681234
  C      3.202574    0.575235    1.681048
  H      4.187130   -0.193439   -0.020929
  H      4.088992   -1.232887    1.359148
  H      2.849400    1.446231    1.113500
  H      4.204063    0.846485    2.086438
  H      2.319628   -0.746391    2.931757
  H      2.560696    0.809421    3.566170
  C     -3.162891   -0.180186    0.098622
  C     -2.420534   -0.738731   -2.304109
  C     -3.559036   -0.734940   -1.277985
  H     -2.731837   -1.323343   -3.178399
  H     -2.218157    0.279853   -2.634030
  H     -3.951075   -1.755478   -1.146196
  H     -4.379534   -0.127776   -1.693707
  H     -4.075344    0.047255    0.662885
  H     -2.629162   -0.954956    0.650326

 Total Charge           Charge          ....   -2
 Multiplicity           Mult            ....    2
 Number of Electrons    NEL             ....  145
 Basis Dimension        Dim             ....  353

ORBITAL ENERGIES
----------------
                 SPIN UP ORBITALS
  NO   OCC          E(Eh)            E(eV)
   0   1.0000    -196.613035     -5350.1127
   1   1.0000     -88.573459     -2410.2064
   2   1.0000     -88.565593     -2409.9923
   3   1.0000     -88.565211     -2409.9819
   4   1.0000     -88.562553     -2409.9096
   5   1.0000     -21.988186      -598.3290
   6   1.0000     -18.829636      -512.3804
   7   1.0000     -18.495946      -503.3003
   8   1.0000     -18.488813      -503.1062
   9   1.0000     -18.488748      -503.1044
  10   1.0000      -9.946242      -270.6510
  11   1.0000      -9.944515      -270.6040
  12   1.0000      -9.938097      -270.4294
  13   1.0000      -9.938028      -270.4275
  14   1.0000      -9.935464      -270.3577
  15   1.0000      -9.925452      -270.0853
  16   1.0000      -7.627272      -207.5486
  17   1.0000      -7.619741      -207.3437
  18   1.0000      -7.619347      -207.3330
  19   1.0000      -7.616857      -207.2652
  20   1.0000      -5.593041      -152.1944
  21   1.0000      -5.585824      -151.9980
  22   1.0000      -5.584890      -151.9726
  23   1.0000      -5.584887      -151.9725
  24   1.0000      -5.584328      -151.9573
  25   1.0000      -5.582077      -151.8960
  26   1.0000      -5.578767      -151.8060
  27   1.0000      -5.578351      -151.7946
  28   1.0000      -5.577003      -151.7580
  29   1.0000      -5.576243      -151.7373
  30   1.0000      -5.576120      -151.7339
  31   1.0000      -5.573913      -151.6739
  32   1.0000      -2.380777       -64.7842
  33   1.0000      -1.422999       -38.7218
  34   1.0000      -1.409138       -38.3446
  35   1.0000      -1.408445       -38.3257
  36   1.0000      -0.591356       -16.0916
  37   1.0000      -0.554344       -15.0845
  38   1.0000      -0.545367       -14.8402
  39   1.0000      -0.470103       -12.7921
  40   1.0000      -0.467073       -12.7097
  41   1.0000      -0.408481       -11.1153
  42   1.0000      -0.400289       -10.8924
  43   1.0000      -0.344105        -9.3636
  44   1.0000      -0.336597        -9.1593
  45   1.0000      -0.298208        -8.1146
  46   1.0000      -0.289147        -7.8681
  47   1.0000      -0.217296        -5.9129
  48   1.0000      -0.205967        -5.6047
  49   1.0000      -0.195656        -5.3241
  50   1.0000      -0.185423        -5.0456
  51   1.0000      -0.139502        -3.7960
  52   1.0000      -0.137454        -3.7403
  53   1.0000      -0.133391        -3.6297
  54   1.0000      -0.110145        -2.9972
  55   1.0000      -0.105998        -2.8844
  56   1.0000      -0.089872        -2.4455
  57   1.0000      -0.078725        -2.1422
  58   1.0000      -0.068255        -1.8573
  59   1.0000      -0.065979        -1.7954
  60   1.0000      -0.062098        -1.6898
  61   1.0000      -0.051782        -1.4091
  62   1.0000      -0.046971        -1.2782
  63   1.0000      -0.041922        -1.1407
  64   1.0000      -0.005204        -0.1416
  65   1.0000       0.021541         0.5862
  66   1.0000       0.026742         0.7277
  67   1.0000       0.031611         0.8602
  68   1.0000       0.041402         1.1266
  69   1.0000       0.047475         1.2918
  70   1.0000       0.058138         1.5820
  71   1.0000       0.067142         1.8270
  72   1.0000       0.076139         2.0719
  73   0.0000       0.228621         6.2211
  74   0.0000       0.239197         6.5089
  75   0.0000       0.243260         6.6194
  76   0.0000       0.246263         6.7012
  77   0.0000       0.255585         6.9548

                 SPIN DOWN ORBITALS
  NO   OCC          E(Eh)            E(eV)
   0   1.0000    -196.613177     -5350.1166
   1   1.0000     -88.573621     -2410.2108
   2   1.0000     -88.565757     -2409.9968
   3   1.0000     -88.565309     -2409.9846
   4   1.0000     -88.562521     -2409.9087
   5   1.0000     -21.973102      -597.9185
   6   1.0000     -18.833218      -512.4779
   7   1.0000     -18.490694      -503.1574
   8   1.0000     -18.472688      -502.6674
   9   1.0000     -18.472315      -502.6572
  10   1.0000      -9.946119      -270.6477
  11   1.0000      -9.944341      -270.5993
  12   1.0000      -9.938038      -270.4278
  13   1.0000      -9.937848      -270.4226
  14   1.0000      -9.935421      -270.3565
  15   1.0000      -9.925481      -270.0861
  16   1.0000      -7.627429      -207.5529
  17   1.0000      -7.619897      -207.3479
  18   1.0000      -7.619440      -207.3355
  19   1.0000      -7.616828      -207.2644
  20   1.0000      -5.593183      -152.1983
  21   1.0000      -5.586245      -152.0095
  22   1.0000      -5.585044      -151.9768
  23   1.0000      -5.585003      -151.9757
  24   1.0000      -5.584452      -151.9607
  25   1.0000      -5.582090      -151.8964
  26   1.0000      -5.579202      -151.8178
  27   1.0000      -5.578749      -151.8055
  28   1.0000      -5.577125      -151.7613
  29   1.0000      -5.576457      -151.7431
  30   1.0000      -5.576164      -151.7351
  31   1.0000      -5.573426      -151.6606
  32   1.0000      -2.335727       -63.5584
  33   1.0000      -1.403803       -38.1994
  34   1.0000      -1.347320       -36.6624
  35   1.0000      -1.345537       -36.6139
  36   1.0000      -0.599110       -16.3026
  37   1.0000      -0.554182       -15.0801
  38   1.0000      -0.545320       -14.8389
  39   1.0000      -0.469975       -12.7887
  40   1.0000      -0.467095       -12.7103
  41   1.0000      -0.408523       -11.1165
  42   1.0000      -0.400459       -10.8970
  43   1.0000      -0.344293        -9.3687
  44   1.0000      -0.336858        -9.1664
  45   1.0000      -0.298111        -8.1120
  46   1.0000      -0.289172        -7.8688
  47   1.0000      -0.217227        -5.9110
  48   1.0000      -0.205843        -5.6013
  49   1.0000      -0.195435        -5.3181
  50   1.0000      -0.185348        -5.0436
  51   1.0000      -0.139293        -3.7903
  52   1.0000      -0.137231        -3.7342
  53   1.0000      -0.133246        -3.6258
  54   1.0000      -0.110067        -2.9951
  55   1.0000      -0.105181        -2.8621
  56   1.0000      -0.087938        -2.3929
  57   1.0000      -0.078448        -2.1347
  58   1.0000      -0.067290        -1.8311
  59   1.0000      -0.065912        -1.7935
  60   1.0000      -0.062411        -1.6983
  61   1.0000      -0.051605        -1.4042
  62   1.0000      -0.048422        -1.3176
  63   1.0000      -0.043886        -1.1942
  64   1.0000      -0.000532        -0.0145
  65   1.0000       0.022755         0.6192
  66   1.0000       0.029541         0.8038
  67   1.0000       0.040668         1.1066
  68   1.0000       0.042909         1.1676
  69   1.0000       0.054362         1.4793
  70   1.0000       0.062831         1.7097
  71   1.0000       0.069398         1.8884
  72   0.0000       0.227263         6.1841
  73   0.0000       0.245988         6.6937
  74   0.0000       0.248948         6.7742
  75   0.0000       0.256666         6.9842
  76   0.0000       0.259096         7.0504

MULLIKEN ATOMIC CHARGES AND SPIN POPULATIONS
--------------------------------------------
   0 V :    0.505003    1.195355
   1 S :   -0.424454   -0.000866
   2 S :   -0.286974   -0.030328
   3 S :   -0.406741   -0.030224
   4 S :   -0.341970   -0.020962
   5 O :   -0.536591   -0.138283
   6 C :   -0.205250    0.006326
   7 C :   -0.208961    0.006278
   8 C :   -0.229538    0.001410
   9 H :    0.063625   -0.000821
  10 H :    0.020417    0.001989
  11 H :    0.135543    0.000635
  12 H :    0.015290   -0.000130
  13 H :    0.065095   -0.000068
  14 H :    0.006742   -0.001641
  15 C :   -0.256146   -0.002297
  16 C :   -0.254303    0.003598
  17 C :   -0.072831    0.008669
  18 H :    0.049432   -0.000112
  19 H :    0.134342   -0.000226
  20 H :    0.019084    0.001664
  21 H :    0.014894    0.000103
  22 H :    0.053676   -0.000598
  23 H :    0.140615    0.000530
Sum of atomic charges         :   -2.0000000

LOEWDIN ATOMIC CHARGES AND SPIN POPULATIONS
-------------------------------------------
   0 V :   -0.204009    1.151734
   1 S :   -0.068926    0.004538
   2 S :    0.016723   -0.020139
   3 S :   -0.057753   -0.021153
   4 S :   -0.030919   -0.011785
   5 O :   -0.372250   -0.124826
   6 C :   -0.370304    0.004174
   7 C :   -0.338828    0.006426
   8 C :   -0.207000   -0.000186
   9 H :    0.030476   -0.000106
  10 H :    0.024080    0.000641
  11 H :    0.061484    0.000333
  12 H :    0.031199    0.000106
  13 H :    0.040630    0.000074
  14 H :    0.030483   -0.001314
  15 C :   -0.317873    0.002788
  16 C :   -0.323694    0.007506
  17 C :   -0.188194    0.001214
  18 H :    0.029188   -0.000215
  19 H :    0.055062   -0.000626
  20 H :    0.037350    0.000630
  21 H :    0.035801    0.000410
  22 H :    0.030911   -0.000617
  23 H :    0.056359    0.000392

  Mayer bond orders larger than 0.100000
B(  0-V ,  1-S ) :   0.7159 B(  0-V ,  2-S ) :   0.8379 B(  0-V ,  3-S ) :   0.7813
B(  0-V ,  4-S ) :   0.7799 B(  0-V ,  5-O ) :   2.0829 B(  1-S , 15-C ) :   1.0234
B(  2-S ,  6-C ) :   1.0413 B(  3-S , 16-C ) :   1.0201 B(  4-S ,  7-C ) :   1.0815
B(  6-C ,  8-C ) :   0.8627 B(  6-C , 13-H ) :   0.9663 B(  6-C , 14-H ) :   0.9466
B(  7-C ,  8-C ) :   0.8878 B(  7-C ,  9-H ) :   0.9704 B(  7-C , 10-H ) :   0.9578
B(  8-C , 11-H ) :   0.9920 B(  8-C , 12-H ) :   0.9480 B( 15-C , 17-C ) :   0.8948
B( 15-C , 22-H ) :   0.9679 B( 15-C , 23-H ) :   0.9793 B( 16-C , 17-C ) :   0.9032
B( 16-C , 18-H ) :   0.9631 B( 16-C , 19-H ) :   0.9767 B( 17-C , 20-H ) :   0.9593
B( 17-C , 21-H ) :   0.9600

FINAL SINGLE POINT ENERGY     -2847.677752454317

DIPOLE MOMENT
-------------
                                X             Y             Z
Electronic contribution:      0.41391       4.04756      -4.68934
Nuclear contribution   :     -0.68895      -4.23659       4.81468
                        -----------------------------------------
Total Dipole Moment    :     -0.27504      -0.18903       0.12534
                        -----------------------------------------
Magnitude (a.u.)       :      0.35650
Magnitude (Debye)      :      0.90615

Rotational constants in cm-1:     0.027241     0.011710     0.009592
Rotational constants in MHz :   816.669770   351.062737   287.561411

                             ****ORCA TERMINATED NORMALLY****
TOTAL RUN TIME: 0 days 0 hours 9 minutes 38 seconds 536 msec
