                         Program Version 5.0.4 -  RELEASE  -
|  1> ! nofrozencore ReducedPop printbasis
|  2> ! B3LYP TZVP
|  3>
|  4> %basis
|  5> newgto V "CP(PPP)" end
|  6> end
|  7>
|  8> %pal
|  9> nprocs 4
| 10> end
| 11>
| 12> % sym SymThresh 1e-2 end
| 13> * xyz -2 2
| 14> V -0.34190499121440887 0.33852505151701234 0.09577271596378155
| 15> S -1.5125390932436087 -1.0238640478835812 -1.687695158408428
| 16> S -0.5911647871623834 -1.762268928845047 1.3388391910235464
| 17> S 1.1745344790902572 1.2330461539248954 -1.6527409006314937
| 18> S 1.5708125197567977 0.9967538015842768 1.5375144291253307
| 19> O -1.5085918381403305 1.3744820679688534 0.49577943560765236
| 20> C 0.20292682017138974 -1.3555574323854762 3.044244767514863
| 21> C 0.9564163630352339 0.7823018978150307 3.3225449501351307
| 22> C -0.05445058428679034 -0.12366469491889137 3.6259564168399
| 23> H 0.37524376103347645 1.760799982605854 3.381305221375124
| 24> H 1.8153323767771836 0.8505633861351433 4.0737056612542375
| 25> H -0.9759357087806869 0.27359719716265607 3.1821541184690405
| 26> H -0.23261721420025308 -0.20952238633737233 4.717906488986318
| 27> H 1.2557490907497655 -1.733643291551412 3.2137360300741755
| 28> H -0.49864686316200135 -2.0216051005238267 3.624778007492975
| 29> C -0.12352730787497446 -1.4922327079209352 -2.7993458959419635
| 30> C 0.27936970747592077 1.0504671889614419 -3.249442810692206
| 31> C 0.25870953602345925 -0.39108029321790183 -3.8318528683233817
| 32> H 0.7042411427067975 1.7537121404308358 -3.9775708407436965
| 33> H -0.7562057655580016 1.3414610689665016 -3.0669665681970004
| 34> H 1.2458170440009737 -0.6408959547105717 -4.251843548831178
| 35> H -0.4594391431087154 -0.40460590025347515 -4.6677820008968505
| 36> H -0.35789551264039776 -2.435305057722881 -3.309349976610999
| 37> H 0.7440285366883312 -1.675220918734133 -2.1629151503628123
| 38> *
| 39>
| 40> % eprnmr
| 41> gtensor true
| 42> Nuclei = all H {aiso,adip,aorb,fgrad,rho}
| 43> Nuclei = all V {aiso,adip,aorb,fgrad,rho}
| 44> end
| 45>
| 46>                          ****END OF INPUT****

CARTESIAN COORDINATES (ANGSTROEM)
---------------------------------
  V     -0.342446    0.339030    0.095623
  S     -1.513080   -1.023359   -1.687845
  S     -0.591706   -1.761764    1.338689
  S      1.173994    1.233551   -1.652891
  S      1.570272    0.997259    1.537365
  O     -1.509133    1.374987    0.495630
  C      0.202386   -1.355053    3.044095
  C      0.955876    0.782807    3.322395
  C     -0.054991   -0.123160    3.625807
  H      0.374703    1.761305    3.381155
  H      1.814792    0.851068    4.073556
  H     -0.976477    0.274102    3.182004
  H     -0.233158   -0.209017    4.717757
  H      1.255208   -1.733138    3.213586
  H     -0.499188   -2.021100    3.624628
  C     -0.124068   -1.491728   -2.799496
  C      0.278829    1.050972   -3.249593
  C      0.258169   -0.390575   -3.832003
  H      0.703700    1.754217   -3.977721
  H     -0.756747    1.341966   -3.067116
  H      1.245276   -0.640391   -4.251993
  H     -0.459980   -0.404101   -4.667932
  H     -0.358436   -2.434800   -3.309500
  H      0.743488   -1.674716   -2.163065

 Total Charge           Charge          ....   -2
 Multiplicity           Mult            ....    2
 Number of Electrons    NEL             ....  145
 Basis Dimension        Dim             ....  353

ORBITAL ENERGIES
----------------
                 SPIN UP ORBITALS
  NO   OCC          E(Eh)            E(eV)
   0   1.0000    -196.608376     -5349.9859
   1   1.0000     -88.566717     -2410.0229
   2   1.0000     -88.562334     -2409.9036
   3   1.0000     -88.561824     -2409.8897
   4   1.0000     -88.558389     -2409.7963
   5   1.0000     -21.983727      -598.2076
   6   1.0000     -18.824164      -512.2315
   7   1.0000     -18.491480      -503.1788
   8   1.0000     -18.484343      -502.9845
   9   1.0000     -18.484283      -502.9829
  10   1.0000      -9.938106      -270.4296
  11   1.0000      -9.936404      -270.3833
  12   1.0000      -9.936365      -270.3822
  13   1.0000      -9.934856      -270.3412
  14   1.0000      -9.930409      -270.2202
  15   1.0000      -9.912462      -269.7318
  16   1.0000      -7.619358      -207.3333
  17   1.0000      -7.616186      -207.2470
  18   1.0000      -7.615800      -207.2364
  19   1.0000      -7.612849      -207.1562
  20   1.0000      -5.585139      -151.9794
  21   1.0000      -5.581507      -151.8805
  22   1.0000      -5.581329      -151.8757
  23   1.0000      -5.578112      -151.7881
  24   1.0000      -5.578032      -151.7860
  25   1.0000      -5.576431      -151.7424
  26   1.0000      -5.575189      -151.7086
  27   1.0000      -5.574928      -151.7015
  28   1.0000      -5.573434      -151.6608
  29   1.0000      -5.572493      -151.6352
  30   1.0000      -5.572044      -151.6230
  31   1.0000      -5.569968      -151.5665
  32   1.0000      -2.375969       -64.6534
  33   1.0000      -1.417698       -38.5775
  34   1.0000      -1.404205       -38.2104
  35   1.0000      -1.403838       -38.2004
  36   1.0000      -0.592363       -16.1190
  37   1.0000      -0.586251       -15.9527
  38   1.0000      -0.546532       -14.8719
  39   1.0000      -0.467328       -12.7166
  40   1.0000      -0.465334       -12.6624
  41   1.0000      -0.404983       -11.0202
  42   1.0000      -0.394750       -10.7417
  43   1.0000      -0.340533        -9.2664
  44   1.0000      -0.332017        -9.0346
  45   1.0000      -0.296087        -8.0569
  46   1.0000      -0.286963        -7.8086
  47   1.0000      -0.229985        -6.2582
  48   1.0000      -0.211605        -5.7581
  49   1.0000      -0.209865        -5.7107
  50   1.0000      -0.201284        -5.4772
  51   1.0000      -0.172295        -4.6884
  52   1.0000      -0.131562        -3.5800
  53   1.0000      -0.131436        -3.5765
  54   1.0000      -0.110696        -3.0122
  55   1.0000      -0.103575        -2.8184
  56   1.0000      -0.096363        -2.6222
  57   1.0000      -0.074762        -2.0344
  58   1.0000      -0.064656        -1.7594
  59   1.0000      -0.061125        -1.6633
  60   1.0000      -0.048654        -1.3240
  61   1.0000      -0.042582        -1.1587
  62   1.0000      -0.040108        -1.0914
  63   1.0000      -0.033021        -0.8985
  64   1.0000      -0.002394        -0.0651
  65   1.0000       0.027036         0.7357
  66   1.0000       0.027793         0.7563
  67   1.0000       0.038472         1.0469
  68   1.0000       0.042740         1.1630
  69   1.0000       0.050437         1.3724
  70   1.0000       0.062460         1.6996
  71   1.0000       0.074762         2.0344
  72   1.0000       0.080219         2.1829
  73   0.0000       0.232991         6.3400
  74   0.0000       0.244401         6.6505
  75   0.0000       0.246076         6.6961
  76   0.0000       0.249278         6.7832
  77   0.0000       0.258712         7.0399

                 SPIN DOWN ORBITALS
  NO   OCC          E(Eh)            E(eV)
   0   1.0000    -196.608517     -5349.9897
   1   1.0000     -88.566915     -2410.0283
   2   1.0000     -88.562469     -2409.9073
   3   1.0000     -88.561983     -2409.8941
   4   1.0000     -88.558367     -2409.7957
   5   1.0000     -21.968633      -597.7969
   6   1.0000     -18.827672      -512.3270
   7   1.0000     -18.486230      -503.0359
   8   1.0000     -18.468260      -502.5469
   9   1.0000     -18.467783      -502.5339
  10   1.0000      -9.937894      -270.4238
  11   1.0000      -9.936310      -270.3807
  12   1.0000      -9.936220      -270.3783
  13   1.0000      -9.934807      -270.3398
  14   1.0000      -9.930261      -270.2161
  15   1.0000      -9.912472      -269.7321
  16   1.0000      -7.619550      -207.3385
  17   1.0000      -7.616338      -207.2511
  18   1.0000      -7.615926      -207.2399
  19   1.0000      -7.612830      -207.1556
  20   1.0000      -5.585324      -151.9844
  21   1.0000      -5.581662      -151.8847
  22   1.0000      -5.581484      -151.8799
  23   1.0000      -5.578619      -151.8019
  24   1.0000      -5.578052      -151.7865
  25   1.0000      -5.576582      -151.7465
  26   1.0000      -5.575610      -151.7200
  27   1.0000      -5.575348      -151.7129
  28   1.0000      -5.573552      -151.6641
  29   1.0000      -5.572508      -151.6356
  30   1.0000      -5.572393      -151.6325
  31   1.0000      -5.569505      -151.5539
  32   1.0000      -2.330876       -63.4264
  33   1.0000      -1.398468       -38.0543
  34   1.0000      -1.342424       -36.5292
  35   1.0000      -1.340778       -36.4844
  36   1.0000      -0.594643       -16.1811
  37   1.0000      -0.591428       -16.0936
  38   1.0000      -0.546373       -14.8676
  39   1.0000      -0.467207       -12.7133
  40   1.0000      -0.465251       -12.6601
  41   1.0000      -0.405018       -11.0211
  42   1.0000      -0.395005       -10.7486
  43   1.0000      -0.340900        -9.2764
  44   1.0000      -0.332339        -9.0434
  45   1.0000      -0.295948        -8.0531
  46   1.0000      -0.286986        -7.8093
  47   1.0000      -0.229844        -6.2544
  48   1.0000      -0.211494        -5.7550
  49   1.0000      -0.209800        -5.7089
  50   1.0000      -0.201189        -5.4746
  51   1.0000      -0.172167        -4.6849
  52   1.0000      -0.131415        -3.5760
  53   1.0000      -0.131143        -3.5686
  54   1.0000      -0.110610        -3.0098
  55   1.0000      -0.103410        -2.8139
  56   1.0000      -0.095962        -2.6113
  57   1.0000      -0.072532        -1.9737
  58   1.0000      -0.063878        -1.7382
  59   1.0000      -0.060798        -1.6544
  60   1.0000      -0.048872        -1.3299
  61   1.0000      -0.043248        -1.1768
  62   1.0000      -0.040850        -1.1116
  63   1.0000      -0.033094        -0.9005
  64   1.0000       0.000947         0.0258
  65   1.0000       0.028869         0.7856
  66   1.0000       0.030579         0.8321
  67   1.0000       0.043180         1.1750
  68   1.0000       0.045168         1.2291
  69   1.0000       0.058431         1.5900
  70   1.0000       0.068836         1.8731
  71   1.0000       0.076262         2.0752
  72   0.0000       0.231726         6.3056
  73   0.0000       0.247055         6.7227
  74   0.0000       0.250242         6.8094
  75   0.0000       0.260488         7.0882
  76   0.0000       0.263703         7.1757

MULLIKEN ATOMIC CHARGES AND SPIN POPULATIONS
--------------------------------------------
   0 V :    0.529636    1.197998
   1 S :   -0.423835   -0.002166
   2 S :   -0.352240   -0.037723
   3 S :   -0.408349   -0.029085
   4 S :   -0.383774   -0.026897
   5 O :   -0.551386   -0.135594
   6 C :   -0.206093    0.008586
   7 C :   -0.207372    0.010405
   8 C :   -0.194304    0.000723
   9 H :    0.065583   -0.000693
  10 H :    0.040838    0.002017
  11 H :    0.147641    0.001264
  12 H :    0.019437    0.000269
  13 H :    0.074404   -0.000067
  14 H :    0.028918   -0.000106
  15 C :   -0.259982   -0.002087
  16 C :   -0.255831    0.004112
  17 C :   -0.074002    0.008049
  18 H :    0.050630   -0.000003
  19 H :    0.132819   -0.000373
  20 H :    0.016166    0.001528
  21 H :    0.012781    0.000190
  22 H :    0.055371   -0.000636
  23 H :    0.142946    0.000289
Sum of atomic charges         :   -2.0000000

LOEWDIN ATOMIC CHARGES AND SPIN POPULATIONS
-------------------------------------------
   0 V :   -0.207225    1.153733
   1 S :   -0.068062    0.003229
   2 S :   -0.049405   -0.026334
   3 S :   -0.056182   -0.020245
   4 S :   -0.067273   -0.017064
   5 O :   -0.387387   -0.122189
   6 C :   -0.317661    0.006390
   7 C :   -0.317080    0.008892
   8 C :   -0.215652    0.000882
   9 H :    0.051278   -0.000006
  10 H :    0.033211    0.000668
  11 H :    0.077191    0.000573
  12 H :    0.040122    0.000550
  13 H :    0.048353    0.000114
  14 H :    0.031214   -0.000471
  15 C :   -0.320417    0.002627
  16 C :   -0.328005    0.007615
  17 C :   -0.187650    0.001307
  18 H :    0.028804   -0.000220
  19 H :    0.054562   -0.000678
  20 H :    0.035380    0.000591
  21 H :    0.034268    0.000400
  22 H :    0.030695   -0.000635
  23 H :    0.056922    0.000268

  Mayer bond orders larger than 0.100000
B(  0-V ,  1-S ) :   0.7082 B(  0-V ,  2-S ) :   0.8594 B(  0-V ,  3-S ) :   0.7728
B(  0-V ,  4-S ) :   0.7807 B(  0-V ,  5-O ) :   2.0590 B(  1-S , 15-C ) :   1.0256
B(  2-S ,  6-C ) :   0.9900 B(  3-S , 16-C ) :   1.0257 B(  4-S ,  7-C ) :   1.0183
B(  6-C ,  7-C ) :  -0.1052 B(  6-C ,  8-C ) :   0.9256 B(  6-C , 13-H ) :   0.9534
B(  6-C , 14-H ) :   0.9896 B(  7-C ,  8-C ) :   0.9427 B(  7-C ,  9-H ) :   1.0121
B(  7-C , 10-H ) :   0.9436 B(  8-C , 11-H ) :   1.0046 B(  8-C , 12-H ) :   0.9412
B( 15-C , 17-C ) :   0.8942 B( 15-C , 22-H ) :   0.9652 B( 15-C , 23-H ) :   0.9800
B( 16-C , 17-C ) :   0.9013 B( 16-C , 18-H ) :   0.9607 B( 16-C , 19-H ) :   0.9767
B( 17-C , 20-H ) :   0.9574 B( 17-C , 21-H ) :   0.9585

FINAL SINGLE POINT ENERGY     -2847.661072055212

DIPOLE MOMENT
-------------
                                X             Y             Z
Electronic contribution:     -4.02674       4.17207      -0.10681
Nuclear contribution   :      4.21927      -4.47195       0.28733
                        -----------------------------------------
Total Dipole Moment    :      0.19253      -0.29988       0.18052
                        -----------------------------------------
Magnitude (a.u.)       :      0.39948
Magnitude (Debye)      :      1.01540

Rotational constants in cm-1:     0.027498     0.011722     0.009619
Rotational constants in MHz :   824.366380   351.417735   288.374697

                             ****ORCA TERMINATED NORMALLY****
TOTAL RUN TIME: 0 days 0 hours 14 minutes 25 seconds 792 msec
