                         Program Version 5.0.4 -  RELEASE  -
|  1> ! nofrozencore ReducedPop printbasis
|  2> ! B3LYP TZVP
|  3>
|  4> %basis
|  5> newgto V "CP(PPP)" end
|  6> end
|  7>
|  8> %pal
|  9> nprocs 8
| 10> end
| 11>
| 12> % sym SymThresh 1e-2 end
| 13> * xyz -2 2
| 14> V -0.32685644895810717 -0.3664305432786175 0.02736148201456828
| 15> S 1.8351918492884398 -1.6547878124629611 0.3399853109817024
| 16> S 0.34810566073733246 0.5824784543870802 2.1808486307209547
| 17> S 0.2583819507972503 -0.011794543897347081 -2.3623962054451115
| 18> S -1.7110185636745041 1.6491232567994307 -0.4290862085752435
| 19> O -1.3990318523987066 -1.5386165064947985 0.23829640824524534
| 20> C -0.9708200481011429 1.7960405009338283 2.6959706338504983
| 21> C -2.867750963900656 1.8578921259863104 1.010219194514204
| 22> C -2.3874259124998605 1.372094791268843 2.362852020870355
| 23> H -3.79269953314502 1.3202446242127603 0.770181194713204
| 24> H -3.1225063934205766 2.924811847099175 1.0697016402571966
| 25> H -2.4392501333724774 0.28079891443987515 2.3957367683384456
| 26> H -3.085798967882719 1.750966639906129 3.1312703751640147
| 27> H -0.7653169829295124 2.785246063179736 2.2720167313966795
| 28> H -0.8714919086351907 1.871439889053716 3.785293637196329
| 29> C 2.935024738428584 -0.7185419047929179 -0.8999342026008286
| 30> C 1.5444014454292887 -1.3891673286687776 -2.6904855815202167
| 31> C 2.854576443401532 -1.1466941057922915 -2.2360129261125206
| 32> H 1.6681358913443802 -1.2809913897424314 -3.7999142822673573
| 33> H 1.1455608375829016 -2.4032644146766073 -2.4744888434495853
| 34> H 3.320259370183608 -0.40774489603257197 -2.9105244185165913
| 35> H 3.443078118290675 -2.0776972108779694 -2.318480121466184
| 36> H 3.945644758140151 -1.0973987985931397 -0.5974433414178174
| 37> H 2.9163602509359476 0.3815606666600564 -0.7363133291091165
| 38> *
| 39>
| 40> % eprnmr
| 41> gtensor true
| 42> Nuclei = all H {aiso,adip,aorb,fgrad,rho}
| 43> Nuclei = all V {aiso,adip,aorb,fgrad,rho}
| 44> end
| 45>
| 46>                          ****END OF INPUT****

CARTESIAN COORDINATES (ANGSTROEM)
---------------------------------
  V     -0.327146   -0.367116    0.027236
  S      1.834902   -1.655474    0.339860
  S      0.347816    0.581793    2.180723
  S      0.258092   -0.012480   -2.362522
  S     -1.711308    1.648438   -0.429212
  O     -1.399322   -1.539302    0.238171
  C     -0.971110    1.795355    2.695845
  C     -2.868041    1.857206    1.010094
  C     -2.387716    1.371409    2.362727
  H     -3.792989    1.319559    0.770056
  H     -3.122796    2.924126    1.069576
  H     -2.439540    0.280113    2.395611
  H     -3.086089    1.750281    3.131145
  H     -0.765607    2.784560    2.271891
  H     -0.871782    1.870754    3.785168
  C      2.934735   -0.719228   -0.900060
  C      1.544112   -1.389853   -2.690611
  C      2.854287   -1.147380   -2.236138
  H      1.667846   -1.281677   -3.800040
  H      1.145271   -2.403950   -2.474614
  H      3.319970   -0.408431   -2.910650
  H      3.442788   -2.078383   -2.318605
  H      3.945355   -1.098085   -0.597569
  H      2.916071    0.380875   -0.736439

 Total Charge           Charge          ....   -2
 Multiplicity           Mult            ....    2
 Number of Electrons    NEL             ....  145
 Basis Dimension        Dim             ....  353

ORBITAL ENERGIES
----------------
                 SPIN UP ORBITALS
  NO   OCC          E(Eh)            E(eV)
   0   1.0000    -196.605635     -5349.9113
   1   1.0000     -88.564000     -2409.9490
   2   1.0000     -88.560241     -2409.8467
   3   1.0000     -88.559242     -2409.8195
   4   1.0000     -88.558030     -2409.7865
   5   1.0000     -21.980987      -598.1331
   6   1.0000     -18.823226      -512.2060
   7   1.0000     -18.488752      -503.1045
   8   1.0000     -18.481589      -502.9096
   9   1.0000     -18.481536      -502.9082
  10   1.0000      -9.940233      -270.4875
  11   1.0000      -9.933195      -270.2960
  12   1.0000      -9.931139      -270.2400
  13   1.0000      -9.929845      -270.2048
  14   1.0000      -9.926092      -270.1027
  15   1.0000      -9.918375      -269.8927
  16   1.0000      -7.617208      -207.2748
  17   1.0000      -7.613942      -207.1859
  18   1.0000      -7.612708      -207.1523
  19   1.0000      -7.612243      -207.1397
  20   1.0000      -5.582688      -151.9127
  21   1.0000      -5.579394      -151.8230
  22   1.0000      -5.578221      -151.7911
  23   1.0000      -5.577732      -151.7778
  24   1.0000      -5.576140      -151.7345
  25   1.0000      -5.574381      -151.6866
  26   1.0000      -5.572766      -151.6427
  27   1.0000      -5.571879      -151.6185
  28   1.0000      -5.571281      -151.6023
  29   1.0000      -5.571108      -151.5976
  30   1.0000      -5.569696      -151.5591
  31   1.0000      -5.569161      -151.5446
  32   1.0000      -2.373619       -64.5895
  33   1.0000      -1.416243       -38.5379
  34   1.0000      -1.401673       -38.1415
  35   1.0000      -1.401308       -38.1315
  36   1.0000      -0.586228       -15.9521
  37   1.0000      -0.584850       -15.9146
  38   1.0000      -0.554599       -15.0914
  39   1.0000      -0.468026       -12.7356
  40   1.0000      -0.464174       -12.6308
  41   1.0000      -0.401165       -10.9162
  42   1.0000      -0.393227       -10.7003
  43   1.0000      -0.344242        -9.3673
  44   1.0000      -0.328483        -8.9385
  45   1.0000      -0.302843        -8.2408
  46   1.0000      -0.273051        -7.4301
  47   1.0000      -0.239714        -6.5230
  48   1.0000      -0.217306        -5.9132
  49   1.0000      -0.208196        -5.6653
  50   1.0000      -0.199899        -5.4395
  51   1.0000      -0.161818        -4.4033
  52   1.0000      -0.143136        -3.8949
  53   1.0000      -0.140131        -3.8131
  54   1.0000      -0.110202        -2.9987
  55   1.0000      -0.105007        -2.8574
  56   1.0000      -0.081440        -2.2161
  57   1.0000      -0.077529        -2.1097
  58   1.0000      -0.064619        -1.7584
  59   1.0000      -0.061697        -1.6789
  60   1.0000      -0.050624        -1.3776
  61   1.0000      -0.044303        -1.2055
  62   1.0000      -0.036578        -0.9953
  63   1.0000      -0.032479        -0.8838
  64   1.0000      -0.000104        -0.0028
  65   1.0000       0.027836         0.7574
  66   1.0000       0.030216         0.8222
  67   1.0000       0.039257         1.0682
  68   1.0000       0.045214         1.2303
  69   1.0000       0.052420         1.4264
  70   1.0000       0.063219         1.7203
  71   1.0000       0.072935         1.9847
  72   1.0000       0.080546         2.1918
  73   0.0000       0.235786         6.4161
  74   0.0000       0.247954         6.7472
  75   0.0000       0.250489         6.8161
  76   0.0000       0.251893         6.8544
  77   0.0000       0.253935         6.9099

                 SPIN DOWN ORBITALS
  NO   OCC          E(Eh)            E(eV)
   0   1.0000    -196.605777     -5349.9152
   1   1.0000     -88.564170     -2409.9536
   2   1.0000     -88.560420     -2409.8515
   3   1.0000     -88.559244     -2409.8196
   4   1.0000     -88.558136     -2409.7894
   5   1.0000     -21.965906      -597.7227
   6   1.0000     -18.826717      -512.3010
   7   1.0000     -18.483536      -502.9626
   8   1.0000     -18.465551      -502.4732
   9   1.0000     -18.464988      -502.4579
  10   1.0000      -9.940055      -270.4826
  11   1.0000      -9.933057      -270.2922
  12   1.0000      -9.930935      -270.2345
  13   1.0000      -9.929771      -270.2028
  14   1.0000      -9.926110      -270.1032
  15   1.0000      -9.918357      -269.8922
  16   1.0000      -7.617369      -207.2792
  17   1.0000      -7.614115      -207.1906
  18   1.0000      -7.612712      -207.1524
  19   1.0000      -7.612343      -207.1424
  20   1.0000      -5.582855      -151.9172
  21   1.0000      -5.579563      -151.8276
  22   1.0000      -5.578256      -151.7921
  23   1.0000      -5.577856      -151.7812
  24   1.0000      -5.576585      -151.7466
  25   1.0000      -5.574506      -151.6900
  26   1.0000      -5.573226      -151.6552
  27   1.0000      -5.572244      -151.6285
  28   1.0000      -5.571682      -151.6132
  29   1.0000      -5.571243      -151.6012
  30   1.0000      -5.569309      -151.5486
  31   1.0000      -5.569095      -151.5428
  32   1.0000      -2.328590       -63.3641
  33   1.0000      -1.397182       -38.0193
  34   1.0000      -1.340016       -36.4637
  35   1.0000      -1.338139       -36.4126
  36   1.0000      -0.593297       -16.1444
  37   1.0000      -0.585076       -15.9207
  38   1.0000      -0.554499       -15.0887
  39   1.0000      -0.467964       -12.7339
  40   1.0000      -0.464004       -12.6262
  41   1.0000      -0.401298       -10.9199
  42   1.0000      -0.393352       -10.7036
  43   1.0000      -0.344436        -9.3726
  44   1.0000      -0.328926        -8.9505
  45   1.0000      -0.302821        -8.2402
  46   1.0000      -0.273022        -7.4293
  47   1.0000      -0.239643        -6.5210
  48   1.0000      -0.217223        -5.9109
  49   1.0000      -0.208130        -5.6635
  50   1.0000      -0.199727        -5.4348
  51   1.0000      -0.161693        -4.3999
  52   1.0000      -0.143018        -3.8917
  53   1.0000      -0.139825        -3.8048
  54   1.0000      -0.110186        -2.9983
  55   1.0000      -0.104818        -2.8522
  56   1.0000      -0.081366        -2.2141
  57   1.0000      -0.076423        -2.0796
  58   1.0000      -0.061979        -1.6865
  59   1.0000      -0.060670        -1.6509
  60   1.0000      -0.051427        -1.3994
  61   1.0000      -0.045603        -1.2409
  62   1.0000      -0.036668        -0.9978
  63   1.0000      -0.033303        -0.9062
  64   1.0000       0.003612         0.0983
  65   1.0000       0.029213         0.7949
  66   1.0000       0.033210         0.9037
  67   1.0000       0.045615         1.2412
  68   1.0000       0.046124         1.2551
  69   1.0000       0.060566         1.6481
  70   1.0000       0.067154         1.8273
  71   1.0000       0.074533         2.0281
  72   0.0000       0.234716         6.3870
  73   0.0000       0.248791         6.7699
  74   0.0000       0.255309         6.9473
  75   0.0000       0.258445         7.0326
  76   0.0000       0.265665         7.2291

MULLIKEN ATOMIC CHARGES AND SPIN POPULATIONS
--------------------------------------------
   0 V :    0.549695    1.196442
   1 S :   -0.437860   -0.006292
   2 S :   -0.354176   -0.033511
   3 S :   -0.418016   -0.031533
   4 S :   -0.389977   -0.022044
   5 O :   -0.549625   -0.134642
   6 C :   -0.241905    0.006086
   7 C :   -0.234171    0.006635
   8 C :   -0.158337    0.003084
   9 H :    0.074644   -0.000891
  10 H :    0.049920    0.002099
  11 H :    0.138934    0.000633
  12 H :    0.005991   -0.000050
  13 H :    0.092414   -0.000128
  14 H :    0.046614   -0.000005
  15 C :   -0.236070   -0.002235
  16 C :   -0.226912    0.003656
  17 C :   -0.055368    0.010374
  18 H :    0.024756   -0.000310
  19 H :    0.121388    0.000055
  20 H :    0.018411    0.002176
  21 H :    0.016770    0.000104
  22 H :    0.029794   -0.000347
  23 H :    0.133085    0.000644
Sum of atomic charges         :   -2.0000000

LOEWDIN ATOMIC CHARGES AND SPIN POPULATIONS
-------------------------------------------
   0 V :   -0.202391    1.152399
   1 S :   -0.086977   -0.000336
   2 S :   -0.040616   -0.023040
   3 S :   -0.076960   -0.022333
   4 S :   -0.066670   -0.012899
   5 O :   -0.378382   -0.121362
   6 C :   -0.324343    0.005511
   7 C :   -0.313850    0.007000
   8 C :   -0.189153    0.000547
   9 H :    0.036986    0.000016
  10 H :    0.028820    0.000624
  11 H :    0.070871    0.000348
  12 H :    0.032171    0.000171
  13 H :    0.045038   -0.000043
  14 H :    0.027455   -0.000502
  15 C :   -0.307825    0.003560
  16 C :   -0.310748    0.008705
  17 C :   -0.205980    0.000748
  18 H :    0.030307   -0.000240
  19 H :    0.056811   -0.000398
  20 H :    0.041746    0.000805
  21 H :    0.040915    0.000646
  22 H :    0.032879   -0.000430
  23 H :    0.059896    0.000500

  Mayer bond orders larger than 0.100000
B(  0-V ,  1-S ) :   0.6985 B(  0-V ,  2-S ) :   0.8558 B(  0-V ,  3-S ) :   0.7618
B(  0-V ,  4-S ) :   0.7698 B(  0-V ,  5-O ) :   2.0709 B(  1-S , 15-C ) :   1.0247
B(  2-S ,  6-C ) :   1.0109 B(  3-S , 16-C ) :   1.0230 B(  4-S ,  7-C ) :   1.0666
B(  6-C ,  8-C ) :   0.9026 B(  6-C , 13-H ) :   0.9725 B(  6-C , 14-H ) :   0.9714
B(  7-C ,  8-C ) :   0.9220 B(  7-C ,  9-H ) :   0.9817 B(  7-C , 10-H ) :   0.9664
B(  8-C , 11-H ) :   0.9896 B(  8-C , 12-H ) :   0.9454 B( 15-C , 16-C ) :  -0.1128
B( 15-C , 17-C ) :   0.9096 B( 15-C , 22-H ) :   0.9817 B( 15-C , 23-H ) :   0.9725
B( 16-C , 17-C ) :   0.9170 B( 16-C , 18-H ) :   0.9764 B( 16-C , 19-H ) :   0.9672
B( 17-C , 20-H ) :   0.9588 B( 17-C , 21-H ) :   0.9659

FINAL SINGLE POINT ENERGY     -2847.681223326699

DIPOLE MOMENT
-------------
                                X             Y             Z
Electronic contribution:     -3.56326      -5.05759      -0.30079
Nuclear contribution   :      3.68345       5.44833       0.43478
                        -----------------------------------------
Total Dipole Moment    :      0.12019       0.39074       0.13399
                        -----------------------------------------
Magnitude (a.u.)       :      0.43020
Magnitude (Debye)      :      1.09349

Rotational constants in cm-1:     0.027461     0.011731     0.009631
Rotational constants in MHz :   823.266277   351.678424   288.716789

                             ****ORCA TERMINATED NORMALLY****
TOTAL RUN TIME: 0 days 0 hours 9 minutes 37 seconds 409 msec
