                         Program Version 5.0.4 -  RELEASE  -
|  1> ! nofrozencore ReducedPop printbasis
|  2> ! B3LYP TZVP
|  3>
|  4> %basis
|  5> newgto V "CP(PPP)" end
|  6> end
|  7>
|  8> %pal
|  9> nprocs 4
| 10> end
| 11>
| 12> % sym SymThresh 1e-2 end
| 13> * xyz -2 2
| 14> V -0.3880421748116808 -0.05000616300779091 -0.2869330783347559
| 15> S -0.7908791508634893 2.447583900938398 0.41895518250240144
| 16> S 1.5776135676789884 0.8675140798177571 -1.3865822333259303
| 17> S -0.9787008367511041 -0.7366299328061214 2.050990471560933
| 18> S 0.7224198349167575 -2.2944506595748884 -0.2606561261608977
| 19> O -1.5625018940401332 -0.32892093957848784 -1.3402365597542105
| 20> C 2.460945797561688 -0.4994553143376789 -2.2859159780051668
| 21> C 1.2211737934284268 -2.725932353112186 -1.9931079795158835
| 22> C 1.5454134477876753 -1.5528901542007882 -2.921386709574969
| 23> H 0.4303527679797476 -3.3328442362671207 -2.450126875907084
| 24> H 2.109350654936968 -3.3660490359643944 -1.9077945138722767
| 25> H 0.6191608797994901 -1.066590136053823 -3.2380764060138554
| 26> H 2.023605134893289 -1.96139409052953 -3.830118045453737
| 27> H 3.159459834496524 -0.9931216392626877 -1.601629457087185
| 28> H 3.050116878084269 -0.0033983017402549097 -3.0659319069289124
| 29> C -0.06998015468291019 2.1928605351629833 2.1284822187129664
| 30> C -2.0258940696267413 0.6634297496183785 2.665773395903241
| 31> C -1.1909004949782933 1.8643799378248578 3.1210381740880124
| 32> H -2.646029074550162 0.2954007484383605 3.493630879172594
| 33> H -2.6851761978917925 0.9749776428931477 1.8546037975384122
| 34> H -0.7504341605001764 1.6510982666819713 4.112699493103183
| 35> H -1.8514253091303503 2.74705497324395 3.2301153732008197
| 36> H 0.5023643163942211 3.1089875899462993 2.459891469289178
| 37> H 0.6512738563838825 1.3326672096298282 2.092171398407242
| 38> *
| 39>
| 40> % eprnmr
| 41> gtensor true
| 42> Nuclei = all H {aiso,adip,aorb,fgrad,rho}
| 43> Nuclei = all V {aiso,adip,aorb,fgrad,rho}
| 44> end
| 45>
| 46>                          ****END OF INPUT****

CARTESIAN COORDINATES (ANGSTROEM)
---------------------------------
  V     -0.388762   -0.049955   -0.287156
  S     -0.791599    2.447635    0.418732
  S      1.576894    0.867565   -1.386805
  S     -0.979420   -0.736579    2.050768
  S      0.721700   -2.294400   -0.260879
  O     -1.563221   -0.328870   -1.340459
  C      2.460226   -0.499405   -2.286139
  C      1.220454   -2.725882   -1.993331
  C      1.544694   -1.552839   -2.921610
  H      0.429633   -3.332794   -2.450350
  H      2.108631   -3.365998   -1.908017
  H      0.618441   -1.066539   -3.238299
  H      2.022886   -1.961343   -3.830341
  H      3.158740   -0.993071   -1.601852
  H      3.049397   -0.003348   -3.066155
  C     -0.070700    2.192911    2.128259
  C     -2.026614    0.663480    2.665550
  C     -1.191620    1.864431    3.120815
  H     -2.646749    0.295451    3.493408
  H     -2.685896    0.975028    1.854381
  H     -0.751154    1.651149    4.112477
  H     -1.852145    2.747106    3.229892
  H      0.501645    3.109038    2.459669
  H      0.650554    1.332718    2.091948

 Total Charge           Charge          ....   -2
 Multiplicity           Mult            ....    2
 Number of Electrons    NEL             ....  145
 Basis Dimension        Dim             ....  353

ORBITAL ENERGIES
----------------
                 SPIN UP ORBITALS
  NO   OCC          E(Eh)            E(eV)
   0   1.0000    -196.612898     -5350.1089
   1   1.0000     -88.564360     -2409.9587
   2   1.0000     -88.561761     -2409.8880
   3   1.0000     -88.559845     -2409.8359
   4   1.0000     -88.557615     -2409.7752
   5   1.0000     -21.987789      -598.3181
   6   1.0000     -18.829313      -512.3717
   7   1.0000     -18.495507      -503.2883
   8   1.0000     -18.488505      -503.0978
   9   1.0000     -18.488325      -503.0929
  10   1.0000      -9.944141      -270.5938
  11   1.0000      -9.938622      -270.4436
  12   1.0000      -9.937076      -270.4016
  13   1.0000      -9.933602      -270.3070
  14   1.0000      -9.931257      -270.2432
  15   1.0000      -9.930410      -270.2202
  16   1.0000      -7.618238      -207.3028
  17   1.0000      -7.616004      -207.2420
  18   1.0000      -7.614052      -207.1889
  19   1.0000      -7.611229      -207.1121
  20   1.0000      -5.583613      -151.9378
  21   1.0000      -5.581139      -151.8705
  22   1.0000      -5.579512      -151.8262
  23   1.0000      -5.577047      -151.7592
  24   1.0000      -5.576463      -151.7433
  25   1.0000      -5.575451      -151.7157
  26   1.0000      -5.575145      -151.7074
  27   1.0000      -5.573145      -151.6530
  28   1.0000      -5.573127      -151.6525
  29   1.0000      -5.570898      -151.5918
  30   1.0000      -5.570720      -151.5870
  31   1.0000      -5.568182      -151.5179
  32   1.0000      -2.380253       -64.7700
  33   1.0000      -1.422993       -38.7216
  34   1.0000      -1.408078       -38.3158
  35   1.0000      -1.407833       -38.3091
  36   1.0000      -0.591250       -16.0887
  37   1.0000      -0.553767       -15.0688
  38   1.0000      -0.549241       -14.9456
  39   1.0000      -0.470964       -12.8156
  40   1.0000      -0.457909       -12.4603
  41   1.0000      -0.402756       -10.9595
  42   1.0000      -0.394300       -10.7295
  43   1.0000      -0.337159        -9.1746
  44   1.0000      -0.329695        -8.9715
  45   1.0000      -0.306303        -8.3349
  46   1.0000      -0.282026        -7.6743
  47   1.0000      -0.210238        -5.7209
  48   1.0000      -0.208456        -5.6724
  49   1.0000      -0.200978        -5.4689
  50   1.0000      -0.199796        -5.4367
  51   1.0000      -0.163023        -4.4361
  52   1.0000      -0.130922        -3.5626
  53   1.0000      -0.127999        -3.4830
  54   1.0000      -0.114199        -3.1075
  55   1.0000      -0.108337        -2.9480
  56   1.0000      -0.103618        -2.8196
  57   1.0000      -0.081939        -2.2297
  58   1.0000      -0.068269        -1.8577
  59   1.0000      -0.065948        -1.7945
  60   1.0000      -0.054064        -1.4712
  61   1.0000      -0.050067        -1.3624
  62   1.0000      -0.042809        -1.1649
  63   1.0000      -0.038886        -1.0582
  64   1.0000      -0.000277        -0.0075
  65   1.0000       0.026285         0.7153
  66   1.0000       0.028786         0.7833
  67   1.0000       0.036278         0.9872
  68   1.0000       0.045614         1.2412
  69   1.0000       0.053997         1.4693
  70   1.0000       0.061934         1.6853
  71   1.0000       0.071209         1.9377
  72   1.0000       0.078701         2.1416
  73   0.0000       0.228727         6.2240
  74   0.0000       0.241417         6.5693
  75   0.0000       0.243426         6.6240
  76   0.0000       0.250130         6.8064
  77   0.0000       0.257991         7.0203

                 SPIN DOWN ORBITALS
  NO   OCC          E(Eh)            E(eV)
   0   1.0000    -196.613040     -5350.1128
   1   1.0000     -88.564536     -2409.9636
   2   1.0000     -88.561925     -2409.8925
   3   1.0000     -88.559967     -2409.8392
   4   1.0000     -88.557604     -2409.7749
   5   1.0000     -21.972545      -597.9033
   6   1.0000     -18.832931      -512.4701
   7   1.0000     -18.490181      -503.1434
   8   1.0000     -18.472288      -502.6565
   9   1.0000     -18.471657      -502.6393
  10   1.0000      -9.943976      -270.5893
  11   1.0000      -9.938467      -270.4394
  12   1.0000      -9.937026      -270.4002
  13   1.0000      -9.933431      -270.3024
  14   1.0000      -9.931281      -270.2439
  15   1.0000      -9.930385      -270.2195
  16   1.0000      -7.618409      -207.3075
  17   1.0000      -7.616160      -207.2463
  18   1.0000      -7.614169      -207.1921
  19   1.0000      -7.611220      -207.1118
  20   1.0000      -5.583787      -151.9426
  21   1.0000      -5.581287      -151.8745
  22   1.0000      -5.579646      -151.8299
  23   1.0000      -5.577497      -151.7714
  24   1.0000      -5.576474      -151.7436
  25   1.0000      -5.575592      -151.7196
  26   1.0000      -5.575583      -151.7193
  27   1.0000      -5.573587      -151.6650
  28   1.0000      -5.573246      -151.6557
  29   1.0000      -5.571086      -151.5969
  30   1.0000      -5.570856      -151.5907
  31   1.0000      -5.567761      -151.5065
  32   1.0000      -2.334756       -63.5319
  33   1.0000      -1.403514       -38.1916
  34   1.0000      -1.345938       -36.6248
  35   1.0000      -1.344080       -36.5743
  36   1.0000      -0.599036       -16.3006
  37   1.0000      -0.553681       -15.0664
  38   1.0000      -0.549118       -14.9423
  39   1.0000      -0.470927       -12.8146
  40   1.0000      -0.457835       -12.4583
  41   1.0000      -0.402969       -10.9653
  42   1.0000      -0.394414       -10.7325
  43   1.0000      -0.337374        -9.1804
  44   1.0000      -0.330104        -8.9826
  45   1.0000      -0.306333        -8.3357
  46   1.0000      -0.282059        -7.6752
  47   1.0000      -0.210184        -5.7194
  48   1.0000      -0.208368        -5.6700
  49   1.0000      -0.200866        -5.4659
  50   1.0000      -0.199699        -5.4341
  51   1.0000      -0.162917        -4.4332
  52   1.0000      -0.130659        -3.5554
  53   1.0000      -0.127858        -3.4792
  54   1.0000      -0.114200        -3.1075
  55   1.0000      -0.108184        -2.9438
  56   1.0000      -0.103549        -2.8177
  57   1.0000      -0.080799        -2.1987
  58   1.0000      -0.066758        -1.8166
  59   1.0000      -0.064042        -1.7427
  60   1.0000      -0.055484        -1.5098
  61   1.0000      -0.051280        -1.3954
  62   1.0000      -0.043168        -1.1747
  63   1.0000      -0.039949        -1.0871
  64   1.0000       0.004493         0.1223
  65   1.0000       0.028326         0.7708
  66   1.0000       0.031579         0.8593
  67   1.0000       0.043111         1.1731
  68   1.0000       0.048866         1.3297
  69   1.0000       0.060029         1.6335
  70   1.0000       0.067520         1.8373
  71   1.0000       0.073595         2.0026
  72   0.0000       0.230782         6.2799
  73   0.0000       0.246941         6.7196
  74   0.0000       0.253147         6.8885
  75   0.0000       0.257073         6.9953
  76   0.0000       0.262437         7.1413

MULLIKEN ATOMIC CHARGES AND SPIN POPULATIONS
--------------------------------------------
   0 V :    0.539127    1.204582
   1 S :   -0.467171   -0.005097
   2 S :   -0.343246   -0.031839
   3 S :   -0.423727   -0.030946
   4 S :   -0.376138   -0.024138
   5 O :   -0.541425   -0.139157
   6 C :   -0.243913    0.006531
   7 C :   -0.233963    0.006262
   8 C :   -0.157267    0.001820
   9 H :    0.074541   -0.000817
  10 H :    0.052401    0.001710
  11 H :    0.137854    0.000593
  12 H :    0.006975   -0.000074
  13 H :    0.093898   -0.000100
  14 H :    0.051598   -0.000109
  15 C :   -0.281659   -0.004581
  16 C :   -0.254374    0.004226
  17 C :   -0.059934    0.009861
  18 H :    0.050018    0.000307
  19 H :    0.137513   -0.000530
  20 H :    0.010928    0.001577
  21 H :    0.019365   -0.000239
  22 H :    0.047408   -0.000407
  23 H :    0.161192    0.000563
Sum of atomic charges         :   -2.0000000

LOEWDIN ATOMIC CHARGES AND SPIN POPULATIONS
-------------------------------------------
   0 V :   -0.168119    1.162329
   1 S :   -0.129171    0.000398
   2 S :   -0.027433   -0.022016
   3 S :   -0.069608   -0.021819
   4 S :   -0.062088   -0.015482
   5 O :   -0.370636   -0.125867
   6 C :   -0.323030    0.006063
   7 C :   -0.313852    0.006340
   8 C :   -0.186150    0.000149
   9 H :    0.035848   -0.000048
  10 H :    0.029676    0.000399
  11 H :    0.070524    0.000288
  12 H :    0.031997    0.000187
  13 H :    0.045446   -0.000034
  14 H :    0.028688   -0.000603
  15 C :   -0.321026    0.001919
  16 C :   -0.322638    0.007209
  17 C :   -0.196411    0.000662
  18 H :    0.027716   -0.000024
  19 H :    0.055334   -0.000617
  20 H :    0.033779    0.000605
  21 H :    0.037923    0.000309
  22 H :    0.030968   -0.000472
  23 H :    0.062262    0.000124

  Mayer bond orders larger than 0.100000
B(  0-V ,  1-S ) :   0.6595 B(  0-V ,  2-S ) :   0.8820 B(  0-V ,  3-S ) :   0.7523
B(  0-V ,  4-S ) :   0.7867 B(  0-V ,  5-O ) :   2.0847 B(  1-S , 15-C ) :   1.0216
B(  2-S ,  6-C ) :   1.0038 B(  3-S , 16-C ) :   1.0083 B(  4-S ,  7-C ) :   1.0710
B(  6-C ,  8-C ) :   0.9027 B(  6-C , 13-H ) :   0.9728 B(  6-C , 14-H ) :   0.9698
B(  7-C ,  8-C ) :   0.9228 B(  7-C ,  9-H ) :   0.9753 B(  7-C , 10-H ) :   0.9690
B(  8-C , 11-H ) :   0.9866 B(  8-C , 12-H ) :   0.9468 B( 15-C , 17-C ) :   0.8972
B( 15-C , 22-H ) :   0.9616 B( 15-C , 23-H ) :   0.9665 B( 16-C , 17-C ) :   0.8977
B( 16-C , 18-H ) :   0.9636 B( 16-C , 19-H ) :   0.9752 B( 17-C , 20-H ) :   0.9491
B( 17-C , 21-H ) :   0.9577

FINAL SINGLE POINT ENERGY     -2847.711474234415

DIPOLE MOMENT
-------------
                                X             Y             Z
Electronic contribution:     -5.59648       0.13773      -2.52027
Nuclear contribution   :      6.07842      -0.35685       2.35993
                        -----------------------------------------
Total Dipole Moment    :      0.48193      -0.21911      -0.16034
                        -----------------------------------------
Magnitude (a.u.)       :      0.55315
Magnitude (Debye)      :      1.40600

Rotational constants in cm-1:     0.027230     0.011624     0.009551
Rotational constants in MHz :   816.331198   348.470239   286.337257

                             ****ORCA TERMINATED NORMALLY****
TOTAL RUN TIME: 0 days 0 hours 14 minutes 15 seconds 866 msec
