                         Program Version 5.0.4 -  RELEASE  -
|  1> ! nofrozencore ReducedPop printbasis
|  2> ! B3LYP TZVP
|  3>
|  4> %basis
|  5> newgto V "CP(PPP)" end
|  6> end
|  7>
|  8> %pal
|  9> nprocs 8
| 10> end
| 11>
| 12> % sym SymThresh 1e-2 end
| 13> * xyz -2 2
| 14> V -0.3282397918577463 0.31408928905573974 0.187761743330859
| 15> S -1.864595688104179 -1.319485353173428 -0.9867235759523011
| 16> S 0.12748280482551497 -1.6551453381628316 1.5678544198064646
| 17> S 0.38863684089116324 1.1653409205365712 -2.0310615396957115
| 18> S 1.8728203647086452 1.2753524550912754 0.8347590558509885
| 19> O -1.3986269349457185 1.2703064168834615 0.9036557862637997
| 20> C 1.3482173024422157 -1.1606623362292272 2.8772671800116774
| 21> C 1.9140931906593277 1.3041967659324842 2.680434910454429
| 22> C 1.1615062912250647 0.23587084376505657 3.4053046421621596
| 23> H 1.8239585892719246 2.372234268365312 3.070874112173188
| 24> H 2.9828166518177897 1.489929972867143 3.0404418617154354
| 25> H 0.0929670217282082 0.5163133203442417 3.664420961235771
| 26> H 1.2333627568030188 0.33384776055197174 4.543946219044707
| 27> H 2.37289331910927 -1.3287589035064469 2.5176970759207586
| 28> H 1.3048288435560447 -1.941524443200498 3.652753045461764
| 29> C -0.8818343612288136 -1.7505748518640487 -2.492696718357517
| 30> C -0.9774366755988987 0.7247914356547358 -3.1983564295842197
| 31> C -1.0139191082135393 -0.7413303505445286 -3.6404673114061863
| 32> H -0.8783255311408021 1.3674721164197736 -4.081712305830931
| 33> H -1.9229160517472352 0.9663816869009868 -2.7128144843334256
| 34> H -0.20706282023846403 -0.9272768845036807 -4.366808329491121
| 35> H -1.9652063592006543 -0.916019203520139 -4.168960858369102
| 36> H -1.1990816994189315 -2.741051874502958 -2.8395555110695456
| 37> H 0.16541771491228296 -1.8298706708863837 -2.199621984800119
| 38> *
| 39>
| 40> % eprnmr
| 41> gtensor true
| 42> Nuclei = all H {aiso,adip,aorb,fgrad,rho}
| 43> Nuclei = all V {aiso,adip,aorb,fgrad,rho}
| 44> end
| 45>
| 46>                          ****END OF INPUT****

CARTESIAN COORDINATES (ANGSTROEM)
---------------------------------
  V     -0.328855    0.314526    0.187779
  S     -1.865211   -1.319049   -0.986706
  S      0.126867   -1.654709    1.567872
  S      0.388021    1.165777   -2.031044
  S      1.872205    1.275789    0.834776
  O     -1.399243    1.270743    0.903673
  C      1.347602   -1.160226    2.877284
  C      1.913478    1.304633    2.680452
  C      1.160891    0.236307    3.405322
  H      1.823343    2.372671    3.070891
  H      2.982201    1.490366    3.040459
  H      0.092351    0.516750    3.664438
  H      1.232747    0.334284    4.543963
  H      2.372278   -1.328323    2.517714
  H      1.304213   -1.941088    3.652770
  C     -0.882450   -1.750139   -2.492679
  C     -0.978052    0.725228   -3.198339
  C     -1.014535   -0.740894   -3.640450
  H     -0.878941    1.367908   -4.081695
  H     -1.923532    0.966818   -2.712797
  H     -0.207678   -0.926841   -4.366791
  H     -1.965822   -0.915583   -4.168944
  H     -1.199697   -2.740616   -2.839538
  H      0.164802   -1.829434   -2.199605

 Total Charge           Charge          ....   -2
 Multiplicity           Mult            ....    2
 Number of Electrons    NEL             ....  145
 Basis Dimension        Dim             ....  353

ORBITAL ENERGIES
----------------
                 SPIN UP ORBITALS
  NO   OCC          E(Eh)            E(eV)
   0   1.0000    -196.607268     -5349.9558
   1   1.0000     -88.561785     -2409.8887
   2   1.0000     -88.561695     -2409.8862
   3   1.0000     -88.561067     -2409.8691
   4   1.0000     -88.557558     -2409.7737
   5   1.0000     -21.982608      -598.1772
   6   1.0000     -18.824168      -512.2316
   7   1.0000     -18.490332      -503.1475
   8   1.0000     -18.483255      -502.9549
   9   1.0000     -18.483168      -502.9526
  10   1.0000      -9.952380      -270.8180
  11   1.0000      -9.941421      -270.5198
  12   1.0000      -9.939179      -270.4588
  13   1.0000      -9.934585      -270.3338
  14   1.0000      -9.934241      -270.3244
  15   1.0000      -9.932090      -270.2659
  16   1.0000      -7.615998      -207.2418
  17   1.0000      -7.615809      -207.2367
  18   1.0000      -7.614913      -207.2123
  19   1.0000      -7.611879      -207.1298
  20   1.0000      -5.581458      -151.8792
  21   1.0000      -5.581174      -151.8715
  22   1.0000      -5.580404      -151.8505
  23   1.0000      -5.577131      -151.7614
  24   1.0000      -5.574998      -151.7034
  25   1.0000      -5.574831      -151.6989
  26   1.0000      -5.573699      -151.6681
  27   1.0000      -5.573233      -151.6554
  28   1.0000      -5.572595      -151.6380
  29   1.0000      -5.572062      -151.6235
  30   1.0000      -5.571111      -151.5976
  31   1.0000      -5.568929      -151.5382
  32   1.0000      -2.375156       -64.6313
  33   1.0000      -1.417570       -38.5740
  34   1.0000      -1.403339       -38.1868
  35   1.0000      -1.402844       -38.1733
  36   1.0000      -0.586275       -15.9533
  37   1.0000      -0.555771       -15.1233
  38   1.0000      -0.551101       -14.9962
  39   1.0000      -0.472293       -12.8518
  40   1.0000      -0.466136       -12.6842
  41   1.0000      -0.407269       -11.0824
  42   1.0000      -0.400062       -10.8862
  43   1.0000      -0.339515        -9.2387
  44   1.0000      -0.331341        -9.0163
  45   1.0000      -0.317530        -8.6404
  46   1.0000      -0.286472        -7.7953
  47   1.0000      -0.229671        -6.2497
  48   1.0000      -0.214162        -5.8276
  49   1.0000      -0.203033        -5.5248
  50   1.0000      -0.166252        -4.5239
  51   1.0000      -0.157340        -4.2814
  52   1.0000      -0.133902        -3.6437
  53   1.0000      -0.131791        -3.5862
  54   1.0000      -0.123172        -3.3517
  55   1.0000      -0.108149        -2.9429
  56   1.0000      -0.090803        -2.4709
  57   1.0000      -0.083307        -2.2669
  58   1.0000      -0.064040        -1.7426
  59   1.0000      -0.060518        -1.6468
  60   1.0000      -0.054146        -1.4734
  61   1.0000      -0.042824        -1.1653
  62   1.0000      -0.039041        -1.0624
  63   1.0000      -0.033165        -0.9025
  64   1.0000      -0.001310        -0.0356
  65   1.0000       0.027085         0.7370
  66   1.0000       0.029555         0.8042
  67   1.0000       0.037154         1.0110
  68   1.0000       0.044993         1.2243
  69   1.0000       0.053413         1.4534
  70   1.0000       0.064229         1.7478
  71   1.0000       0.073464         1.9991
  72   1.0000       0.081428         2.2158
  73   0.0000       0.234385         6.3779
  74   0.0000       0.241330         6.5669
  75   0.0000       0.246379         6.7043
  76   0.0000       0.249691         6.7944
  77   0.0000       0.258433         7.0323

                 SPIN DOWN ORBITALS
  NO   OCC          E(Eh)            E(eV)
   0   1.0000    -196.607411     -5349.9596
   1   1.0000     -88.561945     -2409.8930
   2   1.0000     -88.561796     -2409.8890
   3   1.0000     -88.561243     -2409.8739
   4   1.0000     -88.557532     -2409.7730
   5   1.0000     -21.967537      -597.7671
   6   1.0000     -18.827708      -512.3280
   7   1.0000     -18.485100      -503.0051
   8   1.0000     -18.467186      -502.5177
   9   1.0000     -18.466690      -502.5042
  10   1.0000      -9.952198      -270.8131
  11   1.0000      -9.941438      -270.5203
  12   1.0000      -9.939047      -270.4552
  13   1.0000      -9.934406      -270.3289
  14   1.0000      -9.934184      -270.3229
  15   1.0000      -9.932048      -270.2648
  16   1.0000      -7.616150      -207.2460
  17   1.0000      -7.615905      -207.2393
  18   1.0000      -7.615084      -207.2170
  19   1.0000      -7.611856      -207.1291
  20   1.0000      -5.581575      -151.8824
  21   1.0000      -5.581327      -151.8756
  22   1.0000      -5.580567      -151.8550
  23   1.0000      -5.577148      -151.7619
  24   1.0000      -5.575420      -151.7149
  25   1.0000      -5.575228      -151.7097
  26   1.0000      -5.574154      -151.6804
  27   1.0000      -5.573351      -151.6586
  28   1.0000      -5.572524      -151.6361
  29   1.0000      -5.572194      -151.6271
  30   1.0000      -5.571450      -151.6069
  31   1.0000      -5.568463      -151.5256
  32   1.0000      -2.330154       -63.4067
  33   1.0000      -1.398455       -38.0539
  34   1.0000      -1.341708       -36.5097
  35   1.0000      -1.339823       -36.4584
  36   1.0000      -0.593895       -16.1607
  37   1.0000      -0.555682       -15.1209
  38   1.0000      -0.550943       -14.9919
  39   1.0000      -0.472237       -12.8502
  40   1.0000      -0.466006       -12.6807
  41   1.0000      -0.407382       -11.0854
  42   1.0000      -0.400107       -10.8875
  43   1.0000      -0.339722        -9.2443
  44   1.0000      -0.331687        -9.0257
  45   1.0000      -0.317576        -8.6417
  46   1.0000      -0.286466        -7.7951
  47   1.0000      -0.229589        -6.2474
  48   1.0000      -0.214099        -5.8259
  49   1.0000      -0.202928        -5.5219
  50   1.0000      -0.166172        -4.5218
  51   1.0000      -0.157014        -4.2726
  52   1.0000      -0.133740        -3.6392
  53   1.0000      -0.131524        -3.5789
  54   1.0000      -0.123109        -3.3500
  55   1.0000      -0.108083        -2.9411
  56   1.0000      -0.089473        -2.4347
  57   1.0000      -0.082490        -2.2447
  58   1.0000      -0.062791        -1.7086
  59   1.0000      -0.060439        -1.6446
  60   1.0000      -0.053360        -1.4520
  61   1.0000      -0.044502        -1.2110
  62   1.0000      -0.040443        -1.1005
  63   1.0000      -0.033317        -0.9066
  64   1.0000       0.003330         0.0906
  65   1.0000       0.027964         0.7609
  66   1.0000       0.032561         0.8860
  67   1.0000       0.045337         1.2337
  68   1.0000       0.046436         1.2636
  69   1.0000       0.061591         1.6760
  70   1.0000       0.068303         1.8586
  71   1.0000       0.075281         2.0485
  72   0.0000       0.231590         6.3019
  73   0.0000       0.245439         6.6787
  74   0.0000       0.251064         6.8318
  75   0.0000       0.260907         7.0996
  76   0.0000       0.264523         7.1980

MULLIKEN ATOMIC CHARGES AND SPIN POPULATIONS
--------------------------------------------
   0 V :    0.532343    1.193903
   1 S :   -0.428019   -0.001539
   2 S :   -0.346150   -0.032986
   3 S :   -0.412133   -0.029339
   4 S :   -0.355408   -0.020545
   5 O :   -0.542545   -0.136661
   6 C :   -0.254053    0.004972
   7 C :   -0.229282    0.004622
   8 C :   -0.075760    0.003440
   9 H :    0.041366   -0.000988
  10 H :    0.029453    0.003379
  11 H :    0.096265    0.000700
  12 H :   -0.024878    0.000112
  13 H :    0.100492   -0.000090
  14 H :    0.046151   -0.000126
  15 C :   -0.256610   -0.002317
  16 C :   -0.251572    0.003709
  17 C :   -0.069899    0.008467
  18 H :    0.047558   -0.000065
  19 H :    0.131181   -0.000236
  20 H :    0.015508    0.001604
  21 H :    0.013022    0.000084
  22 H :    0.052536   -0.000576
  23 H :    0.140435    0.000474
Sum of atomic charges         :   -2.0000000

LOEWDIN ATOMIC CHARGES AND SPIN POPULATIONS
-------------------------------------------
   0 V :   -0.203320    1.150289
   1 S :   -0.071940    0.003826
   2 S :   -0.036065   -0.022602
   3 S :   -0.061259   -0.020418
   4 S :   -0.050641   -0.012095
   5 O :   -0.373299   -0.123247
   6 C :   -0.325179    0.005093
   7 C :   -0.330635    0.006557
   8 C :   -0.197364    0.000445
   9 H :    0.032193   -0.000098
  10 H :    0.026088    0.001157
  11 H :    0.070456    0.000153
  12 H :    0.034341    0.000237
  13 H :    0.047268   -0.000026
  14 H :    0.029930   -0.000560
  15 C :   -0.317757    0.002697
  16 C :   -0.324562    0.007488
  17 C :   -0.188671    0.001149
  18 H :    0.028365   -0.000190
  19 H :    0.054165   -0.000615
  20 H :    0.036105    0.000617
  21 H :    0.035146    0.000396
  22 H :    0.030383   -0.000600
  23 H :    0.056253    0.000348

  Mayer bond orders larger than 0.100000
B(  0-V ,  1-S ) :   0.7083 B(  0-V ,  2-S ) :   0.8551 B(  0-V ,  3-S ) :   0.7695
B(  0-V ,  4-S ) :   0.7697 B(  0-V ,  5-O ) :   2.0813 B(  1-S , 15-C ) :   1.0249
B(  2-S ,  6-C ) :   1.0103 B(  3-S , 16-C ) :   1.0243 B(  4-S ,  7-C ) :   1.0756
B(  6-C ,  8-C ) :   0.9499 B(  6-C , 13-H ) :   0.9786 B(  6-C , 14-H ) :   0.9533
B(  7-C ,  8-C ) :   0.9954 B(  7-C ,  9-H ) :   0.9473 B(  7-C , 10-H ) :   0.9524
B(  8-C , 11-H ) :   0.9579 B(  8-C , 12-H ) :   0.9083 B( 15-C , 17-C ) :   0.8953
B( 15-C , 22-H ) :   0.9684 B( 15-C , 23-H ) :   0.9796 B( 16-C , 17-C ) :   0.9036
B( 16-C , 18-H ) :   0.9632 B( 16-C , 19-H ) :   0.9760 B( 17-C , 20-H ) :   0.9581
B( 17-C , 21-H ) :   0.9596

FINAL SINGLE POINT ENERGY     -2847.672780142559

DIPOLE MOMENT
-------------
                                X             Y             Z
Electronic contribution:     -4.72371       3.63200       0.80428
Nuclear contribution   :      5.04624      -3.89032      -0.72364
                        -----------------------------------------
Total Dipole Moment    :      0.32253      -0.25832       0.08064
                        -----------------------------------------
Magnitude (a.u.)       :      0.42102
Magnitude (Debye)      :      1.07015

Rotational constants in cm-1:     0.027193     0.011723     0.009598
Rotational constants in MHz :   815.210664   351.453852   287.751892

                             ****ORCA TERMINATED NORMALLY****
TOTAL RUN TIME: 0 days 0 hours 9 minutes 32 seconds 428 msec
