                         Program Version 5.0.4 -  RELEASE  -
|  1> ! nofrozencore ReducedPop printbasis
|  2> ! B3LYP TZVP
|  3>
|  4> %basis
|  5> newgto V "CP(PPP)" end
|  6> end
|  7>
|  8> %pal
|  9> nprocs 4
| 10> end
| 11>
| 12> % sym SymThresh 1e-2 end
| 13> * xyz -2 2
| 14> V -0.07719043700348466 -0.35210588150934724 0.33517060163853357
| 15> S -2.268880219665753 -0.4226166080719536 -0.9294085227951382
| 16> S 0.7799354434283055 -1.1444891994448134 -1.817989554533926
| 17> S -0.7635137298256702 1.824547890414336 1.312034887771011
| 18> S 2.173561543846435 0.5435004067033044 0.903820045769203
| 19> O -0.2762531899917791 -1.5768339222861687 1.3481070207965622
| 20> C 2.6064643255798576 -1.4186799157169734 -1.6497458989704503
| 21> C 3.367997900053926 -0.8982264863533664 0.754386616028964
| 22> C 3.0904026739005044 -1.8601940196885756 -0.3048892320572669
| 23> H 3.4317512851562957 -1.013635651211232 1.9009096744516019
| 24> H 4.340004597093045 -0.5542435037758189 0.3076728646331094
| 25> H 2.2541464644532163 -2.448337317458675 0.08445681304267451
| 26> H 3.923928474313467 -2.572642314881699 -0.4725295308381451
| 27> H 3.320114154446536 -0.5207853431335538 -1.6117555883663102
| 28> H 2.750534088087593 -1.9393115974069444 -2.645399795782308
| 29> C -2.533453361863641 1.3613724074297948 -1.328923148441857
| 30> C -2.60681675738474 1.8599111761792069 1.1982906175263948
| 31> C -3.176622925207893 2.175476247056738 -0.1930722286595854
| 32> H -2.9918818039683237 2.6154084289162363 1.8960963270633577
| 33> H -2.9873653024984703 0.889965422045872 1.5193116525374029
| 34> H -3.045267220859994 3.2457067875623027 -0.4183454347326433
| 35> H -4.26182332618388 1.9842255032435214 -0.16671903656739315
| 36> H -3.1785453801470673 1.4456586077323885 -2.2127050032943805
| 37> H -1.5677299902974304 1.7930424143138082 -1.593828423469643
| 38> *
| 39>
| 40> % eprnmr
| 41> gtensor true
| 42> Nuclei = all H {aiso,adip,aorb,fgrad,rho}
| 43> Nuclei = all V {aiso,adip,aorb,fgrad,rho}
| 44> end
| 45>
| 46>                          ****END OF INPUT****

CARTESIAN COORDINATES (ANGSTROEM)
---------------------------------
  V     -0.077571   -0.352507    0.335685
  S     -2.269261   -0.423017   -0.928894
  S      0.779555   -1.144890   -1.817475
  S     -0.763895    1.824147    1.312549
  S      2.173181    0.543100    0.904334
  O     -0.276634   -1.577235    1.348621
  C      2.606084   -1.419081   -1.649232
  C      3.367617   -0.898627    0.754901
  C      3.090022   -1.860595   -0.304375
  H      3.431371   -1.014036    1.901424
  H      4.339624   -0.554644    0.308187
  H      2.253766   -2.448738    0.084971
  H      3.923548   -2.573043   -0.472015
  H      3.319733   -0.521186   -1.611241
  H      2.750153   -1.939712   -2.644886
  C     -2.533834    1.360972   -1.328409
  C     -2.607198    1.859510    1.198805
  C     -3.177004    2.175075   -0.192558
  H     -2.992263    2.615008    1.896611
  H     -2.987746    0.889565    1.519826
  H     -3.045648    3.245306   -0.417831
  H     -4.262204    1.983825   -0.166205
  H     -3.178926    1.445258   -2.212191
  H     -1.568111    1.792642   -1.593314

 Total Charge           Charge          ....   -2
 Multiplicity           Mult            ....    2
 Number of Electrons    NEL             ....  145
 Basis Dimension        Dim             ....  353

ORBITAL ENERGIES
----------------
                 SPIN UP ORBITALS
  NO   OCC          E(Eh)            E(eV)
   0   1.0000    -196.607869     -5349.9721
   1   1.0000     -88.564570     -2409.9645
   2   1.0000     -88.562280     -2409.9022
   3   1.0000     -88.559534     -2409.8274
   4   1.0000     -88.558465     -2409.7983
   5   1.0000     -21.983184      -598.1928
   6   1.0000     -18.825653      -512.2721
   7   1.0000     -18.490968      -503.1648
   8   1.0000     -18.483794      -502.9696
   9   1.0000     -18.483719      -502.9676
  10   1.0000      -9.950516      -270.7673
  11   1.0000      -9.945271      -270.6246
  12   1.0000      -9.934839      -270.3407
  13   1.0000      -9.934826      -270.3404
  14   1.0000      -9.932433      -270.2752
  15   1.0000      -9.927776      -270.1485
  16   1.0000      -7.618369      -207.3064
  17   1.0000      -7.616468      -207.2546
  18   1.0000      -7.613834      -207.1830
  19   1.0000      -7.612820      -207.1554
  20   1.0000      -5.583862      -151.9446
  21   1.0000      -5.581674      -151.8851
  22   1.0000      -5.579343      -151.8216
  23   1.0000      -5.578036      -151.7861
  24   1.0000      -5.577049      -151.7592
  25   1.0000      -5.575594      -151.7196
  26   1.0000      -5.575455      -151.7158
  27   1.0000      -5.573699      -151.6681
  28   1.0000      -5.572962      -151.6480
  29   1.0000      -5.572048      -151.6231
  30   1.0000      -5.570583      -151.5833
  31   1.0000      -5.569881      -151.5642
  32   1.0000      -2.375876       -64.6509
  33   1.0000      -1.418585       -38.6017
  34   1.0000      -1.403996       -38.2047
  35   1.0000      -1.403527       -38.1919
  36   1.0000      -0.588324       -16.0091
  37   1.0000      -0.570437       -15.5224
  38   1.0000      -0.550485       -14.9795
  39   1.0000      -0.471800       -12.8383
  40   1.0000      -0.466167       -12.6850
  41   1.0000      -0.406361       -11.0577
  42   1.0000      -0.399164       -10.8618
  43   1.0000      -0.338992        -9.2245
  44   1.0000      -0.329399        -8.9634
  45   1.0000      -0.299622        -8.1531
  46   1.0000      -0.286203        -7.7880
  47   1.0000      -0.226818        -6.1720
  48   1.0000      -0.213593        -5.8122
  49   1.0000      -0.208490        -5.6733
  50   1.0000      -0.201437        -5.4814
  51   1.0000      -0.163968        -4.4618
  52   1.0000      -0.135662        -3.6916
  53   1.0000      -0.133083        -3.6214
  54   1.0000      -0.128712        -3.5024
  55   1.0000      -0.104461        -2.8425
  56   1.0000      -0.080464        -2.1895
  57   1.0000      -0.070307        -1.9132
  58   1.0000      -0.064258        -1.7485
  59   1.0000      -0.060016        -1.6331
  60   1.0000      -0.054155        -1.4736
  61   1.0000      -0.046029        -1.2525
  62   1.0000      -0.039902        -1.0858
  63   1.0000      -0.033605        -0.9144
  64   1.0000      -0.002441        -0.0664
  65   1.0000       0.026754         0.7280
  66   1.0000       0.029239         0.7956
  67   1.0000       0.037403         1.0178
  68   1.0000       0.043906         1.1947
  69   1.0000       0.051609         1.4043
  70   1.0000       0.062896         1.7115
  71   1.0000       0.072754         1.9797
  72   1.0000       0.080570         2.1924
  73   0.0000       0.233824         6.3627
  74   0.0000       0.245641         6.6842
  75   0.0000       0.248832         6.7711
  76   0.0000       0.250331         6.8119
  77   0.0000       0.258004         7.0206

                 SPIN DOWN ORBITALS
  NO   OCC          E(Eh)            E(eV)
   0   1.0000    -196.608012     -5349.9760
   1   1.0000     -88.564751     -2409.9694
   2   1.0000     -88.562440     -2409.9065
   3   1.0000     -88.559646     -2409.8305
   4   1.0000     -88.558439     -2409.7976
   5   1.0000     -21.968148      -597.7837
   6   1.0000     -18.829121      -512.3664
   7   1.0000     -18.485773      -503.0235
   8   1.0000     -18.467729      -502.5324
   9   1.0000     -18.467289      -502.5205
  10   1.0000      -9.950324      -270.7621
  11   1.0000      -9.945148      -270.6212
  12   1.0000      -9.934769      -270.3388
  13   1.0000      -9.934660      -270.3358
  14   1.0000      -9.932390      -270.2741
  15   1.0000      -9.927792      -270.1490
  16   1.0000      -7.618545      -207.3112
  17   1.0000      -7.616620      -207.2588
  18   1.0000      -7.613940      -207.1858
  19   1.0000      -7.612797      -207.1547
  20   1.0000      -5.584033      -151.9492
  21   1.0000      -5.581827      -151.8892
  22   1.0000      -5.579474      -151.8252
  23   1.0000      -5.578054      -151.7866
  24   1.0000      -5.577514      -151.7719
  25   1.0000      -5.575877      -151.7273
  26   1.0000      -5.575732      -151.7234
  27   1.0000      -5.573817      -151.6713
  28   1.0000      -5.573368      -151.6590
  29   1.0000      -5.572388      -151.6324
  30   1.0000      -5.570534      -151.5819
  31   1.0000      -5.569413      -151.5514
  32   1.0000      -2.330981       -63.4292
  33   1.0000      -1.399612       -38.0854
  34   1.0000      -1.342354       -36.5273
  35   1.0000      -1.340685       -36.4819
  36   1.0000      -0.595718       -16.2103
  37   1.0000      -0.570350       -15.5200
  38   1.0000      -0.550328       -14.9752
  39   1.0000      -0.471754       -12.8371
  40   1.0000      -0.466039       -12.6816
  41   1.0000      -0.406462       -11.0604
  42   1.0000      -0.399267       -10.8646
  43   1.0000      -0.339149        -9.2287
  44   1.0000      -0.329794        -8.9742
  45   1.0000      -0.299541        -8.1509
  46   1.0000      -0.286213        -7.7882
  47   1.0000      -0.226776        -6.1709
  48   1.0000      -0.213530        -5.8104
  49   1.0000      -0.208263        -5.6671
  50   1.0000      -0.201354        -5.4791
  51   1.0000      -0.163957        -4.4615
  52   1.0000      -0.135422        -3.6850
  53   1.0000      -0.132871        -3.6156
  54   1.0000      -0.128587        -3.4990
  55   1.0000      -0.104388        -2.8405
  56   1.0000      -0.079592        -2.1658
  57   1.0000      -0.067783        -1.8445
  58   1.0000      -0.063414        -1.7256
  59   1.0000      -0.060109        -1.6356
  60   1.0000      -0.054331        -1.4784
  61   1.0000      -0.047066        -1.2807
  62   1.0000      -0.041374        -1.1258
  63   1.0000      -0.033253        -0.9049
  64   1.0000       0.001823         0.0496
  65   1.0000       0.027834         0.7574
  66   1.0000       0.032061         0.8724
  67   1.0000       0.044313         1.2058
  68   1.0000       0.045902         1.2491
  69   1.0000       0.059204         1.6110
  70   1.0000       0.067944         1.8488
  71   1.0000       0.074755         2.0342
  72   0.0000       0.231978         6.3124
  73   0.0000       0.249222         6.7817
  74   0.0000       0.254269         6.9190
  75   0.0000       0.259913         7.0726
  76   0.0000       0.264005         7.1839

MULLIKEN ATOMIC CHARGES AND SPIN POPULATIONS
--------------------------------------------
   0 V :    0.524894    1.192363
   1 S :   -0.426373   -0.001581
   2 S :   -0.344283   -0.033985
   3 S :   -0.406724   -0.029196
   4 S :   -0.395448   -0.022770
   5 O :   -0.543040   -0.133904
   6 C :   -0.206635    0.006534
   7 C :   -0.215078    0.005620
   8 C :   -0.166238    0.003501
   9 H :    0.103858   -0.000490
  10 H :    0.012189    0.001956
  11 H :    0.134982    0.000545
  12 H :    0.014951    0.000114
  13 H :    0.035399   -0.000182
  14 H :    0.058511    0.000478
  15 C :   -0.254887   -0.002017
  16 C :   -0.250603    0.003771
  17 C :   -0.072896    0.008159
  18 H :    0.045281   -0.000167
  19 H :    0.130613   -0.000243
  20 H :    0.016102    0.001585
  21 H :    0.013620    0.000127
  22 H :    0.050160   -0.000617
  23 H :    0.141644    0.000396
Sum of atomic charges         :   -2.0000000

LOEWDIN ATOMIC CHARGES AND SPIN POPULATIONS
-------------------------------------------
   0 V :   -0.211564    1.148571
   1 S :   -0.070859    0.003836
   2 S :   -0.026671   -0.023103
   3 S :   -0.058129   -0.020339
   4 S :   -0.074974   -0.013640
   5 O :   -0.376054   -0.120612
   6 C :   -0.342461    0.004949
   7 C :   -0.326302    0.007566
   8 C :   -0.201565    0.000531
   9 H :    0.066667   -0.000011
  10 H :    0.027832    0.000525
  11 H :    0.062644    0.000486
  12 H :    0.037811    0.000352
  13 H :    0.046482   -0.000019
  14 H :    0.041201   -0.000307
  15 C :   -0.318297    0.002771
  16 C :   -0.326239    0.007396
  17 C :   -0.188914    0.001172
  18 H :    0.027833   -0.000235
  19 H :    0.053720   -0.000612
  20 H :    0.036241    0.000614
  21 H :    0.035160    0.000391
  22 H :    0.029878   -0.000627
  23 H :    0.056561    0.000342

  Mayer bond orders larger than 0.100000
B(  0-V ,  1-S ) :   0.7100 B(  0-V ,  2-S ) :   0.8516 B(  0-V ,  3-S ) :   0.7709
B(  0-V ,  4-S ) :   0.7748 B(  0-V ,  5-O ) :   2.0718 B(  1-S , 15-C ) :   1.0246
B(  2-S ,  6-C ) :   1.0105 B(  3-S , 16-C ) :   1.0249 B(  4-S ,  7-C ) :   1.0651
B(  4-S ,  8-C ) :  -0.1110 B(  6-C ,  8-C ) :   0.9076 B(  6-C , 13-H ) :   0.9372
B(  6-C , 14-H ) :   0.9755 B(  7-C ,  8-C ) :   0.9113 B(  7-C ,  9-H ) :   0.9853
B(  7-C , 10-H ) :   0.9403 B(  8-C , 11-H ) :   0.9980 B(  8-C , 12-H ) :   0.9485
B( 15-C , 17-C ) :   0.8953 B( 15-C , 22-H ) :   0.9669 B( 15-C , 23-H ) :   0.9798
B( 16-C , 17-C ) :   0.9006 B( 16-C , 18-H ) :   0.9624 B( 16-C , 19-H ) :   0.9765
B( 17-C , 20-H ) :   0.9582 B( 17-C , 21-H ) :   0.9600

FINAL SINGLE POINT ENERGY     -2847.658787244378

DIPOLE MOMENT
-------------
                                X             Y             Z
Electronic contribution:     -2.03637      -4.20650       4.45445
Nuclear contribution   :      2.21757       4.32307      -4.71283
                        -----------------------------------------
Total Dipole Moment    :      0.18121       0.11656      -0.25839
                        -----------------------------------------
Magnitude (a.u.)       :      0.33643
Magnitude (Debye)      :      0.85514

Rotational constants in cm-1:     0.027242     0.011739     0.009596
Rotational constants in MHz :   816.697055   351.915931   287.691183

                             ****ORCA TERMINATED NORMALLY****
TOTAL RUN TIME: 0 days 0 hours 14 minutes 19 seconds 634 msec
