                         Program Version 5.0.4 -  RELEASE  -
|  1> ! nofrozencore ReducedPop printbasis
|  2> ! B3LYP TZVP
|  3>
|  4> %basis
|  5> newgto V "CP(PPP)" end
|  6> end
|  7>
|  8> %pal
|  9> nprocs 4
| 10> end
| 11>
| 12> % sym SymThresh 1e-2 end
| 13> * xyz -2 2
| 14> V -0.03425926271703326 -0.4698923312895505 -0.14038671560142948
| 15> S -2.472485701006912 0.07448301591515617 0.26949288552676465
| 16> S -0.33749907269897217 1.1698287585818765 -1.9316869277799957
| 17> S 0.3441163664618868 -0.4113259413550723 2.312273530459671
| 18> S 2.4117520593847375 -0.012760295656614141 -0.13746137219682117
| 19> O -0.15330564193116578 -1.9627256999232372 -0.7149372142103892
| 20> C 1.2491239912558698 1.33088191142408 -2.8584081499564036
| 21> C 3.0208908233597613 -0.24564503867456733 -1.8657774818102917
| 22> C 2.1086065919830146 -0.060186066402037386 -2.955406789220364
| 23> H 3.3192971607989796 -1.287906133223416 -2.1155649744414236
| 24> H 3.9649997598523288 0.32818843732437336 -1.8762017632649641
| 25> H 0.9774052397028244 -0.4934621722596025 -3.2719971582627174
| 26> H 2.429917285912752 0.18985077451611476 -4.048308766684063
| 27> H 1.9989917907181671 1.9834405265913808 -2.3694686766659907
| 28> H 0.9819588905381725 1.8494630409380828 -3.7971952018592754
| 29> C -2.3701473954494245 1.208751436797566 1.7266246163958534
| 30> C -1.3118084691651426 -0.7122015387496282 3.0782366334398765
| 31> C -2.2617002489969975 0.48703925311654767 3.079373195826156
| 32> H -1.150095520934228 -1.03553786564615 4.113934203248521
| 33> H -1.7876521792412732 -1.5317996220635761 2.539966347553607
| 34> H -1.9404651961708674 1.2226168466845528 3.833647375784277
| 35> H -3.267422439565883 0.14388201863093192 3.371849934700389
| 36> H -3.2565266316536157 1.8538967139210292 1.7223083911508328
| 37> H -1.4996718226250079 1.8519964693669992 1.5935968292393647
| 38> *
| 39>
| 40> % eprnmr
| 41> gtensor true
| 42> Nuclei = all H {aiso,adip,aorb,fgrad,rho}
| 43> Nuclei = all V {aiso,adip,aorb,fgrad,rho}
| 44> end
| 45>
| 46>                          ****END OF INPUT****

CARTESIAN COORDINATES (ANGSTROEM)
---------------------------------
  V     -0.034504   -0.470606   -0.140376
  S     -2.472731    0.073769    0.269503
  S     -0.337744    1.169115   -1.931676
  S      0.343872   -0.412040    2.312284
  S      2.411507   -0.013474   -0.137451
  O     -0.153550   -1.963440   -0.714927
  C      1.248879    1.330168   -2.858398
  C      3.020646   -0.246359   -1.865767
  C      2.108362   -0.060900   -2.955396
  H      3.319052   -1.288620   -2.115554
  H      3.964755    0.327474   -1.876191
  H      0.977160   -0.494176   -3.271987
  H      2.429672    0.189137   -4.048298
  H      1.998747    1.982726   -2.369458
  H      0.981714    1.848749   -3.797185
  C     -2.370392    1.208037    1.726635
  C     -1.312053   -0.712916    3.078247
  C     -2.261945    0.486325    3.079384
  H     -1.150340   -1.036252    4.113945
  H     -1.787897   -1.532514    2.539977
  H     -1.940710    1.221903    3.833658
  H     -3.267667    0.143168    3.371860
  H     -3.256771    1.853183    1.722319
  H     -1.499917    1.851282    1.593607

 Total Charge           Charge          ....   -2
 Multiplicity           Mult            ....    2
 Number of Electrons    NEL             ....  145
 Basis Dimension        Dim             ....  353

ORBITAL ENERGIES
----------------
                 SPIN UP ORBITALS
  NO   OCC          E(Eh)            E(eV)
   0   1.0000    -196.608716     -5349.9952
   1   1.0000     -88.564825     -2409.9714
   2   1.0000     -88.563343     -2409.9311
   3   1.0000     -88.563003     -2409.9218
   4   1.0000     -88.558365     -2409.7956
   5   1.0000     -21.984066      -598.2169
   6   1.0000     -18.825869      -512.2779
   7   1.0000     -18.491781      -503.1869
   8   1.0000     -18.484707      -502.9945
   9   1.0000     -18.484638      -502.9926
  10   1.0000      -9.950466      -270.7660
  11   1.0000      -9.946401      -270.6553
  12   1.0000      -9.937152      -270.4037
  13   1.0000      -9.935707      -270.3643
  14   1.0000      -9.935076      -270.3471
  15   1.0000      -9.932902      -270.2880
  16   1.0000      -7.619080      -207.3257
  17   1.0000      -7.617555      -207.2842
  18   1.0000      -7.616980      -207.2686
  19   1.0000      -7.612720      -207.1526
  20   1.0000      -5.584788      -151.9698
  21   1.0000      -5.582745      -151.9142
  22   1.0000      -5.582114      -151.8971
  23   1.0000      -5.577959      -151.7840
  24   1.0000      -5.577949      -151.7837
  25   1.0000      -5.576555      -151.7458
  26   1.0000      -5.575889      -151.7277
  27   1.0000      -5.575759      -151.7241
  28   1.0000      -5.574783      -151.6976
  29   1.0000      -5.574451      -151.6885
  30   1.0000      -5.571957      -151.6207
  31   1.0000      -5.569754      -151.5607
  32   1.0000      -2.376682       -64.6728
  33   1.0000      -1.419096       -38.6156
  34   1.0000      -1.404932       -38.2302
  35   1.0000      -1.404368       -38.2148
  36   1.0000      -0.587824       -15.9955
  37   1.0000      -0.556532       -15.1440
  38   1.0000      -0.551988       -15.0204
  39   1.0000      -0.474350       -12.9077
  40   1.0000      -0.467131       -12.7113
  41   1.0000      -0.404778       -11.0146
  42   1.0000      -0.395322       -10.7573
  43   1.0000      -0.340843        -9.2748
  44   1.0000      -0.332766        -9.0550
  45   1.0000      -0.298294        -8.1170
  46   1.0000      -0.286471        -7.7953
  47   1.0000      -0.215375        -5.8606
  48   1.0000      -0.212631        -5.7860
  49   1.0000      -0.203827        -5.5464
  50   1.0000      -0.197711        -5.3800
  51   1.0000      -0.163600        -4.4518
  52   1.0000      -0.134953        -3.6723
  53   1.0000      -0.131733        -3.5846
  54   1.0000      -0.122906        -3.3444
  55   1.0000      -0.108915        -2.9637
  56   1.0000      -0.088602        -2.4110
  57   1.0000      -0.069364        -1.8875
  58   1.0000      -0.063683        -1.7329
  59   1.0000      -0.057399        -1.5619
  60   1.0000      -0.046867        -1.2753
  61   1.0000      -0.042493        -1.1563
  62   1.0000      -0.036176        -0.9844
  63   1.0000      -0.035139        -0.9562
  64   1.0000      -0.002607        -0.0709
  65   1.0000       0.025664         0.6984
  66   1.0000       0.026736         0.7275
  67   1.0000       0.036955         1.0056
  68   1.0000       0.042646         1.1605
  69   1.0000       0.051434         1.3996
  70   1.0000       0.062623         1.7041
  71   1.0000       0.069547         1.8925
  72   1.0000       0.079208         2.1554
  73   0.0000       0.232965         6.3393
  74   0.0000       0.244654         6.6574
  75   0.0000       0.247597         6.7375
  76   0.0000       0.250518         6.8169
  77   0.0000       0.257425         7.0049

                 SPIN DOWN ORBITALS
  NO   OCC          E(Eh)            E(eV)
   0   1.0000    -196.608859     -5349.9990
   1   1.0000     -88.564929     -2409.9742
   2   1.0000     -88.563503     -2409.9354
   3   1.0000     -88.563176     -2409.9265
   4   1.0000     -88.558340     -2409.7950
   5   1.0000     -21.968990      -597.8066
   6   1.0000     -18.829425      -512.3747
   7   1.0000     -18.486548      -503.0445
   8   1.0000     -18.468614      -502.5565
   9   1.0000     -18.468174      -502.5446
  10   1.0000      -9.950289      -270.7611
  11   1.0000      -9.946421      -270.6559
  12   1.0000      -9.937022      -270.4001
  13   1.0000      -9.935528      -270.3595
  14   1.0000      -9.935018      -270.3456
  15   1.0000      -9.932860      -270.2869
  16   1.0000      -7.619178      -207.3284
  17   1.0000      -7.617706      -207.2883
  18   1.0000      -7.617149      -207.2732
  19   1.0000      -7.612699      -207.1521
  20   1.0000      -5.584907      -151.9731
  21   1.0000      -5.582898      -151.9184
  22   1.0000      -5.582279      -151.9015
  23   1.0000      -5.578359      -151.7949
  24   1.0000      -5.577968      -151.7842
  25   1.0000      -5.576978      -151.7573
  26   1.0000      -5.576203      -151.7362
  27   1.0000      -5.575821      -151.7258
  28   1.0000      -5.574900      -151.7007
  29   1.0000      -5.574581      -151.6921
  30   1.0000      -5.572301      -151.6300
  31   1.0000      -5.569290      -151.5481
  32   1.0000      -2.331668       -63.4479
  33   1.0000      -1.399975       -38.0953
  34   1.0000      -1.343204       -36.5504
  35   1.0000      -1.341396       -36.5012
  36   1.0000      -0.595483       -16.2039
  37   1.0000      -0.556422       -15.1410
  38   1.0000      -0.551830       -15.0161
  39   1.0000      -0.474328       -12.9071
  40   1.0000      -0.467004       -12.7078
  41   1.0000      -0.404801       -11.0152
  42   1.0000      -0.395506       -10.7623
  43   1.0000      -0.341050        -9.2804
  44   1.0000      -0.333086        -9.0637
  45   1.0000      -0.298240        -8.1155
  46   1.0000      -0.286491        -7.7958
  47   1.0000      -0.215312        -5.8589
  48   1.0000      -0.212553        -5.7839
  49   1.0000      -0.203720        -5.5435
  50   1.0000      -0.197636        -5.3779
  51   1.0000      -0.163151        -4.4396
  52   1.0000      -0.134827        -3.6688
  53   1.0000      -0.131461        -3.5772
  54   1.0000      -0.122840        -3.3427
  55   1.0000      -0.108846        -2.9619
  56   1.0000      -0.087702        -2.3865
  57   1.0000      -0.066961        -1.8221
  58   1.0000      -0.063052        -1.7157
  59   1.0000      -0.057175        -1.5558
  60   1.0000      -0.048227        -1.3123
  61   1.0000      -0.043484        -1.1833
  62   1.0000      -0.036970        -1.0060
  63   1.0000      -0.035240        -0.9589
  64   1.0000       0.002205         0.0600
  65   1.0000       0.026595         0.7237
  66   1.0000       0.030096         0.8190
  67   1.0000       0.042641         1.1603
  68   1.0000       0.045370         1.2346
  69   1.0000       0.059363         1.6154
  70   1.0000       0.067595         1.8394
  71   1.0000       0.070653         1.9226
  72   0.0000       0.232469         6.3258
  73   0.0000       0.248654         6.7662
  74   0.0000       0.252731         6.8772
  75   0.0000       0.259664         7.0658
  76   0.0000       0.263483         7.1697

MULLIKEN ATOMIC CHARGES AND SPIN POPULATIONS
--------------------------------------------
   0 V :    0.527033    1.194877
   1 S :   -0.426891   -0.001808
   2 S :   -0.337981   -0.032490
   3 S :   -0.411122   -0.029382
   4 S :   -0.371706   -0.021476
   5 O :   -0.537873   -0.137355
   6 C :   -0.296015    0.005583
   7 C :   -0.224859    0.006015
   8 C :   -0.115966    0.002322
   9 H :    0.070119   -0.000809
  10 H :    0.070122    0.002272
  11 H :    0.102968    0.000842
  12 H :   -0.005944   -0.000010
  13 H :    0.074607   -0.000126
  14 H :    0.059381    0.000377
  15 C :   -0.258344   -0.002213
  16 C :   -0.249625    0.003576
  17 C :   -0.071489    0.008493
  18 H :    0.047612   -0.000092
  19 H :    0.131846   -0.000186
  20 H :    0.016021    0.001610
  21 H :    0.013966    0.000108
  22 H :    0.053607   -0.000580
  23 H :    0.140534    0.000453
Sum of atomic charges         :   -2.0000000

LOEWDIN ATOMIC CHARGES AND SPIN POPULATIONS
-------------------------------------------
   0 V :   -0.208167    1.150991
   1 S :   -0.071633    0.003563
   2 S :   -0.033170   -0.022047
   3 S :   -0.060268   -0.020466
   4 S :   -0.045964   -0.012374
   5 O :   -0.371098   -0.123902
   6 C :   -0.357723    0.005178
   7 C :   -0.327313    0.006860
   8 C :   -0.230640    0.000327
   9 H :    0.044269   -0.000009
  10 H :    0.042468    0.000663
  11 H :    0.106781    0.000165
  12 H :    0.041528    0.000234
  13 H :    0.035051   -0.000024
  14 H :    0.025490   -0.000438
  15 C :   -0.317734    0.002719
  16 C :   -0.324335    0.007445
  17 C :   -0.188831    0.001165
  18 H :    0.028621   -0.000194
  19 H :    0.054540   -0.000612
  20 H :    0.036252    0.000615
  21 H :    0.035476    0.000410
  22 H :    0.030534   -0.000605
  23 H :    0.055867    0.000335

  Mayer bond orders larger than 0.100000
B(  0-V ,  1-S ) :   0.7117 B(  0-V ,  2-S ) :   0.8498 B(  0-V ,  3-S ) :   0.7717
B(  0-V ,  4-S ) :   0.7605 B(  0-V ,  5-O ) :   2.0849 B(  1-S , 15-C ) :   1.0250
B(  2-S ,  6-C ) :   1.0349 B(  3-S , 16-C ) :   1.0228 B(  4-S ,  7-C ) :   1.0585
B(  6-C ,  8-C ) :   0.8095 B(  6-C , 13-H ) :   0.9506 B(  6-C , 14-H ) :   0.9658
B(  7-C ,  8-C ) :   1.0182 B(  7-C ,  9-H ) :   0.9677 B(  7-C , 10-H ) :   0.9646
B(  8-C , 11-H ) :   0.9394 B(  8-C , 12-H ) :   0.9317 B( 15-C , 17-C ) :   0.8928
B( 15-C , 22-H ) :   0.9688 B( 15-C , 23-H ) :   0.9797 B( 16-C , 17-C ) :   0.9051
B( 16-C , 18-H ) :   0.9634 B( 16-C , 19-H ) :   0.9757 B( 17-C , 20-H ) :   0.9588
B( 17-C , 21-H ) :   0.9598

FINAL SINGLE POINT ENERGY     -2847.642430713937

DIPOLE MOMENT
-------------
                                X             Y             Z
Electronic contribution:     -0.74690      -6.40857      -0.27520
Nuclear contribution   :      0.87919       6.87603       0.33907
                        -----------------------------------------
Total Dipole Moment    :      0.13229       0.46745       0.06387
                        -----------------------------------------
Magnitude (a.u.)       :      0.48999
Magnitude (Debye)      :      1.24546

Rotational constants in cm-1:     0.027175     0.011726     0.009596
Rotational constants in MHz :   814.673080   351.541935   287.673361

                             ****ORCA TERMINATED NORMALLY****
TOTAL RUN TIME: 0 days 0 hours 14 minutes 20 seconds 667 msec
