                         Program Version 5.0.4 -  RELEASE  -
|  1> ! nofrozencore ReducedPop printbasis
|  2> ! B3LYP TZVP
|  3>
|  4> %basis
|  5> newgto V "CP(PPP)" end
|  6> end
|  7>
|  8> %pal
|  9> nprocs 4
| 10> end
| 11>
| 12> % sym SymThresh 1e-2 end
| 13> * xyz -2 2
| 14> V -0.4117926997559723 -0.2638441616960323 0.07302602063378237
| 15> S 0.648596575423558 -1.5677673455324304 -1.819949607329288
| 16> S 1.565705460525884 -1.0719776942512516 1.2709583219316043
| 17> S -0.9218121340227153 1.5615865076327402 -1.5319485713162402
| 18> S -0.6042179406968723 1.6267703933247977 1.6740362524915384
| 19> O -1.677102060944994 -1.1768018854921793 0.3935983375474368
| 20> C 1.589902197359829 -0.4419866640825037 2.956735834749802
| 21> C -0.6133803312734011 0.8072228988817678 3.4221848594938367
| 22> C -0.07866476194126407 -0.3543240765971645 3.625356239000285
| 23> H -1.7175705820324156 0.7508610915809176 3.5267680300879927
| 24> H -0.2145723155820352 1.429598268184122 4.261826448006502
| 25> H -0.6429568618416899 -1.212842866800686 3.251719904024081
| 26> H -0.16284777272988502 -0.3528014472954932 4.753308632141314
| 27> H 2.1153471108142172 0.5258228182477014 2.898609979077383
| 28> H 2.1663592102650395 -1.1269277997997402 3.5986575105746517
| 29> C 1.4104130911751283 -0.21480726815947915 -2.8368119239917338
| 30> C -0.9433901480801161 0.7692390788374525 -3.1959265545743825
| 31> C 0.4640090496804954 0.46669764756887927 -3.7929679026958927
| 32> H -1.4985746505001751 1.4316748581262666 -3.871183763913619
| 33> H -1.4883263118408157 -0.1722127164471277 -3.1220289225878766
| 34> H 0.9454692084608318 1.3970655418173357 -4.1345652881965815
| 35> H 0.3405663660789656 -0.17496068218668448 -4.680415860294845
| 36> H 2.2451367525791164 -0.6409912874142422 -3.40588346475368
| 37> H 1.8287654712643902 0.5205780551764358 -2.1492842303329387
| 38> *
| 39>
| 40> % eprnmr
| 41> gtensor true
| 42> Nuclei = all H {aiso,adip,aorb,fgrad,rho}
| 43> Nuclei = all V {aiso,adip,aorb,fgrad,rho}
| 44> end
| 45>
| 46>                          ****END OF INPUT****

CARTESIAN COORDINATES (ANGSTROEM)
---------------------------------
  V     -0.412409   -0.264239    0.072841
  S      0.647980   -1.568162   -1.820134
  S      1.565089   -1.072373    1.270774
  S     -0.922429    1.561192   -1.532133
  S     -0.604835    1.626375    1.673852
  O     -1.677719   -1.177197    0.393414
  C      1.589286   -0.442382    2.956551
  C     -0.613997    0.806828    3.422000
  C     -0.079281   -0.354719    3.625172
  H     -1.718187    0.750466    3.526583
  H     -0.215189    1.429203    4.261642
  H     -0.643573   -1.213238    3.251535
  H     -0.163464   -0.353196    4.753124
  H      2.114731    0.525428    2.898425
  H      2.165743   -1.127323    3.598473
  C      1.409796   -0.215202   -2.836996
  C     -0.944007    0.768844   -3.196111
  C      0.463392    0.466303   -3.793152
  H     -1.499191    1.431280   -3.871368
  H     -1.488943   -0.172608   -3.122213
  H      0.944853    1.396671   -4.134750
  H      0.339950   -0.175356   -4.680600
  H      2.244520   -0.641386   -3.406068
  H      1.828149    0.520183   -2.149469

 Total Charge           Charge          ....   -2
 Multiplicity           Mult            ....    2
 Number of Electrons    NEL             ....  145
 Basis Dimension        Dim             ....  353

ORBITAL ENERGIES
----------------
                 SPIN UP ORBITALS
  NO   OCC          E(Eh)            E(eV)
   0   1.0000    -196.606156     -5349.9255
   1   1.0000     -88.560997     -2409.8673
   2   1.0000     -88.560545     -2409.8549
   3   1.0000     -88.558302     -2409.7939
   4   1.0000     -88.556709     -2409.7506
   5   1.0000     -21.981471      -598.1462
   6   1.0000     -18.825674      -512.2726
   7   1.0000     -18.489227      -503.1174
   8   1.0000     -18.482094      -502.9233
   9   1.0000     -18.482013      -502.9211
  10   1.0000      -9.948775      -270.7199
  11   1.0000      -9.935395      -270.3559
  12   1.0000      -9.932638      -270.2808
  13   1.0000      -9.932193      -270.2687
  14   1.0000      -9.931436      -270.2481
  15   1.0000      -9.929715      -270.2013
  16   1.0000      -7.615283      -207.2224
  17   1.0000      -7.615254      -207.2216
  18   1.0000      -7.611716      -207.1253
  19   1.0000      -7.610970      -207.1050
  20   1.0000      -5.580464      -151.8521
  21   1.0000      -5.580450      -151.8518
  22   1.0000      -5.577225      -151.7640
  23   1.0000      -5.576230      -151.7369
  24   1.0000      -5.574271      -151.6836
  25   1.0000      -5.574197      -151.6816
  26   1.0000      -5.572495      -151.6353
  27   1.0000      -5.572359      -151.6316
  28   1.0000      -5.570901      -151.5919
  29   1.0000      -5.570200      -151.5729
  30   1.0000      -5.568598      -151.5293
  31   1.0000      -5.568026      -151.5137
  32   1.0000      -2.374616       -64.6166
  33   1.0000      -1.418173       -38.5905
  34   1.0000      -1.402672       -38.1686
  35   1.0000      -1.402101       -38.1531
  36   1.0000      -0.589005       -16.0277
  37   1.0000      -0.581488       -15.8231
  38   1.0000      -0.550770       -14.9872
  39   1.0000      -0.474631       -12.9154
  40   1.0000      -0.465736       -12.6733
  41   1.0000      -0.401990       -10.9387
  42   1.0000      -0.391317       -10.6483
  43   1.0000      -0.336189        -9.1482
  44   1.0000      -0.320690        -8.7264
  45   1.0000      -0.298621        -8.1259
  46   1.0000      -0.285285        -7.7630
  47   1.0000      -0.225959        -6.1487
  48   1.0000      -0.213871        -5.8197
  49   1.0000      -0.206206        -5.6112
  50   1.0000      -0.202274        -5.5042
  51   1.0000      -0.159270        -4.3340
  52   1.0000      -0.138536        -3.7698
  53   1.0000      -0.133688        -3.6378
  54   1.0000      -0.130053        -3.5389
  55   1.0000      -0.107246        -2.9183
  56   1.0000      -0.084012        -2.2861
  57   1.0000      -0.072229        -1.9654
  58   1.0000      -0.068415        -1.8617
  59   1.0000      -0.065547        -1.7836
  60   1.0000      -0.057183        -1.5560
  61   1.0000      -0.047630        -1.2961
  62   1.0000      -0.039715        -1.0807
  63   1.0000      -0.027364        -0.7446
  64   1.0000       0.002335         0.0635
  65   1.0000       0.028044         0.7631
  66   1.0000       0.029640         0.8065
  67   1.0000       0.040472         1.1013
  68   1.0000       0.045427         1.2361
  69   1.0000       0.053901         1.4667
  70   1.0000       0.065662         1.7867
  71   1.0000       0.074217         2.0196
  72   1.0000       0.081500         2.2177
  73   0.0000       0.235999         6.4218
  74   0.0000       0.244698         6.6586
  75   0.0000       0.248112         6.7515
  76   0.0000       0.249778         6.7968
  77   0.0000       0.259063         7.0495

                 SPIN DOWN ORBITALS
  NO   OCC          E(Eh)            E(eV)
   0   1.0000    -196.606299     -5349.9294
   1   1.0000     -88.561154     -2409.8715
   2   1.0000     -88.560706     -2409.8593
   3   1.0000     -88.558424     -2409.7972
   4   1.0000     -88.556686     -2409.7499
   5   1.0000     -21.966501      -597.7389
   6   1.0000     -18.829056      -512.3647
   7   1.0000     -18.484096      -502.9778
   8   1.0000     -18.466032      -502.4863
   9   1.0000     -18.465682      -502.4768
  10   1.0000      -9.948638      -270.7162
  11   1.0000      -9.935219      -270.3510
  12   1.0000      -9.932427      -270.2751
  13   1.0000      -9.932134      -270.2671
  14   1.0000      -9.931394      -270.2470
  15   1.0000      -9.929738      -270.2019
  16   1.0000      -7.615432      -207.2264
  17   1.0000      -7.615412      -207.2259
  18   1.0000      -7.611831      -207.1285
  19   1.0000      -7.610950      -207.1045
  20   1.0000      -5.580614      -151.8562
  21   1.0000      -5.580597      -151.8558
  22   1.0000      -5.577383      -151.7683
  23   1.0000      -5.576249      -151.7375
  24   1.0000      -5.574692      -151.6951
  25   1.0000      -5.574612      -151.6929
  26   1.0000      -5.572606      -151.6383
  27   1.0000      -5.572485      -151.6350
  28   1.0000      -5.571306      -151.6030
  29   1.0000      -5.570536      -151.5820
  30   1.0000      -5.568569      -151.5285
  31   1.0000      -5.567574      -151.5014
  32   1.0000      -2.329935       -63.4008
  33   1.0000      -1.399483       -38.0819
  34   1.0000      -1.341105       -36.4933
  35   1.0000      -1.339568       -36.4515
  36   1.0000      -0.596039       -16.2190
  37   1.0000      -0.581445       -15.8219
  38   1.0000      -0.550614       -14.9830
  39   1.0000      -0.474695       -12.9171
  40   1.0000      -0.465619       -12.6701
  41   1.0000      -0.401952       -10.9377
  42   1.0000      -0.391446       -10.6518
  43   1.0000      -0.336329        -9.1520
  44   1.0000      -0.321060        -8.7365
  45   1.0000      -0.298543        -8.1238
  46   1.0000      -0.285289        -7.7631
  47   1.0000      -0.225897        -6.1470
  48   1.0000      -0.213818        -5.8183
  49   1.0000      -0.206012        -5.6059
  50   1.0000      -0.202182        -5.5016
  51   1.0000      -0.159146        -4.3306
  52   1.0000      -0.138321        -3.7639
  53   1.0000      -0.133558        -3.6343
  54   1.0000      -0.129817        -3.5325
  55   1.0000      -0.107181        -2.9165
  56   1.0000      -0.082851        -2.2545
  57   1.0000      -0.071522        -1.9462
  58   1.0000      -0.066419        -1.8074
  59   1.0000      -0.064582        -1.7574
  60   1.0000      -0.057718        -1.5706
  61   1.0000      -0.049146        -1.3373
  62   1.0000      -0.041138        -1.1194
  63   1.0000      -0.026680        -0.7260
  64   1.0000       0.007826         0.2129
  65   1.0000       0.029417         0.8005
  66   1.0000       0.033011         0.8983
  67   1.0000       0.045054         1.2260
  68   1.0000       0.048497         1.3197
  69   1.0000       0.062078         1.6892
  70   1.0000       0.069104         1.8804
  71   1.0000       0.076419         2.0795
  72   0.0000       0.232300         6.3212
  73   0.0000       0.247881         6.7452
  74   0.0000       0.252502         6.8709
  75   0.0000       0.260685         7.0936
  76   0.0000       0.265249         7.2178

MULLIKEN ATOMIC CHARGES AND SPIN POPULATIONS
--------------------------------------------
   0 V :    0.530149    1.186847
   1 S :   -0.431602   -0.001985
   2 S :   -0.342595   -0.029680
   3 S :   -0.408337   -0.028866
   4 S :   -0.407064   -0.025120
   5 O :   -0.545696   -0.130472
   6 C :   -0.255563    0.005203
   7 C :   -0.206581    0.009668
   8 C :   -0.133837    0.002683
   9 H :    0.077745   -0.000614
  10 H :    0.030232    0.001670
  11 H :    0.132586    0.000234
  12 H :   -0.014464   -0.000142
  13 H :    0.102122   -0.000110
  14 H :    0.052498   -0.000524
  15 C :   -0.258824   -0.002276
  16 C :   -0.250688    0.003728
  17 C :   -0.067896    0.008283
  18 H :    0.047845   -0.000059
  19 H :    0.130378   -0.000230
  20 H :    0.014707    0.001805
  21 H :    0.012771    0.000063
  22 H :    0.051630   -0.000571
  23 H :    0.140483    0.000465
Sum of atomic charges         :   -2.0000000

LOEWDIN ATOMIC CHARGES AND SPIN POPULATIONS
-------------------------------------------
   0 V :   -0.213269    1.143528
   1 S :   -0.076715    0.003447
   2 S :   -0.018926   -0.020049
   3 S :   -0.057761   -0.020055
   4 S :   -0.097163   -0.015579
   5 O :   -0.370902   -0.117269
   6 C :   -0.337482    0.005313
   7 C :   -0.308918    0.009173
   8 C :   -0.178097    0.000134
   9 H :    0.049944   -0.000243
  10 H :    0.031414    0.000754
  11 H :    0.064380    0.000183
  12 H :    0.037167    0.000185
  13 H :    0.045283   -0.000069
  14 H :    0.023184   -0.000764
  15 C :   -0.317247    0.002859
  16 C :   -0.325821    0.007360
  17 C :   -0.188772    0.001101
  18 H :    0.027632   -0.000220
  19 H :    0.053908   -0.000604
  20 H :    0.036600    0.000674
  21 H :    0.034451    0.000382
  22 H :    0.030919   -0.000583
  23 H :    0.056193    0.000343

  Mayer bond orders larger than 0.100000
B(  0-V ,  1-S ) :   0.7115 B(  0-V ,  2-S ) :   0.8419 B(  0-V ,  3-S ) :   0.7678
B(  0-V ,  4-S ) :   0.7828 B(  0-V ,  5-O ) :   2.0722 B(  1-S , 15-C ) :   1.0260
B(  2-S ,  6-C ) :   1.0074 B(  3-S , 16-C ) :   1.0241 B(  4-S ,  7-C ) :   1.0110
B(  6-C ,  8-C ) :   0.8384 B(  6-C , 13-H ) :   0.9704 B(  6-C , 14-H ) :   0.9522
B(  7-C ,  8-C ) :   0.9363 B(  7-C ,  9-H ) :   0.9837 B(  7-C , 10-H ) :   0.9734
B(  8-C , 11-H ) :   0.9815 B(  8-C , 12-H ) :   0.9360 B( 15-C , 17-C ) :   0.8962
B( 15-C , 22-H ) :   0.9693 B( 15-C , 23-H ) :   0.9821 B( 16-C , 17-C ) :   0.9012
B( 16-C , 18-H ) :   0.9628 B( 16-C , 19-H ) :   0.9741 B( 17-C , 20-H ) :   0.9569
B( 17-C , 21-H ) :   0.9608

FINAL SINGLE POINT ENERGY     -2847.637823998801

DIPOLE MOMENT
-------------
                                X             Y             Z
Electronic contribution:     -5.21204      -3.27712      -0.32857
Nuclear contribution   :      5.52983       3.41207       0.54894
                        -----------------------------------------
Total Dipole Moment    :      0.31779       0.13495       0.22037
                        -----------------------------------------
Magnitude (a.u.)       :      0.40959
Magnitude (Debye)      :      1.04109

Rotational constants in cm-1:     0.027190     0.011691     0.009608
Rotational constants in MHz :   815.134808   350.487132   288.040206

                             ****ORCA TERMINATED NORMALLY****
TOTAL RUN TIME: 0 days 0 hours 14 minutes 31 seconds 22 msec
