                         Program Version 5.0.4 -  RELEASE  -
|  1> ! nofrozencore ReducedPop printbasis
|  2> ! B3LYP TZVP
|  3>
|  4> %basis
|  5> newgto V "CP(PPP)" end
|  6> end
|  7>
|  8> %pal
|  9> nprocs 4
| 10> end
| 11>
| 12> % sym SymThresh 1e-2 end
| 13> * xyz -2 2
| 14> V 0.18381830168142185 0.19612657636765995 0.4120230416533258
| 15> S -0.2939977907203984 -2.1626084221417687 1.1949023399353664
| 16> S 1.8113698851996904 -0.9768797976528889 -0.9879765256924433
| 17> S -2.261480619753242 0.6255521731374344 0.35965459395442895
| 18> S 0.15764586317941498 2.089034539132589 -1.2077867374692055
| 19> O 0.8923543070403552 0.8066125736208517 1.7130910847997178
| 20> C 2.7022926633798785 0.27133720180724685 -1.982114746183151
| 21> C 1.9666285817434472 2.6705812181533917 -1.4439140310579792
| 22> C 2.9959098917965665 1.5647844853291666 -1.263813337098727
| 23> H 1.8876959532080624 3.4835537397920664 -0.674394818699412
| 24> H 1.6186121237953588 3.1517123764640944 -2.446617406243716
| 25> H 3.2538817186555695 1.1698291869787254 -0.25520544735715706
| 26> H 3.802732428274225 2.385192354505951 -1.5449370530772337
| 27> H 2.1915441880403805 0.6230507875773651 -2.899190525318171
| 28> H 3.686633787971582 -0.1043630605279779 -2.305610319990249
| 29> C -1.8466419563673984 -2.5623570304883048 0.27913952539857895
| 30> C -3.0089876542645704 -0.6172214756236701 1.5061385781771002
| 31> C -3.1278768504518983 -2.037035758466432 0.9470963649493114
| 32> H -4.006111189172521 -0.25572924533440794 1.7868461684737782
| 33> H -2.4018838934947255 -0.6522775476901524 2.410894859486813
| 34> H -3.9557126778017246 -2.0704448892040013 0.22143516220495327
| 35> H -3.3865432576129813 -2.7276068319952627 1.7667742553676236
| 36> H -1.9175465719255862 -3.6505257574512866 0.16395252194199192
| 37> H -1.7910860473223602 -2.1330364196954883 -0.7223923778659462
| 38> *
| 39>
| 40> % eprnmr
| 41> gtensor true
| 42> Nuclei = all H {aiso,adip,aorb,fgrad,rho}
| 43> Nuclei = all V {aiso,adip,aorb,fgrad,rho}
| 44> end
| 45>
| 46>                          ****END OF INPUT****

CARTESIAN COORDINATES (ANGSTROEM)
---------------------------------
  V      0.183872    0.196271    0.412762
  S     -0.293944   -2.162464    1.195641
  S      1.811424   -0.976736   -0.987237
  S     -2.261427    0.625696    0.360394
  S      0.157700    2.089179   -1.207048
  O      0.892408    0.806757    1.713830
  C      2.702347    0.271481   -1.981376
  C      1.966682    2.670725   -1.443175
  C      2.995964    1.564929   -1.263074
  H      1.887750    3.483698   -0.673656
  H      1.618666    3.151857   -2.445878
  H      3.253936    1.169973   -0.254466
  H      3.802786    2.385337   -1.544198
  H      2.191598    0.623195   -2.898451
  H      3.686688   -0.104219   -2.304871
  C     -1.846588   -2.562213    0.279879
  C     -3.008934   -0.617077    1.506878
  C     -3.127823   -2.036892    0.947835
  H     -4.006057   -0.255585    1.787585
  H     -2.401830   -0.652133    2.411634
  H     -3.955659   -2.070301    0.222174
  H     -3.386489   -2.727463    1.767513
  H     -1.917493   -3.650382    0.164692
  H     -1.791032   -2.132892   -0.721653

 Total Charge           Charge          ....   -2
 Multiplicity           Mult            ....    2
 Number of Electrons    NEL             ....  145
 Basis Dimension        Dim             ....  353

ORBITAL ENERGIES
----------------
                 SPIN UP ORBITALS
  NO   OCC          E(Eh)            E(eV)
   0   1.0000    -196.606971     -5349.9477
   1   1.0000     -88.568222     -2410.0639
   2   1.0000     -88.560803     -2409.8620
   3   1.0000     -88.558415     -2409.7970
   4   1.0000     -88.551632     -2409.6124
   5   1.0000     -21.982285      -598.1684
   6   1.0000     -18.824910      -512.2518
   7   1.0000     -18.490092      -503.1410
   8   1.0000     -18.482884      -502.9448
   9   1.0000     -18.482805      -502.9427
  10   1.0000      -9.955807      -270.9113
  11   1.0000      -9.944543      -270.6048
  12   1.0000      -9.940223      -270.4872
  13   1.0000      -9.934258      -270.3249
  14   1.0000      -9.933142      -270.2945
  15   1.0000      -9.931164      -270.2407
  16   1.0000      -7.622179      -207.4100
  17   1.0000      -7.614931      -207.2128
  18   1.0000      -7.612779      -207.1542
  19   1.0000      -7.606120      -206.9730
  20   1.0000      -5.587865      -152.0535
  21   1.0000      -5.580808      -151.8615
  22   1.0000      -5.580157      -151.8438
  23   1.0000      -5.579241      -151.8189
  24   1.0000      -5.578025      -151.7858
  25   1.0000      -5.573911      -151.6738
  26   1.0000      -5.572143      -151.6257
  27   1.0000      -5.571968      -151.6210
  28   1.0000      -5.571212      -151.6004
  29   1.0000      -5.569871      -151.5639
  30   1.0000      -5.565392      -151.4420
  31   1.0000      -5.563123      -151.3803
  32   1.0000      -2.374944       -64.6255
  33   1.0000      -1.417688       -38.5772
  34   1.0000      -1.403203       -38.1831
  35   1.0000      -1.402360       -38.1602
  36   1.0000      -0.587338       -15.9823
  37   1.0000      -0.558414       -15.1952
  38   1.0000      -0.550479       -14.9793
  39   1.0000      -0.473784       -12.8923
  40   1.0000      -0.465703       -12.6724
  41   1.0000      -0.404449       -11.0056
  42   1.0000      -0.397471       -10.8157
  43   1.0000      -0.338676        -9.2159
  44   1.0000      -0.331190        -9.0121
  45   1.0000      -0.296419        -8.0660
  46   1.0000      -0.284548        -7.7430
  47   1.0000      -0.218180        -5.9370
  48   1.0000      -0.214514        -5.8372
  49   1.0000      -0.202442        -5.5087
  50   1.0000      -0.194793        -5.3006
  51   1.0000      -0.170184        -4.6309
  52   1.0000      -0.133404        -3.6301
  53   1.0000      -0.127862        -3.4793
  54   1.0000      -0.114785        -3.1234
  55   1.0000      -0.108300        -2.9470
  56   1.0000      -0.101594        -2.7645
  57   1.0000      -0.078649        -2.1401
  58   1.0000      -0.066014        -1.7963
  59   1.0000      -0.063341        -1.7236
  60   1.0000      -0.057923        -1.5762
  61   1.0000      -0.044787        -1.2187
  62   1.0000      -0.037937        -1.0323
  63   1.0000      -0.015877        -0.4320
  64   1.0000      -0.000379        -0.0103
  65   1.0000       0.025047         0.6816
  66   1.0000       0.031516         0.8576
  67   1.0000       0.036915         1.0045
  68   1.0000       0.046414         1.2630
  69   1.0000       0.051354         1.3974
  70   1.0000       0.061949         1.6857
  71   1.0000       0.073439         1.9984
  72   1.0000       0.083624         2.2755
  73   0.0000       0.234581         6.3833
  74   0.0000       0.245935         6.6922
  75   0.0000       0.249342         6.7849
  76   0.0000       0.251424         6.8416
  77   0.0000       0.258580         7.0363

                 SPIN DOWN ORBITALS
  NO   OCC          E(Eh)            E(eV)
   0   1.0000    -196.607113     -5349.9515
   1   1.0000     -88.568385     -2410.0683
   2   1.0000     -88.560967     -2409.8664
   3   1.0000     -88.558387     -2409.7962
   4   1.0000     -88.551751     -2409.6156
   5   1.0000     -21.967240      -597.7590
   6   1.0000     -18.828401      -512.3468
   7   1.0000     -18.484892      -502.9995
   8   1.0000     -18.466852      -502.5086
   9   1.0000     -18.466326      -502.4943
  10   1.0000      -9.955612      -270.9060
  11   1.0000      -9.944559      -270.6052
  12   1.0000      -9.940096      -270.4838
  13   1.0000      -9.934202      -270.3234
  14   1.0000      -9.932976      -270.2900
  15   1.0000      -9.931121      -270.2395
  16   1.0000      -7.622338      -207.4144
  17   1.0000      -7.615087      -207.2171
  18   1.0000      -7.612753      -207.1535
  19   1.0000      -7.606234      -206.9761
  20   1.0000      -5.588013      -152.0576
  21   1.0000      -5.581233      -151.8731
  22   1.0000      -5.580311      -151.8480
  23   1.0000      -5.579361      -151.8221
  24   1.0000      -5.578039      -151.7862
  25   1.0000      -5.574341      -151.6855
  26   1.0000      -5.572295      -151.6299
  27   1.0000      -5.572265      -151.6291
  28   1.0000      -5.571369      -151.6047
  29   1.0000      -5.569407      -151.5513
  30   1.0000      -5.565823      -151.4538
  31   1.0000      -5.563053      -151.3784
  32   1.0000      -2.330041       -63.4036
  33   1.0000      -1.398714       -38.0609
  34   1.0000      -1.341556       -36.5056
  35   1.0000      -1.339506       -36.4498
  36   1.0000      -0.594811       -16.1856
  37   1.0000      -0.558312       -15.1925
  38   1.0000      -0.550329       -14.9752
  39   1.0000      -0.473688       -12.8897
  40   1.0000      -0.465584       -12.6692
  41   1.0000      -0.404522       -11.0076
  42   1.0000      -0.397590       -10.8190
  43   1.0000      -0.338860        -9.2208
  44   1.0000      -0.331495        -9.0204
  45   1.0000      -0.296401        -8.0655
  46   1.0000      -0.284599        -7.7443
  47   1.0000      -0.218123        -5.9354
  48   1.0000      -0.214457        -5.8357
  49   1.0000      -0.202325        -5.5055
  50   1.0000      -0.194638        -5.2964
  51   1.0000      -0.170081        -4.6281
  52   1.0000      -0.133224        -3.6252
  53   1.0000      -0.127568        -3.4713
  54   1.0000      -0.114653        -3.1199
  55   1.0000      -0.108235        -2.9452
  56   1.0000      -0.100748        -2.7415
  57   1.0000      -0.078166        -2.1270
  58   1.0000      -0.064100        -1.7443
  59   1.0000      -0.062539        -1.7018
  60   1.0000      -0.057769        -1.5720
  61   1.0000      -0.046490        -1.2651
  62   1.0000      -0.040042        -1.0896
  63   1.0000      -0.014976        -0.4075
  64   1.0000       0.004485         0.1220
  65   1.0000       0.026464         0.7201
  66   1.0000       0.033787         0.9194
  67   1.0000       0.044990         1.2242
  68   1.0000       0.047353         1.2885
  69   1.0000       0.057808         1.5730
  70   1.0000       0.066854         1.8192
  71   1.0000       0.078423         2.1340
  72   0.0000       0.233297         6.3483
  73   0.0000       0.250728         6.8227
  74   0.0000       0.255018         6.9394
  75   0.0000       0.261074         7.1042
  76   0.0000       0.264274         7.1913

MULLIKEN ATOMIC CHARGES AND SPIN POPULATIONS
--------------------------------------------
   0 V :    0.541530    1.191448
   1 S :   -0.429936   -0.001151
   2 S :   -0.323803   -0.030469
   3 S :   -0.401511   -0.029578
   4 S :   -0.468196   -0.024605
   5 O :   -0.547255   -0.134529
   6 C :   -0.234929    0.004172
   7 C :   -0.239192    0.007213
   8 C :   -0.129025    0.005295
   9 H :    0.099150   -0.000448
  10 H :    0.072195    0.002182
  11 H :    0.129766    0.000534
  12 H :   -0.020443   -0.000222
  13 H :    0.088259   -0.000103
  14 H :    0.047914   -0.000220
  15 C :   -0.257162   -0.002213
  16 C :   -0.252789    0.002998
  17 C :   -0.071090    0.008368
  18 H :    0.047051   -0.000044
  19 H :    0.130365   -0.000184
  20 H :    0.016069    0.001606
  21 H :    0.011688    0.000050
  22 H :    0.052335   -0.000582
  23 H :    0.139009    0.000485
Sum of atomic charges         :   -2.0000000

LOEWDIN ATOMIC CHARGES AND SPIN POPULATIONS
-------------------------------------------
   0 V :   -0.208158    1.147901
   1 S :   -0.072437    0.004170
   2 S :   -0.012284   -0.020355
   3 S :   -0.056364   -0.020996
   4 S :   -0.113285   -0.015110
   5 O :   -0.376591   -0.121308
   6 C :   -0.337234    0.004719
   7 C :   -0.330628    0.008496
   8 C :   -0.202922    0.001066
   9 H :    0.054348    0.000182
  10 H :    0.054223    0.000671
  11 H :    0.078966    0.000301
  12 H :    0.043908    0.000122
  13 H :    0.043750   -0.000001
  14 H :    0.032380   -0.000584
  15 C :   -0.318741    0.002670
  16 C :   -0.326832    0.006946
  17 C :   -0.189522    0.001189
  18 H :    0.028007   -0.000218
  19 H :    0.053530   -0.000617
  20 H :    0.035999    0.000611
  21 H :    0.034457    0.000393
  22 H :    0.029881   -0.000591
  23 H :    0.055547    0.000346

  Mayer bond orders larger than 0.100000
B(  0-V ,  1-S ) :   0.7041 B(  0-V ,  2-S ) :   0.8251 B(  0-V ,  3-S ) :   0.7741
B(  0-V ,  4-S ) :   0.7868 B(  0-V ,  5-O ) :   2.0750 B(  1-S , 15-C ) :   1.0256
B(  2-S ,  6-C ) :   1.0226 B(  3-S , 16-C ) :   1.0242 B(  4-S ,  7-C ) :   0.9568
B(  6-C ,  8-C ) :   0.8970 B(  6-C , 13-H ) :   0.9809 B(  6-C , 14-H ) :   0.9540
B(  7-C ,  8-C ) :   0.9439 B(  7-C ,  9-H ) :   0.9733 B(  7-C , 10-H ) :   0.9736
B(  8-C , 11-H ) :   0.9601 B(  8-C , 12-H ) :   0.9360 B( 15-C , 17-C ) :   0.8913
B( 15-C , 22-H ) :   0.9690 B( 15-C , 23-H ) :   0.9802 B( 16-C , 17-C ) :   0.9024
B( 16-C , 18-H ) :   0.9640 B( 16-C , 19-H ) :   0.9760 B( 17-C , 20-H ) :   0.9592
B( 17-C , 21-H ) :   0.9596

FINAL SINGLE POINT ENERGY     -2847.660664302156

DIPOLE MOMENT
-------------
                                X             Y             Z
Electronic contribution:      1.85269       1.52464       5.67921
Nuclear contribution   :     -1.77423      -1.61401      -6.07661
                        -----------------------------------------
Total Dipole Moment    :      0.07846      -0.08937      -0.39740
                        -----------------------------------------
Magnitude (a.u.)       :      0.41481
Magnitude (Debye)      :      1.05437

Rotational constants in cm-1:     0.027181     0.011731     0.009597
Rotational constants in MHz :   814.854463   351.677947   287.706100

                             ****ORCA TERMINATED NORMALLY****
TOTAL RUN TIME: 0 days 0 hours 14 minutes 24 seconds 874 msec
