                         Program Version 5.0.4 -  RELEASE  -
|  1> ! RIJCOSX nofrozencore ReducedPop printbasis
|  2> ! M06L ano-rcc-dzp autoaux
|  3>
|  4> %maxcore 7500
|  5> %basis
|  6> PCDTrimBas overlap
|  7> PCDTrimAuxJ Coulomb
|  8> PCDTrimAuxJK Coulomb
|  9> PCDTrimAuxC Coulomb
| 10> PCDThresh -1
| 11> end
| 12>
| 13> %basis
| 14> newgto Cu "ano-rcc-tzp" end
| 15> newgto Se "ano-rcc-tzp" end
| 16> end
| 17>
| 18> %pal
| 19> nprocs 8
| 20> end
| 21>
| 22> % sym SymThresh 1e-2 end
| 23> * xyz -2 2
| 24> Cu 0.009316731842038805 -0.007486669750624854 -0.0006411769089876995
| 25> Se -1.4367920696209275 1.9115131825945588 0.42087087781840216
| 26> C -0.3981579699136557 2.9332194145074624 1.1390377581725444
| 27> Se -1.6741712531113948 -1.3016207116526788 -1.0107419825757686
| 28> C -0.8969277233704319 -2.727259107902603 -1.4049907232379972
| 29> Se 1.6450999056569144 1.2666076603015937 0.9879114659309977
| 30> C 0.9617337032847117 2.7367471472610507 1.4267191029862094
| 31> Se 1.4444795358870197 -1.850351107360189 -0.39275495700059876
| 32> C 0.49599344429923853 -2.9907459354039467 -1.136798910635452
| 33> C 1.0605141262507078 -4.204939884020319 -1.4991774916766472
| 34> C -1.514986020896978 -3.830170810112051 -2.042881674279824
| 35> C -0.9117372852441763 -5.034343170723933 -2.3904243134778134
| 36> H -2.5680455803671802 -3.73530624158417 -2.2900183921839874
| 37> C 0.4326418716085519 -5.251822091923692 -2.1159137989838572
| 38> H 2.1112985749001636 -4.309541555084267 -1.2568038717092724
| 39> H -1.5148739176230228 -5.794522024640091 -2.8784494199953174
| 40> H 0.9549028749819343 -6.168865493290928 -2.363426057715092
| 41> C -1.0364915569695963 4.113210813097526 1.4667159338308602
| 42> C 1.552651093581937 3.873812351747999 2.0717287180845974
| 43> C -0.4938491556659229 5.196273798681528 2.075574708064468
| 44> H -2.089362487732827 4.134884026134785 1.188495355168156
| 45> C 0.8552620396989465 5.0597729401604825 2.385823648633474
| 46> H 2.608224576570877 3.841527201379815 2.346171865933661
| 47> H -1.0773626978985125 6.086751774002783 2.2950654124437957
| 48> H 1.3921422496591043 5.873035886043137 2.8783425351154075
| 49> *
| 50>
| 51> % eprnmr
| 52> gtensor true
| 53> Nuclei = all H {aiso,adip,aorb,fgrad,rho}
| 54> Nuclei = all Cu {aiso,adip,aorb,fgrad,rho}
| 55> end
| 56>
| 57>                          ****END OF INPUT****

CARTESIAN COORDINATES (ANGSTROEM)
---------------------------------
  Cu     0.009225   -0.007627    0.000000
  Se    -1.380171    1.997627    0.000000
  C     -0.247654    3.162022    0.000000
  Se    -1.806134   -1.502180    0.000000
  C     -1.081485   -3.007792    0.000000
  Se     1.774075    1.462626    0.000000
  C      1.149105    3.021556    0.000000
  Se     1.391560   -1.930839    0.000000
  C      0.345708   -3.219219    0.000000
  C      0.862004   -4.506738    0.000000
  C     -1.783170   -4.237813    0.000000
  C     -1.226220   -5.512385    0.000000
  H     -2.867992   -4.191203    0.000000
  C      0.153302   -5.676478    0.000000
  H      1.943924   -4.564038    0.000000
  H     -1.893235   -6.369652    0.000000
  H      0.642517   -6.643771    0.000000
  C     -0.842281    4.408473    0.000000
  C      1.824609    4.287191    0.000000
  C     -0.219780    5.612919    0.000000
  H     -1.931013    4.375661    0.000000
  C      1.169183    5.536961    0.000000
  H      2.915543    4.308630    0.000000
  H     -0.773895    6.548104    0.000000
  H      1.770585    6.448294    0.000000

 Total Charge           Charge          ....   -2
 Multiplicity           Mult            ....    2
 Number of Electrons    NEL             ....  247
 Basis Dimension        Dim             ....  575

ORBITAL ENERGIES
----------------
                 SPIN UP ORBITALS
  NO   OCC          E(Eh)            E(eV)    Irrep
   0   1.0000    -443.558360    -12069.8366    1-A'
   1   1.0000    -443.555443    -12069.7572    2-A'
   2   1.0000    -443.546173    -12069.5050    3-A'
   3   1.0000    -443.542729    -12069.4112    4-A'
   4   1.0000    -318.188340     -8658.3449    5-A'
   5   1.0000     -56.368602     -1533.8676    6-A'
   6   1.0000     -56.366848     -1533.8199    7-A'
   7   1.0000     -56.357751     -1533.5724    8-A'
   8   1.0000     -56.354878     -1533.4942    9-A'
   9   1.0000     -51.289051     -1395.6460   10-A'
  10   1.0000     -51.288342     -1395.6267   11-A'
  11   1.0000     -51.287499     -1395.6038   12-A'
  12   1.0000     -51.287139     -1395.5940    1-A"
  13   1.0000     -51.286667     -1395.5812   13-A'
  14   1.0000     -51.286372     -1395.5731    2-A"
  15   1.0000     -51.286332     -1395.5720   14-A'
  16   1.0000     -51.285214     -1395.5416   15-A'
  17   1.0000     -51.284566     -1395.5240    3-A"
  18   1.0000     -51.282730     -1395.4740   16-A'
  19   1.0000     -51.281395     -1395.4377   17-A'
  20   1.0000     -51.280912     -1395.4246    4-A"
  21   1.0000     -38.028908     -1034.8192   18-A'
  22   1.0000     -33.530993      -912.4247   19-A'
  23   1.0000     -33.530079      -912.3998   20-A'
  24   1.0000     -33.518976      -912.0977    5-A"
  25   1.0000      -9.821002      -267.2431   21-A'
  26   1.0000      -9.820517      -267.2299   22-A'
  27   1.0000      -9.820147      -267.2198   23-A'
  28   1.0000      -9.818471      -267.1742   24-A'
  29   1.0000      -9.816072      -267.1089   25-A'
  30   1.0000      -9.816041      -267.1081   26-A'
  31   1.0000      -9.815589      -267.0958   27-A'
  32   1.0000      -9.812798      -267.0198   28-A'
  33   1.0000      -9.810763      -266.9644   29-A'
  34   1.0000      -9.808173      -266.8940   30-A'
  35   1.0000      -9.805394      -266.8183   31-A'
  36   1.0000      -9.803660      -266.7711   32-A'
  37   1.0000      -7.341687      -199.7775   33-A'
  38   1.0000      -7.340932      -199.7569   34-A'
  39   1.0000      -7.335143      -199.5994   35-A'
  40   1.0000      -7.332448      -199.5260   36-A'
  41   1.0000      -5.407753      -147.1524   37-A'
  42   1.0000      -5.407578      -147.1477   38-A'
  43   1.0000      -5.404315      -147.0589   39-A'
  44   1.0000      -5.401912      -146.9935   40-A'
  45   1.0000      -5.401764      -146.9895    6-A"
  46   1.0000      -5.401606      -146.9852   41-A'
  47   1.0000      -5.401484      -146.9819   42-A'
  48   1.0000      -5.401430      -146.9804    7-A"
  49   1.0000      -5.399366      -146.9242   43-A'
  50   1.0000      -5.398434      -146.8989    8-A"
  51   1.0000      -5.396387      -146.8431   44-A'
  52   1.0000      -5.395823      -146.8278    9-A"
  53   1.0000      -4.023109      -109.4744   45-A'
  54   1.0000      -2.543190       -69.2037   46-A'
  55   1.0000      -2.541231       -69.1504   47-A'
  56   1.0000      -2.518138       -68.5220   10-A"
  57   1.0000      -1.746189       -47.5162   48-A'
  58   1.0000      -1.745883       -47.5079   49-A'
  59   1.0000      -1.743677       -47.4479   50-A'
  60   1.0000      -1.743625       -47.4465   51-A'
  61   1.0000      -1.743416       -47.4408   52-A'
  62   1.0000      -1.743115       -47.4326   11-A"
  63   1.0000      -1.742872       -47.4260   12-A"
  64   1.0000      -1.740916       -47.3727   53-A'
  65   1.0000      -1.740375       -47.3580   54-A'
  66   1.0000      -1.739823       -47.3430   13-A"
  67   1.0000      -1.738437       -47.3053   55-A'
  68   1.0000      -1.738415       -47.3047   14-A"
  69   1.0000      -1.738046       -47.2946   56-A'
  70   1.0000      -1.738040       -47.2945   15-A"
  71   1.0000      -1.737905       -47.2908   57-A'
  72   1.0000      -1.737128       -47.2696   16-A"
  73   1.0000      -1.735688       -47.2305   58-A'
  74   1.0000      -1.735577       -47.2275   17-A"
  75   1.0000      -1.732867       -47.1537   59-A'
  76   1.0000      -1.732734       -47.1501   18-A"
  77   1.0000      -0.600455       -16.3392   60-A'
  78   1.0000      -0.592777       -16.1303   61-A'
  79   1.0000      -0.520255       -14.1568   62-A'
  80   1.0000      -0.514639       -14.0041   63-A'
  81   1.0000      -0.498312       -13.5597   64-A'
  82   1.0000      -0.493624       -13.4322   65-A'
  83   1.0000      -0.413702       -11.2574   66-A'
  84   1.0000      -0.411104       -11.1867   67-A'
  85   1.0000      -0.380117       -10.3435   68-A'
  86   1.0000      -0.375210       -10.2100   69-A'
  87   1.0000      -0.318511        -8.6671   70-A'
  88   1.0000      -0.311213        -8.4685   71-A'
  89   1.0000      -0.288372        -7.8470   72-A'
  90   1.0000      -0.284425        -7.7396   73-A'
  91   1.0000      -0.230004        -6.2587   74-A'
  92   1.0000      -0.222933        -6.0663   75-A'
  93   1.0000      -0.197447        -5.3728   76-A'
  94   1.0000      -0.192723        -5.2443   77-A'
  95   1.0000      -0.172861        -4.7038   78-A'
  96   1.0000      -0.166688        -4.5358   79-A'
  97   1.0000      -0.143832        -3.9139   80-A'
  98   1.0000      -0.139135        -3.7861   81-A'
  99   1.0000      -0.130385        -3.5480   82-A'
 100   1.0000      -0.128593        -3.4992   19-A"
 101   1.0000      -0.122515        -3.3338   20-A"
 102   1.0000      -0.107217        -2.9175   83-A'
 103   1.0000      -0.085083        -2.3152   84-A'
 104   1.0000      -0.076140        -2.0719   85-A'
 105   1.0000      -0.064623        -1.7585   86-A'
 106   1.0000      -0.060428        -1.6443   87-A'
 107   1.0000      -0.048403        -1.3171   21-A"
 108   1.0000      -0.045189        -1.2296   22-A"
 109   1.0000      -0.032920        -0.8958   23-A"
 110   1.0000      -0.031177        -0.8484   88-A'
 111   1.0000      -0.028851        -0.7851   89-A'
 112   1.0000      -0.025552        -0.6953   24-A"
 113   1.0000      -0.003799        -0.1034   25-A"
 114   1.0000      -0.000692        -0.0188   26-A"
 115   1.0000      -0.000533        -0.0145   90-A'
 116   1.0000       0.018452         0.5021   91-A'
 117   1.0000       0.022605         0.6151   92-A'
 118   1.0000       0.039758         1.0819   93-A'
 119   1.0000       0.053131         1.4458   27-A"
 120   1.0000       0.054990         1.4964   28-A"
 121   1.0000       0.070789         1.9263   29-A"
 122   1.0000       0.099379         2.7042   30-A"
 123   1.0000       0.115706         3.1485   94-A'
 124   0.0000       0.181256         4.9322   95-A'
 125   0.0000       0.182589         4.9685   96-A'
 126   0.0000       0.195573         5.3218   97-A'
 127   0.0000       0.197240         5.3672   98-A'
 128   0.0000       0.199627         5.4321   31-A"

                 SPIN DOWN ORBITALS
  NO   OCC          E(Eh)            E(eV)    Irrep
   0   1.0000    -443.557875    -12069.8234    1-A'
   1   1.0000    -443.555016    -12069.7456    2-A'
   2   1.0000    -443.545714    -12069.4925    3-A'
   3   1.0000    -443.542286    -12069.3992    4-A'
   4   1.0000    -318.188218     -8658.3416    5-A'
   5   1.0000     -56.368411     -1533.8625    6-A'
   6   1.0000     -56.366675     -1533.8152    7-A'
   7   1.0000     -56.357562     -1533.5672    8-A'
   8   1.0000     -56.354700     -1533.4893    9-A'
   9   1.0000     -51.288763     -1395.6382   10-A'
  10   1.0000     -51.288055     -1395.6189   11-A'
  11   1.0000     -51.286907     -1395.5877    1-A"
  12   1.0000     -51.286819     -1395.5853   12-A'
  13   1.0000     -51.286145     -1395.5670    2-A"
  14   1.0000     -51.286014     -1395.5634   13-A'
  15   1.0000     -51.285928     -1395.5611   14-A'
  16   1.0000     -51.284347     -1395.5180   15-A'
  17   1.0000     -51.284271     -1395.5160    3-A"
  18   1.0000     -51.282404     -1395.4652   16-A'
  19   1.0000     -51.280663     -1395.4178   17-A'
  20   1.0000     -51.280663     -1395.4178    4-A"
  21   1.0000     -38.015080     -1034.4429   18-A'
  22   1.0000     -33.517849      -912.0670   19-A'
  23   1.0000     -33.516947      -912.0425   20-A'
  24   1.0000     -33.515110      -911.9925    5-A"
  25   1.0000      -9.820973      -267.2423   21-A'
  26   1.0000      -9.820457      -267.2282   22-A'
  27   1.0000      -9.820156      -267.2200   23-A'
  28   1.0000      -9.818489      -267.1747   24-A'
  29   1.0000      -9.816033      -267.1078   25-A'
  30   1.0000      -9.815942      -267.1054   26-A'
  31   1.0000      -9.815541      -267.0945   27-A'
  32   1.0000      -9.812812      -267.0202   28-A'
  33   1.0000      -9.810673      -266.9620   29-A'
  34   1.0000      -9.808171      -266.8939   30-A'
  35   1.0000      -9.805278      -266.8152   31-A'
  36   1.0000      -9.803474      -266.7661   32-A'
  37   1.0000      -7.341285      -199.7665   33-A'
  38   1.0000      -7.340557      -199.7467   34-A'
  39   1.0000      -7.334704      -199.5874   35-A'
  40   1.0000      -7.332047      -199.5152   36-A'
  41   1.0000      -5.407422      -147.1434   37-A'
  42   1.0000      -5.407253      -147.1388   38-A'
  43   1.0000      -5.403870      -147.0468   39-A'
  44   1.0000      -5.401468      -146.9814    6-A"
  45   1.0000      -5.401245      -146.9753   40-A'
  46   1.0000      -5.401154      -146.9729   41-A'
  47   1.0000      -5.401132      -146.9723    7-A"
  48   1.0000      -5.400749      -146.9619   42-A'
  49   1.0000      -5.398391      -146.8977   43-A'
  50   1.0000      -5.398082      -146.8893    8-A"
  51   1.0000      -5.395564      -146.8208   44-A'
  52   1.0000      -5.395514      -146.8194    9-A"
  53   1.0000      -3.995039      -108.7105   45-A'
  54   1.0000      -2.508024       -68.2468   46-A'
  55   1.0000      -2.507854       -68.2422   10-A"
  56   1.0000      -2.506241       -68.1983   47-A'
  57   1.0000      -1.745776       -47.5050   48-A'
  58   1.0000      -1.745482       -47.4970   49-A'
  59   1.0000      -1.743071       -47.4314   50-A'
  60   1.0000      -1.742865       -47.4258   51-A'
  61   1.0000      -1.742827       -47.4247   11-A"
  62   1.0000      -1.742617       -47.4190   52-A'
  63   1.0000      -1.742579       -47.4180   12-A"
  64   1.0000      -1.739924       -47.3457   53-A'
  65   1.0000      -1.739843       -47.3435   54-A'
  66   1.0000      -1.739469       -47.3334   13-A"
  67   1.0000      -1.737701       -47.2852   14-A"
  68   1.0000      -1.737697       -47.2851   55-A'
  69   1.0000      -1.737335       -47.2753   15-A"
  70   1.0000      -1.737319       -47.2749   56-A'
  71   1.0000      -1.737010       -47.2664   57-A'
  72   1.0000      -1.736824       -47.2614   16-A"
  73   1.0000      -1.734768       -47.2054   58-A'
  74   1.0000      -1.734686       -47.2032   17-A"
  75   1.0000      -1.732083       -47.1324   59-A'
  76   1.0000      -1.731971       -47.1293   18-A"
  77   1.0000      -0.599548       -16.3145   60-A'
  78   1.0000      -0.592090       -16.1116   61-A'
  79   1.0000      -0.519017       -14.1232   62-A'
  80   1.0000      -0.513409       -13.9706   63-A'
  81   1.0000      -0.496549       -13.5118   64-A'
  82   1.0000      -0.492128       -13.3915   65-A'
  83   1.0000      -0.411005       -11.1840   66-A'
  84   1.0000      -0.408343       -11.1116   67-A'
  85   1.0000      -0.377523       -10.2729   68-A'
  86   1.0000      -0.372847       -10.1457   69-A'
  87   1.0000      -0.316577        -8.6145   70-A'
  88   1.0000      -0.309448        -8.4205   71-A'
  89   1.0000      -0.286076        -7.7845   72-A'
  90   1.0000      -0.281774        -7.6675   73-A'
  91   1.0000      -0.228764        -6.2250   74-A'
  92   1.0000      -0.221732        -6.0336   75-A'
  93   1.0000      -0.196092        -5.3359   76-A'
  94   1.0000      -0.191471        -5.2102   77-A'
  95   1.0000      -0.171309        -4.6615   78-A'
  96   1.0000      -0.164655        -4.4805   79-A'
  97   1.0000      -0.142267        -3.8713   80-A'
  98   1.0000      -0.138122        -3.7585   81-A'
  99   1.0000      -0.128562        -3.4983   82-A'
 100   1.0000      -0.128186        -3.4881   19-A"
 101   1.0000      -0.122176        -3.3246   20-A"
 102   1.0000      -0.105508        -2.8710   83-A'
 103   1.0000      -0.082493        -2.2447   84-A'
 104   1.0000      -0.074647        -2.0313   85-A'
 105   1.0000      -0.058042        -1.5794   86-A'
 106   1.0000      -0.054216        -1.4753   87-A'
 107   1.0000      -0.047391        -1.2896   21-A"
 108   1.0000      -0.044207        -1.2029   22-A"
 109   1.0000      -0.030321        -0.8251   23-A"
 110   1.0000      -0.024555        -0.6682   24-A"
 111   1.0000      -0.022693        -0.6175   88-A'
 112   1.0000      -0.003388        -0.0922   89-A'
 113   1.0000       0.005436         0.1479   25-A"
 114   1.0000       0.009741         0.2651   90-A'
 115   1.0000       0.010278         0.2797   26-A"
 116   1.0000       0.030399         0.8272   91-A'
 117   1.0000       0.031233         0.8499   92-A'
 118   1.0000       0.051076         1.3899   93-A'
 119   1.0000       0.055036         1.4976   27-A"
 120   1.0000       0.058630         1.5954   28-A"
 121   1.0000       0.072563         1.9745   29-A"
 122   1.0000       0.102584         2.7915   30-A"
 123   0.0000       0.145479         3.9587   94-A'
 124   0.0000       0.183345         4.9891   95-A'
 125   0.0000       0.184342         5.0162   96-A'
 126   0.0000       0.199000         5.4151   97-A'
 127   0.0000       0.199737         5.4351   31-A"

MULLIKEN ATOMIC CHARGES AND SPIN POPULATIONS
--------------------------------------------
   0 Cu:    0.660553    0.307684
   1 Se:   -0.657649    0.202907
   2 C :    0.270105   -0.003513
   3 Se:   -0.753836    0.159990
   4 C :    0.200548   -0.002839
   5 Se:   -0.780061    0.158894
   6 C :    0.147023   -0.003754
   7 Se:   -0.718048    0.174241
   8 C :    0.210970   -0.002565
   9 C :   -0.085064   -0.001289
  10 C :   -0.109054   -0.001975
  11 C :   -0.140601   -0.001034
  12 H :    0.082102    0.002327
  13 C :   -0.164584   -0.000451
  14 H :    0.089359    0.002675
  15 H :    0.029391    0.001508
  16 H :    0.014756    0.001431
  17 C :   -0.039922   -0.000885
  18 C :   -0.154953   -0.000435
  19 C :   -0.162271    0.000958
  20 H :    0.093380    0.002734
  21 C :   -0.140792   -0.002039
  22 H :    0.069681    0.001926
  23 H :    0.012730    0.001101
  24 H :    0.026238    0.002403
Sum of atomic charges         :   -2.0000000

LOEWDIN ATOMIC CHARGES AND SPIN POPULATIONS
-------------------------------------------
   0 Cu:   -0.630719    0.388817
   1 Se:   -0.201898    0.144853
   2 C :    0.047675    0.009820
   3 Se:   -0.197556    0.115955
   4 C :    0.065780    0.011570
   5 Se:   -0.218015    0.111882
   6 C :    0.068858    0.012803
   7 Se:   -0.225080    0.122842
   8 C :    0.065197    0.011650
   9 C :    0.355006    0.006962
  10 C :    0.363209    0.005174
  11 C :    0.314643   -0.000026
  12 H :   -0.452547    0.007259
  13 C :    0.317535    0.000614
  14 H :   -0.464399    0.010093
  15 H :   -0.422475    0.000348
  16 H :   -0.405424    0.000317
  17 C :    0.362712    0.010859
  18 C :    0.371016    0.004994
  19 C :    0.316987    0.001688
  20 H :   -0.485724    0.015884
  21 C :    0.313803   -0.000314
  22 H :   -0.436754    0.005039
  23 H :   -0.398547    0.000189
  24 H :   -0.423281    0.000730

  Mayer bond orders larger than 0.100000
B(  0-Cu,  1-Se) :   0.5428 B(  0-Cu,  3-Se) :   0.5393 B(  0-Cu,  5-Se) :   0.5516
B(  0-Cu,  7-Se) :   0.5431 B(  1-Se,  2-C ) :   1.0401 B(  2-C ,  6-C ) :   1.1485
B(  2-C , 17-C ) :   1.2464 B(  3-Se,  4-C ) :   1.0305 B(  4-C ,  8-C ) :   1.1484
B(  4-C , 10-C ) :   1.2657 B(  5-Se,  6-C ) :   1.0195 B(  6-C , 18-C ) :   1.2678
B(  7-Se,  8-C ) :   1.0228 B(  8-C ,  9-C ) :   1.2785 B(  9-C , 13-C ) :   1.3652
B(  9-C , 14-H ) :   0.9583 B( 10-C , 11-C ) :   1.3728 B( 10-C , 12-H ) :   0.9686
B( 11-C , 13-C ) :   1.3188 B( 11-C , 15-H ) :   0.9903 B( 13-C , 16-H ) :   1.0004
B( 17-C , 19-C ) :   1.3753 B( 17-C , 20-H ) :   0.9514 B( 18-C , 21-C ) :   1.3873
B( 18-C , 22-H ) :   0.9784 B( 19-C , 21-C ) :   1.3092 B( 19-C , 23-H ) :   1.0002
B( 21-C , 24-H ) :   0.9915

FINAL SINGLE POINT ENERGY    -11627.116089915969

DIPOLE MOMENT
-------------
                                X             Y             Z
Electronic contribution:     -0.12264       0.48088      -0.00000
Nuclear contribution   :     -0.01682      -0.32313       0.00000
                        -----------------------------------------
Total Dipole Moment    :     -0.13947       0.15775      -0.00000
                        -----------------------------------------
Magnitude (a.u.)       :      0.21056
Magnitude (Debye)      :      0.53520

Rotational constants in cm-1:     0.017264     0.004104     0.003316
Rotational constants in MHz :   517.573036   123.041236    99.409003

                             ****ORCA TERMINATED NORMALLY****
TOTAL RUN TIME: 0 days 15 hours 25 minutes 0 seconds 504 msec
