                         Program Version 5.0.4 -  RELEASE  -
|  1> ! RIJCOSX nofrozencore ReducedPop printbasis
|  2> ! M06L ano-rcc-dzp autoaux
|  3>
|  4> %maxcore 7500
|  5> %basis
|  6> PCDTrimBas overlap
|  7> PCDTrimAuxJ Coulomb
|  8> PCDTrimAuxJK Coulomb
|  9> PCDTrimAuxC Coulomb
| 10> PCDThresh -1
| 11> end
| 12>
| 13> %basis
| 14> newgto Cu "ano-rcc-tzp" end
| 15> newgto Se "ano-rcc-tzp" end
| 16> end
| 17>
| 18> %pal
| 19> nprocs 8
| 20> end
| 21>
| 22> % sym SymThresh 1e-2 end
| 23> * xyz -2 2
| 24> Cu -0.00015367978444051492 -0.00013817318614310685 1.1819242166027533e-05
| 25> Se -0.03016543428045753 -0.3368034642575459 -2.3465827003693662
| 26> C -1.0114020271704918 0.8460709129745119 -2.9186298313371113
| 27> Se 1.6562686082295857 -1.633665037023302 0.4568104584342222
| 28> C 1.7213164284861127 -1.7059446073799314 2.093801831851607
| 29> Se -1.6564742570232573 1.6334801386051299 -0.4567946423468793
| 30> C -1.721219482251914 1.7060309705252104 -2.093808452637982
| 31> Se 0.0301464415601057 0.3367871889603104 2.346583325887976
| 32> C 1.011568017945526 -0.8459224720209656 2.9186179004564297
| 33> C 1.161780272917192 -1.0304321291299994 4.291857363650972
| 34> C 2.511568353533603 -2.666004201097501 2.723238849833224
| 35> C 2.655505102714587 -2.8463333205445918 4.085488338645258
| 36> H 3.059810284788906 -3.333157847293237 2.0744824390940386
| 37> C 1.944996977390423 -1.985411287460219 4.911174169592
| 38> H 0.6046678893636475 -0.3581828515956033 4.927667548442605
| 39> H 3.29910358079038 -3.631083686232884 4.475018645084454
| 40> H 1.9906077324857832 -2.0455471734774595 5.995650133332346
| 41> C -1.161373119761849 1.0307990007354022 -4.291889512262813
| 42> C -2.5112724402354907 2.66626945513112 -2.723260772826848
| 43> C -1.9444012509730129 1.985947704907556 -4.911220821042055
| 44> H -0.604261478622722 0.35854905569769147 -4.927699639956658
| 45> C -2.654956336154583 2.8468251134195772 -4.085528872960788
| 46> H -3.0596027188064867 3.333343668432406 -2.0744975674508614
| 47> H -1.9897774825002332 2.0462947297349 -5.995713431068917
| 48> H -3.2983754310223627 3.631738922509923 -4.475071864785583
| 49> *
| 50>
| 51> % eprnmr
| 52> gtensor true
| 53> Nuclei = all H {aiso,adip,aorb,fgrad,rho}
| 54> Nuclei = all Cu {aiso,adip,aorb,fgrad,rho}
| 55> end
| 56>
| 57>                          ****END OF INPUT****

CARTESIAN COORDINATES (ANGSTROEM)
---------------------------------
  Cu     0.000000    0.000000    0.000000
  Se    -1.644556   -0.625842   -1.588883
  C     -2.981914   -0.940448   -0.693488
  Se     1.644556    0.625842   -1.588883
  C      2.981914    0.940448   -0.693488
  Se    -1.644556   -0.625842    1.588883
  C     -2.981914   -0.940448    0.693488
  Se     1.644556    0.625842    1.588883
  C      2.981914    0.940448    0.693488
  C      4.195557    1.220455    1.318862
  C      4.195557    1.220455   -1.318862
  C      5.396906    1.495363   -0.694220
  H      4.188112    1.216910   -2.398899
  C      5.396906    1.495363    0.694220
  H      4.188112    1.216910    2.398899
  H      6.290615    1.699537   -1.278516
  H      6.290615    1.699537    1.278516
  C     -4.195557   -1.220455   -1.318862
  C     -4.195557   -1.220455    1.318862
  C     -5.396906   -1.495363   -0.694220
  H     -4.188112   -1.216910   -2.398899
  C     -5.396906   -1.495363    0.694220
  H     -4.188112   -1.216910    2.398899
  H     -6.290615   -1.699537   -1.278516
  H     -6.290615   -1.699537    1.278516

 Total Charge           Charge          ....   -2
 Multiplicity           Mult            ....    2
 Number of Electrons    NEL             ....  247
 Basis Dimension        Dim             ....  575

ORBITAL ENERGIES
----------------
                 SPIN UP ORBITALS
  NO   OCC          E(Eh)            E(eV)    Irrep
   0   1.0000    -443.561163    -12069.9129    1-Au
   1   1.0000    -443.560085    -12069.8835    1-Bg
   2   1.0000    -443.546615    -12069.5170    1-Ag
   3   1.0000    -443.546552    -12069.5153    1-Bu
   4   1.0000    -318.187001     -8658.3085    2-Ag
   5   1.0000     -56.369880     -1533.9024    2-Au
   6   1.0000     -56.369575     -1533.8941    2-Bg
   7   1.0000     -56.357024     -1533.5526    3-Ag
   8   1.0000     -56.356758     -1533.5453    2-Bu
   9   1.0000     -51.286200     -1395.5685    3-Bg
  10   1.0000     -51.286136     -1395.5667    3-Bu
  11   1.0000     -51.286136     -1395.5667    3-Au
  12   1.0000     -51.286105     -1395.5659    4-Ag
  13   1.0000     -51.284840     -1395.5314    4-Bg
  14   1.0000     -51.284834     -1395.5313    4-Au
  15   1.0000     -51.284796     -1395.5302    4-Bu
  16   1.0000     -51.284763     -1395.5293    5-Ag
  17   1.0000     -51.284388     -1395.5191    5-Au
  18   1.0000     -51.284359     -1395.5184    5-Bg
  19   1.0000     -51.284341     -1395.5179    6-Ag
  20   1.0000     -51.284307     -1395.5169    5-Bu
  21   1.0000     -38.027503     -1034.7810    7-Ag
  22   1.0000     -33.529574      -912.3861    6-Au
  23   1.0000     -33.528818      -912.3655    6-Bu
  24   1.0000     -33.517626      -912.0610    7-Bu
  25   1.0000      -9.816661      -267.1249    8-Bu
  26   1.0000      -9.816661      -267.1249    8-Ag
  27   1.0000      -9.816213      -267.1127    6-Bg
  28   1.0000      -9.816213      -267.1127    7-Au
  29   1.0000      -9.809073      -266.9184    9-Bu
  30   1.0000      -9.809067      -266.9183    9-Ag
  31   1.0000      -9.808621      -266.9061    7-Bg
  32   1.0000      -9.808619      -266.9061    8-Au
  33   1.0000      -9.807126      -266.8655   10-Bu
  34   1.0000      -9.807125      -266.8654   10-Ag
  35   1.0000      -9.807124      -266.8654    8-Bg
  36   1.0000      -9.807123      -266.8654    9-Au
  37   1.0000      -7.341050      -199.7601   10-Au
  38   1.0000      -7.340993      -199.7586    9-Bg
  39   1.0000      -7.333789      -199.5625   11-Ag
  40   1.0000      -7.333677      -199.5595   11-Bu
  41   1.0000      -5.404045      -147.0515   10-Bg
  42   1.0000      -5.404017      -147.0508   12-Bu
  43   1.0000      -5.404006      -147.0505   11-Au
  44   1.0000      -5.403997      -147.0502   12-Ag
  45   1.0000      -5.398784      -146.9084   11-Bg
  46   1.0000      -5.398783      -146.9084   12-Au
  47   1.0000      -5.398766      -146.9079   13-Bu
  48   1.0000      -5.398752      -146.9075   13-Ag
  49   1.0000      -5.398266      -146.8943   13-Au
  50   1.0000      -5.398252      -146.8939   12-Bg
  51   1.0000      -5.398239      -146.8936   14-Ag
  52   1.0000      -5.398224      -146.8931   14-Bu
  53   1.0000      -4.021849      -109.4401   15-Ag
  54   1.0000      -2.541379       -69.1545   14-Au
  55   1.0000      -2.540498       -69.1305   15-Bu
  56   1.0000      -2.516979       -68.4905   16-Bu
  57   1.0000      -1.743050       -47.4308   16-Ag
  58   1.0000      -1.743037       -47.4304   17-Bu
  59   1.0000      -1.743020       -47.4300   15-Au
  60   1.0000      -1.743009       -47.4297   13-Bg
  61   1.0000      -1.740357       -47.3575   17-Ag
  62   1.0000      -1.740339       -47.3570   18-Bu
  63   1.0000      -1.740276       -47.3553   16-Au
  64   1.0000      -1.740264       -47.3550   14-Bg
  65   1.0000      -1.739548       -47.3355   19-Bu
  66   1.0000      -1.739547       -47.3355   18-Ag
  67   1.0000      -1.739539       -47.3353   15-Bg
  68   1.0000      -1.739536       -47.3352   17-Au
  69   1.0000      -1.735231       -47.2180   19-Ag
  70   1.0000      -1.735230       -47.2180   20-Bu
  71   1.0000      -1.735195       -47.2171   18-Au
  72   1.0000      -1.735194       -47.2170   16-Bg
  73   1.0000      -1.735188       -47.2169   20-Ag
  74   1.0000      -1.735182       -47.2167   21-Bu
  75   1.0000      -1.735132       -47.2153   17-Bg
  76   1.0000      -1.735129       -47.2153   19-Au
  77   1.0000      -0.601751       -16.3745   21-Ag
  78   1.0000      -0.601548       -16.3689   22-Bu
  79   1.0000      -0.521315       -14.1857   22-Ag
  80   1.0000      -0.520585       -14.1658   23-Bu
  81   1.0000      -0.498209       -13.5569   20-Au
  82   1.0000      -0.497971       -13.5505   18-Bg
  83   1.0000      -0.412475       -11.2240   21-Au
  84   1.0000      -0.411336       -11.1930   19-Bg
  85   1.0000      -0.383482       -10.4351   23-Ag
  86   1.0000      -0.379005       -10.3133   24-Bu
  87   1.0000      -0.320612        -8.7243   24-Ag
  88   1.0000      -0.318294        -8.6612   25-Bu
  89   1.0000      -0.287334        -7.8188   22-Au
  90   1.0000      -0.284190        -7.7332   20-Bg
  91   1.0000      -0.230002        -6.2587   25-Ag
  92   1.0000      -0.223525        -6.0824   26-Bu
  93   1.0000      -0.199852        -5.4383   26-Ag
  94   1.0000      -0.198888        -5.4120   27-Bu
  95   1.0000      -0.170531        -4.6404   23-Au
  96   1.0000      -0.165699        -4.5089   21-Bg
  97   1.0000      -0.138156        -3.7594   24-Au
  98   1.0000      -0.136989        -3.7277   27-Ag
  99   1.0000      -0.136619        -3.7176   22-Bg
 100   1.0000      -0.129892        -3.5345   28-Bu
 101   1.0000      -0.129584        -3.5262   28-Ag
 102   1.0000      -0.110963        -3.0195   29-Bu
 103   1.0000      -0.082278        -2.2389   29-Ag
 104   1.0000      -0.071616        -1.9488   25-Au
 105   1.0000      -0.065888        -1.7929   23-Bg
 106   1.0000      -0.062884        -1.7111   30-Bu
 107   1.0000      -0.048736        -1.3262   30-Ag
 108   1.0000      -0.047737        -1.2990   31-Bu
 109   1.0000      -0.034352        -0.9348   24-Bg
 110   1.0000      -0.029324        -0.7979   31-Ag
 111   1.0000      -0.028224        -0.7680   25-Bg
 112   1.0000      -0.026455        -0.7199   26-Au
 113   1.0000      -0.001631        -0.0444   26-Bg
 114   1.0000      -0.001064        -0.0289   32-Ag
 115   1.0000       0.000659         0.0179   33-Ag
 116   1.0000       0.019245         0.5237   34-Ag
 117   1.0000       0.020808         0.5662   32-Bu
 118   1.0000       0.040471         1.1013   27-Au
 119   1.0000       0.055696         1.5156   28-Au
 120   1.0000       0.056337         1.5330   27-Bg
 121   1.0000       0.070861         1.9282   33-Bu
 122   1.0000       0.098397         2.6775   35-Ag
 123   1.0000       0.115546         3.1442   28-Bg
 124   0.0000       0.182177         4.9573   34-Bu
 125   0.0000       0.182279         4.9601   36-Ag
 126   0.0000       0.196322         5.3422   29-Bg
 127   0.0000       0.196699         5.3525   29-Au
 128   0.0000       0.201369         5.4795   35-Bu

                 SPIN DOWN ORBITALS
  NO   OCC          E(Eh)            E(eV)    Irrep
   0   1.0000    -443.560712    -12069.9006    1-Au
   1   1.0000    -443.559634    -12069.8713    1-Bg
   2   1.0000    -443.546164    -12069.5047    1-Ag
   3   1.0000    -443.546101    -12069.5030    1-Bu
   4   1.0000    -318.186879     -8658.3051    2-Ag
   5   1.0000     -56.369697     -1533.8974    2-Au
   6   1.0000     -56.369392     -1533.8891    2-Bg
   7   1.0000     -56.356844     -1533.5477    3-Ag
   8   1.0000     -56.356578     -1533.5404    2-Bu
   9   1.0000     -51.285882     -1395.5598    3-Bg
  10   1.0000     -51.285815     -1395.5580    3-Au
  11   1.0000     -51.285809     -1395.5578    3-Bu
  12   1.0000     -51.285777     -1395.5570    4-Ag
  13   1.0000     -51.284175     -1395.5134    4-Au
  14   1.0000     -51.284159     -1395.5129    4-Bg
  15   1.0000     -51.284127     -1395.5120    5-Ag
  16   1.0000     -51.284119     -1395.5118    4-Bu
  17   1.0000     -51.284063     -1395.5103    5-Au
  18   1.0000     -51.284056     -1395.5101    5-Bg
  19   1.0000     -51.284007     -1395.5088    5-Bu
  20   1.0000     -51.284001     -1395.5086    6-Ag
  21   1.0000     -38.013627     -1034.4034    7-Ag
  22   1.0000     -33.516391      -912.0274    6-Au
  23   1.0000     -33.515655      -912.0073    6-Bu
  24   1.0000     -33.513729      -911.9549    7-Bu
  25   1.0000      -9.816608      -267.1235    8-Bu
  26   1.0000      -9.816608      -267.1235    8-Ag
  27   1.0000      -9.816160      -267.1113    6-Bg
  28   1.0000      -9.816160      -267.1113    7-Au
  29   1.0000      -9.809089      -266.9189    9-Bu
  30   1.0000      -9.809083      -266.9187    9-Ag
  31   1.0000      -9.808635      -266.9065    7-Bg
  32   1.0000      -9.808633      -266.9065    8-Au
  33   1.0000      -9.807010      -266.8623   10-Bu
  34   1.0000      -9.807009      -266.8623   10-Ag
  35   1.0000      -9.807008      -266.8623    8-Bg
  36   1.0000      -9.807008      -266.8622    9-Au
  37   1.0000      -7.340651      -199.7493   10-Au
  38   1.0000      -7.340597      -199.7478    9-Bg
  39   1.0000      -7.333384      -199.5515   11-Ag
  40   1.0000      -7.333272      -199.5485   11-Bu
  41   1.0000      -5.403684      -147.0417   10-Bg
  42   1.0000      -5.403655      -147.0409   12-Bu
  43   1.0000      -5.403644      -147.0406   11-Au
  44   1.0000      -5.403635      -147.0404   12-Ag
  45   1.0000      -5.398148      -146.8911   12-Au
  46   1.0000      -5.398138      -146.8908   11-Bg
  47   1.0000      -5.398121      -146.8904   13-Ag
  48   1.0000      -5.398117      -146.8902   13-Bu
  49   1.0000      -5.397767      -146.8807   13-Au
  50   1.0000      -5.397763      -146.8806   12-Bg
  51   1.0000      -5.397740      -146.8800   14-Bu
  52   1.0000      -5.397736      -146.8799   14-Ag
  53   1.0000      -3.993607      -108.6716   15-Ag
  54   1.0000      -2.506791       -68.2132   15-Bu
  55   1.0000      -2.506120       -68.1950   14-Au
  56   1.0000      -2.505048       -68.1658   16-Bu
  57   1.0000      -1.742604       -47.4187   16-Ag
  58   1.0000      -1.742591       -47.4183   17-Bu
  59   1.0000      -1.742573       -47.4178   15-Au
  60   1.0000      -1.742563       -47.4175   13-Bg
  61   1.0000      -1.739520       -47.3347   17-Ag
  62   1.0000      -1.739504       -47.3343   18-Bu
  63   1.0000      -1.739457       -47.3330   16-Au
  64   1.0000      -1.739447       -47.3328   14-Bg
  65   1.0000      -1.739185       -47.3256   18-Ag
  66   1.0000      -1.739185       -47.3256   19-Bu
  67   1.0000      -1.739153       -47.3248   17-Au
  68   1.0000      -1.739153       -47.3248   15-Bg
  69   1.0000      -1.734457       -47.1970   20-Bu
  70   1.0000      -1.734455       -47.1969   19-Ag
  71   1.0000      -1.734430       -47.1962   18-Au
  72   1.0000      -1.734429       -47.1962   16-Bg
  73   1.0000      -1.734397       -47.1953   20-Ag
  74   1.0000      -1.734388       -47.1951   21-Bu
  75   1.0000      -1.734338       -47.1937   17-Bg
  76   1.0000      -1.734334       -47.1936   19-Au
  77   1.0000      -0.600939       -16.3524   21-Ag
  78   1.0000      -0.600749       -16.3472   22-Bu
  79   1.0000      -0.520168       -14.1545   22-Ag
  80   1.0000      -0.519473       -14.1356   23-Bu
  81   1.0000      -0.496518       -13.5109   20-Au
  82   1.0000      -0.496295       -13.5049   18-Bg
  83   1.0000      -0.409788       -11.1509   21-Au
  84   1.0000      -0.408627       -11.1193   19-Bg
  85   1.0000      -0.380995       -10.3674   23-Ag
  86   1.0000      -0.376702       -10.2506   24-Bu
  87   1.0000      -0.318860        -8.6766   24-Ag
  88   1.0000      -0.316384        -8.6093   25-Bu
  89   1.0000      -0.284967        -7.7543   22-Au
  90   1.0000      -0.281573        -7.6620   20-Bg
  91   1.0000      -0.228885        -6.2283   25-Ag
  92   1.0000      -0.222465        -6.0536   26-Bu
  93   1.0000      -0.198556        -5.4030   26-Ag
  94   1.0000      -0.197668        -5.3788   27-Bu
  95   1.0000      -0.169094        -4.6013   23-Au
  96   1.0000      -0.163616        -4.4522   21-Bg
  97   1.0000      -0.137295        -3.7360   24-Au
  98   1.0000      -0.135062        -3.6752   27-Ag
  99   1.0000      -0.135000        -3.6735   22-Bg
 100   1.0000      -0.129494        -3.5237   28-Bu
 101   1.0000      -0.129110        -3.5133   28-Ag
 102   1.0000      -0.109218        -2.9720   29-Bu
 103   1.0000      -0.080900        -2.2014   29-Ag
 104   1.0000      -0.070156        -1.9090   25-Au
 105   1.0000      -0.060692        -1.6515   30-Bu
 106   1.0000      -0.054400        -1.4803   23-Bg
 107   1.0000      -0.047551        -1.2939   30-Ag
 108   1.0000      -0.047151        -1.2830   31-Bu
 109   1.0000      -0.030449        -0.8286   24-Bg
 110   1.0000      -0.025442        -0.6923   26-Au
 111   1.0000      -0.022892        -0.6229   31-Ag
 112   1.0000      -0.001850        -0.0503   25-Bg
 113   1.0000       0.008075         0.2197   26-Bg
 114   1.0000       0.009917         0.2699   32-Ag
 115   1.0000       0.011263         0.3065   33-Ag
 116   1.0000       0.028967         0.7882   32-Bu
 117   1.0000       0.032035         0.8717   34-Ag
 118   1.0000       0.050463         1.3732   27-Au
 119   1.0000       0.058814         1.6004   28-Au
 120   1.0000       0.059937         1.6310   27-Bg
 121   1.0000       0.072570         1.9747   33-Bu
 122   1.0000       0.101643         2.7659   35-Ag
 123   0.0000       0.145257         3.9526   28-Bg
 124   0.0000       0.184019         5.0074   34-Bu
 125   0.0000       0.184137         5.0106   36-Ag
 126   0.0000       0.199512         5.4290   29-Bg
 127   0.0000       0.199970         5.4415   29-Au

MULLIKEN ATOMIC CHARGES AND SPIN POPULATIONS
--------------------------------------------
   0 Cu:    0.634904    0.310036
   1 Se:   -0.734790    0.173093
   2 C :    0.224201   -0.002912
   3 Se:   -0.734790    0.173093
   4 C :    0.224201   -0.002912
   5 Se:   -0.734790    0.173093
   6 C :    0.224201   -0.002912
   7 Se:   -0.734790    0.173093
   8 C :    0.224201   -0.002912
   9 C :   -0.105915   -0.001562
  10 C :   -0.105915   -0.001562
  11 C :   -0.154716   -0.000331
  12 H :    0.093195    0.002663
  13 C :   -0.154716   -0.000331
  14 H :    0.093195    0.002663
  15 H :    0.019299    0.001540
  16 H :    0.019299    0.001540
  17 C :   -0.105915   -0.001562
  18 C :   -0.105915   -0.001562
  19 C :   -0.154716   -0.000331
  20 H :    0.093195    0.002663
  21 C :   -0.154716   -0.000331
  22 H :    0.093195    0.002663
  23 H :    0.019299    0.001540
  24 H :    0.019299    0.001540
Sum of atomic charges         :   -2.0000000

LOEWDIN ATOMIC CHARGES AND SPIN POPULATIONS
-------------------------------------------
   0 Cu:   -0.616206    0.389871
   1 Se:   -0.203150    0.123404
   2 C :    0.039192    0.011898
   3 Se:   -0.203150    0.123404
   4 C :    0.039192    0.011898
   5 Se:   -0.203150    0.123404
   6 C :    0.039192    0.011898
   7 Se:   -0.203150    0.123404
   8 C :    0.039192    0.011898
   9 C :    0.371765    0.006840
  10 C :    0.371765    0.006840
  11 C :    0.318203    0.000647
  12 H :   -0.461256    0.009312
  13 C :    0.318203    0.000647
  14 H :   -0.461256    0.009312
  15 H :   -0.410702    0.000431
  16 H :   -0.410702    0.000431
  17 C :    0.371765    0.006840
  18 C :    0.371765    0.006840
  19 C :    0.318203    0.000647
  20 H :   -0.461256    0.009312
  21 C :    0.318203    0.000647
  22 H :   -0.461256    0.009312
  23 H :   -0.410702    0.000431
  24 H :   -0.410702    0.000431

  Mayer bond orders larger than 0.100000
B(  0-Cu,  1-Se) :   0.5501 B(  0-Cu,  3-Se) :   0.5501 B(  0-Cu,  5-Se) :   0.5501
B(  0-Cu,  7-Se) :   0.5501 B(  1-Se,  2-C ) :   1.0356 B(  2-C ,  6-C ) :   1.1348
B(  2-C , 17-C ) :   1.2586 B(  3-Se,  4-C ) :   1.0356 B(  4-C ,  8-C ) :   1.1348
B(  4-C , 10-C ) :   1.2586 B(  5-Se,  6-C ) :   1.0356 B(  6-C , 18-C ) :   1.2586
B(  7-Se,  8-C ) :   1.0356 B(  8-C ,  9-C ) :   1.2586 B(  9-C , 13-C ) :   1.3786
B(  9-C , 14-H ) :   0.9596 B( 10-C , 11-C ) :   1.3786 B( 10-C , 12-H ) :   0.9596
B( 11-C , 13-C ) :   1.3125 B( 11-C , 15-H ) :   0.9964 B( 13-C , 16-H ) :   0.9964
B( 17-C , 19-C ) :   1.3786 B( 17-C , 20-H ) :   0.9596 B( 18-C , 21-C ) :   1.3786
B( 18-C , 22-H ) :   0.9596 B( 19-C , 21-C ) :   1.3125 B( 19-C , 23-H ) :   0.9964
B( 21-C , 24-H ) :   0.9964

FINAL SINGLE POINT ENERGY    -11627.146138239716

DIPOLE MOMENT
-------------
                                X             Y             Z
Electronic contribution:      0.00000       0.00000       0.00000
Nuclear contribution   :     -0.00000      -0.00000       0.00000
                        -----------------------------------------
Total Dipole Moment    :      0.00000       0.00000       0.00000
                        -----------------------------------------
Magnitude (a.u.)       :      0.00000
Magnitude (Debye)      :      0.00000

Rotational constants in cm-1:     0.017509     0.004092     0.003325
Rotational constants in MHz :   524.917612   122.678121    99.666061

                             ****ORCA TERMINATED NORMALLY****
TOTAL RUN TIME: 0 days 18 hours 49 minutes 48 seconds 369 msec
