                         Program Version 5.0.4 -  RELEASE  -
|  1> ! RIJCOSX nofrozencore ReducedPop printbasis
|  2> ! M06L ano-rcc-dzp autoaux
|  3>
|  4> %maxcore 7500
|  5> %basis
|  6> PCDTrimBas overlap
|  7> PCDTrimAuxJ Coulomb
|  8> PCDTrimAuxJK Coulomb
|  9> PCDTrimAuxC Coulomb
| 10> PCDThresh -1
| 11> end
| 12>
| 13> %basis
| 14> newgto Cu "ano-rcc-tzp" end
| 15> newgto Se "ano-rcc-tzp" end
| 16> end
| 17>
| 18> %pal
| 19> nprocs 8
| 20> end
| 21>
| 22> % sym SymThresh 1e-2 end
| 23> * xyz -2 2
| 24> Cu 8.60709868636735e-05 0.00021887167189672433 0.00020290632435053863
| 25> Se -0.5656755649418285 -2.0066150364152775 -1.117161688937129
| 26> C -1.0042465251282964 -1.5845754269387533 -2.73653924472053
| 27> Se 0.5064705987179756 -1.0249480633871393 2.0748227702575486
| 28> C 0.9278939880724937 0.20746872523849302 3.0070693948819733
| 29> Se -0.5059130370680496 1.0274487037058475 -2.073920744203056
| 30> C -0.9383392756615512 -0.19534020586900455 -3.0464285382045335
| 31> Se 0.568276800391185 2.004426104655091 1.1266467962051705
| 32> C 0.9616135418125946 1.5149412469874868 2.621266328803053
| 33> C 1.3639664948518841 2.496938881367991 3.585458710953346
| 34> C 1.3103542527700944 -0.052343862109389246 4.378044143177156
| 35> C 1.698452668119324 0.8754954923657916 5.315453522770991
| 36> H 1.3536545452860411 -1.024685782889784 4.892373113859469
| 37> C 1.726629983801672 2.2220738701775185 4.896324052401898
| 38> H 1.3969146731615893 3.5393345488525685 3.2980446595215223
| 39> H 1.9835665577003678 0.6575504853883082 6.346718560387195
| 40> H 2.0120784003185403 3.0629050840403558 5.525466716827034
| 41> C -1.363056246899545 -2.4580184764295154 -3.597254154229897
| 42> C -1.3037227934981552 0.020531485091790105 -4.343872818438207
| 43> C -1.7204985358219373 -2.1788766268705295 -4.8923831335561685
| 44> H -1.2192301838108954 -3.3374297845783416 -2.7839825095887036
| 45> C -1.6986513977549966 -0.8824544148975275 -5.31346417193989
| 46> H -1.3369082609125265 0.9993447347658854 -4.8270289783792
| 47> H -1.9869838006167282 -3.0924879221438073 -5.430737928380487
| 48> H -1.984045708447639 -0.6740636204270747 -6.342023140198028
| 49> *
| 50>
| 51> % eprnmr
| 52> gtensor true
| 53> Nuclei = all H {aiso,adip,aorb,fgrad,rho}
| 54> Nuclei = all Cu {aiso,adip,aorb,fgrad,rho}
| 55> end
| 56>
| 57>                          ****END OF INPUT****

CARTESIAN COORDINATES (ANGSTROEM)
---------------------------------
  Cu     0.000224    0.000215    0.000000
  Se    -2.038567   -1.199495    0.000000
  C     -1.641526   -2.883302    0.000000
  Se    -0.996017    2.149388    0.000000
  C      0.260234    3.143052    0.000000
  Se     0.998549   -2.148406    0.000000
  C     -0.248701   -3.183946    0.000000
  Se     2.036526    1.209362    0.000000
  C      1.569475    2.761799    0.000000
  C      2.574250    3.784688    0.000000
  C      0.022209    4.570180    0.000000
  C      0.972022    5.564212    0.000000
  H     -0.947558    5.091150    0.000000
  C      2.320049    5.148808    0.000000
  H      3.618400    3.501790    0.000000
  H      0.770322    6.637345    0.000000
  H      3.177023    5.819549    0.000000
  C     -2.535282   -3.796361    0.000000
  C     -0.053641   -4.535027    0.000000
  C     -2.276507   -5.143981    0.000000
  H     -3.406410   -2.961738    0.000000
  C     -0.978991   -5.562250    0.000000
  H      0.923172   -5.023343    0.000000
  H     -3.205175   -5.721132    0.000000
  H     -0.786860   -6.632715    0.000000

 Total Charge           Charge          ....   -2
 Multiplicity           Mult            ....    2
 Number of Electrons    NEL             ....  247
 Basis Dimension        Dim             ....  575

ORBITAL ENERGIES
----------------
                 SPIN UP ORBITALS
  NO   OCC          E(Eh)            E(eV)    Irrep
   0   1.0000    -443.567766    -12070.0926    1-A'
   1   1.0000    -443.563214    -12069.9687    2-A'
   2   1.0000    -443.550450    -12069.6214    3-A'
   3   1.0000    -443.535867    -12069.2245    4-A'
   4   1.0000    -318.188112     -8658.3387    5-A'
   5   1.0000     -56.374887     -1534.0387    6-A'
   6   1.0000     -56.371611     -1533.9495    7-A'
   7   1.0000     -56.359525     -1533.6206    8-A'
   8   1.0000     -56.350633     -1533.3787    9-A'
   9   1.0000     -51.292161     -1395.7307   10-A'
  10   1.0000     -51.290845     -1395.6948   11-A'
  11   1.0000     -51.290439     -1395.6838    1-A"
  12   1.0000     -51.289652     -1395.6624   12-A'
  13   1.0000     -51.288379     -1395.6277   13-A'
  14   1.0000     -51.288034     -1395.6183    2-A"
  15   1.0000     -51.287103     -1395.5930   14-A'
  16   1.0000     -51.285821     -1395.5581   15-A'
  17   1.0000     -51.285410     -1395.5470    3-A"
  18   1.0000     -51.280312     -1395.4082   16-A'
  19   1.0000     -51.278926     -1395.3705   17-A'
  20   1.0000     -51.278110     -1395.3483    4-A"
  21   1.0000     -38.028465     -1034.8071   18-A'
  22   1.0000     -33.530509      -912.4115   19-A'
  23   1.0000     -33.529737      -912.3905   20-A'
  24   1.0000     -33.518591      -912.0872    5-A"
  25   1.0000      -9.819426      -267.2002   21-A'
  26   1.0000      -9.817911      -267.1589   22-A'
  27   1.0000      -9.816324      -267.1157   23-A'
  28   1.0000      -9.815849      -267.1028   24-A'
  29   1.0000      -9.815131      -267.0833   25-A'
  30   1.0000      -9.814182      -267.0575   26-A'
  31   1.0000      -9.812491      -267.0114   27-A'
  32   1.0000      -9.811782      -266.9922   28-A'
  33   1.0000      -9.810198      -266.9491   29-A'
  34   1.0000      -9.805797      -266.8293   30-A'
  35   1.0000      -9.800500      -266.6852   31-A'
  36   1.0000      -9.798748      -266.6375   32-A'
  37   1.0000      -7.344388      -199.8510   33-A'
  38   1.0000      -7.344057      -199.8419   34-A'
  39   1.0000      -7.335793      -199.6171   35-A'
  40   1.0000      -7.329559      -199.4474   36-A'
  41   1.0000      -5.409268      -147.1937   37-A'
  42   1.0000      -5.406769      -147.1257   38-A'
  43   1.0000      -5.404821      -147.0726   39-A'
  44   1.0000      -5.403901      -147.0476   40-A'
  45   1.0000      -5.403692      -147.0419    6-A"
  46   1.0000      -5.401456      -146.9811   41-A'
  47   1.0000      -5.401384      -146.9791    7-A"
  48   1.0000      -5.400537      -146.9561   42-A'
  49   1.0000      -5.399619      -146.9311   43-A'
  50   1.0000      -5.399297      -146.9223    8-A"
  51   1.0000      -5.395320      -146.8141   44-A'
  52   1.0000      -5.393662      -146.7690    9-A"
  53   1.0000      -4.022733      -109.4641   45-A'
  54   1.0000      -2.542256       -69.1783   46-A'
  55   1.0000      -2.541333       -69.1532   47-A'
  56   1.0000      -2.517875       -68.5149   10-A"
  57   1.0000      -1.748566       -47.5809   48-A'
  58   1.0000      -1.746417       -47.5224   49-A'
  59   1.0000      -1.745466       -47.4965   50-A'
  60   1.0000      -1.744888       -47.4808   11-A"
  61   1.0000      -1.744138       -47.4604   51-A'
  62   1.0000      -1.743073       -47.4314   52-A'
  63   1.0000      -1.742540       -47.4169   12-A"
  64   1.0000      -1.741155       -47.3792   53-A'
  65   1.0000      -1.740536       -47.3624   13-A"
  66   1.0000      -1.740513       -47.3618   14-A"
  67   1.0000      -1.740459       -47.3603   54-A'
  68   1.0000      -1.738528       -47.3078   55-A'
  69   1.0000      -1.738178       -47.2982   15-A"
  70   1.0000      -1.738128       -47.2969   56-A'
  71   1.0000      -1.736909       -47.2637   57-A'
  72   1.0000      -1.736221       -47.2450   58-A'
  73   1.0000      -1.736122       -47.2423   16-A"
  74   1.0000      -1.735351       -47.2213   17-A"
  75   1.0000      -1.731074       -47.1049   59-A'
  76   1.0000      -1.731040       -47.1040   18-A"
  77   1.0000      -0.612073       -16.6553   60-A'
  78   1.0000      -0.599808       -16.3216   61-A'
  79   1.0000      -0.524099       -14.2615   62-A'
  80   1.0000      -0.521021       -14.1777   63-A'
  81   1.0000      -0.509840       -13.8735   64-A'
  82   1.0000      -0.496220       -13.5028   65-A'
  83   1.0000      -0.419484       -11.4147   66-A'
  84   1.0000      -0.410163       -11.1611   67-A'
  85   1.0000      -0.384193       -10.4544   68-A'
  86   1.0000      -0.376684       -10.2501   69-A'
  87   1.0000      -0.322761        -8.7828   70-A'
  88   1.0000      -0.319015        -8.6808   71-A'
  89   1.0000      -0.294932        -8.0255   72-A'
  90   1.0000      -0.277923        -7.5627   73-A'
  91   1.0000      -0.232312        -6.3215   74-A'
  92   1.0000      -0.223196        -6.0735   75-A'
  93   1.0000      -0.208293        -5.6679   76-A'
  94   1.0000      -0.204982        -5.5779   77-A'
  95   1.0000      -0.170761        -4.6467   78-A'
  96   1.0000      -0.152094        -4.1387   79-A'
  97   1.0000      -0.138379        -3.7655   80-A'
  98   1.0000      -0.135784        -3.6949   19-A"
  99   1.0000      -0.132794        -3.6135   81-A'
 100   1.0000      -0.129792        -3.5318   20-A"
 101   1.0000      -0.124767        -3.3951   82-A'
 102   1.0000      -0.108786        -2.9602   83-A'
 103   1.0000      -0.076143        -2.0720   84-A'
 104   1.0000      -0.070806        -1.9267   85-A'
 105   1.0000      -0.066279        -1.8036   86-A'
 106   1.0000      -0.050479        -1.3736   21-A"
 107   1.0000      -0.048246        -1.3129   22-A"
 108   1.0000      -0.046850        -1.2748   87-A'
 109   1.0000      -0.036125        -0.9830   23-A"
 110   1.0000      -0.031184        -0.8486   88-A'
 111   1.0000      -0.028206        -0.7675   24-A"
 112   1.0000      -0.027804        -0.7566   89-A'
 113   1.0000      -0.003126        -0.0851   25-A"
 114   1.0000      -0.001964        -0.0534   26-A"
 115   1.0000       0.000243         0.0066   90-A'
 116   1.0000       0.017845         0.4856   91-A'
 117   1.0000       0.019580         0.5328   92-A'
 118   1.0000       0.040690         1.1072   93-A'
 119   1.0000       0.052074         1.4170   27-A"
 120   1.0000       0.057884         1.5751   28-A"
 121   1.0000       0.068128         1.8538   29-A"
 122   1.0000       0.098222         2.6727   30-A"
 123   1.0000       0.115669         3.1475   94-A'
 124   0.0000       0.180811         4.9201   95-A'
 125   0.0000       0.181534         4.9398   96-A'
 126   0.0000       0.195685         5.3249   97-A'
 127   0.0000       0.196140         5.3372   31-A"
 128   0.0000       0.197133         5.3643   98-A'

                 SPIN DOWN ORBITALS
  NO   OCC          E(Eh)            E(eV)    Irrep
   0   1.0000    -443.567319    -12070.0804    1-A'
   1   1.0000    -443.562753    -12069.9561    2-A'
   2   1.0000    -443.550004    -12069.6092    3-A'
   3   1.0000    -443.535421    -12069.2124    4-A'
   4   1.0000    -318.187991     -8658.3354    5-A'
   5   1.0000     -56.374706     -1534.0337    6-A'
   6   1.0000     -56.371425     -1533.9445    7-A'
   7   1.0000     -56.359347     -1533.6158    8-A'
   8   1.0000     -56.350452     -1533.3737    9-A'
   9   1.0000     -51.291849     -1395.7222   10-A'
  10   1.0000     -51.290182     -1395.6768    1-A"
  11   1.0000     -51.290083     -1395.6741   11-A'
  12   1.0000     -51.289315     -1395.6532   12-A'
  13   1.0000     -51.287786     -1395.6116    2-A"
  14   1.0000     -51.287669     -1395.6084   13-A'
  15   1.0000     -51.286770     -1395.5840   14-A'
  16   1.0000     -51.285165     -1395.5403    3-A"
  17   1.0000     -51.285112     -1395.5388   15-A'
  18   1.0000     -51.280000     -1395.3997   16-A'
  19   1.0000     -51.278192     -1395.3506   17-A'
  20   1.0000     -51.277864     -1395.3416    4-A"
  21   1.0000     -38.014685     -1034.4322   18-A'
  22   1.0000     -33.517414      -912.0552   19-A'
  23   1.0000     -33.516643      -912.0342   20-A'
  24   1.0000     -33.514741      -911.9825    5-A"
  25   1.0000      -9.819353      -267.1982   21-A'
  26   1.0000      -9.817852      -267.1573   22-A'
  27   1.0000      -9.816194      -267.1122   23-A'
  28   1.0000      -9.815800      -267.1015   24-A'
  29   1.0000      -9.815064      -267.0815   25-A'
  30   1.0000      -9.814206      -267.0581   26-A'
  31   1.0000      -9.812359      -267.0079   27-A'
  32   1.0000      -9.811850      -266.9940   28-A'
  33   1.0000      -9.810211      -266.9494   29-A'
  34   1.0000      -9.805688      -266.8263   30-A'
  35   1.0000      -9.800469      -266.6843   31-A'
  36   1.0000      -9.798482      -266.6302   32-A'
  37   1.0000      -7.343995      -199.8403   33-A'
  38   1.0000      -7.343649      -199.8308   34-A'
  39   1.0000      -7.335393      -199.6062   35-A'
  40   1.0000      -7.329156      -199.4365   36-A'
  41   1.0000      -5.408918      -147.1841   37-A'
  42   1.0000      -5.406399      -147.1156   38-A'
  43   1.0000      -5.404454      -147.0627   39-A'
  44   1.0000      -5.403370      -147.0332    6-A"
  45   1.0000      -5.403045      -147.0243   40-A'
  46   1.0000      -5.401075      -146.9707    7-A"
  47   1.0000      -5.400648      -146.9591   41-A'
  48   1.0000      -5.400187      -146.9466   42-A'
  49   1.0000      -5.398992      -146.9140    8-A"
  50   1.0000      -5.398815      -146.9092   43-A'
  51   1.0000      -5.394500      -146.7918   44-A'
  52   1.0000      -5.393355      -146.7607    9-A"
  53   1.0000      -3.994767      -108.7031   45-A'
  54   1.0000      -2.507629       -68.2361   10-A"
  55   1.0000      -2.507331       -68.2279   46-A'
  56   1.0000      -2.506351       -68.2013   47-A'
  57   1.0000      -1.748131       -47.5691   48-A'
  58   1.0000      -1.745980       -47.5105   49-A'
  59   1.0000      -1.744588       -47.4727   11-A"
  60   1.0000      -1.744567       -47.4721   50-A'
  61   1.0000      -1.743693       -47.4483   51-A'
  62   1.0000      -1.742227       -47.4084   12-A"
  63   1.0000      -1.742180       -47.4071   52-A'
  64   1.0000      -1.740270       -47.3552   53-A'
  65   1.0000      -1.740225       -47.3539   13-A"
  66   1.0000      -1.739714       -47.3400   14-A"
  67   1.0000      -1.739618       -47.3374   54-A'
  68   1.0000      -1.738024       -47.2940   55-A'
  69   1.0000      -1.737423       -47.2777   15-A"
  70   1.0000      -1.737328       -47.2751   56-A'
  71   1.0000      -1.736052       -47.2404   57-A'
  72   1.0000      -1.735439       -47.2237   58-A'
  73   1.0000      -1.735376       -47.2220   16-A"
  74   1.0000      -1.735048       -47.2131   17-A"
  75   1.0000      -1.730332       -47.0847   59-A'
  76   1.0000      -1.730289       -47.0836   18-A"
  77   1.0000      -0.611367       -16.6361   60-A'
  78   1.0000      -0.598820       -16.2947   61-A'
  79   1.0000      -0.523059       -14.2332   62-A'
  80   1.0000      -0.519772       -14.1437   63-A'
  81   1.0000      -0.508201       -13.8289   64-A'
  82   1.0000      -0.494315       -13.4510   65-A'
  83   1.0000      -0.416974       -11.3465   66-A'
  84   1.0000      -0.407727       -11.0948   67-A'
  85   1.0000      -0.381231       -10.3738   68-A'
  86   1.0000      -0.374362       -10.1869   69-A'
  87   1.0000      -0.320948        -8.7334   70-A'
  88   1.0000      -0.316740        -8.6189   71-A'
  89   1.0000      -0.292506        -7.9595   72-A'
  90   1.0000      -0.275508        -7.4970   73-A'
  91   1.0000      -0.230909        -6.2833   74-A'
  92   1.0000      -0.222236        -6.0474   75-A'
  93   1.0000      -0.207065        -5.6345   76-A'
  94   1.0000      -0.203362        -5.5338   77-A'
  95   1.0000      -0.168980        -4.5982   78-A'
  96   1.0000      -0.150154        -4.0859   79-A'
  97   1.0000      -0.136553        -3.7158   80-A'
  98   1.0000      -0.135475        -3.6865   19-A"
  99   1.0000      -0.131088        -3.5671   81-A'
 100   1.0000      -0.129321        -3.5190   20-A"
 101   1.0000      -0.123537        -3.3616   82-A'
 102   1.0000      -0.106504        -2.8981   83-A'
 103   1.0000      -0.074532        -2.0281   84-A'
 104   1.0000      -0.069275        -1.8851   85-A'
 105   1.0000      -0.055504        -1.5103   86-A'
 106   1.0000      -0.049676        -1.3518   21-A"
 107   1.0000      -0.047231        -1.2852   22-A"
 108   1.0000      -0.043902        -1.1946   87-A'
 109   1.0000      -0.034413        -0.9364   23-A"
 110   1.0000      -0.026662        -0.7255   24-A"
 111   1.0000      -0.022558        -0.6138   88-A'
 112   1.0000      -0.002933        -0.0798   89-A'
 113   1.0000       0.006554         0.1783   25-A"
 114   1.0000       0.009036         0.2459   26-A"
 115   1.0000       0.010409         0.2832   90-A'
 116   1.0000       0.027117         0.7379   91-A'
 117   1.0000       0.031009         0.8438   92-A'
 118   1.0000       0.051766         1.4086   93-A'
 119   1.0000       0.054392         1.4801   27-A"
 120   1.0000       0.061082         1.6621   28-A"
 121   1.0000       0.069889         1.9018   29-A"
 122   1.0000       0.101424         2.7599   30-A"
 123   0.0000       0.145021         3.9462   94-A'
 124   0.0000       0.183598         4.9959   95-A'
 125   0.0000       0.184544         5.0217   96-A'
 126   0.0000       0.196292         5.3414   31-A"
 127   0.0000       0.199127         5.4185   97-A'

MULLIKEN ATOMIC CHARGES AND SPIN POPULATIONS
--------------------------------------------
   0 Cu:    0.633517    0.307636
   1 Se:   -0.795082    0.169626
   2 C :    0.387015   -0.001942
   3 Se:   -0.677205    0.171416
   4 C :    0.161754   -0.003664
   5 Se:   -0.714091    0.176144
   6 C :    0.188318   -0.006610
   7 Se:   -0.708187    0.171286
   8 C :    0.192427   -0.003099
   9 C :   -0.110452   -0.001039
  10 C :   -0.118454   -0.000944
  11 C :   -0.120498   -0.000352
  12 H :    0.076187    0.002316
  13 C :   -0.141682   -0.000930
  14 H :    0.090034    0.002665
  15 H :    0.019186    0.001860
  16 H :    0.024086    0.001678
  17 C :   -0.107723    0.013695
  18 C :   -0.076963   -0.002603
  19 C :   -0.185097   -0.001356
  20 H :    0.014900   -0.002603
  21 C :   -0.145620    0.000037
  22 H :    0.079078    0.002689
  23 H :    0.018080    0.001149
  24 H :    0.016473    0.002945
Sum of atomic charges         :   -2.0000000

LOEWDIN ATOMIC CHARGES AND SPIN POPULATIONS
-------------------------------------------
   0 Cu:   -0.613698    0.387417
   1 Se:   -0.136830    0.114657
   2 C :    0.062908    0.007174
   3 Se:   -0.213640    0.122384
   4 C :    0.020339    0.013172
   5 Se:   -0.185858    0.128285
   6 C :    0.030865    0.010617
   7 Se:   -0.215809    0.120778
   8 C :    0.032465    0.012542
   9 C :    0.388634    0.007490
  10 C :    0.383245    0.007693
  11 C :    0.313632    0.000705
  12 H :   -0.439291    0.005900
  13 C :    0.320356    0.000366
  14 H :   -0.455134    0.008227
  15 H :   -0.405391    0.000600
  16 H :   -0.417309    0.000409
  17 C :    0.315579    0.012474
  18 C :    0.354913    0.006335
  19 C :    0.301487    0.001325
  20 H :   -0.500030    0.022099
  21 C :    0.322043    0.001402
  22 H :   -0.448706    0.007030
  23 H :   -0.420467   -0.000271
  24 H :   -0.394302    0.001190

  Mayer bond orders larger than 0.100000
B(  0-Cu,  1-Se) :   0.5210 B(  0-Cu,  3-Se) :   0.5684 B(  0-Cu,  5-Se) :   0.5542
B(  0-Cu,  7-Se) :   0.5601 B(  1-Se,  2-C ) :   0.9247 B(  2-C ,  6-C ) :   1.1094
B(  2-C , 17-C ) :   1.3320 B(  3-Se,  4-C ) :   1.0777 B(  4-C ,  8-C ) :   1.1531
B(  4-C , 10-C ) :   1.2257 B(  5-Se,  6-C ) :   1.0752 B(  6-C , 18-C ) :   1.2757
B(  7-Se,  8-C ) :   1.0491 B(  8-C ,  9-C ) :   1.2334 B(  9-C , 13-C ) :   1.4114
B(  9-C , 14-H ) :   0.9639 B( 10-C , 11-C ) :   1.4148 B( 10-C , 12-H ) :   0.9740
B( 11-C , 13-C ) :   1.2753 B( 11-C , 15-H ) :   0.9925 B( 13-C , 16-H ) :   0.9900
B( 17-C , 19-C ) :   1.3314 B( 17-C , 20-H ) :   0.9384 B( 18-C , 21-C ) :   1.3333
B( 18-C , 22-H ) :   0.9672 B( 19-C , 21-C ) :   1.3656 B( 19-C , 23-H ) :   0.9963
B( 21-C , 24-H ) :   0.9983

FINAL SINGLE POINT ENERGY    -11627.058489754903

DIPOLE MOMENT
-------------
                                X             Y             Z
Electronic contribution:      0.08218      -0.53872      -0.00000
Nuclear contribution   :      0.12786       0.55422       0.00000
                        -----------------------------------------
Total Dipole Moment    :      0.21004       0.01550      -0.00000
                        -----------------------------------------
Magnitude (a.u.)       :      0.21061
Magnitude (Debye)      :      0.53532

Rotational constants in cm-1:     0.017617     0.004096     0.003323
Rotational constants in MHz :   528.153213   122.786598    99.625396

                             ****ORCA TERMINATED NORMALLY****
TOTAL RUN TIME: 0 days 16 hours 51 minutes 29 seconds 838 msec
