                         Program Version 5.0.4 -  RELEASE  -
|  1> ! RIJCOSX nofrozencore ReducedPop printbasis
|  2> ! M06L ano-rcc-dzp autoaux
|  3>
|  4> %maxcore 7500
|  5> %basis
|  6> PCDTrimBas overlap
|  7> PCDTrimAuxJ Coulomb
|  8> PCDTrimAuxJK Coulomb
|  9> PCDTrimAuxC Coulomb
| 10> PCDThresh -1
| 11> end
| 12>
| 13> %basis
| 14> newgto Cu "ano-rcc-tzp" end
| 15> newgto Se "ano-rcc-tzp" end
| 16> end
| 17>
| 18> %pal
| 19> nprocs 8
| 20> end
| 21>
| 22> % sym SymThresh 1e-2 end
| 23> * xyz -2 2
| 24> Cu 1.9147493789795815e-07 -3.790036019063127e-06 -8.09931875668325e-06
| 25> Se 0.2979441648882249 1.7830562054079477 -1.5296637623772973
| 26> C 0.3704398850358463 3.124550213735973 -0.5932869224937568
| 27> Se -0.05997104835350131 -1.708851866984752 -1.6383744391704564
| 28> C -0.2666209189955873 -3.092203752183746 -0.7888500029186214
| 29> Se 0.05998081652923533 1.7088934178532398 1.6382999132818623
| 30> C 0.26669372346936815 3.093480594670008 0.7896889205390555
| 31> Se -0.2979463721795891 -1.783143517078773 1.5295682594977462
| 32> C -0.37062709635388164 -3.125267037734132 0.5948298846702418
| 33> C -0.54428858214228 -4.375079898084524 1.1828906930782996
| 34> C -0.3470097428657643 -4.313370703020605 -1.4431215380059872
| 35> C -0.5184030784870313 -5.54839011307671 -0.8649471679459813
| 36> H -0.2585715414298964 -4.277901398606473 -2.609083827659116
| 37> C -0.6224247548604434 -5.581876914380862 0.5183354235482085
| 38> H -0.6209644040860698 -4.390930612850847 2.215262122434343
| 39> H -0.5687925209300211 -6.460594482377334 -1.4866336393929127
| 40> H -0.7599859495627296 -6.508680320658231 1.0752714951711075
| 41> C 0.5466434029372886 4.3752728667840115 -1.2150198729480755
| 42> C 0.3494896854403478 4.314036840241203 1.4099525956196206
| 43> C 0.623512172546515 5.590286012277049 -0.5211769675560269
| 44> H 0.5934060716602392 4.38201160197037 -1.84885912834884
| 45> C 0.5178785985110579 5.54124738800392 0.8618672497182779
| 46> H 0.230118918879533 4.269579759943789 2.988655423553717
| 47> H 0.7485967266257229 6.430930830156075 -1.030625194713551
| 48> H 0.5726417569860605 6.527545234304027 1.5301848665425044
| 49> *
| 50>
| 51> % eprnmr
| 52> gtensor true
| 53> Nuclei = all H {aiso,adip,aorb,fgrad,rho}
| 54> Nuclei = all Cu {aiso,adip,aorb,fgrad,rho}
| 55> end
| 56>
| 57>                          ****END OF INPUT****

CARTESIAN COORDINATES (ANGSTROEM)
---------------------------------
  Cu    -0.000004   -0.000008    0.000000
  Se     1.798591   -1.540455    0.000000
  C      3.143872   -0.606708    0.000000
  Se    -1.711989   -1.636195    0.000000
  C     -3.106118   -0.779186    0.000000
  Se     1.712031    1.636120    0.000000
  C      3.107398    0.780022    0.000000
  Se    -1.798679    1.540359    0.000000
  C     -3.144599    0.608258    0.000000
  C     -4.403469    1.202609    0.000000
  C     -4.331482   -1.430542    0.000000
  C     -5.575440   -0.846159    0.000000
  H     -4.291405   -2.599705    0.000000
  C     -5.614346    0.540888    0.000000
  H     -4.423314    2.237755    0.000000
  H     -6.490276   -1.466017    0.000000
  H     -6.548323    1.102806    0.000000
  C      4.403784   -1.234824    0.000000
  C      4.332277    1.397283    0.000000
  C      5.622811   -0.543769    0.000000
  H      4.412959   -1.870355    0.000000
  C      5.568269    0.843098    0.000000
  H      4.281601    2.980306    0.000000
  H      6.469979   -1.057748    0.000000
  H      6.557427    1.509429    0.000000

 Total Charge           Charge          ....   -2
 Multiplicity           Mult            ....    2
 Number of Electrons    NEL             ....  247
 Basis Dimension        Dim             ....  575

ORBITAL ENERGIES
----------------
                 SPIN UP ORBITALS
  NO   OCC          E(Eh)            E(eV)    Irrep
   0   1.0000    -443.563660    -12069.9808    1-A'
   1   1.0000    -443.562217    -12069.9416    2-A'
   2   1.0000    -443.549040    -12069.5830    3-A'
   3   1.0000    -443.548094    -12069.5573    4-A'
   4   1.0000    -318.188455     -8658.3481    5-A'
   5   1.0000     -56.372368     -1533.9701    6-A'
   6   1.0000     -56.371322     -1533.9416    7-A'
   7   1.0000     -56.359298     -1533.6145    8-A'
   8   1.0000     -56.358234     -1533.5855    9-A'
   9   1.0000     -51.289324     -1395.6535   10-A'
  10   1.0000     -51.287971     -1395.6166   11-A'
  11   1.0000     -51.287783     -1395.6115   12-A'
  12   1.0000     -51.287551     -1395.6052    1-A"
  13   1.0000     -51.287506     -1395.6040   13-A'
  14   1.0000     -51.287316     -1395.5988   14-A'
  15   1.0000     -51.286381     -1395.5734   15-A'
  16   1.0000     -51.286176     -1395.5678   16-A'
  17   1.0000     -51.285973     -1395.5623   17-A'
  18   1.0000     -51.285934     -1395.5612    2-A"
  19   1.0000     -51.285726     -1395.5556    3-A"
  20   1.0000     -51.285532     -1395.5503    4-A"
  21   1.0000     -38.029017     -1034.8222   18-A'
  22   1.0000     -33.531075      -912.4269   19-A'
  23   1.0000     -33.530281      -912.4053   20-A'
  24   1.0000     -33.519095      -912.1009    5-A"
  25   1.0000      -9.844618      -267.8857   21-A'
  26   1.0000      -9.829917      -267.4857   22-A'
  27   1.0000      -9.818912      -267.1862   23-A'
  28   1.0000      -9.817505      -267.1479   24-A'
  29   1.0000      -9.816029      -267.1077   25-A'
  30   1.0000      -9.814345      -267.0619   26-A'
  31   1.0000      -9.813396      -267.0361   27-A'
  32   1.0000      -9.812699      -267.0171   28-A'
  33   1.0000      -9.809979      -266.9431   29-A'
  34   1.0000      -9.809522      -266.9307   30-A'
  35   1.0000      -9.803237      -266.7596   31-A'
  36   1.0000      -9.785812      -266.2855   32-A'
  37   1.0000      -7.343498      -199.8267   33-A'
  38   1.0000      -7.342400      -199.7969   34-A'
  39   1.0000      -7.336020      -199.6233   35-A'
  40   1.0000      -7.335010      -199.5958   36-A'
  41   1.0000      -5.406929      -147.1300   37-A'
  42   1.0000      -5.405996      -147.1046   38-A'
  43   1.0000      -5.405273      -147.0850   39-A'
  44   1.0000      -5.405184      -147.0825   40-A'
  45   1.0000      -5.401646      -146.9863   41-A'
  46   1.0000      -5.401337      -146.9779    6-A"
  47   1.0000      -5.400352      -146.9511   42-A'
  48   1.0000      -5.400004      -146.9416   43-A'
  49   1.0000      -5.400000      -146.9415    7-A"
  50   1.0000      -5.399841      -146.9371   44-A'
  51   1.0000      -5.399607      -146.9308    8-A"
  52   1.0000      -5.399481      -146.9273    9-A"
  53   1.0000      -4.023313      -109.4799   45-A'
  54   1.0000      -2.542887       -69.1955   46-A'
  55   1.0000      -2.541916       -69.1691   47-A'
  56   1.0000      -2.518399       -68.5291   10-A"
  57   1.0000      -1.745978       -47.5105   48-A'
  58   1.0000      -1.745014       -47.4843   49-A'
  59   1.0000      -1.744324       -47.4655   50-A'
  60   1.0000      -1.744251       -47.4635   51-A'
  61   1.0000      -1.743167       -47.4340   52-A'
  62   1.0000      -1.742562       -47.4175   11-A"
  63   1.0000      -1.742136       -47.4059   53-A'
  64   1.0000      -1.741563       -47.3903   54-A'
  65   1.0000      -1.741440       -47.3870   55-A'
  66   1.0000      -1.741434       -47.3868   12-A"
  67   1.0000      -1.740870       -47.3715   13-A"
  68   1.0000      -1.740742       -47.3680   14-A"
  69   1.0000      -1.738199       -47.2988   56-A'
  70   1.0000      -1.738150       -47.2975   15-A"
  71   1.0000      -1.736842       -47.2619   16-A"
  72   1.0000      -1.736799       -47.2607   57-A'
  73   1.0000      -1.736518       -47.2530   58-A'
  74   1.0000      -1.736463       -47.2516   17-A"
  75   1.0000      -1.736364       -47.2489   18-A"
  76   1.0000      -1.736317       -47.2476   59-A'
  77   1.0000      -0.610520       -16.6131   60-A'
  78   1.0000      -0.604231       -16.4420   61-A'
  79   1.0000      -0.528024       -14.3683   62-A'
  80   1.0000      -0.522647       -14.2220   63-A'
  81   1.0000      -0.516950       -14.0669   64-A'
  82   1.0000      -0.500151       -13.6098   65-A'
  83   1.0000      -0.425759       -11.5855   66-A'
  84   1.0000      -0.413540       -11.2530   67-A'
  85   1.0000      -0.393196       -10.6994   68-A'
  86   1.0000      -0.381857       -10.3908   69-A'
  87   1.0000      -0.343266        -9.3408   70-A'
  88   1.0000      -0.319458        -8.6929   71-A'
  89   1.0000      -0.287781        -7.8309   72-A'
  90   1.0000      -0.284566        -7.7434   73-A'
  91   1.0000      -0.236178        -6.4267   74-A'
  92   1.0000      -0.226002        -6.1498   75-A'
  93   1.0000      -0.207033        -5.6337   76-A'
  94   1.0000      -0.201436        -5.4814   77-A'
  95   1.0000      -0.177952        -4.8423   78-A'
  96   1.0000      -0.166352        -4.5267   79-A'
  97   1.0000      -0.141009        -3.8371   80-A'
  98   1.0000      -0.138506        -3.7690   81-A'
  99   1.0000      -0.136323        -3.7095   82-A'
 100   1.0000      -0.134637        -3.6637   19-A"
 101   1.0000      -0.132007        -3.5921   20-A"
 102   1.0000      -0.106111        -2.8874   83-A'
 103   1.0000      -0.075413        -2.0521   84-A'
 104   1.0000      -0.072900        -1.9837   85-A'
 105   1.0000      -0.068100        -1.8531   86-A'
 106   1.0000      -0.052048        -1.4163   21-A"
 107   1.0000      -0.051611        -1.4044   87-A'
 108   1.0000      -0.049689        -1.3521   22-A"
 109   1.0000      -0.035416        -0.9637   23-A"
 110   1.0000      -0.031212        -0.8493   88-A'
 111   1.0000      -0.030360        -0.8261   89-A'
 112   1.0000      -0.029201        -0.7946   24-A"
 113   1.0000      -0.003594        -0.0978   25-A"
 114   1.0000      -0.002682        -0.0730   26-A"
 115   1.0000      -0.000977        -0.0266   90-A'
 116   1.0000       0.017615         0.4793   91-A'
 117   1.0000       0.019318         0.5257   92-A'
 118   1.0000       0.039955         1.0872   93-A'
 119   1.0000       0.052616         1.4318   27-A"
 120   1.0000       0.054426         1.4810   28-A"
 121   1.0000       0.068422         1.8619   29-A"
 122   1.0000       0.097369         2.6495   30-A"
 123   1.0000       0.114987         3.1289   94-A'
 124   0.0000       0.173820         4.7299   95-A'
 125   0.0000       0.181103         4.9281   96-A'
 126   0.0000       0.191538         5.2120   97-A'
 127   0.0000       0.195505         5.3200   98-A'
 128   0.0000       0.200224         5.4484   31-A"

                 SPIN DOWN ORBITALS
  NO   OCC          E(Eh)            E(eV)    Irrep
   0   1.0000    -443.563206    -12069.9685    1-A'
   1   1.0000    -443.561764    -12069.9292    2-A'
   2   1.0000    -443.548583    -12069.5706    3-A'
   3   1.0000    -443.547641    -12069.5449    4-A'
   4   1.0000    -318.188333     -8658.3447    5-A'
   5   1.0000     -56.372184     -1533.9651    6-A'
   6   1.0000     -56.371138     -1533.9366    7-A'
   7   1.0000     -56.359116     -1533.6095    8-A'
   8   1.0000     -56.358053     -1533.5806    9-A'
   9   1.0000     -51.289001     -1395.6447   10-A'
  10   1.0000     -51.287466     -1395.6029   11-A'
  11   1.0000     -51.287302     -1395.5984    1-A"
  12   1.0000     -51.287243     -1395.5968   12-A'
  13   1.0000     -51.287178     -1395.5951   13-A'
  14   1.0000     -51.286992     -1395.5900   14-A'
  15   1.0000     -51.285680     -1395.5543    2-A"
  16   1.0000     -51.285621     -1395.5527   15-A'
  17   1.0000     -51.285474     -1395.5487    3-A"
  18   1.0000     -51.285437     -1395.5477   16-A'
  19   1.0000     -51.285283     -1395.5435    4-A"
  20   1.0000     -51.285243     -1395.5424   17-A'
  21   1.0000     -38.015127     -1034.4442   18-A'
  22   1.0000     -33.517876      -912.0678   19-A'
  23   1.0000     -33.517083      -912.0462   20-A'
  24   1.0000     -33.515213      -911.9953    5-A"
  25   1.0000      -9.844517      -267.8829   21-A'
  26   1.0000      -9.829868      -267.4843   22-A'
  27   1.0000      -9.818861      -267.1848   23-A'
  28   1.0000      -9.817455      -267.1465   24-A'
  29   1.0000      -9.815909      -267.1045   25-A'
  30   1.0000      -9.814360      -267.0623   26-A'
  31   1.0000      -9.813414      -267.0366   27-A'
  32   1.0000      -9.812663      -267.0161   28-A'
  33   1.0000      -9.810000      -266.9437   29-A'
  34   1.0000      -9.809542      -266.9312   30-A'
  35   1.0000      -9.803118      -266.7564   31-A'
  36   1.0000      -9.785706      -266.2826   32-A'
  37   1.0000      -7.343098      -199.8158   33-A'
  38   1.0000      -7.341999      -199.7860   34-A'
  39   1.0000      -7.335610      -199.6121   35-A'
  40   1.0000      -7.334602      -199.5847   36-A'
  41   1.0000      -5.406568      -147.1202   37-A'
  42   1.0000      -5.405638      -147.0949   38-A'
  43   1.0000      -5.404907      -147.0750   39-A'
  44   1.0000      -5.404824      -147.0727   40-A'
  45   1.0000      -5.401023      -146.9693    6-A"
  46   1.0000      -5.400832      -146.9641   41-A'
  47   1.0000      -5.399690      -146.9330    7-A"
  48   1.0000      -5.399493      -146.9277   42-A'
  49   1.0000      -5.399292      -146.9222    8-A"
  50   1.0000      -5.399170      -146.9189   43-A'
  51   1.0000      -5.399168      -146.9188    9-A"
  52   1.0000      -5.399017      -146.9147   44-A'
  53   1.0000      -3.995099      -108.7122   45-A'
  54   1.0000      -2.508075       -68.2482   10-A"
  55   1.0000      -2.507665       -68.2370   46-A'
  56   1.0000      -2.506614       -68.2084   47-A'
  57   1.0000      -1.745529       -47.4982   48-A'
  58   1.0000      -1.744570       -47.4722   49-A'
  59   1.0000      -1.743870       -47.4531   50-A'
  60   1.0000      -1.743805       -47.4514   51-A'
  61   1.0000      -1.742292       -47.4102   52-A'
  62   1.0000      -1.742247       -47.4090   11-A"
  63   1.0000      -1.741216       -47.3809   53-A'
  64   1.0000      -1.741137       -47.3788   12-A"
  65   1.0000      -1.740665       -47.3659   54-A'
  66   1.0000      -1.740555       -47.3629   13-A"
  67   1.0000      -1.740541       -47.3625   55-A'
  68   1.0000      -1.740434       -47.3596   14-A"
  69   1.0000      -1.737403       -47.2771   56-A'
  70   1.0000      -1.737392       -47.2768   15-A"
  71   1.0000      -1.736050       -47.2403   16-A"
  72   1.0000      -1.735964       -47.2380   57-A'
  73   1.0000      -1.735707       -47.2310   58-A'
  74   1.0000      -1.735690       -47.2305   17-A"
  75   1.0000      -1.735600       -47.2281   18-A"
  76   1.0000      -1.735514       -47.2257   59-A'
  77   1.0000      -0.609750       -16.5921   60-A'
  78   1.0000      -0.603432       -16.4202   61-A'
  79   1.0000      -0.526856       -14.3365   62-A'
  80   1.0000      -0.521511       -14.1910   63-A'
  81   1.0000      -0.515752       -14.0343   64-A'
  82   1.0000      -0.498445       -13.5634   65-A'
  83   1.0000      -0.422693       -11.5021   66-A'
  84   1.0000      -0.410852       -11.1798   67-A'
  85   1.0000      -0.391330       -10.6486   68-A'
  86   1.0000      -0.379469       -10.3259   69-A'
  87   1.0000      -0.341126        -9.2825   70-A'
  88   1.0000      -0.317645        -8.6436   71-A'
  89   1.0000      -0.285309        -7.7636   72-A'
  90   1.0000      -0.281855        -7.6697   73-A'
  91   1.0000      -0.234985        -6.3943   74-A'
  92   1.0000      -0.224876        -6.1192   75-A'
  93   1.0000      -0.205520        -5.5925   76-A'
  94   1.0000      -0.200187        -5.4474   77-A'
  95   1.0000      -0.176639        -4.8066   78-A'
  96   1.0000      -0.164526        -4.4770   79-A'
  97   1.0000      -0.139942        -3.8080   80-A'
  98   1.0000      -0.136960        -3.7269   81-A'
  99   1.0000      -0.134269        -3.6537   19-A"
 100   1.0000      -0.134265        -3.6535   82-A'
 101   1.0000      -0.131623        -3.5816   20-A"
 102   1.0000      -0.103921        -2.8278   83-A'
 103   1.0000      -0.073835        -2.0092   84-A'
 104   1.0000      -0.071091        -1.9345   85-A'
 105   1.0000      -0.057465        -1.5637   86-A'
 106   1.0000      -0.051157        -1.3920   21-A"
 107   1.0000      -0.048886        -1.3303   87-A'
 108   1.0000      -0.048873        -1.3299   22-A"
 109   1.0000      -0.033139        -0.9018   23-A"
 110   1.0000      -0.028226        -0.7681   24-A"
 111   1.0000      -0.024644        -0.6706   88-A'
 112   1.0000      -0.003169        -0.0862   89-A'
 113   1.0000       0.006049         0.1646   25-A"
 114   1.0000       0.008525         0.2320   26-A"
 115   1.0000       0.009353         0.2545   90-A'
 116   1.0000       0.027465         0.7474   91-A'
 117   1.0000       0.030595         0.8325   92-A'
 118   1.0000       0.051189         1.3929   93-A'
 119   1.0000       0.054663         1.4875   27-A"
 120   1.0000       0.057888         1.5752   28-A"
 121   1.0000       0.070157         1.9091   29-A"
 122   1.0000       0.100628         2.7382   30-A"
 123   0.0000       0.144750         3.9388   94-A'
 124   0.0000       0.175140         4.7658   95-A'
 125   0.0000       0.183084         4.9820   96-A'
 126   0.0000       0.192751         5.2450   97-A'
 127   0.0000       0.198962         5.4140   98-A'

MULLIKEN ATOMIC CHARGES AND SPIN POPULATIONS
--------------------------------------------
   0 Cu:    0.640063    0.309784
   1 Se:   -0.756454    0.171770
   2 C :    0.195960   -0.002751
   3 Se:   -0.722004    0.172424
   4 C :    0.227414   -0.003161
   5 Se:   -0.683690    0.174629
   6 C :    0.223542   -0.002907
   7 Se:   -0.734934    0.174542
   8 C :    0.218301   -0.003365
   9 C :   -0.133880   -0.001831
  10 C :   -0.056475   -0.000920
  11 C :   -0.133644   -0.000797
  12 H :    0.009234    0.002374
  13 C :   -0.156676   -0.000679
  14 H :    0.147649    0.002958
  15 H :    0.004216    0.001685
  16 H :    0.015670    0.001637
  17 C :   -1.168492   -0.004890
  18 C :   -0.005690   -0.000534
  19 C :   -0.263941   -0.000588
  20 H :    1.302710    0.005331
  21 C :   -0.102232   -0.001204
  22 H :   -0.149102    0.003709
  23 H :    0.143102    0.000721
  24 H :   -0.060647    0.002061
Sum of atomic charges         :   -2.0000000

LOEWDIN ATOMIC CHARGES AND SPIN POPULATIONS
-------------------------------------------
   0 Cu:   -0.614852    0.389914
   1 Se:   -0.152583    0.124084
   2 C :    0.125498    0.012197
   3 Se:   -0.212287    0.122369
   4 C :    0.026334    0.011695
   5 Se:   -0.248608    0.123795
   6 C :   -0.004611    0.012449
   7 Se:   -0.194910    0.124371
   8 C :    0.044711    0.011884
   9 C :    0.393177    0.006991
  10 C :    0.328339    0.006759
  11 C :    0.295077    0.000444
  12 H :   -0.380573    0.009440
  13 C :    0.320825    0.000447
  14 H :   -0.505978    0.009460
  15 H :   -0.397117    0.000373
  16 H :   -0.405729    0.000450
  17 C :    0.743913    0.006960
  18 C :    0.236108    0.005849
  19 C :    0.457549    0.000149
  20 H :   -1.085727    0.008319
  21 C :    0.238771    0.000441
  22 H :   -0.182210    0.010234
  23 H :   -0.492511    0.000359
  24 H :   -0.332607    0.000566

  Mayer bond orders larger than 0.100000
B(  0-Cu,  1-Se) :   0.5360 B(  0-Cu,  3-Se) :   0.5522 B(  0-Cu,  5-Se) :   0.5559
B(  0-Cu,  7-Se) :   0.5520 B(  1-Se,  2-C ) :   1.0555 B(  1-Se, 17-C ) :   0.1025
B(  2-C ,  6-C ) :   1.1225 B(  2-C , 17-C ) :   1.3460 B(  3-Se,  4-C ) :   1.0383
B(  4-C ,  8-C ) :   1.1324 B(  4-C , 10-C ) :   1.2540 B(  5-Se,  6-C ) :   1.0458
B(  6-C , 18-C ) :   1.2763 B(  7-Se,  8-C ) :   1.0399 B(  8-C ,  9-C ) :   1.2623
B(  9-C , 13-C ) :   1.3847 B(  9-C , 14-H ) :   0.9263 B( 10-C , 11-C ) :   1.3730
B( 10-C , 12-H ) :   0.9919 B( 11-C , 13-C ) :   1.3103 B( 11-C , 15-H ) :   1.0014
B( 13-C , 16-H ) :   0.9973 B( 17-C , 19-C ) :   1.5166 B( 17-C , 20-H ) :  -1.0464
B( 18-C , 21-C ) :   1.3890 B( 18-C , 22-H ) :   0.9371 B( 19-C , 21-C ) :   1.3152
B( 19-C , 23-H ) :   0.9236 B( 21-C , 24-H ) :   1.0188

FINAL SINGLE POINT ENERGY    -11626.705722103550

DIPOLE MOMENT
-------------
                                X             Y             Z
Electronic contribution:     -0.06811      -1.20923       0.00000
Nuclear contribution   :     -0.02892       0.78656       0.00000
                        -----------------------------------------
Total Dipole Moment    :     -0.09703      -0.42267       0.00000
                        -----------------------------------------
Magnitude (a.u.)       :      0.43367
Magnitude (Debye)      :      1.10229

Rotational constants in cm-1:     0.017603     0.004098     0.003324
Rotational constants in MHz :   527.729557   122.849828    99.651921

                             ****ORCA TERMINATED NORMALLY****
TOTAL RUN TIME: 0 days 17 hours 18 minutes 43 seconds 300 msec
