                         Program Version 5.0.4 -  RELEASE  -
|  1> ! RIJCOSX nofrozencore ReducedPop printbasis
|  2> ! M06L ano-rcc-dzp autoaux
|  3>
|  4> %maxcore 7500
|  5> %basis
|  6> PCDTrimBas overlap
|  7> PCDTrimAuxJ Coulomb
|  8> PCDTrimAuxJK Coulomb
|  9> PCDTrimAuxC Coulomb
| 10> PCDThresh -1
| 11> end
| 12>
| 13> %basis
| 14> newgto Cu "ano-rcc-tzp" end
| 15> newgto Se "ano-rcc-tzp" end
| 16> end
| 17>
| 18> %pal
| 19> nprocs 8
| 20> end
| 21>
| 22> % sym SymThresh 1e-2 end
| 23> * xyz -2 2
| 24> Cu 0.00036334564485479765 -7.757440451430736e-05 4.7740487317389574e-05
| 25> Se -1.3201879623882593 -0.17318932736294898 -1.957392910416993
| 26> C -0.15788155305841844 -0.7530263461675314 -3.1049773684829716
| 27> Se -1.7513636834176742 0.7860543069516212 1.3855887407385652
| 28> C -1.0863652253949654 1.000988211928981 2.872162802268835
| 29> Se 1.746640256607651 -0.7868943291860708 -1.393455934508645
| 30> C 1.1641347091192042 -1.0058245807054849 -2.815812678725732
| 31> Se 1.3133995425205875 0.17637215619046565 1.9632968058560165
| 32> C 0.27762506025835904 0.7218413049505237 3.0986794679001353
| 33> C 0.7376242157169142 0.9416994049494195 4.4060413512711065
| 34> C -1.7979119852003136 1.4416144380923186 3.9105043270267372
| 35> C -1.3603553019381882 1.6664618721987756 5.215693131504614
| 36> H -2.83715606943786 1.6469793532431163 3.709216749329135
| 37> C -0.03842628979764495 1.4019628607409582 5.458902783845891
| 38> H 1.7676453935556946 0.7609647880040813 4.694955822288452
| 39> H -2.0177750131170473 2.028418173281702 5.998040369959427
| 40> H 0.44403206302126463 1.528570222994343 6.422442831259855
| 41> C -0.8033113793131598 -0.9488823019924687 -4.497810358908484
| 42> C 1.728344485925957 -1.4149705206710474 -3.8734197262582115
| 43> C 0.046944632324184395 -1.3928074751925577 -5.414761970837286
| 44> H -1.8407237693217942 -0.7638088285536808 -4.776872690006529
| 45> C 1.399995744853033 -1.6832403789599943 -5.243083027111912
| 46> H 2.751382893338546 -1.5913037995041042 -3.574012643316446
| 47> H -0.6107917924379154 -1.4583276871906612 -6.308557267606011
| 48> H 1.906476905840439 -2.041930219024774 -6.1587900977896215
| 49> *
| 50>
| 51> % eprnmr
| 52> gtensor true
| 53> Nuclei = all H {aiso,adip,aorb,fgrad,rho}
| 54> Nuclei = all Cu {aiso,adip,aorb,fgrad,rho}
| 55> end
| 56>
| 57>                          ****END OF INPUT****

CARTESIAN COORDINATES (ANGSTROEM)
---------------------------------
  Cu     0.000038    0.000373    0.000000
  Se    -1.978863   -1.299376    0.000000
  C     -3.198171   -0.067546    0.000000
  Se     1.482816   -1.845608    0.000000
  C      2.996007   -1.206411    0.000000
  Se    -1.490787    1.840986    0.000000
  C     -2.940253    1.284758    0.000000
  Se     1.985160    1.292207    0.000000
  C      3.188017    0.191028    0.000000
  C      4.522600    0.624641    0.000000
  C      4.088857   -1.970794    0.000000
  C      5.421884   -1.560221    0.000000
  H      3.912955   -3.034645    0.000000
  C      5.632398   -0.206600    0.000000
  H      4.789177    1.676314    0.000000
  H      6.249006   -2.261042    0.000000
  H      6.611620    0.260658    0.000000
  C     -4.615260   -0.689464    0.000000
  C     -4.048477    1.898033    0.000000
  C     -5.587124    0.214020    0.000000
  H     -4.871448   -1.749049    0.000000
  C     -5.451349    1.601874    0.000000
  H     -3.770863    2.942195    0.000000
  H     -6.489047   -0.435839    0.000000
  H     -6.411431    2.151368    0.000000

 Total Charge           Charge          ....   -2
 Multiplicity           Mult            ....    2
 Number of Electrons    NEL             ....  247
 Basis Dimension        Dim             ....  575

ORBITAL ENERGIES
----------------
                 SPIN UP ORBITALS
  NO   OCC          E(Eh)            E(eV)    Irrep
   0   1.0000    -443.570035    -12070.1543    1-A'
   1   1.0000    -443.562149    -12069.9397    2-A'
   2   1.0000    -443.547700    -12069.5465    3-A'
   3   1.0000    -443.539479    -12069.3228    4-A'
   4   1.0000    -318.187948     -8658.3342    5-A'
   5   1.0000     -56.373947     -1534.0131    6-A'
   6   1.0000     -56.371016     -1533.9333    7-A'
   7   1.0000     -56.357821     -1533.5743    8-A'
   8   1.0000     -56.354695     -1533.4892    9-A'
   9   1.0000     -51.289544     -1395.6594   10-A'
  10   1.0000     -51.288611     -1395.6341   11-A'
  11   1.0000     -51.288303     -1395.6257   12-A'
  12   1.0000     -51.287753     -1395.6107    1-A"
  13   1.0000     -51.287280     -1395.5978   13-A'
  14   1.0000     -51.286942     -1395.5886    2-A"
  15   1.0000     -51.285529     -1395.5502   14-A'
  16   1.0000     -51.285334     -1395.5449   15-A'
  17   1.0000     -51.284169     -1395.5132   16-A'
  18   1.0000     -51.283964     -1395.5076   17-A'
  19   1.0000     -51.283656     -1395.4992    3-A"
  20   1.0000     -51.283615     -1395.4981    4-A"
  21   1.0000     -38.028465     -1034.8072   18-A'
  22   1.0000     -33.530531      -912.4121   19-A'
  23   1.0000     -33.529724      -912.3902   20-A'
  24   1.0000     -33.518557      -912.0863    5-A"
  25   1.0000      -9.826704      -267.3982   21-A'
  26   1.0000      -9.826467      -267.3917   22-A'
  27   1.0000      -9.814208      -267.0582   23-A'
  28   1.0000      -9.813675      -267.0437   24-A'
  29   1.0000      -9.813289      -267.0332   25-A'
  30   1.0000      -9.812767      -267.0190   26-A'
  31   1.0000      -9.811390      -266.9815   27-A'
  32   1.0000      -9.808334      -266.8983   28-A'
  33   1.0000      -9.806346      -266.8442   29-A'
  34   1.0000      -9.805969      -266.8340   30-A'
  35   1.0000      -9.802562      -266.7413   31-A'
  36   1.0000      -9.797690      -266.6087   32-A'
  37   1.0000      -7.343118      -199.8164   33-A'
  38   1.0000      -7.342262      -199.7931   34-A'
  39   1.0000      -7.334410      -199.5794   35-A'
  40   1.0000      -7.334104      -199.5711   36-A'
  41   1.0000      -5.406272      -147.1122   37-A'
  42   1.0000      -5.405753      -147.0980   38-A'
  43   1.0000      -5.405503      -147.0912   39-A'
  44   1.0000      -5.403472      -147.0360   40-A'
  45   1.0000      -5.400951      -146.9674   41-A'
  46   1.0000      -5.400889      -146.9657    6-A"
  47   1.0000      -5.400358      -146.9512    7-A"
  48   1.0000      -5.400295      -146.9495   42-A'
  49   1.0000      -5.400080      -146.9437   43-A'
  50   1.0000      -5.399221      -146.9203    8-A"
  51   1.0000      -5.398124      -146.8904   44-A'
  52   1.0000      -5.397384      -146.8703    9-A"
  53   1.0000      -4.022774      -109.4652   45-A'
  54   1.0000      -2.542349       -69.1808   46-A'
  55   1.0000      -2.541381       -69.1545   47-A'
  56   1.0000      -2.517861       -68.5145   10-A"
  57   1.0000      -1.746165       -47.5156   48-A'
  58   1.0000      -1.745395       -47.4946   49-A'
  59   1.0000      -1.743497       -47.4430   50-A'
  60   1.0000      -1.742524       -47.4165   51-A'
  61   1.0000      -1.742362       -47.4121   52-A'
  62   1.0000      -1.742210       -47.4079   53-A'
  63   1.0000      -1.742035       -47.4032   11-A"
  64   1.0000      -1.741584       -47.3909   54-A'
  65   1.0000      -1.741261       -47.3821   12-A"
  66   1.0000      -1.741070       -47.3769   13-A"
  67   1.0000      -1.739848       -47.3437   55-A'
  68   1.0000      -1.738802       -47.3152   14-A"
  69   1.0000      -1.737673       -47.2845   56-A'
  70   1.0000      -1.737571       -47.2817   15-A"
  71   1.0000      -1.737157       -47.2704   57-A'
  72   1.0000      -1.737044       -47.2674   16-A"
  73   1.0000      -1.736228       -47.2452   58-A'
  74   1.0000      -1.736208       -47.2446   17-A"
  75   1.0000      -1.734410       -47.1957   59-A'
  76   1.0000      -1.734378       -47.1948   18-A"
  77   1.0000      -0.615255       -16.7419   60-A'
  78   1.0000      -0.604005       -16.4358   61-A'
  79   1.0000      -0.534894       -14.5552   62-A'
  80   1.0000      -0.521312       -14.1856   63-A'
  81   1.0000      -0.501875       -13.6567   64-A'
  82   1.0000      -0.484936       -13.1958   65-A'
  83   1.0000      -0.417931       -11.3725   66-A'
  84   1.0000      -0.411844       -11.2068   67-A'
  85   1.0000      -0.391915       -10.6646   68-A'
  86   1.0000      -0.383535       -10.4365   69-A'
  87   1.0000      -0.325741        -8.8639   70-A'
  88   1.0000      -0.318064        -8.6549   71-A'
  89   1.0000      -0.287400        -7.8206   72-A'
  90   1.0000      -0.275502        -7.4968   73-A'
  91   1.0000      -0.232735        -6.3330   74-A'
  92   1.0000      -0.225148        -6.1266   75-A'
  93   1.0000      -0.201837        -5.4923   76-A'
  94   1.0000      -0.201018        -5.4700   77-A'
  95   1.0000      -0.170227        -4.6321   78-A'
  96   1.0000      -0.164746        -4.4830   79-A'
  97   1.0000      -0.141137        -3.8405   80-A'
  98   1.0000      -0.139279        -3.7900   19-A"
  99   1.0000      -0.136034        -3.7017   81-A'
 100   1.0000      -0.132784        -3.6132   82-A'
 101   1.0000      -0.131514        -3.5787   20-A"
 102   1.0000      -0.114074        -3.1041   83-A'
 103   1.0000      -0.075824        -2.0633   84-A'
 104   1.0000      -0.071137        -1.9357   85-A'
 105   1.0000      -0.060951        -1.6586   86-A'
 106   1.0000      -0.055965        -1.5229   21-A"
 107   1.0000      -0.047969        -1.3053   22-A"
 108   1.0000      -0.045570        -1.2400   87-A'
 109   1.0000      -0.033787        -0.9194   23-A"
 110   1.0000      -0.031818        -0.8658   88-A'
 111   1.0000      -0.023815        -0.6480   89-A'
 112   1.0000      -0.023300        -0.6340   24-A"
 113   1.0000      -0.004325        -0.1177   25-A"
 114   1.0000       0.000437         0.0119   90-A'
 115   1.0000       0.000968         0.0263   26-A"
 116   1.0000       0.019022         0.5176   91-A'
 117   1.0000       0.022535         0.6132   92-A'
 118   1.0000       0.040221         1.0945   93-A'
 119   1.0000       0.053172         1.4469   27-A"
 120   1.0000       0.056998         1.5510   28-A"
 121   1.0000       0.068906         1.8750   29-A"
 122   1.0000       0.097197         2.6449   30-A"
 123   1.0000       0.115200         3.1348   94-A'
 124   0.0000       0.182086         4.9548   95-A'
 125   0.0000       0.182506         4.9662   96-A'
 126   0.0000       0.188327         5.1246   31-A"
 127   0.0000       0.195850         5.3294   97-A'
 128   0.0000       0.196960         5.3596   98-A'

                 SPIN DOWN ORBITALS
  NO   OCC          E(Eh)            E(eV)    Irrep
   0   1.0000    -443.569609    -12070.1427    1-A'
   1   1.0000    -443.561699    -12069.9275    2-A'
   2   1.0000    -443.547239    -12069.5340    3-A'
   3   1.0000    -443.539007    -12069.3100    4-A'
   4   1.0000    -318.187825     -8658.3309    5-A'
   5   1.0000     -56.373773     -1534.0084    6-A'
   6   1.0000     -56.370833     -1533.9283    7-A'
   7   1.0000     -56.357636     -1533.5693    8-A'
   8   1.0000     -56.354506     -1533.4841    9-A'
   9   1.0000     -51.289238     -1395.6511   10-A'
  10   1.0000     -51.288299     -1395.6256   11-A'
  11   1.0000     -51.287619     -1395.6071   12-A'
  12   1.0000     -51.287522     -1395.6044    1-A"
  13   1.0000     -51.286700     -1395.5821    2-A"
  14   1.0000     -51.286572     -1395.5786   13-A'
  15   1.0000     -51.285186     -1395.5409   14-A'
  16   1.0000     -51.284990     -1395.5355   15-A'
  17   1.0000     -51.283405     -1395.4924   16-A'
  18   1.0000     -51.283389     -1395.4920    3-A"
  19   1.0000     -51.283352     -1395.4910    4-A"
  20   1.0000     -51.283196     -1395.4867   17-A'
  21   1.0000     -38.014584     -1034.4294   18-A'
  22   1.0000     -33.517345      -912.0533   19-A'
  23   1.0000     -33.516530      -912.0312   20-A'
  24   1.0000     -33.514678      -911.9807    5-A"
  25   1.0000      -9.826688      -267.3978   21-A'
  26   1.0000      -9.826418      -267.3904   22-A'
  27   1.0000      -9.814154      -267.0567   23-A'
  28   1.0000      -9.813686      -267.0440   24-A'
  29   1.0000      -9.813235      -267.0317   25-A'
  30   1.0000      -9.812723      -267.0178   26-A'
  31   1.0000      -9.811323      -266.9797   27-A'
  32   1.0000      -9.808140      -266.8931   28-A'
  33   1.0000      -9.806249      -266.8416   29-A'
  34   1.0000      -9.805972      -266.8341   30-A'
  35   1.0000      -9.802443      -266.7380   31-A'
  36   1.0000      -9.797733      -266.6099   32-A'
  37   1.0000      -7.342739      -199.8061   33-A'
  38   1.0000      -7.341868      -199.7824   34-A'
  39   1.0000      -7.333994      -199.5681   35-A'
  40   1.0000      -7.333681      -199.5596   36-A'
  41   1.0000      -5.405921      -147.1026   37-A'
  42   1.0000      -5.405425      -147.0891   38-A'
  43   1.0000      -5.405105      -147.0804   39-A'
  44   1.0000      -5.403090      -147.0255   40-A'
  45   1.0000      -5.400590      -146.9575    6-A"
  46   1.0000      -5.400160      -146.9458   41-A'
  47   1.0000      -5.400034      -146.9424    7-A"
  48   1.0000      -5.399450      -146.9265   42-A'
  49   1.0000      -5.399292      -146.9222   43-A'
  50   1.0000      -5.398922      -146.9121    8-A"
  51   1.0000      -5.397260      -146.8669   44-A'
  52   1.0000      -5.397053      -146.8613    9-A"
  53   1.0000      -3.994558      -108.6974   45-A'
  54   1.0000      -2.507538       -68.2336   10-A"
  55   1.0000      -2.507118       -68.2221   46-A'
  56   1.0000      -2.506093       -68.1943   47-A'
  57   1.0000      -1.745732       -47.5038   48-A'
  58   1.0000      -1.744977       -47.4832   49-A'
  59   1.0000      -1.743032       -47.4303   50-A'
  60   1.0000      -1.741875       -47.3988   51-A'
  61   1.0000      -1.741742       -47.3952   11-A"
  62   1.0000      -1.741660       -47.3930   52-A'
  63   1.0000      -1.741364       -47.3849   53-A'
  64   1.0000      -1.740935       -47.3733   12-A"
  65   1.0000      -1.740784       -47.3691   13-A"
  66   1.0000      -1.740658       -47.3657   54-A'
  67   1.0000      -1.738906       -47.3180   55-A'
  68   1.0000      -1.738476       -47.3063   14-A"
  69   1.0000      -1.736901       -47.2635   56-A'
  70   1.0000      -1.736833       -47.2616   15-A"
  71   1.0000      -1.736336       -47.2481   57-A'
  72   1.0000      -1.736267       -47.2462   16-A"
  73   1.0000      -1.735464       -47.2244   58-A'
  74   1.0000      -1.735460       -47.2243   17-A"
  75   1.0000      -1.733576       -47.1730   59-A'
  76   1.0000      -1.733564       -47.1727   18-A"
  77   1.0000      -0.614300       -16.7159   60-A'
  78   1.0000      -0.603180       -16.4134   61-A'
  79   1.0000      -0.533983       -14.5304   62-A'
  80   1.0000      -0.520150       -14.1540   63-A'
  81   1.0000      -0.500144       -13.6096   64-A'
  82   1.0000      -0.483391       -13.1537   65-A'
  83   1.0000      -0.414947       -11.2913   66-A'
  84   1.0000      -0.409206       -11.1351   67-A'
  85   1.0000      -0.389716       -10.6047   68-A'
  86   1.0000      -0.381077       -10.3696   69-A'
  87   1.0000      -0.323216        -8.7951   70-A'
  88   1.0000      -0.316233        -8.6051   71-A'
  89   1.0000      -0.284919        -7.7530   72-A'
  90   1.0000      -0.273281        -7.4364   73-A'
  91   1.0000      -0.231808        -6.3078   74-A'
  92   1.0000      -0.224090        -6.0978   75-A'
  93   1.0000      -0.200595        -5.4585   76-A'
  94   1.0000      -0.199875        -5.4389   77-A'
  95   1.0000      -0.168743        -4.5917   78-A'
  96   1.0000      -0.163194        -4.4407   79-A'
  97   1.0000      -0.139681        -3.8009   80-A'
  98   1.0000      -0.138855        -3.7784   19-A"
  99   1.0000      -0.134601        -3.6627   81-A'
 100   1.0000      -0.131121        -3.5680   20-A"
 101   1.0000      -0.129758        -3.5309   82-A'
 102   1.0000      -0.111690        -3.0392   83-A'
 103   1.0000      -0.074016        -2.0141   84-A'
 104   1.0000      -0.066755        -1.8165   85-A'
 105   1.0000      -0.056960        -1.5500   86-A'
 106   1.0000      -0.055454        -1.5090   21-A"
 107   1.0000      -0.047063        -1.2807   22-A"
 108   1.0000      -0.037957        -1.0329   87-A'
 109   1.0000      -0.031716        -0.8630   23-A"
 110   1.0000      -0.021143        -0.5753   24-A"
 111   1.0000      -0.020484        -0.5574   88-A'
 112   1.0000      -0.002781        -0.0757   89-A'
 113   1.0000       0.006029         0.1640   25-A"
 114   1.0000       0.010855         0.2954   26-A"
 115   1.0000       0.010898         0.2965   90-A'
 116   1.0000       0.030254         0.8232   91-A'
 117   1.0000       0.031625         0.8606   92-A'
 118   1.0000       0.051409         1.3989   93-A'
 119   1.0000       0.055539         1.5113   27-A"
 120   1.0000       0.060089         1.6351   28-A"
 121   1.0000       0.070597         1.9210   29-A"
 122   1.0000       0.100437         2.7330   30-A"
 123   0.0000       0.144967         3.9448   94-A'
 124   0.0000       0.183911         5.0045   95-A'
 125   0.0000       0.184249         5.0137   96-A'
 126   0.0000       0.188786         5.1371   31-A"
 127   0.0000       0.198939         5.4134   97-A'

MULLIKEN ATOMIC CHARGES AND SPIN POPULATIONS
--------------------------------------------
   0 Cu:    0.641449    0.309594
   1 Se:   -0.700826    0.188510
   2 C :    0.192855    0.000300
   3 Se:   -0.764515    0.179129
   4 C :    0.239252   -0.002603
   5 Se:   -0.759626    0.157148
   6 C :    0.268337   -0.005787
   7 Se:   -0.699920    0.168523
   8 C :    0.190645   -0.002472
   9 C :   -0.103575   -0.002848
  10 C :   -0.096114   -0.001694
  11 C :   -0.183682   -0.000596
  12 H :    0.094520    0.002727
  13 C :   -0.112468   -0.000377
  14 H :    0.082539    0.003003
  15 H :    0.016395    0.001509
  16 H :    0.023337    0.001985
  17 C :   -0.105009   -0.005625
  18 C :   -0.083287    0.003487
  19 C :    0.015231    0.000078
  20 H :    0.055623    0.004046
  21 C :   -0.326784   -0.002206
  22 H :    0.101488    0.000198
  23 H :    0.017824    0.003223
  24 H :   -0.003690    0.000745
Sum of atomic charges         :   -2.0000000

LOEWDIN ATOMIC CHARGES AND SPIN POPULATIONS
-------------------------------------------
   0 Cu:   -0.616063    0.390095
   1 Se:   -0.209497    0.136823
   2 C :    0.165897    0.010314
   3 Se:   -0.205557    0.128721
   4 C :    0.026600    0.013014
   5 Se:   -0.172133    0.108100
   6 C :   -0.099542    0.015088
   7 Se:   -0.200027    0.120104
   8 C :    0.049814    0.011755
   9 C :    0.371856    0.006364
  10 C :    0.359797    0.006927
  11 C :    0.324238    0.000483
  12 H :   -0.461075    0.010006
  13 C :    0.314887    0.000686
  14 H :   -0.447318    0.007502
  15 H :   -0.411766    0.000325
  16 H :   -0.410100    0.000587
  17 C :    0.379481    0.006253
  18 C :    0.368847    0.006822
  19 C :    0.270934    0.001278
  20 H :   -0.423771    0.008104
  21 C :    0.345802   -0.000931
  22 H :   -0.499039    0.010601
  23 H :   -0.423517    0.001177
  24 H :   -0.398749   -0.000197

  Mayer bond orders larger than 0.100000
B(  0-Cu,  1-Se) :   0.5477 B(  0-Cu,  3-Se) :   0.5521 B(  0-Cu,  5-Se) :   0.5440
B(  0-Cu,  7-Se) :   0.5515 B(  1-Se,  2-C ) :   1.0132 B(  2-C ,  6-C ) :   1.1337
B(  2-C , 17-C ) :   1.2305 B(  3-Se,  4-C ) :   1.0231 B(  4-C ,  8-C ) :   1.1195
B(  4-C , 10-C ) :   1.2866 B(  5-Se,  6-C ) :   1.0893 B(  6-C , 18-C ) :   1.2209
B(  7-Se,  8-C ) :   1.0658 B(  8-C ,  9-C ) :   1.2737 B(  9-C , 13-C ) :   1.3537
B(  9-C , 14-H ) :   0.9677 B( 10-C , 11-C ) :   1.3372 B( 10-C , 12-H ) :   0.9566
B( 11-C , 13-C ) :   1.3397 B( 11-C , 15-H ) :   1.0015 B( 13-C , 16-H ) :   0.9903
B( 17-C , 19-C ) :   1.4215 B( 17-C , 20-H ) :   0.9853 B( 18-C , 21-C ) :   1.3289
B( 18-C , 22-H ) :   0.9440 B( 19-C , 21-C ) :   1.2958 B( 19-C , 23-H ) :   0.9722
B( 21-C , 24-H ) :   1.0272

FINAL SINGLE POINT ENERGY    -11627.036824507935

DIPOLE MOMENT
-------------
                                X             Y             Z
Electronic contribution:      0.05731       0.16674      -0.00000
Nuclear contribution   :      0.03576      -0.30284       0.00000
                        -----------------------------------------
Total Dipole Moment    :      0.09307      -0.13610      -0.00000
                        -----------------------------------------
Magnitude (a.u.)       :      0.16488
Magnitude (Debye)      :      0.41910

Rotational constants in cm-1:     0.017603     0.004099     0.003325
Rotational constants in MHz :   527.736787   122.883632    99.674421

                             ****ORCA TERMINATED NORMALLY****
TOTAL RUN TIME: 0 days 17 hours 3 minutes 41 seconds 835 msec
