                         Program Version 5.0.4 -  RELEASE  -
|  1> ! RIJCOSX nofrozencore ReducedPop printbasis
|  2> ! M06L ano-rcc-dzp autoaux
|  3>
|  4> %maxcore 7500
|  5> %basis
|  6> PCDTrimBas overlap
|  7> PCDTrimAuxJ Coulomb
|  8> PCDTrimAuxJK Coulomb
|  9> PCDTrimAuxC Coulomb
| 10> PCDThresh -1
| 11> end
| 12>
| 13> %basis
| 14> newgto Cu "ano-rcc-tzp" end
| 15> newgto Se "ano-rcc-tzp" end
| 16> end
| 17>
| 18> %pal
| 19> nprocs 8
| 20> end
| 21>
| 22> % sym SymThresh 1e-2 end
| 23> * xyz -2 2
| 24> Cu -0.003170897597346537 -0.0007613824348579228 0.004600309252108143
| 25> Se -1.10368634147045 1.6149542027653179 -1.3086423858458083
| 26> C -0.1528565957433442 1.848075366403096 -2.6955477191507513
| 27> Se -1.6486098576259043 0.033342198017783084 1.7274623469630355
| 28> C -1.0063234460407366 -1.0736144270847272 2.7477252600813693
| 29> Se 1.6395823061292645 -0.04111834457202213 -1.7056842947144408
| 30> C 1.0944585076085551 1.0806454812105273 -2.8537176095520596
| 31> Se 1.045198978048461 -1.6130550433214053 1.3688184960420544
| 32> C 0.15902864288918242 -1.8724023493391682 2.726539046070675
| 33> C 0.5238215486193303 -2.77400162692448 3.728397169622408
| 34> C -1.7430969112046726 -1.3013544587139418 3.89530408455002
| 35> C -1.3872163607378996 -2.1596543133338746 4.839759876794353
| 36> H -2.6580922877146316 -0.7424504694745517 4.017620444251797
| 37> C -0.2443003155771886 -2.9418407581351533 4.817088959999148
| 38> H 1.4393099017729487 -3.324639861991973 3.592754876782626
| 39> H -2.056953940699537 -2.243026797452079 5.691542248184539
| 40> H -0.009191680687499211 -3.632481022502483 5.632365984184751
| 41> C -0.46907220352834095 2.7493733302947763 -3.7493608549669997
| 42> C 1.8499552053509563 1.3314348236581401 -4.0571797506242335
| 43> C 0.3157534222810006 2.9253264836912396 -4.868635190724242
| 44> H -1.3791104525140905 3.3324440786843827 -3.6697976897877864
| 45> C 1.5019451637037955 2.218646407730826 -5.054877051233479
| 46> H 2.7646563212431388 0.7591078875417635 -4.158400048209436
| 47> H -0.0006673449046750447 3.638205043741877 -5.630584429463778
| 48> H 2.1207490872727894 2.35616631886204 -5.935501703780797
| 49> *
| 50>
| 51> % eprnmr
| 52> gtensor true
| 53> Nuclei = all H {aiso,adip,aorb,fgrad,rho}
| 54> Nuclei = all Cu {aiso,adip,aorb,fgrad,rho}
| 55> end
| 56>
| 57>                          ****END OF INPUT****

CARTESIAN COORDINATES (ANGSTROEM)
---------------------------------
  Cu     0.004802   -0.002957    0.000000
  Se    -1.750059   -1.573544    0.000000
  C     -3.198591   -0.688286    0.000000
  Se     1.715286   -1.661609    0.000000
  C      3.037899   -0.697495    0.000000
  Se    -1.691410    1.654815    0.000000
  C     -3.145638    0.783773    0.000000
  Se     1.809608    1.514388    0.000000
  C      3.236213    0.701515    0.000000
  C      4.484032    1.328110    0.000000
  C      4.246045   -1.369820    0.000000
  C      5.424666   -0.764693    0.000000
  H      4.214592   -2.448506    0.000000
  C      5.616936    0.607029    0.000000
  H      4.499912    2.404896    0.000000
  H      6.297867   -1.411648    0.000000
  H      6.620540    1.042593    0.000000
  C     -4.498192   -1.266118    0.000000
  C     -4.415902    1.468186    0.000000
  C     -5.663855   -0.530649    0.000000
  H     -4.578964   -2.346835    0.000000
  C     -5.655615    0.862573    0.000000
  H     -4.359702    2.550463    0.000000
  H     -6.620334   -1.054129    0.000000
  H     -6.572486    1.442812    0.000000

 Total Charge           Charge          ....   -2
 Multiplicity           Mult            ....    2
 Number of Electrons    NEL             ....  247
 Basis Dimension        Dim             ....  575

ORBITAL ENERGIES
----------------
                 SPIN UP ORBITALS
  NO   OCC          E(Eh)            E(eV)    Irrep
   0   1.0000    -443.564580    -12070.0059    1-A'
   1   1.0000    -443.548894    -12069.5790    2-A'
   2   1.0000    -443.542756    -12069.4120    3-A'
   3   1.0000    -443.539978    -12069.3364    4-A'
   4   1.0000    -318.188417     -8658.3470    5-A'
   5   1.0000     -56.373155     -1533.9915    6-A'
   6   1.0000     -56.362249     -1533.6948    7-A'
   7   1.0000     -56.354430     -1533.4820    8-A'
   8   1.0000     -56.353884     -1533.4671    9-A'
   9   1.0000     -51.294072     -1395.7827   10-A'
  10   1.0000     -51.292770     -1395.7472   11-A'
  11   1.0000     -51.292235     -1395.7327    1-A"
  12   1.0000     -51.285350     -1395.5453   12-A'
  13   1.0000     -51.285227     -1395.5420   13-A'
  14   1.0000     -51.283846     -1395.5044   14-A'
  15   1.0000     -51.283676     -1395.4998   15-A'
  16   1.0000     -51.283383     -1395.4918    2-A"
  17   1.0000     -51.283253     -1395.4883    3-A"
  18   1.0000     -51.280278     -1395.4073   16-A'
  19   1.0000     -51.279002     -1395.3726   17-A'
  20   1.0000     -51.278566     -1395.3607    4-A"
  21   1.0000     -38.028962     -1034.8207   18-A'
  22   1.0000     -33.531088      -912.4273   19-A'
  23   1.0000     -33.530214      -912.4035   20-A'
  24   1.0000     -33.518974      -912.0977    5-A"
  25   1.0000      -9.823430      -267.3091   21-A'
  26   1.0000      -9.822666      -267.2883   22-A'
  27   1.0000      -9.818097      -267.1640   23-A'
  28   1.0000      -9.816863      -267.1304   24-A'
  29   1.0000      -9.816194      -267.1122   25-A'
  30   1.0000      -9.813591      -267.0414   26-A'
  31   1.0000      -9.813194      -267.0306   27-A'
  32   1.0000      -9.811283      -266.9786   28-A'
  33   1.0000      -9.810659      -266.9616   29-A'
  34   1.0000      -9.809925      -266.9416   30-A'
  35   1.0000      -9.805885      -266.8317   31-A'
  36   1.0000      -9.799749      -266.6647   32-A'
  37   1.0000      -7.345564      -199.8830   33-A'
  38   1.0000      -7.338079      -199.6793   34-A'
  39   1.0000      -7.332935      -199.5393   35-A'
  40   1.0000      -7.331216      -199.4925   36-A'
  41   1.0000      -5.411252      -147.2476   37-A'
  42   1.0000      -5.405853      -147.1007   38-A'
  43   1.0000      -5.405359      -147.0873    6-A"
  44   1.0000      -5.404936      -147.0758   39-A'
  45   1.0000      -5.404916      -147.0752   40-A'
  46   1.0000      -5.399264      -146.9214   41-A'
  47   1.0000      -5.399242      -146.9208   42-A'
  48   1.0000      -5.399169      -146.9189   43-A'
  49   1.0000      -5.398830      -146.9096    7-A"
  50   1.0000      -5.398803      -146.9089    8-A"
  51   1.0000      -5.394260      -146.7853   44-A'
  52   1.0000      -5.393742      -146.7712    9-A"
  53   1.0000      -4.023309      -109.4798   45-A'
  54   1.0000      -2.543110       -69.2015   46-A'
  55   1.0000      -2.541843       -69.1671   47-A'
  56   1.0000      -2.518246       -68.5249   10-A"
  57   1.0000      -1.750289       -47.6278   48-A'
  58   1.0000      -1.747423       -47.5498   49-A'
  59   1.0000      -1.746646       -47.5286   11-A"
  60   1.0000      -1.743180       -47.4343   50-A'
  61   1.0000      -1.743125       -47.4328   51-A'
  62   1.0000      -1.742270       -47.4096   12-A"
  63   1.0000      -1.742204       -47.4078   52-A'
  64   1.0000      -1.740888       -47.3720   53-A'
  65   1.0000      -1.740826       -47.3703   54-A'
  66   1.0000      -1.740227       -47.3540   13-A"
  67   1.0000      -1.740169       -47.3524   14-A"
  68   1.0000      -1.738331       -47.3024   55-A'
  69   1.0000      -1.735756       -47.2323   56-A'
  70   1.0000      -1.735669       -47.2299   15-A"
  71   1.0000      -1.735636       -47.2290   57-A'
  72   1.0000      -1.735594       -47.2279   16-A"
  73   1.0000      -1.735581       -47.2276   58-A'
  74   1.0000      -1.734973       -47.2110   17-A"
  75   1.0000      -1.730822       -47.0981   59-A'
  76   1.0000      -1.730735       -47.0957   18-A"
  77   1.0000      -0.609045       -16.5730   60-A'
  78   1.0000      -0.582974       -15.8635   61-A'
  79   1.0000      -0.525490       -14.2993   62-A'
  80   1.0000      -0.507912       -13.8210   63-A'
  81   1.0000      -0.506679       -13.7874   64-A'
  82   1.0000      -0.487613       -13.2686   65-A'
  83   1.0000      -0.421722       -11.4756   66-A'
  84   1.0000      -0.407965       -11.1013   67-A'
  85   1.0000      -0.379966       -10.3394   68-A'
  86   1.0000      -0.373356       -10.1595   69-A'
  87   1.0000      -0.323083        -8.7915   70-A'
  88   1.0000      -0.306900        -8.3512   71-A'
  89   1.0000      -0.286477        -7.7954   72-A'
  90   1.0000      -0.282714        -7.6931   73-A'
  91   1.0000      -0.230256        -6.2656   74-A'
  92   1.0000      -0.222546        -6.0558   75-A'
  93   1.0000      -0.205801        -5.6001   76-A'
  94   1.0000      -0.187736        -5.1086   77-A'
  95   1.0000      -0.173969        -4.7339   78-A'
  96   1.0000      -0.169265        -4.6059   79-A'
  97   1.0000      -0.150403        -4.0927   80-A'
  98   1.0000      -0.141677        -3.8552   81-A'
  99   1.0000      -0.134751        -3.6668   19-A"
 100   1.0000      -0.127052        -3.4573   82-A'
 101   1.0000      -0.115044        -3.1305   20-A"
 102   1.0000      -0.104510        -2.8439   83-A'
 103   1.0000      -0.087265        -2.3746   84-A'
 104   1.0000      -0.074787        -2.0351   85-A'
 105   1.0000      -0.068591        -1.8665   86-A'
 106   1.0000      -0.061403        -1.6709   87-A'
 107   1.0000      -0.051492        -1.4012   21-A"
 108   1.0000      -0.042586        -1.1588   22-A"
 109   1.0000      -0.036029        -0.9804   23-A"
 110   1.0000      -0.035952        -0.9783   88-A'
 111   1.0000      -0.024341        -0.6623   24-A"
 112   1.0000      -0.022437        -0.6105   89-A'
 113   1.0000      -0.003872        -0.1054   25-A"
 114   1.0000      -0.001085        -0.0295   26-A"
 115   1.0000       0.000262         0.0071   90-A'
 116   1.0000       0.019239         0.5235   91-A'
 117   1.0000       0.023342         0.6352   92-A'
 118   1.0000       0.042176         1.1477   93-A'
 119   1.0000       0.049946         1.3591   27-A"
 120   1.0000       0.053754         1.4627   28-A"
 121   1.0000       0.072410         1.9704   29-A"
 122   1.0000       0.100978         2.7478   30-A"
 123   1.0000       0.114220         3.1081   94-A'
 124   0.0000       0.180211         4.9038   95-A'
 125   0.0000       0.182695         4.9714   96-A'
 126   0.0000       0.196098         5.3361   97-A'
 127   0.0000       0.197687         5.3793   98-A'
 128   0.0000       0.200822         5.4646   31-A"

                 SPIN DOWN ORBITALS
  NO   OCC          E(Eh)            E(eV)    Irrep
   0   1.0000    -443.564095    -12069.9927    1-A'
   1   1.0000    -443.548460    -12069.5672    2-A'
   2   1.0000    -443.542310    -12069.3999    3-A'
   3   1.0000    -443.539544    -12069.3246    4-A'
   4   1.0000    -318.188295     -8658.3437    5-A'
   5   1.0000     -56.372960     -1533.9862    6-A'
   6   1.0000     -56.362072     -1533.6900    7-A'
   7   1.0000     -56.354251     -1533.4771    8-A'
   8   1.0000     -56.353709     -1533.4624    9-A'
   9   1.0000     -51.293748     -1395.7738   10-A'
  10   1.0000     -51.291964     -1395.7253    1-A"
  11   1.0000     -51.291945     -1395.7248   11-A'
  12   1.0000     -51.285059     -1395.5374   12-A'
  13   1.0000     -51.284921     -1395.5336   13-A'
  14   1.0000     -51.283145     -1395.4853    2-A"
  15   1.0000     -51.283132     -1395.4850   14-A'
  16   1.0000     -51.283008     -1395.4816    3-A"
  17   1.0000     -51.282964     -1395.4804   15-A'
  18   1.0000     -51.279949     -1395.3983   16-A'
  19   1.0000     -51.278322     -1395.3541    4-A"
  20   1.0000     -51.278302     -1395.3535   17-A'
  21   1.0000     -38.015048     -1034.4420   18-A'
  22   1.0000     -33.517863      -912.0674   19-A'
  23   1.0000     -33.516996      -912.0438   20-A'
  24   1.0000     -33.515090      -911.9920    5-A"
  25   1.0000      -9.823448      -267.3096   21-A'
  26   1.0000      -9.822679      -267.2887   22-A'
  27   1.0000      -9.818060      -267.1630   23-A'
  28   1.0000      -9.816829      -267.1295   24-A'
  29   1.0000      -9.816152      -267.1111   25-A'
  30   1.0000      -9.813504      -267.0390   26-A'
  31   1.0000      -9.813104      -267.0281   27-A'
  32   1.0000      -9.811301      -266.9791   28-A'
  33   1.0000      -9.810557      -266.9588   29-A'
  34   1.0000      -9.809916      -266.9414   30-A'
  35   1.0000      -9.805827      -266.8301   31-A'
  36   1.0000      -9.799625      -266.6614   32-A'
  37   1.0000      -7.345134      -199.8712   33-A'
  38   1.0000      -7.337691      -199.6687   34-A'
  39   1.0000      -7.332543      -199.5286   35-A'
  40   1.0000      -7.330817      -199.4817   36-A'
  41   1.0000      -5.410875      -147.2374   37-A'
  42   1.0000      -5.405033      -147.0784    6-A"
  43   1.0000      -5.404943      -147.0760   38-A'
  44   1.0000      -5.404600      -147.0667   39-A'
  45   1.0000      -5.404577      -147.0660   40-A'
  46   1.0000      -5.398914      -146.9119   41-A'
  47   1.0000      -5.398531      -146.9015    7-A"
  48   1.0000      -5.398492      -146.9004    8-A"
  49   1.0000      -5.398446      -146.8992   42-A'
  50   1.0000      -5.398367      -146.8970   43-A'
  51   1.0000      -5.393450      -146.7632   44-A'
  52   1.0000      -5.393430      -146.7627    9-A"
  53   1.0000      -3.994994      -108.7093   45-A'
  54   1.0000      -2.507907       -68.2436   10-A"
  55   1.0000      -2.507745       -68.2392   46-A'
  56   1.0000      -2.506446       -68.2039   47-A'
  57   1.0000      -1.749808       -47.6147   48-A'
  58   1.0000      -1.746477       -47.5241   49-A'
  59   1.0000      -1.746335       -47.5202   11-A"
  60   1.0000      -1.742758       -47.4229   50-A'
  61   1.0000      -1.742685       -47.4209   51-A'
  62   1.0000      -1.741444       -47.3871   12-A"
  63   1.0000      -1.741334       -47.3841   52-A'
  64   1.0000      -1.740051       -47.3492   53-A'
  65   1.0000      -1.739980       -47.3473   54-A'
  66   1.0000      -1.739919       -47.3456   13-A"
  67   1.0000      -1.739888       -47.3448   14-A"
  68   1.0000      -1.737893       -47.2905   55-A'
  69   1.0000      -1.734939       -47.2101   15-A"
  70   1.0000      -1.734872       -47.2083   56-A'
  71   1.0000      -1.734861       -47.2080   57-A'
  72   1.0000      -1.734841       -47.2074   16-A"
  73   1.0000      -1.734810       -47.2066   58-A'
  74   1.0000      -1.734666       -47.2027   17-A"
  75   1.0000      -1.730027       -47.0764   59-A'
  76   1.0000      -1.729965       -47.0748   18-A"
  77   1.0000      -0.608303       -16.5528   60-A'
  78   1.0000      -0.582393       -15.8477   61-A'
  79   1.0000      -0.524165       -14.2633   62-A'
  80   1.0000      -0.506565       -13.7843   63-A'
  81   1.0000      -0.505176       -13.7465   64-A'
  82   1.0000      -0.486360       -13.2345   65-A'
  83   1.0000      -0.418762       -11.3951   66-A'
  84   1.0000      -0.404861       -11.0168   67-A'
  85   1.0000      -0.377687       -10.2774   68-A'
  86   1.0000      -0.371162       -10.0998   69-A'
  87   1.0000      -0.321147        -8.7389   70-A'
  88   1.0000      -0.305058        -8.3010   71-A'
  89   1.0000      -0.284220        -7.7340   72-A'
  90   1.0000      -0.280111        -7.6222   73-A'
  91   1.0000      -0.229037        -6.2324   74-A'
  92   1.0000      -0.221395        -6.0245   75-A'
  93   1.0000      -0.204462        -5.5637   76-A'
  94   1.0000      -0.186440        -5.0733   77-A'
  95   1.0000      -0.172741        -4.7005   78-A'
  96   1.0000      -0.167700        -4.5633   79-A'
  97   1.0000      -0.148787        -4.0487   80-A'
  98   1.0000      -0.140080        -3.8118   81-A'
  99   1.0000      -0.134406        -3.6574   19-A"
 100   1.0000      -0.125323        -3.4102   82-A'
 101   1.0000      -0.114755        -3.1226   20-A"
 102   1.0000      -0.103018        -2.8033   83-A'
 103   1.0000      -0.085835        -2.3357   84-A'
 104   1.0000      -0.072745        -1.9795   85-A'
 105   1.0000      -0.062150        -1.6912   86-A'
 106   1.0000      -0.055200        -1.5021   87-A'
 107   1.0000      -0.050479        -1.3736   21-A"
 108   1.0000      -0.041391        -1.1263   22-A"
 109   1.0000      -0.034353        -0.9348   23-A"
 110   1.0000      -0.022677        -0.6171   24-A"
 111   1.0000      -0.019912        -0.5418   88-A'
 112   1.0000      -0.003260        -0.0887   89-A'
 113   1.0000       0.005338         0.1453   25-A"
 114   1.0000       0.009966         0.2712   26-A"
 115   1.0000       0.011059         0.3009   90-A'
 116   1.0000       0.030719         0.8359   91-A'
 117   1.0000       0.032491         0.8841   92-A'
 118   1.0000       0.052483         1.4281   27-A"
 119   1.0000       0.052890         1.4392   93-A'
 120   1.0000       0.057051         1.5524   28-A"
 121   1.0000       0.074075         2.0157   29-A"
 122   1.0000       0.104090         2.8324   30-A"
 123   0.0000       0.144125         3.9218   94-A'
 124   0.0000       0.182855         4.9757   95-A'
 125   0.0000       0.184099         5.0096   96-A'
 126   0.0000       0.198831         5.4105   97-A'
 127   0.0000       0.199981         5.4417   98-A'

MULLIKEN ATOMIC CHARGES AND SPIN POPULATIONS
--------------------------------------------
   0 Cu:    0.658428    0.310498
   1 Se:   -0.742144    0.168768
   2 C :    0.194647   -0.002059
   3 Se:   -0.713340    0.187807
   4 C :    0.244579   -0.004238
   5 Se:   -0.717358    0.167792
   6 C :    0.200529   -0.002630
   7 Se:   -0.721491    0.170355
   8 C :    0.144116   -0.002747
   9 C :   -0.136048   -0.000657
  10 C :   -0.036674   -0.002384
  11 C :   -0.113606   -0.000228
  12 H :    0.082020    0.003185
  13 C :   -0.157922   -0.001882
  14 H :    0.073563    0.002860
  15 H :    0.032388    0.000662
  16 H :   -0.001677    0.002715
  17 C :   -0.122708   -0.002078
  18 C :   -0.105112   -0.001900
  19 C :   -0.121108   -0.000880
  20 H :    0.076753    0.002572
  21 C :   -0.156467   -0.000794
  22 H :    0.089185    0.002474
  23 H :    0.028644    0.001542
  24 H :    0.020803    0.001244
Sum of atomic charges         :   -2.0000000

LOEWDIN ATOMIC CHARGES AND SPIN POPULATIONS
-------------------------------------------
   0 Cu:   -0.637558    0.390541
   1 Se:   -0.233734    0.123318
   2 C :    0.081705    0.012318
   3 Se:   -0.171049    0.135439
   4 C :    0.053723    0.009798
   5 Se:   -0.217090    0.120986
   6 C :    0.093854    0.011037
   7 Se:   -0.259359    0.119549
   8 C :    0.059574    0.013182
   9 C :    0.358684    0.006621
  10 C :    0.357297    0.008199
  11 C :    0.306761    0.000485
  12 H :   -0.453496    0.012188
  13 C :    0.312923    0.000327
  14 H :   -0.438464    0.007622
  15 H :   -0.417797    0.000024
  16 H :   -0.390303    0.000805
  17 C :    0.355457    0.005362
  18 C :    0.362550    0.005573
  19 C :    0.306526    0.000118
  20 H :   -0.446398    0.007063
  21 C :    0.312654    0.000153
  22 H :   -0.464484    0.008610
  23 H :   -0.420157    0.000421
  24 H :   -0.411821    0.000263

  Mayer bond orders larger than 0.100000
B(  0-Cu,  1-Se) :   0.5275 B(  0-Cu,  3-Se) :   0.5532 B(  0-Cu,  5-Se) :   0.5336
B(  0-Cu,  7-Se) :   0.5553 B(  1-Se,  2-C ) :   1.0045 B(  2-C ,  6-C ) :   1.1713
B(  2-C , 17-C ) :   1.2747 B(  3-Se,  4-C ) :   1.0426 B(  4-C ,  8-C ) :   1.1549
B(  4-C , 10-C ) :   1.2280 B(  5-Se,  6-C ) :   1.0116 B(  6-C , 18-C ) :   1.2776
B(  7-Se,  8-C ) :   1.0198 B(  8-C ,  9-C ) :   1.2772 B(  9-C , 13-C ) :   1.3939
B(  9-C , 14-H ) :   0.9707 B( 10-C , 11-C ) :   1.3912 B( 10-C , 12-H ) :   0.9616
B( 11-C , 13-C ) :   1.2914 B( 11-C , 15-H ) :   0.9855 B( 13-C , 16-H ) :   1.0066
B( 17-C , 19-C ) :   1.3789 B( 17-C , 20-H ) :   0.9727 B( 18-C , 21-C ) :   1.3762
B( 18-C , 22-H ) :   0.9629 B( 19-C , 21-C ) :   1.3123 B( 19-C , 23-H ) :   0.9886
B( 21-C , 24-H ) :   0.9964

FINAL SINGLE POINT ENERGY    -11627.105783011342

DIPOLE MOMENT
-------------
                                X             Y             Z
Electronic contribution:      1.69699      -1.05925      -0.00000
Nuclear contribution   :     -1.35090       0.86234       0.00000
                        -----------------------------------------
Total Dipole Moment    :      0.34609      -0.19691      -0.00000
                        -----------------------------------------
Magnitude (a.u.)       :      0.39818
Magnitude (Debye)      :      1.01210

Rotational constants in cm-1:     0.017245     0.004086     0.003303
Rotational constants in MHz :   516.986621   122.495783    99.031155

                             ****ORCA TERMINATED NORMALLY****
TOTAL RUN TIME: 0 days 16 hours 49 minutes 11 seconds 535 msec
