                         Program Version 5.0.4 -  RELEASE  -
|  1> ! RIJCOSX nofrozencore ReducedPop printbasis
|  2> ! M06L ano-rcc-dzp autoaux
|  3>
|  4> %maxcore 7500
|  5> %basis
|  6> PCDTrimBas overlap
|  7> PCDTrimAuxJ Coulomb
|  8> PCDTrimAuxJK Coulomb
|  9> PCDTrimAuxC Coulomb
| 10> PCDThresh -1
| 11> end
| 12>
| 13> %basis
| 14> newgto Cu "ano-rcc-tzp" end
| 15> newgto Se "ano-rcc-tzp" end
| 16> end
| 17>
| 18> %pal
| 19> nprocs 8
| 20> end
| 21>
| 22> % sym SymThresh 1e-2 end
| 23> * xyz -2 2
| 24> Cu 0.0316916284319495 -0.023546238088758425 -0.02480353475210241
| 25> Se 0.6026567691136104 -0.5237200845117123 -2.128766571143626
| 26> C -0.520736619493919 0.22902298574904828 -3.038036976958252
| 27> Se 1.8373340692478421 -1.2529032434507228 1.0119802931840252
| 28> C 1.539225318728777 -0.9694277074597472 2.597732116404352
| 29> Se -1.8330644429387293 1.2513697736666174 -0.9795833676570282
| 30> C -1.559848110423499 0.9855002639069906 -2.5652371538260343
| 31> Se -0.5978678836751685 0.5178680402563643 2.07493571682855
| 32> C 0.4893066738581881 -0.20556664476745412 3.064916954973314
| 33> C 0.3908360946935283 -0.07305703143046391 4.437005407489862
| 34> C 2.3943270661757716 -1.53009579349044 3.5583468812022785
| 35> C 2.3161818279921254 -1.410820936921511 4.955277253799525
| 36> H 3.2094171785591694 -2.1244747370018118 3.1658444199512368
| 37> C 1.2302624922976364 -0.6239516850742589 5.3690015471691375
| 38> H -0.4292497160940174 0.5237997264218858 4.806460641694111
| 39> H 3.027097722323645 -1.8830108315571077 5.621629276037652
| 40> H 1.038505981318815 -0.4398922354572228 6.426465518962931
| 41> C -0.4439790156613645 0.11150439533530315 -4.418055236467543
| 42> C -2.413748927496395 1.546755958417026 -3.4944699306609333
| 43> C -1.2935877851674609 0.6694351100672744 -5.353613037109496
| 44> H 0.3748346653027553 -0.48481616006564116 -4.795440408732296
| 45> C -2.3384675631280434 1.4310025490239293 -4.858722111837022
| 46> H -3.225494103293947 2.138925959380868 -3.0985803303430113
| 47> H -1.1293415758145406 0.5047128321070478 -6.413626564505156
| 48> H -3.0682691473003345 1.9177727217931952 -5.498364376124484
| 49> *
| 50>
| 51> % eprnmr
| 52> gtensor true
| 53> Nuclei = all H {aiso,adip,aorb,fgrad,rho}
| 54> Nuclei = all Cu {aiso,adip,aorb,fgrad,rho}
| 55> end
| 56>
| 57>                          ****END OF INPUT****

CARTESIAN COORDINATES (ANGSTROEM)
---------------------------------
  Cu    -0.025340    0.039139    0.000000
  Se    -2.140569    0.766218    0.000000
  C     -3.032531   -0.597531    0.000000
  Se     0.983215    2.236729    0.000000
  C      2.575317    1.850664    0.000000
  Se    -0.950856   -2.231929    0.000000
  C     -2.542457   -1.876350    0.000000
  Se     2.086609   -0.759642    0.000000
  C      3.059945    0.558685    0.000000
  C      4.434948    0.419937    0.000000
  C      3.523015    2.885167    0.000000
  C      4.922555    2.770983    0.000000
  H      3.116943    3.888572    0.000000
  C      5.354253    1.435622    0.000000
  H      4.818032   -0.589281    0.000000
  H      5.578041    3.632799    0.000000
  H      6.415838    1.186793    0.000000
  C     -4.415119   -0.485270    0.000000
  C     -3.458763   -2.909797    0.000000
  C     -5.337825   -1.513376    0.000000
  H     -4.806120    0.522496    0.000000
  C     -4.825546   -2.799551    0.000000
  H     -3.049353   -3.909151    0.000000
  H     -6.401517   -1.298205    0.000000
  H     -5.453991   -3.684850    0.000000

 Total Charge           Charge          ....   -2
 Multiplicity           Mult            ....    2
 Number of Electrons    NEL             ....  247
 Basis Dimension        Dim             ....  575

ORBITAL ENERGIES
----------------
                 SPIN UP ORBITALS
  NO   OCC          E(Eh)            E(eV)    Irrep
   0   1.0000    -443.561636    -12069.9257    1-A'
   1   1.0000    -443.559186    -12069.8591    2-A'
   2   1.0000    -443.545691    -12069.4919    3-A'
   3   1.0000    -443.544766    -12069.4667    4-A'
   4   1.0000    -318.187495     -8658.3219    5-A'
   5   1.0000     -56.369803     -1533.9003    6-A'
   6   1.0000     -56.368291     -1533.8592    7-A'
   7   1.0000     -56.355325     -1533.5064    8-A'
   8   1.0000     -56.354938     -1533.4958    9-A'
   9   1.0000     -51.285530     -1395.5502   10-A'
  10   1.0000     -51.284814     -1395.5307   11-A'
  11   1.0000     -51.284012     -1395.5089   12-A'
  12   1.0000     -51.283746     -1395.5017    1-A"
  13   1.0000     -51.283447     -1395.4935   13-A'
  14   1.0000     -51.283308     -1395.4897   14-A'
  15   1.0000     -51.283038     -1395.4824    2-A"
  16   1.0000     -51.282794     -1395.4758   15-A'
  17   1.0000     -51.282195     -1395.4595   16-A'
  18   1.0000     -51.281618     -1395.4438    3-A"
  19   1.0000     -51.281597     -1395.4432   17-A'
  20   1.0000     -51.280999     -1395.4269    4-A"
  21   1.0000     -38.028524     -1034.8088   18-A'
  22   1.0000     -33.530502      -912.4113   19-A'
  23   1.0000     -33.529367      -912.3805   20-A'
  24   1.0000     -33.518407      -912.0822    5-A"
  25   1.0000      -9.818673      -267.1797   21-A'
  26   1.0000      -9.815048      -267.0810   22-A'
  27   1.0000      -9.813657      -267.0432   23-A'
  28   1.0000      -9.813143      -267.0292   24-A'
  29   1.0000      -9.808273      -266.8967   25-A'
  30   1.0000      -9.807258      -266.8691   26-A'
  31   1.0000      -9.804971      -266.8068   27-A'
  32   1.0000      -9.804272      -266.7878   28-A'
  33   1.0000      -9.803829      -266.7757   29-A'
  34   1.0000      -9.803551      -266.7682   30-A'
  35   1.0000      -9.803356      -266.7629   31-A'
  36   1.0000      -9.802414      -266.7373   32-A'
  37   1.0000      -7.340187      -199.7366   33-A'
  38   1.0000      -7.339441      -199.7163   34-A'
  39   1.0000      -7.331770      -199.5076   35-A'
  40   1.0000      -7.331475      -199.4996   36-A'
  41   1.0000      -5.403671      -147.0414   37-A'
  42   1.0000      -5.403017      -147.0236   38-A'
  43   1.0000      -5.401191      -146.9739   39-A'
  44   1.0000      -5.400113      -146.9445   40-A'
  45   1.0000      -5.397887      -146.8840    6-A"
  46   1.0000      -5.397865      -146.8834   41-A'
  47   1.0000      -5.397353      -146.8694    7-A"
  48   1.0000      -5.397300      -146.8680   42-A'
  49   1.0000      -5.396069      -146.8345   43-A'
  50   1.0000      -5.395361      -146.8152    8-A"
  51   1.0000      -5.395115      -146.8085   44-A'
  52   1.0000      -5.394349      -146.7877    9-A"
  53   1.0000      -4.022224      -109.4503   45-A'
  54   1.0000      -2.543222       -69.2046   46-A'
  55   1.0000      -2.539399       -69.1006   47-A'
  56   1.0000      -2.516988       -68.4907   10-A"
  57   1.0000      -1.742782       -47.4235   48-A'
  58   1.0000      -1.742013       -47.4026   49-A'
  59   1.0000      -1.740262       -47.3549   50-A'
  60   1.0000      -1.739716       -47.3401   51-A'
  61   1.0000      -1.739337       -47.3298   11-A"
  62   1.0000      -1.739304       -47.3289   52-A'
  63   1.0000      -1.739099       -47.3233   53-A'
  64   1.0000      -1.738715       -47.3128   12-A"
  65   1.0000      -1.737616       -47.2829   54-A'
  66   1.0000      -1.736639       -47.2564   13-A"
  67   1.0000      -1.736636       -47.2563   55-A'
  68   1.0000      -1.735599       -47.2281   14-A"
  69   1.0000      -1.734605       -47.2010   56-A'
  70   1.0000      -1.734462       -47.1971   15-A"
  71   1.0000      -1.734047       -47.1858   57-A'
  72   1.0000      -1.733970       -47.1837   16-A"
  73   1.0000      -1.732447       -47.1423   17-A"
  74   1.0000      -1.732383       -47.1405   58-A'
  75   1.0000      -1.731476       -47.1159   18-A"
  76   1.0000      -1.731422       -47.1144   59-A'
  77   1.0000      -0.605205       -16.4685   60-A'
  78   1.0000      -0.599984       -16.3264   61-A'
  79   1.0000      -0.521924       -14.2023   62-A'
  80   1.0000      -0.517796       -14.0899   63-A'
  81   1.0000      -0.500447       -13.6178   64-A'
  82   1.0000      -0.496661       -13.5148   65-A'
  83   1.0000      -0.412355       -11.2207   66-A'
  84   1.0000      -0.410295       -11.1647   67-A'
  85   1.0000      -0.382589       -10.4108   68-A'
  86   1.0000      -0.376783       -10.2528   69-A'
  87   1.0000      -0.322377        -8.7723   70-A'
  88   1.0000      -0.318164        -8.6577   71-A'
  89   1.0000      -0.287138        -7.8134   72-A'
  90   1.0000      -0.283204        -7.7064   73-A'
  91   1.0000      -0.229451        -6.2437   74-A'
  92   1.0000      -0.221697        -6.0327   75-A'
  93   1.0000      -0.200961        -5.4684   76-A'
  94   1.0000      -0.196974        -5.3599   77-A'
  95   1.0000      -0.170054        -4.6274   78-A'
  96   1.0000      -0.164208        -4.4683   79-A'
  97   1.0000      -0.141913        -3.8616   80-A'
  98   1.0000      -0.136179        -3.7056   81-A'
  99   1.0000      -0.132104        -3.5947   19-A"
 100   1.0000      -0.131578        -3.5804   82-A'
 101   1.0000      -0.128317        -3.4917   20-A"
 102   1.0000      -0.107243        -2.9182   83-A'
 103   1.0000      -0.080899        -2.2014   84-A'
 104   1.0000      -0.071408        -1.9431   85-A'
 105   1.0000      -0.062576        -1.7028   86-A'
 106   1.0000      -0.058264        -1.5854   87-A'
 107   1.0000      -0.048629        -1.3233   21-A"
 108   1.0000      -0.045705        -1.2437   22-A"
 109   1.0000      -0.034094        -0.9278   88-A'
 110   1.0000      -0.033740        -0.9181   23-A"
 111   1.0000      -0.027062        -0.7364   89-A'
 112   1.0000      -0.025429        -0.6920   24-A"
 113   1.0000      -0.003762        -0.1024   25-A"
 114   1.0000       0.000194         0.0053   90-A'
 115   1.0000       0.000964         0.0262   26-A"
 116   1.0000       0.019703         0.5362   91-A'
 117   1.0000       0.024889         0.6773   92-A'
 118   1.0000       0.039083         1.0635   93-A'
 119   1.0000       0.056617         1.5406   27-A"
 120   1.0000       0.058148         1.5823   28-A"
 121   1.0000       0.071030         1.9328   29-A"
 122   1.0000       0.102426         2.7871   30-A"
 123   1.0000       0.120441         3.2774   94-A'
 124   0.0000       0.182674         4.9708   95-A'
 125   0.0000       0.183138         4.9834   96-A'
 126   0.0000       0.196626         5.3505   97-A'
 127   0.0000       0.197273         5.3681   98-A'
 128   0.0000       0.202900         5.5212   31-A"

                 SPIN DOWN ORBITALS
  NO   OCC          E(Eh)            E(eV)    Irrep
   0   1.0000    -443.561209    -12069.9141    1-A'
   1   1.0000    -443.558739    -12069.8469    2-A'
   2   1.0000    -443.545220    -12069.4790    3-A'
   3   1.0000    -443.544297    -12069.4539    4-A'
   4   1.0000    -318.187358     -8658.3182    5-A'
   5   1.0000     -56.369631     -1533.8956    6-A'
   6   1.0000     -56.368110     -1533.8543    7-A'
   7   1.0000     -56.355135     -1533.5012    8-A'
   8   1.0000     -56.354749     -1533.4907    9-A'
   9   1.0000     -51.285272     -1395.5432   10-A'
  10   1.0000     -51.284531     -1395.5230   11-A'
  11   1.0000     -51.283553     -1395.4964    1-A"
  12   1.0000     -51.283451     -1395.4937   12-A'
  13   1.0000     -51.283063     -1395.4831   13-A'
  14   1.0000     -51.282824     -1395.4766    2-A"
  15   1.0000     -51.282695     -1395.4731   14-A'
  16   1.0000     -51.282396     -1395.4649   15-A'
  17   1.0000     -51.281335     -1395.4361   16-A'
  18   1.0000     -51.281324     -1395.4358    3-A"
  19   1.0000     -51.280711     -1395.4191   17-A'
  20   1.0000     -51.280696     -1395.4187    4-A"
  21   1.0000     -38.014795     -1034.4352   18-A'
  22   1.0000     -33.517531      -912.0584   19-A'
  23   1.0000     -33.516245      -912.0234   20-A'
  24   1.0000     -33.514564      -911.9776    5-A"
  25   1.0000      -9.818612      -267.1780   21-A'
  26   1.0000      -9.815004      -267.0798   22-A'
  27   1.0000      -9.813607      -267.0418   23-A'
  28   1.0000      -9.813085      -267.0276   24-A'
  29   1.0000      -9.808121      -266.8925   25-A'
  30   1.0000      -9.807304      -266.8703   26-A'
  31   1.0000      -9.804959      -266.8065   27-A'
  32   1.0000      -9.804270      -266.7877   28-A'
  33   1.0000      -9.803815      -266.7754   29-A'
  34   1.0000      -9.803520      -266.7673   30-A'
  35   1.0000      -9.803266      -266.7604   31-A'
  36   1.0000      -9.802248      -266.7327   32-A'
  37   1.0000      -7.339831      -199.7270   33-A'
  38   1.0000      -7.339056      -199.7059   34-A'
  39   1.0000      -7.331340      -199.4959   35-A'
  40   1.0000      -7.331035      -199.4876   36-A'
  41   1.0000      -5.403377      -147.0334   37-A'
  42   1.0000      -5.402697      -147.0148   38-A'
  43   1.0000      -5.400761      -146.9622   39-A'
  44   1.0000      -5.399669      -146.9325   40-A'
  45   1.0000      -5.397639      -146.8772    6-A"
  46   1.0000      -5.397250      -146.8666   41-A'
  47   1.0000      -5.397075      -146.8619    7-A"
  48   1.0000      -5.396620      -146.8495   42-A'
  49   1.0000      -5.395101      -146.8082   43-A'
  50   1.0000      -5.394999      -146.8054    8-A"
  51   1.0000      -5.394116      -146.7813   44-A'
  52   1.0000      -5.393979      -146.7776    9-A"
  53   1.0000      -3.994369      -108.6923   45-A'
  54   1.0000      -2.507653       -68.2367   46-A'
  55   1.0000      -2.506774       -68.2128   10-A"
  56   1.0000      -2.505386       -68.1750   47-A'
  57   1.0000      -1.742430       -47.4139   48-A'
  58   1.0000      -1.741625       -47.3920   49-A'
  59   1.0000      -1.739720       -47.3402   50-A'
  60   1.0000      -1.739078       -47.3227   11-A"
  61   1.0000      -1.739022       -47.3212   51-A'
  62   1.0000      -1.738746       -47.3137   52-A'
  63   1.0000      -1.738426       -47.3050   12-A"
  64   1.0000      -1.738337       -47.3025   53-A'
  65   1.0000      -1.736570       -47.2545   54-A'
  66   1.0000      -1.736275       -47.2465   13-A"
  67   1.0000      -1.735562       -47.2270   55-A'
  68   1.0000      -1.735232       -47.2181   14-A"
  69   1.0000      -1.734011       -47.1848   56-A'
  70   1.0000      -1.733886       -47.1814   15-A"
  71   1.0000      -1.733374       -47.1675   57-A'
  72   1.0000      -1.733325       -47.1662   16-A"
  73   1.0000      -1.731553       -47.1179   17-A"
  74   1.0000      -1.731450       -47.1151   58-A'
  75   1.0000      -1.730557       -47.0909   18-A"
  76   1.0000      -1.730465       -47.0884   59-A'
  77   1.0000      -0.604409       -16.4468   60-A'
  78   1.0000      -0.599154       -16.3038   61-A'
  79   1.0000      -0.520875       -14.1737   62-A'
  80   1.0000      -0.516712       -14.0604   63-A'
  81   1.0000      -0.498661       -13.5693   64-A'
  82   1.0000      -0.494891       -13.4667   65-A'
  83   1.0000      -0.409830       -11.1520   66-A'
  84   1.0000      -0.407684       -11.0936   67-A'
  85   1.0000      -0.379966       -10.3394   68-A'
  86   1.0000      -0.374383       -10.1875   69-A'
  87   1.0000      -0.320645        -8.7252   70-A'
  88   1.0000      -0.316309        -8.6072   71-A'
  89   1.0000      -0.284699        -7.7470   72-A'
  90   1.0000      -0.280485        -7.6324   73-A'
  91   1.0000      -0.228259        -6.2112   74-A'
  92   1.0000      -0.220612        -6.0032   75-A'
  93   1.0000      -0.199732        -5.4350   76-A'
  94   1.0000      -0.195734        -5.3262   77-A'
  95   1.0000      -0.168542        -4.5863   78-A'
  96   1.0000      -0.161922        -4.4061   79-A'
  97   1.0000      -0.140280        -3.8172   80-A'
  98   1.0000      -0.135130        -3.6771   81-A'
  99   1.0000      -0.131730        -3.5845   19-A"
 100   1.0000      -0.129733        -3.5302   82-A'
 101   1.0000      -0.127914        -3.4807   20-A"
 102   1.0000      -0.105331        -2.8662   83-A'
 103   1.0000      -0.078930        -2.1478   84-A'
 104   1.0000      -0.070015        -1.9052   85-A'
 105   1.0000      -0.056319        -1.5325   86-A'
 106   1.0000      -0.050109        -1.3635   87-A'
 107   1.0000      -0.047579        -1.2947   21-A"
 108   1.0000      -0.044864        -1.2208   22-A"
 109   1.0000      -0.030963        -0.8425   23-A"
 110   1.0000      -0.024748        -0.6734   88-A'
 111   1.0000      -0.024374        -0.6633   24-A"
 112   1.0000      -0.004282        -0.1165   89-A'
 113   1.0000       0.005134         0.1397   25-A"
 114   1.0000       0.010120         0.2754   90-A'
 115   1.0000       0.011913         0.3242   26-A"
 116   1.0000       0.032420         0.8822   91-A'
 117   1.0000       0.032967         0.8971   92-A'
 118   1.0000       0.050390         1.3712   93-A'
 119   1.0000       0.058404         1.5893   27-A"
 120   1.0000       0.061820         1.6822   28-A"
 121   1.0000       0.072913         1.9841   29-A"
 122   1.0000       0.105711         2.8765   30-A"
 123   0.0000       0.150314         4.0902   94-A'
 124   0.0000       0.184979         5.0335   95-A'
 125   0.0000       0.185406         5.0452   96-A'
 126   0.0000       0.200470         5.4551   97-A'
 127   0.0000       0.201070         5.4714   98-A'

MULLIKEN ATOMIC CHARGES AND SPIN POPULATIONS
--------------------------------------------
   0 Cu:    0.708285    0.309755
   1 Se:   -0.770362    0.140797
   2 C :    0.202959    0.000135
   3 Se:   -0.731750    0.197005
   4 C :    0.232409   -0.006259
   5 Se:   -0.737443    0.203859
   6 C :    0.237092   -0.007086
   7 Se:   -0.758724    0.152457
   8 C :    0.210299   -0.000294
   9 C :   -0.101940   -0.001895
  10 C :   -0.104288   -0.000815
  11 C :   -0.194746   -0.000468
  12 H :    0.100872    0.002561
  13 C :   -0.132367   -0.000946
  14 H :    0.087583    0.002783
  15 H :    0.016176    0.001700
  16 H :    0.023582    0.001717
  17 C :   -0.095741   -0.001820
  18 C :   -0.098522   -0.000880
  19 C :   -0.161597   -0.001026
  20 H :    0.090918    0.002678
  21 C :   -0.153858   -0.000447
  22 H :    0.095864    0.003103
  23 H :    0.018812    0.001728
  24 H :    0.016485    0.001658
Sum of atomic charges         :   -2.0000000

LOEWDIN ATOMIC CHARGES AND SPIN POPULATIONS
-------------------------------------------
   0 Cu:   -0.612616    0.388119
   1 Se:   -0.199224    0.086876
   2 C :    0.042345    0.009643
   3 Se:   -0.200676    0.151092
   4 C :    0.039125    0.012411
   5 Se:   -0.199477    0.157521
   6 C :    0.026483    0.012695
   7 Se:   -0.211767    0.098686
   8 C :    0.043366    0.010576
   9 C :    0.365977    0.005616
  10 C :    0.378340    0.008705
  11 C :    0.331552    0.000697
  12 H :   -0.472823    0.012021
  13 C :    0.315008    0.000212
  14 H :   -0.454635    0.007559
  15 H :   -0.413581    0.000434
  16 H :   -0.415754    0.000407
  17 C :    0.376405    0.005496
  18 C :    0.368154    0.009222
  19 C :    0.320942    0.000255
  20 H :   -0.462589    0.007504
  21 C :    0.318488    0.000723
  22 H :   -0.463601    0.012739
  23 H :   -0.411255    0.000350
  24 H :   -0.408188    0.000441

  Mayer bond orders larger than 0.100000
B(  0-Cu,  1-Se) :   0.5809 B(  0-Cu,  3-Se) :   0.5185 B(  0-Cu,  5-Se) :   0.5113
B(  0-Cu,  7-Se) :   0.5635 B(  1-Se,  2-C ) :   1.0473 B(  2-C ,  6-C ) :   1.1269
B(  2-C , 17-C ) :   1.2511 B(  3-Se,  4-C ) :   1.0307 B(  4-C ,  8-C ) :   1.1329
B(  4-C , 10-C ) :   1.2638 B(  5-Se,  6-C ) :   1.0374 B(  6-C , 18-C ) :   1.2502
B(  7-Se,  8-C ) :   1.0442 B(  8-C ,  9-C ) :   1.2455 B(  9-C , 13-C ) :   1.3870
B(  9-C , 14-H ) :   0.9605 B( 10-C , 11-C ) :   1.3752 B( 10-C , 12-H ) :   0.9566
B( 11-C , 13-C ) :   1.3064 B( 11-C , 15-H ) :   1.0024 B( 13-C , 16-H ) :   0.9922
B( 17-C , 19-C ) :   1.3793 B( 17-C , 20-H ) :   0.9571 B( 18-C , 21-C ) :   1.3810
B( 18-C , 22-H ) :   0.9591 B( 19-C , 21-C ) :   1.3102 B( 19-C , 23-H ) :   0.9967
B( 21-C , 24-H ) :   0.9973

FINAL SINGLE POINT ENERGY    -11627.140511395222

DIPOLE MOMENT
-------------
                                X             Y             Z
Electronic contribution:     -0.64670       0.55076       0.00000
Nuclear contribution   :      0.55811      -0.55544       0.00000
                        -----------------------------------------
Total Dipole Moment    :     -0.08859      -0.00468       0.00000
                        -----------------------------------------
Magnitude (a.u.)       :      0.08871
Magnitude (Debye)      :      0.22549

Rotational constants in cm-1:     0.017370     0.004244     0.003411
Rotational constants in MHz :   520.731707   127.237160   102.252480

                             ****ORCA TERMINATED NORMALLY****
TOTAL RUN TIME: 0 days 16 hours 49 minutes 34 seconds 477 msec
