                         Program Version 5.0.4 -  RELEASE  -
|  1> ! RIJCOSX nofrozencore ReducedPop printbasis
|  2> ! M06L ano-rcc-dzp autoaux
|  3>
|  4> %maxcore 7500
|  5> %basis
|  6> PCDTrimBas overlap
|  7> PCDTrimAuxJ Coulomb
|  8> PCDTrimAuxJK Coulomb
|  9> PCDTrimAuxC Coulomb
| 10> PCDThresh -1
| 11> end
| 12>
| 13> %basis
| 14> newgto Cu "ano-rcc-tzp" end
| 15> newgto Se "ano-rcc-tzp" end
| 16> end
| 17>
| 18> %pal
| 19> nprocs 8
| 20> end
| 21>
| 22> % sym SymThresh 1e-2 end
| 23> * xyz -2 2
| 24> Cu 0.020358558957904317 0.02527475339381376 -0.03844232066407325
| 25> Se 2.167932499598 -0.31741353935498207 0.8990251871309903
| 26> C 2.6622637732293586 -1.7563835921497717 0.29163273128653433
| 27> Se -0.41028553622075764 2.059093558205035 1.0957848296360804
| 28> C -1.9286207064361325 2.4749655130746917 0.6422931054944611
| 29> Se 0.4353834997208002 -2.0279349266210334 -1.1431763941804483
| 30> C 1.906071710594127 -2.5029596510862895 -0.5997146631497153
| 31> Se -2.142870146377987 0.34852796147170756 -0.9463495100888261
| 32> C -2.6848209374820455 1.728377725114197 -0.24903753462701655
| 33> C -3.960058579614769 2.2046908345774376 -0.5392255227626918
| 34> C -2.5219493633684396 3.6245150225879446 1.1559231606594063
| 35> C -3.787088699161824 4.092219600183612 0.8655174636313772
| 36> H -1.926992514461659 4.200503440130164 1.8493279938348932
| 37> C -4.544068584504373 3.3448651932712994 -0.026787685371768323
| 38> H -4.542793833267559 1.6179606465775591 -1.2340016727807006
| 39> H -4.155499491558713 5.005681680118848 1.3221557738057288
| 40> H -5.549602002762912 3.629307770737332 -0.32115813086312345
| 41> C 3.893035430983378 -2.287901941009837 0.6657855380867679
| 42> C 2.454922723107032 -3.7077272876075775 -1.0293592126269189
| 43> C 4.4325342796501355 -3.483334442859682 0.23739515528941424
| 44> H 4.476020765920922 -1.7008612819784064 1.360089468781175
| 45> C 3.6755432140943807 -4.230699553585117 -0.6548915429355007
| 46> H 1.8602106948754553 -4.283411765062274 -1.723226331709815
| 47> H 5.4064770034025225 -3.806994662565159 0.5914158210971936
| 48> H 4.012358240320689 -5.183387021644474 -1.0518703981039101
| 49> *
| 50>
| 51> % eprnmr
| 52> gtensor true
| 53> Nuclei = all H {aiso,adip,aorb,fgrad,rho}
| 54> Nuclei = all Cu {aiso,adip,aorb,fgrad,rho}
| 55> end
| 56>
| 57>                          ****END OF INPUT****

CARTESIAN COORDINATES (ANGSTROEM)
---------------------------------
  Cu    -0.000000   -0.000000   -0.050310
  Se     1.588883   -1.755969   -0.030989
  C      0.693488   -3.126639    0.027867
  Se     1.588883    1.755969   -0.030989
  C      0.693488    3.126639    0.027867
  Se    -1.588883   -1.755969   -0.030989
  C     -0.693488   -3.126639    0.027867
  Se    -1.588883    1.755969   -0.030989
  C     -0.693488    3.126639    0.027867
  C     -1.318862    4.368894    0.082817
  C      1.318862    4.368894    0.082817
  C      0.694220    5.597896    0.137818
  H      2.398899    4.360735    0.082511
  C     -0.694220    5.597896    0.137818
  H     -2.398899    4.360735    0.082511
  H      1.278516    6.512078    0.176854
  H     -1.278516    6.512078    0.176854
  C      1.318862   -4.368894    0.082817
  C     -1.318862   -4.368894    0.082817
  C      0.694220   -5.597896    0.137818
  H      2.398899   -4.360735    0.082511
  C     -0.694220   -5.597896    0.137818
  H     -2.398899   -4.360735    0.082511
  H      1.278516   -6.512078    0.176854
  H     -1.278516   -6.512078    0.176854

 Total Charge           Charge          ....   -2
 Multiplicity           Mult            ....    2
 Number of Electrons    NEL             ....  247
 Basis Dimension        Dim             ....  575

ORBITAL ENERGIES
----------------
                 SPIN UP ORBITALS
  NO   OCC          E(Eh)            E(eV)    Irrep
   0   1.0000    -443.561338    -12069.9176    1-B1
   1   1.0000    -443.560261    -12069.8883    1-A2
   2   1.0000    -443.546588    -12069.5163    1-A1
   3   1.0000    -443.546530    -12069.5147    1-B2
   4   1.0000    -318.186856     -8658.3045    2-A1
   5   1.0000     -56.369905     -1533.9031    2-B1
   6   1.0000     -56.369617     -1533.8953    2-A2
   7   1.0000     -56.356892     -1533.5490    3-A1
   8   1.0000     -56.356628     -1533.5418    2-B2
   9   1.0000     -51.286006     -1395.5632    3-A2
  10   1.0000     -51.285941     -1395.5614    3-B2
  11   1.0000     -51.285937     -1395.5613    3-B1
  12   1.0000     -51.285907     -1395.5605    4-A1
  13   1.0000     -51.284640     -1395.5260    4-A2
  14   1.0000     -51.284632     -1395.5258    4-B1
  15   1.0000     -51.284595     -1395.5248    4-B2
  16   1.0000     -51.284560     -1395.5238    5-A1
  17   1.0000     -51.284201     -1395.5141    5-A2
  18   1.0000     -51.284171     -1395.5133    5-B1
  19   1.0000     -51.284155     -1395.5128    5-B2
  20   1.0000     -51.284120     -1395.5119    6-A1
  21   1.0000     -38.027416     -1034.7786    7-A1
  22   1.0000     -33.529484      -912.3836    6-B1
  23   1.0000     -33.528692      -912.3621    6-B2
  24   1.0000     -33.517472      -912.0568    8-A1
  25   1.0000      -9.816007      -267.1071    7-B2
  26   1.0000      -9.816007      -267.1071    9-A1
  27   1.0000      -9.815559      -267.0949    6-A2
  28   1.0000      -9.815559      -267.0949    7-B1
  29   1.0000      -9.808544      -266.9041    8-B2
  30   1.0000      -9.808538      -266.9039   10-A1
  31   1.0000      -9.808091      -266.8917    7-A2
  32   1.0000      -9.808089      -266.8917    8-B1
  33   1.0000      -9.806492      -266.8482    9-B2
  34   1.0000      -9.806491      -266.8482   11-A1
  35   1.0000      -9.806490      -266.8482    8-A2
  36   1.0000      -9.806489      -266.8481    9-B1
  37   1.0000      -7.340914      -199.7564   10-B1
  38   1.0000      -7.340870      -199.7552    9-A2
  39   1.0000      -7.333593      -199.5572   12-A1
  40   1.0000      -7.333480      -199.5541   10-B2
  41   1.0000      -5.403799      -147.0448   10-A2
  42   1.0000      -5.403771      -147.0441   11-B2
  43   1.0000      -5.403758      -147.0437   11-B1
  44   1.0000      -5.403749      -147.0435   13-A1
  45   1.0000      -5.398478      -146.9000   11-A2
  46   1.0000      -5.398474      -146.8999   12-B1
  47   1.0000      -5.398460      -146.8996   12-B2
  48   1.0000      -5.398441      -146.8991   14-A1
  49   1.0000      -5.398106      -146.8899   12-A2
  50   1.0000      -5.398089      -146.8895   13-B1
  51   1.0000      -5.398081      -146.8893   13-B2
  52   1.0000      -5.398061      -146.8887   15-A1
  53   1.0000      -4.021728      -109.4368   16-A1
  54   1.0000      -2.541316       -69.1527   14-B1
  55   1.0000      -2.540360       -69.1267   14-B2
  56   1.0000      -2.516773       -68.4849   17-A1
  57   1.0000      -1.742819       -47.4245   18-A1
  58   1.0000      -1.742805       -47.4241   15-B2
  59   1.0000      -1.742789       -47.4237   15-B1
  60   1.0000      -1.742777       -47.4234   13-A2
  61   1.0000      -1.740091       -47.3503   19-A1
  62   1.0000      -1.740072       -47.3498   16-B2
  63   1.0000      -1.740006       -47.3480   16-B1
  64   1.0000      -1.739994       -47.3476   14-A2
  65   1.0000      -1.739355       -47.3303   20-A1
  66   1.0000      -1.739353       -47.3302   17-B2
  67   1.0000      -1.739349       -47.3301   17-B1
  68   1.0000      -1.739346       -47.3300   15-A2
  69   1.0000      -1.734993       -47.2116   21-A1
  70   1.0000      -1.734984       -47.2113   18-B2
  71   1.0000      -1.734967       -47.2108   22-A1
  72   1.0000      -1.734964       -47.2108   19-B2
  73   1.0000      -1.734943       -47.2102   16-A2
  74   1.0000      -1.734941       -47.2102   18-B1
  75   1.0000      -1.734924       -47.2097   17-A2
  76   1.0000      -1.734921       -47.2096   19-B1
  77   1.0000      -0.602177       -16.3861   23-A1
  78   1.0000      -0.601973       -16.3805   20-B2
  79   1.0000      -0.521382       -14.1875   24-A1
  80   1.0000      -0.520645       -14.1675   21-B2
  81   1.0000      -0.498787       -13.5727   20-B1
  82   1.0000      -0.498548       -13.5662   18-A2
  83   1.0000      -0.412761       -11.2318   21-B1
  84   1.0000      -0.411616       -11.2007   19-A2
  85   1.0000      -0.383390       -10.4326   25-A1
  86   1.0000      -0.378864       -10.3094   22-B2
  87   1.0000      -0.320644        -8.7252   26-A1
  88   1.0000      -0.318333        -8.6623   23-B2
  89   1.0000      -0.287430        -7.8214   22-B1
  90   1.0000      -0.284226        -7.7342   20-A2
  91   1.0000      -0.230046        -6.2599   27-A1
  92   1.0000      -0.223418        -6.0795   24-B2
  93   1.0000      -0.200109        -5.4452   28-A1
  94   1.0000      -0.199124        -5.4184   25-B2
  95   1.0000      -0.170471        -4.6388   23-B1
  96   1.0000      -0.165584        -4.5058   21-A2
  97   1.0000      -0.138455        -3.7675   24-B1
  98   1.0000      -0.136878        -3.7246   29-A1
  99   1.0000      -0.136845        -3.7237   22-A2
 100   1.0000      -0.130122        -3.5408   30-A1
 101   1.0000      -0.129920        -3.5353   26-B2
 102   1.0000      -0.110636        -3.0106   27-B2
 103   1.0000      -0.082186        -2.2364   31-A1
 104   1.0000      -0.071621        -1.9489   25-B1
 105   1.0000      -0.065795        -1.7904   23-A2
 106   1.0000      -0.062547        -1.7020   28-B2
 107   1.0000      -0.048488        -1.3194   29-B2
 108   1.0000      -0.047689        -1.2977   32-A1
 109   1.0000      -0.032978        -0.8974   26-B1
 110   1.0000      -0.029826        -0.8116   24-A2
 111   1.0000      -0.029316        -0.7977   33-A1
 112   1.0000      -0.026516        -0.7215   25-A2
 113   1.0000      -0.001647        -0.0448   27-B1
 114   1.0000      -0.000920        -0.0250   30-B2
 115   1.0000       0.000763         0.0208   34-A1
 116   1.0000       0.019445         0.5291   35-A1
 117   1.0000       0.021160         0.5758   31-B2
 118   1.0000       0.041052         1.1171   28-B1
 119   1.0000       0.055246         1.5033   26-A2
 120   1.0000       0.056259         1.5309   29-B1
 121   1.0000       0.070528         1.9192   36-A1
 122   1.0000       0.099439         2.7059   32-B2
 123   1.0000       0.116372         3.1667   27-A2
 124   0.0000       0.182177         4.9573   33-B2
 125   0.0000       0.182308         4.9609   37-A1
 126   0.0000       0.196234         5.3398   28-A2
 127   0.0000       0.196659         5.3514   30-B1
 128   0.0000       0.201825         5.4919   38-A1

                 SPIN DOWN ORBITALS
  NO   OCC          E(Eh)            E(eV)    Irrep
   0   1.0000    -443.560885    -12069.9053    1-B1
   1   1.0000    -443.559808    -12069.8760    1-A2
   2   1.0000    -443.546136    -12069.5039    1-A1
   3   1.0000    -443.546077    -12069.5024    1-B2
   4   1.0000    -318.186733     -8658.3012    2-A1
   5   1.0000     -56.369721     -1533.8981    2-B1
   6   1.0000     -56.369434     -1533.8903    2-A2
   7   1.0000     -56.356711     -1533.5441    3-A1
   8   1.0000     -56.356447     -1533.5369    2-B2
   9   1.0000     -51.285685     -1395.5544    3-A2
  10   1.0000     -51.285615     -1395.5525    3-B1
  11   1.0000     -51.285612     -1395.5524    3-B2
  12   1.0000     -51.285577     -1395.5515    4-A1
  13   1.0000     -51.283953     -1395.5073    4-A2
  14   1.0000     -51.283925     -1395.5065    4-B1
  15   1.0000     -51.283908     -1395.5061    4-B2
  16   1.0000     -51.283901     -1395.5059    5-A2
  17   1.0000     -51.283893     -1395.5057    5-B1
  18   1.0000     -51.283873     -1395.5051    5-A1
  19   1.0000     -51.283864     -1395.5049    5-B2
  20   1.0000     -51.283830     -1395.5040    6-A1
  21   1.0000     -38.013491     -1034.3997    7-A1
  22   1.0000     -33.516252      -912.0236    6-B1
  23   1.0000     -33.515460      -912.0020    6-B2
  24   1.0000     -33.513583      -911.9509    8-A1
  25   1.0000      -9.815957      -267.1058    7-B2
  26   1.0000      -9.815957      -267.1058    9-A1
  27   1.0000      -9.815509      -267.0936    6-A2
  28   1.0000      -9.815509      -267.0936    7-B1
  29   1.0000      -9.808563      -266.9046    8-B2
  30   1.0000      -9.808557      -266.9044   10-A1
  31   1.0000      -9.808108      -266.8922    7-A2
  32   1.0000      -9.808106      -266.8921    8-B1
  33   1.0000      -9.806373      -266.8450    9-B2
  34   1.0000      -9.806373      -266.8450    8-A2
  35   1.0000      -9.806373      -266.8450   11-A1
  36   1.0000      -9.806372      -266.8449    9-B1
  37   1.0000      -7.340513      -199.7455   10-B1
  38   1.0000      -7.340472      -199.7444    9-A2
  39   1.0000      -7.333186      -199.5461   12-A1
  40   1.0000      -7.333073      -199.5431   10-B2
  41   1.0000      -5.403436      -147.0350   10-A2
  42   1.0000      -5.403407      -147.0342   11-B2
  43   1.0000      -5.403395      -147.0338   11-B1
  44   1.0000      -5.403385      -147.0336   13-A1
  45   1.0000      -5.397804      -146.8817   11-A2
  46   1.0000      -5.397787      -146.8813   12-B1
  47   1.0000      -5.397779      -146.8810   12-B2
  48   1.0000      -5.397759      -146.8805   14-A1
  49   1.0000      -5.397640      -146.8773   12-A2
  50   1.0000      -5.397636      -146.8771   13-B1
  51   1.0000      -5.397622      -146.8768   13-B2
  52   1.0000      -5.397603      -146.8763   15-A1
  53   1.0000      -3.993412      -108.6663   16-A1
  54   1.0000      -2.506426       -68.2033   17-A1
  55   1.0000      -2.505964       -68.1907   14-B1
  56   1.0000      -2.504938       -68.1628   14-B2
  57   1.0000      -1.742369       -47.4123   18-A1
  58   1.0000      -1.742356       -47.4119   15-B2
  59   1.0000      -1.742338       -47.4114   15-B1
  60   1.0000      -1.742327       -47.4111   13-A2
  61   1.0000      -1.739202       -47.3261   19-A1
  62   1.0000      -1.739183       -47.3256   16-B2
  63   1.0000      -1.739117       -47.3238   16-B1
  64   1.0000      -1.739105       -47.3235   14-A2
  65   1.0000      -1.739039       -47.3217   20-A1
  66   1.0000      -1.739037       -47.3216   17-B2
  67   1.0000      -1.739028       -47.3214   17-B1
  68   1.0000      -1.739025       -47.3213   15-A2
  69   1.0000      -1.734200       -47.1900   21-A1
  70   1.0000      -1.734198       -47.1899   18-B2
  71   1.0000      -1.734184       -47.1896   22-A1
  72   1.0000      -1.734177       -47.1894   16-A2
  73   1.0000      -1.734176       -47.1893   18-B1
  74   1.0000      -1.734175       -47.1893   19-B2
  75   1.0000      -1.734121       -47.1878   17-A2
  76   1.0000      -1.734117       -47.1877   19-B1
  77   1.0000      -0.601369       -16.3641   23-A1
  78   1.0000      -0.601180       -16.3589   20-B2
  79   1.0000      -0.520243       -14.1565   24-A1
  80   1.0000      -0.519541       -14.1374   21-B2
  81   1.0000      -0.497092       -13.5266   20-B1
  82   1.0000      -0.496870       -13.5205   18-A2
  83   1.0000      -0.410081       -11.1589   21-B1
  84   1.0000      -0.408915       -11.1271   19-A2
  85   1.0000      -0.380899       -10.3648   25-A1
  86   1.0000      -0.376560       -10.2467   22-B2
  87   1.0000      -0.318893        -8.6775   26-A1
  88   1.0000      -0.316425        -8.6104   23-B2
  89   1.0000      -0.285048        -7.7565   22-B1
  90   1.0000      -0.281591        -7.6625   20-A2
  91   1.0000      -0.228917        -6.2292   27-A1
  92   1.0000      -0.222351        -6.0505   24-B2
  93   1.0000      -0.198810        -5.4099   28-A1
  94   1.0000      -0.197902        -5.3852   25-B2
  95   1.0000      -0.169039        -4.5998   23-B1
  96   1.0000      -0.163508        -4.4493   21-A2
  97   1.0000      -0.137579        -3.7437   24-B1
  98   1.0000      -0.135183        -3.6785   22-A2
  99   1.0000      -0.134910        -3.6711   29-A1
 100   1.0000      -0.129748        -3.5306   30-A1
 101   1.0000      -0.129520        -3.5244   26-B2
 102   1.0000      -0.108896        -2.9632   27-B2
 103   1.0000      -0.080814        -2.1991   31-A1
 104   1.0000      -0.070162        -1.9092   25-B1
 105   1.0000      -0.060347        -1.6421   28-B2
 106   1.0000      -0.054167        -1.4740   23-A2
 107   1.0000      -0.047331        -1.2879   29-B2
 108   1.0000      -0.047130        -1.2825   32-A1
 109   1.0000      -0.030553        -0.8314   26-B1
 110   1.0000      -0.025668        -0.6985   24-A2
 111   1.0000      -0.022879        -0.6226   33-A1
 112   1.0000      -0.001880        -0.0512   25-A2
 113   1.0000       0.007981         0.2172   27-B1
 114   1.0000       0.010296         0.2802   30-B2
 115   1.0000       0.011168         0.3039   34-A1
 116   1.0000       0.029323         0.7979   31-B2
 117   1.0000       0.032311         0.8792   35-A1
 118   1.0000       0.052282         1.4227   28-B1
 119   1.0000       0.057101         1.5538   26-A2
 120   1.0000       0.059903         1.6300   29-B1
 121   1.0000       0.072252         1.9661   36-A1
 122   1.0000       0.102685         2.7942   32-B2
 123   0.0000       0.146241         3.9794   27-A2
 124   0.0000       0.184104         5.0097   33-B2
 125   0.0000       0.184255         5.0138   37-A1
 126   0.0000       0.199524         5.4293   28-A2
 127   0.0000       0.200044         5.4435   30-B1

MULLIKEN ATOMIC CHARGES AND SPIN POPULATIONS
--------------------------------------------
   0 Cu:    0.637780    0.310936
   1 Se:   -0.734030    0.173249
   2 C :    0.222498   -0.003170
   3 Se:   -0.734030    0.173249
   4 C :    0.222498   -0.003170
   5 Se:   -0.734030    0.173249
   6 C :    0.222498   -0.003170
   7 Se:   -0.734030    0.173249
   8 C :    0.222498   -0.003170
   9 C :   -0.104585   -0.001541
  10 C :   -0.104585   -0.001541
  11 C :   -0.155959   -0.000666
  12 H :    0.092300    0.002790
  13 C :   -0.155959   -0.000666
  14 H :    0.092300    0.002790
  15 H :    0.020332    0.001603
  16 H :    0.020332    0.001603
  17 C :   -0.104585   -0.001541
  18 C :   -0.104585   -0.001541
  19 C :   -0.155959   -0.000666
  20 H :    0.092300    0.002790
  21 C :   -0.155959   -0.000666
  22 H :    0.092300    0.002790
  23 H :    0.020332    0.001603
  24 H :    0.020332    0.001603
Sum of atomic charges         :   -2.0000000

LOEWDIN ATOMIC CHARGES AND SPIN POPULATIONS
-------------------------------------------
   0 Cu:   -0.616264    0.391116
   1 Se:   -0.202725    0.123320
   2 C :    0.038818    0.011776
   3 Se:   -0.202725    0.123320
   4 C :    0.038818    0.011776
   5 Se:   -0.202725    0.123320
   6 C :    0.038818    0.011776
   7 Se:   -0.202725    0.123320
   8 C :    0.038818    0.011776
   9 C :    0.371218    0.006874
  10 C :    0.371218    0.006874
  11 C :    0.319144    0.000447
  12 H :   -0.460550    0.009408
  13 C :    0.319144    0.000447
  14 H :   -0.460550    0.009408
  15 H :   -0.411839    0.000394
  16 H :   -0.411839    0.000394
  17 C :    0.371218    0.006874
  18 C :    0.371218    0.006874
  19 C :    0.319144    0.000447
  20 H :   -0.460550    0.009408
  21 C :    0.319144    0.000447
  22 H :   -0.460550    0.009408
  23 H :   -0.411839    0.000394
  24 H :   -0.411839    0.000394

  Mayer bond orders larger than 0.100000
B(  0-Cu,  1-Se) :   0.5509 B(  0-Cu,  3-Se) :   0.5509 B(  0-Cu,  5-Se) :   0.5509
B(  0-Cu,  7-Se) :   0.5509 B(  1-Se,  2-C ) :   1.0378 B(  2-C ,  6-C ) :   1.1337
B(  2-C , 17-C ) :   1.2579 B(  3-Se,  4-C ) :   1.0378 B(  4-C ,  8-C ) :   1.1337
B(  4-C , 10-C ) :   1.2579 B(  5-Se,  6-C ) :   1.0378 B(  6-C , 18-C ) :   1.2579
B(  7-Se,  8-C ) :   1.0378 B(  8-C ,  9-C ) :   1.2579 B(  9-C , 13-C ) :   1.3788
B(  9-C , 14-H ) :   0.9599 B( 10-C , 11-C ) :   1.3788 B( 10-C , 12-H ) :   0.9599
B( 11-C , 13-C ) :   1.3128 B( 11-C , 15-H ) :   0.9958 B( 13-C , 16-H ) :   0.9958
B( 17-C , 19-C ) :   1.3788 B( 17-C , 20-H ) :   0.9599 B( 18-C , 21-C ) :   1.3788
B( 18-C , 22-H ) :   0.9599 B( 19-C , 21-C ) :   1.3128 B( 19-C , 23-H ) :   0.9958
B( 21-C , 24-H ) :   0.9958

FINAL SINGLE POINT ENERGY    -11627.147261870256

DIPOLE MOMENT
-------------
                                X             Y             Z
Electronic contribution:     -0.00000       0.00000      -2.55027
Nuclear contribution   :     -0.00000      -0.00000       2.50956
                        -----------------------------------------
Total Dipole Moment    :     -0.00000       0.00000      -0.04070
                        -----------------------------------------
Magnitude (a.u.)       :      0.04070
Magnitude (Debye)      :      0.10346

Rotational constants in cm-1:     0.017581     0.004096     0.003325
Rotational constants in MHz :   527.056244   122.794528    99.666034

                             ****ORCA TERMINATED NORMALLY****
TOTAL RUN TIME: 0 days 17 hours 54 minutes 29 seconds 305 msec
