                         Program Version 5.0.4 -  RELEASE  -
|  1> ! RIJCOSX nofrozencore ReducedPop printbasis
|  2> ! M06L ano-rcc-dzp autoaux
|  3>
|  4> %maxcore 7500
|  5> %basis
|  6> PCDTrimBas overlap
|  7> PCDTrimAuxJ Coulomb
|  8> PCDTrimAuxJK Coulomb
|  9> PCDTrimAuxC Coulomb
| 10> PCDThresh -1
| 11> end
| 12>
| 13> %basis
| 14> newgto Cu "ano-rcc-tzp" end
| 15> newgto Se "ano-rcc-tzp" end
| 16> end
| 17>
| 18> %pal
| 19> nprocs 8
| 20> end
| 21>
| 22> % sym SymThresh 1e-2 end
| 23> * xyz -2 2
| 24> Cu 3.572989761303639e-06 -4.564884750018394e-06 6.289446594644632e-07
| 25> Se -2.023495571144832 -0.8788990087122797 0.8608122637177182
| 26> C -1.6568358622502828 -2.412898778112972 1.29969898644351
| 27> Se -0.8722206286270768 2.1407709331593723 -0.5141295555814087
| 28> C 0.3923716891005765 2.9647065149032734 -1.1485914678642037
| 29> Se 0.8723271160194929 -2.1407341148550003 0.514087569301274
| 30> C -0.39307080274793393 -2.963635850280066 1.1484060565034682
| 31> Se 2.0235424005384046 0.8787793402679678 -0.8607829981862248
| 32> C 1.6556136319182087 2.412864865854561 -1.2993536286955336
| 33> C 2.662561266947467 3.2201549840083996 -1.8576781738573458
| 34> C 0.25746611198497965 4.268367395690334 -1.5697828657661719
| 35> C 1.2025300473287621 5.082812901234192 -2.113738349979663
| 36> H -1.0690354906646478 4.838548001978276 -1.4082052174137945
| 37> C 2.471878048891628 4.542056901232957 -2.2700608968403895
| 38> H 3.285997624187963 2.93993028268045 -1.9293143444442926
| 39> H 0.9564913973501126 6.1706038622276544 -2.4287725119091284
| 40> H 3.2445663736385577 5.052944354674454 -2.6603450404689055
| 41> C -2.631019693661081 -3.2339754088985737 1.8539284556713223
| 42> C -0.22562874893230664 -4.282281617984746 1.5659854038777572
| 43> C -2.467332895964728 -4.537117144082338 2.2670854954953583
| 44> H -3.6480956731851752 -2.7827378204132494 1.9728763575151689
| 45> C -1.2021570983968564 -5.090442163998044 2.1163168789739326
| 46> H 0.7030512977412317 -4.678554224005999 1.4518432877349399
| 47> H -3.302913728862493 -5.093964281034833 2.690674046746083
| 48> H -0.9732008257479526 -6.089925593485424 2.40498761358322
| 49> *
| 50>
| 51> % eprnmr
| 52> gtensor true
| 53> Nuclei = all H {aiso,adip,aorb,fgrad,rho}
| 54> Nuclei = all Cu {aiso,adip,aorb,fgrad,rho}
| 55> end
| 56>
| 57>                          ****END OF INPUT****

CARTESIAN COORDINATES (ANGSTROEM)
---------------------------------
  Cu     0.000003   -0.000004    0.000000
  Se    -2.136120   -1.022247    0.000000
  C     -1.827411   -2.630014    0.000000
  Se    -0.804167    2.227401    0.000000
  C      0.543520    3.157101    0.000000
  Se     0.804279   -2.227357    0.000000
  C     -0.544195   -3.155999    0.000000
  Se     2.136163    1.022123    0.000000
  C      1.826143    2.629923    0.000000
  C      2.906255    3.530338    0.000000
  C      0.464147    4.531450    0.000000
  C      1.480505    5.436641    0.000000
  H     -0.883136    5.075185    0.000000
  C      2.769964    4.921477    0.000000
  H      3.538891    3.261821    0.000000
  H      1.276057    6.577374    0.000000
  H      3.593770    5.497428    0.000000
  C     -2.874231   -3.543544    0.000000
  C     -0.431821   -4.544742    0.000000
  C     -2.765029   -4.916040    0.000000
  H     -3.906591   -3.111755    0.000000
  C     -1.480472   -5.444702    0.000000
  H      0.511542   -4.922329    0.000000
  H     -3.656090   -5.543504    0.000000
  H     -1.289627   -6.492699    0.000000

 Total Charge           Charge          ....   -2
 Multiplicity           Mult            ....    2
 Number of Electrons    NEL             ....  247
 Basis Dimension        Dim             ....  575

ORBITAL ENERGIES
----------------
                 SPIN UP ORBITALS
  NO   OCC          E(Eh)            E(eV)    Irrep
   0   1.0000    -443.562426    -12069.9472    1-A'
   1   1.0000    -443.561175    -12069.9132    2-A'
   2   1.0000    -443.547708    -12069.5467    3-A'
   3   1.0000    -443.547129    -12069.5310    4-A'
   4   1.0000    -318.187354     -8658.3181    5-A'
   5   1.0000     -56.371019     -1533.9334    6-A'
   6   1.0000     -56.370294     -1533.9137    7-A'
   7   1.0000     -56.357915     -1533.5768    8-A'
   8   1.0000     -56.357213     -1533.5577    9-A'
   9   1.0000     -51.287815     -1395.6124   10-A'
  10   1.0000     -51.286500     -1395.5766   11-A'
  11   1.0000     -51.286471     -1395.5758   12-A'
  12   1.0000     -51.286409     -1395.5741   13-A'
  13   1.0000     -51.286235     -1395.5694   14-A'
  14   1.0000     -51.286050     -1395.5644    1-A"
  15   1.0000     -51.285160     -1395.5402   15-A'
  16   1.0000     -51.285037     -1395.5368   16-A'
  17   1.0000     -51.284904     -1395.5332   17-A'
  18   1.0000     -51.284722     -1395.5282    2-A"
  19   1.0000     -51.284588     -1395.5246    3-A"
  20   1.0000     -51.284455     -1395.5210    4-A"
  21   1.0000     -38.027910     -1034.7920   18-A'
  22   1.0000     -33.529974      -912.3970   19-A'
  23   1.0000     -33.529180      -912.3754   20-A'
  24   1.0000     -33.517977      -912.0705    5-A"
  25   1.0000      -9.836681      -267.6697   21-A'
  26   1.0000      -9.824533      -267.3391   22-A'
  27   1.0000      -9.816112      -267.1100   23-A'
  28   1.0000      -9.813782      -267.0466   24-A'
  29   1.0000      -9.811540      -266.9856   25-A'
  30   1.0000      -9.811255      -266.9778   26-A'
  31   1.0000      -9.810607      -266.9602   27-A'
  32   1.0000      -9.810214      -266.9495   28-A'
  33   1.0000      -9.808486      -266.9025   29-A'
  34   1.0000      -9.808029      -266.8900   30-A'
  35   1.0000      -9.800325      -266.6804   31-A'
  36   1.0000      -9.780737      -266.1474   32-A'
  37   1.0000      -7.342069      -199.7879   33-A'
  38   1.0000      -7.341341      -199.7680   34-A'
  39   1.0000      -7.334591      -199.5844   35-A'
  40   1.0000      -7.333943      -199.5667   36-A'
  41   1.0000      -5.405381      -147.0879   37-A'
  42   1.0000      -5.404520      -147.0645   38-A'
  43   1.0000      -5.404198      -147.0557   39-A'
  44   1.0000      -5.404068      -147.0522   40-A'
  45   1.0000      -5.400104      -146.9443   41-A'
  46   1.0000      -5.399820      -146.9366    6-A"
  47   1.0000      -5.399017      -146.9147   42-A'
  48   1.0000      -5.398923      -146.9122   43-A'
  49   1.0000      -5.398766      -146.9079   44-A'
  50   1.0000      -5.398622      -146.9040    7-A"
  51   1.0000      -5.398554      -146.9021    8-A"
  52   1.0000      -5.398387      -146.8976    9-A"
  53   1.0000      -4.022219      -109.4502   45-A'
  54   1.0000      -2.541800       -69.1659   46-A'
  55   1.0000      -2.540844       -69.1399   47-A'
  56   1.0000      -2.517278       -68.4986   10-A"
  57   1.0000      -1.744434       -47.4685   48-A'
  58   1.0000      -1.743538       -47.4441   49-A'
  59   1.0000      -1.743245       -47.4361   50-A'
  60   1.0000      -1.743118       -47.4326   51-A'
  61   1.0000      -1.741647       -47.3926   52-A'
  62   1.0000      -1.740998       -47.3750   11-A"
  63   1.0000      -1.740706       -47.3670   53-A'
  64   1.0000      -1.740478       -47.3608   54-A'
  65   1.0000      -1.740346       -47.3572   55-A'
  66   1.0000      -1.740032       -47.3487   12-A"
  67   1.0000      -1.739808       -47.3426   13-A"
  68   1.0000      -1.739634       -47.3378   14-A"
  69   1.0000      -1.736669       -47.2572   15-A"
  70   1.0000      -1.736635       -47.2562   56-A'
  71   1.0000      -1.735501       -47.2254   57-A'
  72   1.0000      -1.735452       -47.2240   58-A'
  73   1.0000      -1.735445       -47.2239   16-A"
  74   1.0000      -1.735392       -47.2224   17-A"
  75   1.0000      -1.735281       -47.2194   18-A"
  76   1.0000      -1.735243       -47.2184   59-A'
  77   1.0000      -0.607113       -16.5204   60-A'
  78   1.0000      -0.602593       -16.3974   61-A'
  79   1.0000      -0.524889       -14.2830   62-A'
  80   1.0000      -0.521376       -14.1874   63-A'
  81   1.0000      -0.512283       -13.9399   64-A'
  82   1.0000      -0.500041       -13.6068   65-A'
  83   1.0000      -0.422008       -11.4834   66-A'
  84   1.0000      -0.413206       -11.2439   67-A'
  85   1.0000      -0.389574       -10.6009   68-A'
  86   1.0000      -0.381445       -10.3796   69-A'
  87   1.0000      -0.339117        -9.2278   70-A'
  88   1.0000      -0.321432        -8.7466   71-A'
  89   1.0000      -0.287878        -7.8336   72-A'
  90   1.0000      -0.284378        -7.7383   73-A'
  91   1.0000      -0.234578        -6.3832   74-A'
  92   1.0000      -0.226471        -6.1626   75-A'
  93   1.0000      -0.204353        -5.5607   76-A'
  94   1.0000      -0.200029        -5.4431   77-A'
  95   1.0000      -0.176411        -4.8004   78-A'
  96   1.0000      -0.169370        -4.6088   79-A'
  97   1.0000      -0.141167        -3.8414   80-A'
  98   1.0000      -0.138360        -3.7650   81-A'
  99   1.0000      -0.136023        -3.7014   82-A'
 100   1.0000      -0.132175        -3.5967   19-A"
 101   1.0000      -0.130392        -3.5481   20-A"
 102   1.0000      -0.107056        -2.9131   83-A'
 103   1.0000      -0.076994        -2.0951   84-A'
 104   1.0000      -0.072186        -1.9643   85-A'
 105   1.0000      -0.066683        -1.8145   86-A'
 106   1.0000      -0.057466        -1.5637   87-A'
 107   1.0000      -0.049936        -1.3588   21-A"
 108   1.0000      -0.048153        -1.3103   22-A"
 109   1.0000      -0.033896        -0.9223   23-A"
 110   1.0000      -0.030050        -0.8177   88-A'
 111   1.0000      -0.029742        -0.8093   89-A'
 112   1.0000      -0.027607        -0.7512   24-A"
 113   1.0000      -0.002316        -0.0630   25-A"
 114   1.0000      -0.001468        -0.0399   26-A"
 115   1.0000       0.000207         0.0056   90-A'
 116   1.0000       0.018832         0.5124   91-A'
 117   1.0000       0.020633         0.5614   92-A'
 118   1.0000       0.040699         1.1075   93-A'
 119   1.0000       0.054183         1.4744   27-A"
 120   1.0000       0.055636         1.5139   28-A"
 121   1.0000       0.069807         1.8995   29-A"
 122   1.0000       0.098736         2.6867   30-A"
 123   1.0000       0.115948         3.1551   94-A'
 124   0.0000       0.179308         4.8792   95-A'
 125   0.0000       0.182308         4.9609   96-A'
 126   0.0000       0.194519         5.2931   97-A'
 127   0.0000       0.196434         5.3453   98-A'
 128   0.0000       0.201118         5.4727   31-A"

                 SPIN DOWN ORBITALS
  NO   OCC          E(Eh)            E(eV)    Irrep
   0   1.0000    -443.561974    -12069.9349    1-A'
   1   1.0000    -443.560723    -12069.9009    2-A'
   2   1.0000    -443.547253    -12069.5344    3-A'
   3   1.0000    -443.546677    -12069.5187    4-A'
   4   1.0000    -318.187232     -8658.3148    5-A'
   5   1.0000     -56.370835     -1533.9284    6-A'
   6   1.0000     -56.370111     -1533.9087    7-A'
   7   1.0000     -56.357733     -1533.5719    8-A'
   8   1.0000     -56.357032     -1533.5528    9-A'
   9   1.0000     -51.287491     -1395.6036   10-A'
  10   1.0000     -51.286176     -1395.5678   11-A'
  11   1.0000     -51.286091     -1395.5655   12-A'
  12   1.0000     -51.285905     -1395.5604   13-A'
  13   1.0000     -51.285802     -1395.5576    1-A"
  14   1.0000     -51.285743     -1395.5560   14-A'
  15   1.0000     -51.284475     -1395.5215    2-A"
  16   1.0000     -51.284435     -1395.5204   15-A'
  17   1.0000     -51.284335     -1395.5177    3-A"
  18   1.0000     -51.284286     -1395.5164   16-A'
  19   1.0000     -51.284203     -1395.5141    4-A"
  20   1.0000     -51.284166     -1395.5131   17-A'
  21   1.0000     -38.014002     -1034.4136   18-A'
  22   1.0000     -33.516758      -912.0373   19-A'
  23   1.0000     -33.515964      -912.0158   20-A'
  24   1.0000     -33.514095      -911.9649    5-A"
  25   1.0000      -9.836562      -267.6665   21-A'
  26   1.0000      -9.824482      -267.3377   22-A'
  27   1.0000      -9.816060      -267.1086   23-A'
  28   1.0000      -9.813733      -267.0453   24-A'
  29   1.0000      -9.811558      -266.9861   25-A'
  30   1.0000      -9.811215      -266.9767   26-A'
  31   1.0000      -9.810624      -266.9606   27-A'
  32   1.0000      -9.810091      -266.9462   28-A'
  33   1.0000      -9.808505      -266.9030   29-A'
  34   1.0000      -9.808047      -266.8905   30-A'
  35   1.0000      -9.800208      -266.6772   31-A'
  36   1.0000      -9.780630      -266.1445   32-A'
  37   1.0000      -7.341669      -199.7770   33-A'
  38   1.0000      -7.340942      -199.7572   34-A'
  39   1.0000      -7.334183      -199.5733   35-A'
  40   1.0000      -7.333536      -199.5557   36-A'
  41   1.0000      -5.405018      -147.0780   37-A'
  42   1.0000      -5.404158      -147.0546   38-A'
  43   1.0000      -5.403836      -147.0459   39-A'
  44   1.0000      -5.403700      -147.0422   40-A'
  45   1.0000      -5.399507      -146.9281    6-A"
  46   1.0000      -5.399292      -146.9222   41-A'
  47   1.0000      -5.398308      -146.8954    7-A"
  48   1.0000      -5.398244      -146.8937    8-A"
  49   1.0000      -5.398169      -146.8917   42-A'
  50   1.0000      -5.398107      -146.8900   43-A'
  51   1.0000      -5.398073      -146.8890    9-A"
  52   1.0000      -5.397932      -146.8852   44-A'
  53   1.0000      -3.993945      -108.6808   45-A'
  54   1.0000      -2.506944       -68.2174   10-A"
  55   1.0000      -2.506501       -68.2054   46-A'
  56   1.0000      -2.505470       -68.1773   47-A'
  57   1.0000      -1.743988       -47.4563   48-A'
  58   1.0000      -1.743089       -47.4319   49-A'
  59   1.0000      -1.742798       -47.4239   50-A'
  60   1.0000      -1.742665       -47.4203   51-A'
  61   1.0000      -1.740770       -47.3687   52-A'
  62   1.0000      -1.740684       -47.3664   11-A"
  63   1.0000      -1.739791       -47.3421   53-A'
  64   1.0000      -1.739725       -47.3403   12-A"
  65   1.0000      -1.739592       -47.3367   54-A'
  66   1.0000      -1.739498       -47.3341   13-A"
  67   1.0000      -1.739442       -47.3326   55-A'
  68   1.0000      -1.739319       -47.3293   14-A"
  69   1.0000      -1.735913       -47.2366   15-A"
  70   1.0000      -1.735839       -47.2346   56-A'
  71   1.0000      -1.734680       -47.2030   57-A'
  72   1.0000      -1.734662       -47.2025   58-A'
  73   1.0000      -1.734658       -47.2024   16-A"
  74   1.0000      -1.734635       -47.2018   17-A"
  75   1.0000      -1.734508       -47.1984   18-A"
  76   1.0000      -1.734432       -47.1963   59-A'
  77   1.0000      -0.606326       -16.4990   60-A'
  78   1.0000      -0.601784       -16.3754   61-A'
  79   1.0000      -0.523722       -14.2512   62-A'
  80   1.0000      -0.520252       -14.1568   63-A'
  81   1.0000      -0.510989       -13.9047   64-A'
  82   1.0000      -0.498370       -13.5613   65-A'
  83   1.0000      -0.419007       -11.4017   66-A'
  84   1.0000      -0.410502       -11.1703   67-A'
  85   1.0000      -0.387589       -10.5468   68-A'
  86   1.0000      -0.379155       -10.3173   69-A'
  87   1.0000      -0.337055        -9.1717   70-A'
  88   1.0000      -0.319576        -8.6961   71-A'
  89   1.0000      -0.285473        -7.7681   72-A'
  90   1.0000      -0.281708        -7.6657   73-A'
  91   1.0000      -0.233402        -6.3512   74-A'
  92   1.0000      -0.225338        -6.1318   75-A'
  93   1.0000      -0.202829        -5.5193   76-A'
  94   1.0000      -0.198747        -5.4082   77-A'
  95   1.0000      -0.175106        -4.7649   78-A'
  96   1.0000      -0.167504        -4.5580   79-A'
  97   1.0000      -0.140174        -3.8143   80-A'
  98   1.0000      -0.136720        -3.7203   81-A'
  99   1.0000      -0.133946        -3.6448   82-A'
 100   1.0000      -0.131794        -3.5863   19-A"
 101   1.0000      -0.129998        -3.5374   20-A"
 102   1.0000      -0.105037        -2.8582   83-A'
 103   1.0000      -0.075420        -2.0523   84-A'
 104   1.0000      -0.070607        -1.9213   85-A'
 105   1.0000      -0.057617        -1.5679   86-A'
 106   1.0000      -0.053044        -1.4434   87-A'
 107   1.0000      -0.048999        -1.3333   21-A"
 108   1.0000      -0.047368        -1.2890   22-A"
 109   1.0000      -0.031544        -0.8584   23-A"
 110   1.0000      -0.026642        -0.7250   24-A"
 111   1.0000      -0.023455        -0.6382   88-A'
 112   1.0000      -0.002302        -0.0626   89-A'
 113   1.0000       0.007325         0.1993   25-A"
 114   1.0000       0.009749         0.2653   26-A"
 115   1.0000       0.010557         0.2873   90-A'
 116   1.0000       0.028799         0.7837   91-A'
 117   1.0000       0.031745         0.8638   92-A'
 118   1.0000       0.051942         1.4134   93-A'
 119   1.0000       0.056144         1.5278   27-A"
 120   1.0000       0.059151         1.6096   28-A"
 121   1.0000       0.071547         1.9469   29-A"
 122   1.0000       0.101989         2.7752   30-A"
 123   0.0000       0.145792         3.9672   94-A'
 124   0.0000       0.181012         4.9256   95-A'
 125   0.0000       0.184185         5.0119   96-A'
 126   0.0000       0.196569         5.3489   97-A'
 127   0.0000       0.199630         5.4322   98-A'

MULLIKEN ATOMIC CHARGES AND SPIN POPULATIONS
--------------------------------------------
   0 Cu:    0.640539    0.310257
   1 Se:   -0.727046    0.174632
   2 C :    0.223423   -0.003225
   3 Se:   -0.696045    0.174488
   4 C :    0.224664   -0.003088
   5 Se:   -0.742518    0.172381
   6 C :    0.214477   -0.003186
   7 Se:   -0.758340    0.171962
   8 C :    0.185785   -0.002772
   9 C :   -0.853924   -0.004490
  10 C :   -0.010175    0.000184
  11 C :   -0.112820   -0.001042
  12 H :   -0.117897    0.002407
  13 C :   -0.258768   -0.000566
  14 H :    0.996046    0.005024
  15 H :   -0.041522    0.001898
  16 H :    0.118673    0.000919
  17 C :   -0.081199   -0.001163
  18 C :   -0.154743   -0.001924
  19 C :   -0.152126   -0.000681
  20 H :    0.051932    0.002519
  21 C :   -0.178024   -0.000608
  22 H :    0.173245    0.002964
  23 H :    0.015788    0.001641
  24 H :    0.040576    0.001469
Sum of atomic charges         :   -2.0000000

LOEWDIN ATOMIC CHARGES AND SPIN POPULATIONS
-------------------------------------------
   0 Cu:   -0.615177    0.390791
   1 Se:   -0.205273    0.124068
   2 C :    0.033528    0.011910
   3 Se:   -0.238767    0.123452
   4 C :    0.003263    0.012246
   5 Se:   -0.195996    0.122473
   6 C :    0.048126    0.011735
   7 Se:   -0.158919    0.123775
   8 C :    0.113266    0.012053
   9 C :    0.689260    0.006986
  10 C :    0.253197    0.006558
  11 C :    0.258456    0.000498
  12 H :   -0.220122    0.009652
  13 C :    0.439205    0.000239
  14 H :   -0.999239    0.008443
  15 H :   -0.356820    0.000409
  16 H :   -0.478160    0.000413
  17 C :    0.352534    0.007016
  18 C :    0.408926    0.006865
  19 C :    0.314926    0.000481
  20 H :   -0.423268    0.009537
  21 C :    0.340784    0.000419
  22 H :   -0.526406    0.009229
  23 H :   -0.408556    0.000380
  24 H :   -0.428768    0.000373

  Mayer bond orders larger than 0.100000
B(  0-Cu,  1-Se) :   0.5534 B(  0-Cu,  3-Se) :   0.5551 B(  0-Cu,  5-Se) :   0.5502
B(  0-Cu,  7-Se) :   0.5384 B(  1-Se,  2-C ) :   1.0395 B(  2-C ,  6-C ) :   1.1338
B(  2-C , 17-C ) :   1.2545 B(  3-Se,  4-C ) :   1.0412 B(  4-C ,  8-C ) :   1.1277
B(  4-C , 10-C ) :   1.2679 B(  5-Se,  6-C ) :   1.0404 B(  6-C , 18-C ) :   1.2658
B(  7-Se,  8-C ) :   1.0575 B(  8-C ,  9-C ) :   1.3471 B(  9-C , 13-C ) :   1.5042
B(  9-C , 14-H ) :  -0.2915 B( 10-C , 11-C ) :   1.3814 B( 10-C , 12-H ) :   0.9658
B( 11-C , 13-C ) :   1.3145 B( 11-C , 15-H ) :   1.0173 B( 13-C , 16-H ) :   0.9417
B( 17-C , 19-C ) :   1.3764 B( 17-C , 20-H ) :   0.9789 B( 18-C , 21-C ) :   1.3895
B( 18-C , 22-H ) :   0.9084 B( 19-C , 21-C ) :   1.3138 B( 19-C , 23-H ) :   0.9980
B( 21-C , 24-H ) :   0.9870

FINAL SINGLE POINT ENERGY    -11626.848711962850

DIPOLE MOMENT
-------------
                                X             Y             Z
Electronic contribution:      1.09637      -0.54013      -0.00000
Nuclear contribution   :     -0.76640       0.32125       0.00000
                        -----------------------------------------
Total Dipole Moment    :      0.32998      -0.21888      -0.00000
                        -----------------------------------------
Magnitude (a.u.)       :      0.39597
Magnitude (Debye)      :      1.00648

Rotational constants in cm-1:     0.017612     0.004098     0.003324
Rotational constants in MHz :   528.004671   122.850835    99.662389

                             ****ORCA TERMINATED NORMALLY****
TOTAL RUN TIME: 0 days 16 hours 30 minutes 14 seconds 629 msec
