                         Program Version 5.0.4 -  RELEASE  -
|  1> ! RIJCOSX nofrozencore ReducedPop printbasis
|  2> ! M06L ano-rcc-dzp autoaux
|  3>
|  4> %maxcore 7500
|  5> %basis
|  6> PCDTrimBas overlap
|  7> PCDTrimAuxJ Coulomb
|  8> PCDTrimAuxJK Coulomb
|  9> PCDTrimAuxC Coulomb
| 10> PCDThresh -1
| 11> end
| 12>
| 13> %basis
| 14> newgto Cu "ano-rcc-tzp" end
| 15> newgto Se "ano-rcc-tzp" end
| 16> end
| 17>
| 18> %pal
| 19> nprocs 8
| 20> end
| 21>
| 22> % sym SymThresh 1e-2 end
| 23> * xyz -2 2
| 24> Cu -0.0037897290200577956 0.004345776109134388 -0.007694876994715937
| 25> Se -0.8935146093441868 0.5369789812437492 -2.073307774027033
| 26> C -0.9508492488739803 -0.8564193362746388 -2.9649214539091413
| 27> Se -0.10246950581501524 2.2055824434812634 0.9012707119590914
| 28> C 0.48853995637351677 2.079013643208028 2.394101384043175
| 29> Se 0.10193124230190273 -2.2410968452440536 -0.921559241842293
| 30> C -0.5018624086210397 -2.0256296806370964 -2.400907096594982
| 31> Se 0.9046507015622868 -0.508068631895282 2.1180625977744185
| 32> C 0.915518903964628 0.9099882455152752 2.900120320768164
| 33> C 1.3917368172303006 1.004299410081659 4.207285255169336
| 34> C 0.5355638548078171 3.236540889174234 3.133187149100202
| 35> C 0.9989727219999992 3.3539763839683605 4.418825601317667
| 36> H 0.1689447341189216 4.122561690622871 2.6361470409201724
| 37> C 1.4480377386028787 2.1626803386443028 4.9713128775835695
| 38> H 1.7502550433211326 0.0986517612751358 4.67251450774155
| 39> H 1.0068934268220193 4.302663509733314 4.943741441563466
| 40> H 1.8409067884552475 2.113855542044051 5.982423147109125
| 41> C -1.4168496265993042 -1.0203313054165557 -4.282092145998771
| 42> C -0.5352314065512747 -3.1911758748946806 -3.10820858263668
| 43> C -1.4453234215766344 -2.2306202625337948 -5.000242317294201
| 44> H -1.7924381457495195 -0.1474759528854257 -4.809805811130067
| 45> C -0.9802253920973999 -3.3878223139806956 -4.387320031839823
| 46> H -0.15595201037734233 -4.051729326337013 -2.5642194604489057
| 47> H -1.829328611777963 -2.238868612038121 -6.0182731836012575
| 48> H -0.961227228924941 -4.367477673997602 -4.857628398501761
| 49> *
| 50>
| 51> % eprnmr
| 52> gtensor true
| 53> Nuclei = all H {aiso,adip,aorb,fgrad,rho}
| 54> Nuclei = all Cu {aiso,adip,aorb,fgrad,rho}
| 55> end
| 56>
| 57>                          ****END OF INPUT****

CARTESIAN COORDINATES (ANGSTROEM)
---------------------------------
  Cu     0.004718   -0.008379    0.000000
  Se     0.624945   -2.234897    0.000000
  C     -0.762182   -3.138058    0.000000
  Se     2.214730    0.884509    0.000000
  C      2.029876    2.484410    0.000000
  Se    -2.250175   -0.904924    0.000000
  C     -1.975200   -2.493588    0.000000
  Se    -0.597146    2.281695    0.000000
  C      0.819216    3.066894    0.000000
  C      0.866476    4.460495    0.000000
  C      3.182254    3.232978    0.000000
  C      3.253893    4.602750    0.000000
  H      4.104076    2.670186    0.000000
  C      2.018791    5.235688    0.000000
  H     -0.074164    4.989992    0.000000
  H      4.201382    5.129885    0.000000
  H      1.931207    6.318002    0.000000
  C     -0.880022   -4.539869    0.000000
  C     -3.136941   -3.207902    0.000000
  C     -2.086969   -5.264182    0.000000
  H      0.029525   -5.134973    0.000000
  C     -3.289575   -4.567872    0.000000
  H     -4.034557   -2.595844    0.000000
  H     -2.057308   -6.351856    0.000000
  H     -4.270675   -5.035544    0.000000

 Total Charge           Charge          ....   -2
 Multiplicity           Mult            ....    2
 Number of Electrons    NEL             ....  247
 Basis Dimension        Dim             ....  575

ORBITAL ENERGIES
----------------
                 SPIN UP ORBITALS
  NO   OCC          E(Eh)            E(eV)    Irrep
   0   1.0000    -443.565571    -12070.0328    1-A'
   1   1.0000    -443.560430    -12069.8929    2-A'
   2   1.0000    -443.547739    -12069.5476    3-A'
   3   1.0000    -443.546281    -12069.5079    4-A'
   4   1.0000    -318.184052     -8658.2282    5-A'
   5   1.0000     -56.372399     -1533.9710    6-A'
   6   1.0000     -56.369170     -1533.8831    7-A'
   7   1.0000     -56.356492     -1533.5381    8-A'
   8   1.0000     -56.356193     -1533.5300    9-A'
   9   1.0000     -51.287634     -1395.6075   10-A'
  10   1.0000     -51.286276     -1395.5705   11-A'
  11   1.0000     -51.286171     -1395.5677   12-A'
  12   1.0000     -51.285893     -1395.5601    1-A"
  13   1.0000     -51.284599     -1395.5249   13-A'
  14   1.0000     -51.284316     -1395.5172    2-A"
  15   1.0000     -51.284258     -1395.5156   14-A'
  16   1.0000     -51.283100     -1395.4841   15-A'
  17   1.0000     -51.282524     -1395.4684    3-A"
  18   1.0000     -51.282512     -1395.4681   16-A'
  19   1.0000     -51.281304     -1395.4352   17-A'
  20   1.0000     -51.280820     -1395.4221    4-A"
  21   1.0000     -38.024480     -1034.6987   18-A'
  22   1.0000     -33.526525      -912.3031   19-A'
  23   1.0000     -33.525697      -912.2806   20-A'
  24   1.0000     -33.514728      -911.9821    5-A"
  25   1.0000      -9.818442      -267.1734   21-A'
  26   1.0000      -9.815250      -267.0865   22-A'
  27   1.0000      -9.814985      -267.0793   23-A'
  28   1.0000      -9.814788      -267.0740   24-A'
  29   1.0000      -9.813411      -267.0365   25-A'
  30   1.0000      -9.811321      -266.9796   26-A'
  31   1.0000      -9.806938      -266.8604   27-A'
  32   1.0000      -9.803620      -266.7701   28-A'
  33   1.0000      -9.803482      -266.7663   29-A'
  34   1.0000      -9.801757      -266.7194   30-A'
  35   1.0000      -9.800504      -266.6853   31-A'
  36   1.0000      -9.799498      -266.6579   32-A'
  37   1.0000      -7.341587      -199.7748   33-A'
  38   1.0000      -7.340357      -199.7413   34-A'
  39   1.0000      -7.332927      -199.5391   35-A'
  40   1.0000      -7.331984      -199.5134   36-A'
  41   1.0000      -5.404551      -147.0653   37-A'
  42   1.0000      -5.404525      -147.0646   38-A'
  43   1.0000      -5.401716      -146.9882   39-A'
  44   1.0000      -5.399926      -146.9395   40-A'
  45   1.0000      -5.399143      -146.9181   41-A'
  46   1.0000      -5.398935      -146.9125    6-A"
  47   1.0000      -5.398731      -146.9069   42-A'
  48   1.0000      -5.398711      -146.9064    7-A"
  49   1.0000      -5.396599      -146.8489   43-A'
  50   1.0000      -5.395910      -146.8302    8-A"
  51   1.0000      -5.394832      -146.8008   44-A'
  52   1.0000      -5.394318      -146.7869    9-A"
  53   1.0000      -4.018782      -109.3566   45-A'
  54   1.0000      -2.538519       -69.0766   46-A'
  55   1.0000      -2.537001       -69.0353   47-A'
  56   1.0000      -2.514134       -68.4131   10-A"
  57   1.0000      -1.743808       -47.4514   48-A'
  58   1.0000      -1.743214       -47.4353   49-A'
  59   1.0000      -1.741201       -47.3805   50-A'
  60   1.0000      -1.740782       -47.3691   51-A'
  61   1.0000      -1.740491       -47.3612   52-A'
  62   1.0000      -1.740206       -47.3534   11-A"
  63   1.0000      -1.740060       -47.3494   12-A"
  64   1.0000      -1.739451       -47.3329   53-A'
  65   1.0000      -1.738257       -47.3004   54-A'
  66   1.0000      -1.737259       -47.2732   13-A"
  67   1.0000      -1.736469       -47.2517   55-A'
  68   1.0000      -1.735745       -47.2320   56-A'
  69   1.0000      -1.735651       -47.2295   14-A"
  70   1.0000      -1.735581       -47.2276   15-A"
  71   1.0000      -1.735400       -47.2226   57-A'
  72   1.0000      -1.735289       -47.2196   16-A"
  73   1.0000      -1.732998       -47.1573   17-A"
  74   1.0000      -1.732965       -47.1564   58-A'
  75   1.0000      -1.731340       -47.1122   18-A"
  76   1.0000      -1.731306       -47.1112   59-A'
  77   1.0000      -0.610973       -16.6254   60-A'
  78   1.0000      -0.606097       -16.4928   61-A'
  79   1.0000      -0.525602       -14.3024   62-A'
  80   1.0000      -0.521828       -14.1997   63-A'
  81   1.0000      -0.502742       -13.6803   64-A'
  82   1.0000      -0.500554       -13.6208   65-A'
  83   1.0000      -0.412938       -11.2366   66-A'
  84   1.0000      -0.411295       -11.1919   67-A'
  85   1.0000      -0.383863       -10.4454   68-A'
  86   1.0000      -0.379211       -10.3189   69-A'
  87   1.0000      -0.326766        -8.8917   70-A'
  88   1.0000      -0.320548        -8.7225   71-A'
  89   1.0000      -0.285950        -7.7811   72-A'
  90   1.0000      -0.282714        -7.6930   73-A'
  91   1.0000      -0.229186        -6.2365   74-A'
  92   1.0000      -0.222803        -6.0628   75-A'
  93   1.0000      -0.203925        -5.5491   76-A'
  94   1.0000      -0.199591        -5.4311   77-A'
  95   1.0000      -0.170141        -4.6298   78-A'
  96   1.0000      -0.165706        -4.5091   79-A'
  97   1.0000      -0.141395        -3.8476   80-A'
  98   1.0000      -0.137688        -3.7467   81-A'
  99   1.0000      -0.136799        -3.7225   19-A"
 100   1.0000      -0.132646        -3.6095   20-A"
 101   1.0000      -0.130947        -3.5633   82-A'
 102   1.0000      -0.110341        -3.0025   83-A'
 103   1.0000      -0.082656        -2.2492   84-A'
 104   1.0000      -0.072300        -1.9674   85-A'
 105   1.0000      -0.061795        -1.6815   86-A'
 106   1.0000      -0.060562        -1.6480   87-A'
 107   1.0000      -0.050054        -1.3620   21-A"
 108   1.0000      -0.047770        -1.2999   22-A"
 109   1.0000      -0.032907        -0.8955   23-A"
 110   1.0000      -0.028085        -0.7642   88-A'
 111   1.0000      -0.027201        -0.7402   24-A"
 112   1.0000      -0.026774        -0.7286   89-A'
 113   1.0000      -0.000405        -0.0110   25-A"
 114   1.0000       0.001977         0.0538   26-A"
 115   1.0000       0.003277         0.0892   90-A'
 116   1.0000       0.021404         0.5824   91-A'
 117   1.0000       0.022554         0.6137   92-A'
 118   1.0000       0.045637         1.2418   93-A'
 119   1.0000       0.056103         1.5266   27-A"
 120   1.0000       0.058031         1.5791   28-A"
 121   1.0000       0.071992         1.9590   29-A"
 122   1.0000       0.100267         2.7284   30-A"
 123   1.0000       0.119463         3.2507   94-A'
 124   0.0000       0.182003         4.9525   95-A'
 125   0.0000       0.182180         4.9574   96-A'
 126   0.0000       0.195914         5.3311   97-A'
 127   0.0000       0.196330         5.3424   98-A'
 128   0.0000       0.200827         5.4648   31-A"

                 SPIN DOWN ORBITALS
  NO   OCC          E(Eh)            E(eV)    Irrep
   0   1.0000    -443.565116    -12070.0204    1-A'
   1   1.0000    -443.559967    -12069.8803    2-A'
   2   1.0000    -443.547274    -12069.5349    3-A'
   3   1.0000    -443.545832    -12069.4957    4-A'
   4   1.0000    -318.183932     -8658.2250    5-A'
   5   1.0000     -56.372215     -1533.9660    6-A'
   6   1.0000     -56.368986     -1533.8781    7-A'
   7   1.0000     -56.356309     -1533.5331    8-A'
   8   1.0000     -56.356009     -1533.5250    9-A'
   9   1.0000     -51.287315     -1395.5988   10-A'
  10   1.0000     -51.285886     -1395.5599   11-A'
  11   1.0000     -51.285647     -1395.5534    1-A"
  12   1.0000     -51.285557     -1395.5510   12-A'
  13   1.0000     -51.284092     -1395.5111    2-A"
  14   1.0000     -51.283951     -1395.5072   13-A'
  15   1.0000     -51.283876     -1395.5052   14-A'
  16   1.0000     -51.282283     -1395.4619   15-A'
  17   1.0000     -51.282245     -1395.4608    3-A"
  18   1.0000     -51.282154     -1395.4584   16-A'
  19   1.0000     -51.280560     -1395.4150    4-A"
  20   1.0000     -51.280550     -1395.4147   17-A'
  21   1.0000     -38.010760     -1034.3254   18-A'
  22   1.0000     -33.513490      -911.9484   19-A'
  23   1.0000     -33.512660      -911.9258   20-A'
  24   1.0000     -33.510890      -911.8777    5-A"
  25   1.0000      -9.818416      -267.1727   21-A'
  26   1.0000      -9.815190      -267.0849   22-A'
  27   1.0000      -9.814894      -267.0768   23-A'
  28   1.0000      -9.814734      -267.0725   24-A'
  29   1.0000      -9.813306      -267.0336   25-A'
  30   1.0000      -9.811363      -266.9808   26-A'
  31   1.0000      -9.806814      -266.8570   27-A'
  32   1.0000      -9.803643      -266.7707   28-A'
  33   1.0000      -9.803333      -266.7623   29-A'
  34   1.0000      -9.801749      -266.7192   30-A'
  35   1.0000      -9.800340      -266.6808   31-A'
  36   1.0000      -9.799516      -266.6584   32-A'
  37   1.0000      -7.341190      -199.7639   33-A'
  38   1.0000      -7.339966      -199.7306   34-A'
  39   1.0000      -7.332508      -199.5277   35-A'
  40   1.0000      -7.331567      -199.5021   36-A'
  41   1.0000      -5.404205      -147.0559   37-A'
  42   1.0000      -5.404189      -147.0554   38-A'
  43   1.0000      -5.401298      -146.9768   39-A'
  44   1.0000      -5.399536      -146.9288   40-A'
  45   1.0000      -5.398625      -146.9041    6-A"
  46   1.0000      -5.398418      -146.8984    7-A"
  47   1.0000      -5.398336      -146.8962   41-A'
  48   1.0000      -5.398000      -146.8870   42-A'
  49   1.0000      -5.395678      -146.8239   43-A'
  50   1.0000      -5.395575      -146.8211    8-A"
  51   1.0000      -5.393997      -146.7781    9-A"
  52   1.0000      -5.393973      -146.7775   44-A'
  53   1.0000      -3.990981      -108.6001   45-A'
  54   1.0000      -2.503926       -68.1353   10-A"
  55   1.0000      -2.503718       -68.1296   46-A'
  56   1.0000      -2.502291       -68.0908   47-A'
  57   1.0000      -1.743370       -47.4395   48-A'
  58   1.0000      -1.742821       -47.4246   49-A'
  59   1.0000      -1.740684       -47.3664   50-A'
  60   1.0000      -1.739901       -47.3451   51-A'
  61   1.0000      -1.739897       -47.3450   11-A"
  62   1.0000      -1.739771       -47.3416   12-A"
  63   1.0000      -1.739689       -47.3393   52-A'
  64   1.0000      -1.738974       -47.3199   53-A'
  65   1.0000      -1.737250       -47.2730   54-A'
  66   1.0000      -1.736922       -47.2641   13-A"
  67   1.0000      -1.735517       -47.2258   55-A'
  68   1.0000      -1.735258       -47.2188   14-A"
  69   1.0000      -1.734953       -47.2105   56-A'
  70   1.0000      -1.734893       -47.2088   15-A"
  71   1.0000      -1.734677       -47.2030   57-A'
  72   1.0000      -1.734590       -47.2006   16-A"
  73   1.0000      -1.732152       -47.1343   17-A"
  74   1.0000      -1.732081       -47.1323   58-A'
  75   1.0000      -1.730539       -47.0904   18-A"
  76   1.0000      -1.730470       -47.0885   59-A'
  77   1.0000      -0.610086       -16.6013   60-A'
  78   1.0000      -0.605207       -16.4685   61-A'
  79   1.0000      -0.524572       -14.2743   62-A'
  80   1.0000      -0.520750       -14.1703   63-A'
  81   1.0000      -0.500907       -13.6304   64-A'
  82   1.0000      -0.498765       -13.5721   65-A'
  83   1.0000      -0.410423       -11.1682   66-A'
  84   1.0000      -0.408816       -11.1244   67-A'
  85   1.0000      -0.381358       -10.3773   68-A'
  86   1.0000      -0.376824       -10.2539   69-A'
  87   1.0000      -0.324899        -8.8410   70-A'
  88   1.0000      -0.318650        -8.6709   71-A'
  89   1.0000      -0.283499        -7.7144   72-A'
  90   1.0000      -0.280059        -7.6208   73-A'
  91   1.0000      -0.227921        -6.2021   74-A'
  92   1.0000      -0.221629        -6.0308   75-A'
  93   1.0000      -0.202670        -5.5149   76-A'
  94   1.0000      -0.198365        -5.3978   77-A'
  95   1.0000      -0.168615        -4.5882   78-A'
  96   1.0000      -0.163527        -4.4498   79-A'
  97   1.0000      -0.139552        -3.7974   80-A'
  98   1.0000      -0.136724        -3.7205   81-A'
  99   1.0000      -0.136392        -3.7114   19-A"
 100   1.0000      -0.132243        -3.5985   20-A"
 101   1.0000      -0.129126        -3.5137   82-A'
 102   1.0000      -0.108426        -2.9504   83-A'
 103   1.0000      -0.080626        -2.1940   84-A'
 104   1.0000      -0.070593        -1.9209   85-A'
 105   1.0000      -0.058635        -1.5955   86-A'
 106   1.0000      -0.051547        -1.4027   87-A'
 107   1.0000      -0.049290        -1.3413   21-A"
 108   1.0000      -0.047037        -1.2799   22-A"
 109   1.0000      -0.030702        -0.8354   23-A"
 110   1.0000      -0.026193        -0.7127   24-A"
 111   1.0000      -0.021632        -0.5886   88-A'
 112   1.0000       0.001489         0.0405   89-A'
 113   1.0000       0.009454         0.2572   25-A"
 114   1.0000       0.012926         0.3517   26-A"
 115   1.0000       0.013561         0.3690   90-A'
 116   1.0000       0.030475         0.8293   91-A'
 117   1.0000       0.034445         0.9373   92-A'
 118   1.0000       0.057016         1.5515   93-A'
 119   1.0000       0.057910         1.5758   27-A"
 120   1.0000       0.061623         1.6768   28-A"
 121   1.0000       0.073818         2.0087   29-A"
 122   1.0000       0.103588         2.8188   30-A"
 123   0.0000       0.148953         4.0532   94-A'
 124   0.0000       0.184375         5.0171   95-A'
 125   0.0000       0.184545         5.0217   96-A'
 126   0.0000       0.199853         5.4383   97-A'
 127   0.0000       0.200381         5.4526   98-A'

MULLIKEN ATOMIC CHARGES AND SPIN POPULATIONS
--------------------------------------------
   0 Cu:    0.624630    0.306174
   1 Se:   -0.788606    0.156651
   2 C :    0.174533   -0.003532
   3 Se:   -0.718037    0.180600
   4 C :    0.245546   -0.003250
   5 Se:   -0.683215    0.191310
   6 C :    0.284844   -0.003568
   7 Se:   -0.750687    0.168550
   8 C :    0.227461   -0.003689
   9 C :   -0.115827   -0.001642
  10 C :   -0.099503   -0.001004
  11 C :   -0.169892   -0.000299
  12 H :    0.095572    0.002915
  13 C :   -0.151421   -0.000929
  14 H :    0.091279    0.002757
  15 H :    0.013946    0.001789
  16 H :    0.025712    0.001736
  17 C :   -0.146429   -0.001041
  18 C :   -0.049833   -0.001149
  19 C :   -0.150521   -0.001774
  20 H :    0.077292    0.002245
  21 C :   -0.170756    0.000722
  22 H :    0.096992    0.002889
  23 H :    0.024950    0.002314
  24 H :    0.011970    0.001227
Sum of atomic charges         :   -2.0000000

LOEWDIN ATOMIC CHARGES AND SPIN POPULATIONS
-------------------------------------------
   0 Cu:   -0.605161    0.385921
   1 Se:   -0.203902    0.110108
   2 C :    0.044418    0.012302
   3 Se:   -0.209089    0.126120
   4 C :    0.016692    0.011619
   5 Se:   -0.192115    0.135804
   6 C :    0.025296    0.009783
   7 Se:   -0.183658    0.121284
   8 C :    0.015737    0.011481
   9 C :    0.383052    0.006777
  10 C :    0.376229    0.008518
  11 C :    0.323936    0.000953
  12 H :   -0.465709    0.011216
  13 C :    0.320983    0.000257
  14 H :   -0.455988    0.008843
  15 H :   -0.405100    0.000459
  16 H :   -0.418404    0.000454
  17 C :    0.373910    0.005194
  18 C :    0.367200    0.009998
  19 C :    0.318756   -0.000140
  20 H :   -0.443129    0.006045
  21 C :    0.322733    0.001505
  22 H :   -0.484499    0.014599
  23 H :   -0.421741    0.000675
  24 H :   -0.400446    0.000222

  Mayer bond orders larger than 0.100000
B(  0-Cu,  1-Se) :   0.5569 B(  0-Cu,  3-Se) :   0.5581 B(  0-Cu,  5-Se) :   0.5508
B(  0-Cu,  7-Se) :   0.5524 B(  1-Se,  2-C ) :   1.0349 B(  2-C ,  6-C ) :   1.1219
B(  2-C , 17-C ) :   1.2662 B(  3-Se,  4-C ) :   1.0458 B(  4-C ,  8-C ) :   1.1122
B(  4-C , 10-C ) :   1.2468 B(  5-Se,  6-C ) :   1.0448 B(  6-C , 18-C ) :   1.2450
B(  7-Se,  8-C ) :   1.0589 B(  8-C ,  9-C ) :   1.2393 B(  9-C , 13-C ) :   1.3896
B(  9-C , 14-H ) :   0.9620 B( 10-C , 11-C ) :   1.3833 B( 10-C , 12-H ) :   0.9554
B( 11-C , 13-C ) :   1.3069 B( 11-C , 15-H ) :   1.0002 B( 13-C , 16-H ) :   0.9928
B( 17-C , 19-C ) :   1.3813 B( 17-C , 20-H ) :   0.9725 B( 18-C , 21-C ) :   1.3692
B( 18-C , 22-H ) :   0.9501 B( 19-C , 21-C ) :   1.3144 B( 19-C , 23-H ) :   0.9936
B( 21-C , 24-H ) :   1.0015

FINAL SINGLE POINT ENERGY    -11627.125328149878

DIPOLE MOMENT
-------------
                                X             Y             Z
Electronic contribution:      0.01945       0.33891      -0.00000
Nuclear contribution   :     -0.10579      -0.23746       0.00000
                        -----------------------------------------
Total Dipole Moment    :     -0.08634       0.10145      -0.00000
                        -----------------------------------------
Magnitude (a.u.)       :      0.13322
Magnitude (Debye)      :      0.33862

Rotational constants in cm-1:     0.017895     0.004089     0.003328
Rotational constants in MHz :   536.487240   122.573684    99.777145

                             ****ORCA TERMINATED NORMALLY****
TOTAL RUN TIME: 0 days 17 hours 2 minutes 5 seconds 398 msec
