                         Program Version 5.0.4 -  RELEASE  -
|  1> ! RIJCOSX nofrozencore ReducedPop printbasis
|  2> ! M06L ano-rcc-dzp autoaux
|  3>
|  4> %maxcore 7500
|  5> %basis
|  6> PCDTrimBas overlap
|  7> PCDTrimAuxJ Coulomb
|  8> PCDTrimAuxJK Coulomb
|  9> PCDTrimAuxC Coulomb
| 10> PCDThresh -1
| 11> end
| 12>
| 13> %basis
| 14> newgto Cu "ano-rcc-tzp" end
| 15> newgto Se "ano-rcc-tzp" end
| 16> end
| 17>
| 18> %pal
| 19> nprocs 8
| 20> end
| 21>
| 22> % sym SymThresh 1e-2 end
| 23> * xyz -2 2
| 24> Cu 4.917270085474877e-06 -5.227017789655843e-06 -1.2389460841098583e-05
| 25> Se 1.7910147017148448 -0.3564009693958989 -1.507702394551706
| 26> C 1.1204526235452492 -1.1614090545939597 -2.765547628106544
| 27> Se 1.2861593702326237 1.1404407540660817 1.6288695808216223
| 28> C 0.22190797022857367 1.5038438108182743 2.8192042833580904
| 29> Se -1.286257308159735 -1.1404184961934019 -1.6287817585605666
| 30> C -0.22194852190491127 -1.503449153596197 -2.8184194456432676
| 31> Se -1.7909415309043544 0.3564677473916273 1.5077987466755989
| 32> C -1.1208690356722633 1.1616491702828549 2.7662035323651235
| 33> C -1.8910163750971578 1.54047828180262 3.852559847132014
| 34> C 0.6359142914997664 2.1841782541773487 3.951784614366798
| 35> C -0.1356586150393375 2.553371078159564 5.020077766013777
| 36> H 1.848145736577254 2.489130216720858 3.9919150199367333
| 37> C -1.4712570015163475 2.2127174898186377 4.966800417295407
| 38> H -3.111037551744946 1.225569649597467 3.7966423522701414
| 39> H 0.3356928550865082 3.1319959677861187 5.929037246705772
| 40> H -2.2323638628978064 2.480542358197264 5.833484592246142
| 41> C 1.9292088483618672 -1.5304302372783365 -3.8504405943951987
| 42> C -0.671705575278947 -2.1929369286056826 -3.952493576775255
| 43> C 1.485872342021469 -2.217834639193118 -4.983392986993878
| 44> H 2.6732849975108612 -1.3374887606170947 -3.8146234701194697
| 45> C 0.12674977930958306 -2.564053496769365 -5.036764525992431
| 46> H -1.4386714168315151 -2.385180345785507 -3.976531299766107
| 47> H 2.078393151022781 -2.4268164707886997 -5.659038643150555
| 48> H -0.24296742179645067 -3.0190251824699077 -5.751890095359188
| 49> *
| 50>
| 51> % eprnmr
| 52> gtensor true
| 53> Nuclei = all H {aiso,adip,aorb,fgrad,rho}
| 54> Nuclei = all Cu {aiso,adip,aorb,fgrad,rho}
| 55> end
| 56>
| 57>                          ****END OF INPUT****

CARTESIAN COORDINATES (ANGSTROEM)
---------------------------------
  Cu    -0.000014    0.000004    0.000000
  Se    -1.597271    1.748327    0.000000
  C     -3.046214    0.986467    0.000000
  Se     1.898795    1.415134    0.000000
  C      3.178647    0.393581    0.000000
  Se    -1.898702   -1.415229    0.000000
  C     -3.177768   -0.393577    0.000000
  Se     1.597383   -1.748246    0.000000
  C      3.046929   -0.986856    0.000000
  C      4.225795   -1.712860    0.000000
  C      4.473092    0.884912    0.000000
  C      5.631592    0.156382    0.000000
  H      4.583336    2.130688    0.000000
  C      5.499949   -1.216708    0.000000
  H      4.097400   -2.967555    0.000000
  H      6.677935    0.693368    0.000000
  H      6.432551   -1.946372    0.000000
  C     -4.221362    1.752160    0.000000
  C     -4.475813   -0.921666    0.000000
  C     -5.517802    1.230723    0.000000
  H     -4.141130    2.517484    0.000000
  C     -5.650815   -0.166502    0.000000
  H     -4.544044   -1.709775    0.000000
  H     -6.244879    1.798710    0.000000
  H     -6.473967   -0.587829    0.000000

 Total Charge           Charge          ....   -2
 Multiplicity           Mult            ....    2
 Number of Electrons    NEL             ....  247
 Basis Dimension        Dim             ....  575

ORBITAL ENERGIES
----------------
                 SPIN UP ORBITALS
  NO   OCC          E(Eh)            E(eV)    Irrep
   0   1.0000    -443.561553    -12069.9235    1-A'
   1   1.0000    -443.560168    -12069.8858    2-A'
   2   1.0000    -443.546904    -12069.5249    3-A'
   3   1.0000    -443.546147    -12069.5043    4-A'
   4   1.0000    -318.186431     -8658.2930    5-A'
   5   1.0000     -56.370456     -1533.9181    6-A'
   6   1.0000     -56.368825     -1533.8737    7-A'
   7   1.0000     -56.357327     -1533.5608    8-A'
   8   1.0000     -56.355762     -1533.5182    9-A'
   9   1.0000     -51.286739     -1395.5831   10-A'
  10   1.0000     -51.286671     -1395.5813   11-A'
  11   1.0000     -51.285363     -1395.5457   12-A'
  12   1.0000     -51.285293     -1395.5438   13-A'
  13   1.0000     -51.284927     -1395.5338    1-A"
  14   1.0000     -51.284860     -1395.5320    2-A"
  15   1.0000     -51.284620     -1395.5255   14-A'
  16   1.0000     -51.284563     -1395.5239   15-A'
  17   1.0000     -51.283325     -1395.4902   16-A'
  18   1.0000     -51.283251     -1395.4882   17-A'
  19   1.0000     -51.282877     -1395.4780    3-A"
  20   1.0000     -51.282812     -1395.4762    4-A"
  21   1.0000     -38.026966     -1034.7664   18-A'
  22   1.0000     -33.529041      -912.3716   19-A'
  23   1.0000     -33.528250      -912.3501   20-A'
  24   1.0000     -33.517031      -912.0448    5-A"
  25   1.0000      -9.828003      -267.4336   21-A'
  26   1.0000      -9.827164      -267.4107   22-A'
  27   1.0000      -9.824435      -267.3365   23-A'
  28   1.0000      -9.823631      -267.3146   24-A'
  29   1.0000      -9.811888      -266.9950   25-A'
  30   1.0000      -9.811422      -266.9824   26-A'
  31   1.0000      -9.803898      -266.7776   27-A'
  32   1.0000      -9.803417      -266.7645   28-A'
  33   1.0000      -9.796189      -266.5679   29-A'
  34   1.0000      -9.795771      -266.5565   30-A'
  35   1.0000      -9.777705      -266.0649   31-A'
  36   1.0000      -9.776660      -266.0365   32-A'
  37   1.0000      -7.341695      -199.7777   33-A'
  38   1.0000      -7.339513      -199.7183   34-A'
  39   1.0000      -7.334303      -199.5765   35-A'
  40   1.0000      -7.332045      -199.5151   36-A'
  41   1.0000      -5.404788      -147.0717   37-A'
  42   1.0000      -5.404716      -147.0698   38-A'
  43   1.0000      -5.402043      -146.9971   39-A'
  44   1.0000      -5.401981      -146.9954   40-A'
  45   1.0000      -5.399274      -146.9217   41-A'
  46   1.0000      -5.399249      -146.9210   42-A'
  47   1.0000      -5.398945      -146.9128    6-A"
  48   1.0000      -5.398875      -146.9109    7-A"
  49   1.0000      -5.396931      -146.8580   43-A'
  50   1.0000      -5.396904      -146.8572   44-A'
  51   1.0000      -5.396548      -146.8475    8-A"
  52   1.0000      -5.396476      -146.8456    9-A"
  53   1.0000      -4.021248      -109.4237   45-A'
  54   1.0000      -2.540831       -69.1395   46-A'
  55   1.0000      -2.539889       -69.1139   47-A'
  56   1.0000      -2.516288       -68.4717   10-A"
  57   1.0000      -1.743821       -47.4518   48-A'
  58   1.0000      -1.743742       -47.4496   49-A'
  59   1.0000      -1.741113       -47.3781   50-A'
  60   1.0000      -1.741043       -47.3762   51-A'
  61   1.0000      -1.741000       -47.3750   52-A'
  62   1.0000      -1.740883       -47.3718   53-A'
  63   1.0000      -1.740277       -47.3553   11-A"
  64   1.0000      -1.740267       -47.3551   12-A"
  65   1.0000      -1.738415       -47.3047   54-A'
  66   1.0000      -1.738303       -47.3016   55-A'
  67   1.0000      -1.737644       -47.2837   13-A"
  68   1.0000      -1.737637       -47.2835   14-A"
  69   1.0000      -1.735812       -47.2338   56-A'
  70   1.0000      -1.735796       -47.2334   15-A"
  71   1.0000      -1.735727       -47.2315   57-A'
  72   1.0000      -1.735660       -47.2297   16-A"
  73   1.0000      -1.733482       -47.1704   58-A'
  74   1.0000      -1.733469       -47.1701   17-A"
  75   1.0000      -1.733398       -47.1682   59-A'
  76   1.0000      -1.733329       -47.1663   18-A"
  77   1.0000      -0.608112       -16.5476   60-A'
  78   1.0000      -0.597900       -16.2697   61-A'
  79   1.0000      -0.524918       -14.2837   62-A'
  80   1.0000      -0.519493       -14.1361   63-A'
  81   1.0000      -0.514500       -14.0003   64-A'
  82   1.0000      -0.496667       -13.5150   65-A'
  83   1.0000      -0.420322       -11.4375   66-A'
  84   1.0000      -0.410729       -11.1765   67-A'
  85   1.0000      -0.398265       -10.8373   68-A'
  86   1.0000      -0.380446       -10.3525   69-A'
  87   1.0000      -0.346065        -9.4169   70-A'
  88   1.0000      -0.310112        -8.4386   71-A'
  89   1.0000      -0.307712        -8.3733   72-A'
  90   1.0000      -0.280316        -7.6278   73-A'
  91   1.0000      -0.240037        -6.5317   74-A'
  92   1.0000      -0.218710        -5.9514   75-A'
  93   1.0000      -0.203148        -5.5280   76-A'
  94   1.0000      -0.202846        -5.5197   77-A'
  95   1.0000      -0.194930        -5.3043   78-A'
  96   1.0000      -0.151715        -4.1284   79-A'
  97   1.0000      -0.146103        -3.9757   80-A'
  98   1.0000      -0.137047        -3.7292   81-A'
  99   1.0000      -0.135285        -3.6813   19-A"
 100   1.0000      -0.125744        -3.4217   82-A'
 101   1.0000      -0.122940        -3.3454   20-A"
 102   1.0000      -0.115557        -3.1445   83-A'
 103   1.0000      -0.084479        -2.2988   84-A'
 104   1.0000      -0.071990        -1.9590   85-A'
 105   1.0000      -0.063622        -1.7312   86-A'
 106   1.0000      -0.059714        -1.6249   87-A'
 107   1.0000      -0.052280        -1.4226   21-A"
 108   1.0000      -0.041721        -1.1353   22-A"
 109   1.0000      -0.033739        -0.9181   23-A"
 110   1.0000      -0.029283        -0.7968   88-A'
 111   1.0000      -0.028854        -0.7852   89-A'
 112   1.0000      -0.025026        -0.6810   24-A"
 113   1.0000      -0.001009        -0.0275   25-A"
 114   1.0000      -0.000297        -0.0081   26-A"
 115   1.0000       0.001267         0.0345   90-A'
 116   1.0000       0.019324         0.5258   91-A'
 117   1.0000       0.022731         0.6185   92-A'
 118   1.0000       0.041320         1.1244   93-A'
 119   1.0000       0.054008         1.4696   27-A"
 120   1.0000       0.058489         1.5916   28-A"
 121   1.0000       0.071041         1.9331   29-A"
 122   1.0000       0.100245         2.7278   30-A"
 123   1.0000       0.116749         3.1769   94-A'
 124   0.0000       0.177049         4.8177   95-A'
 125   0.0000       0.186050         5.0627   96-A'
 126   0.0000       0.193664         5.2699   97-A'
 127   0.0000       0.200214         5.4481   98-A'
 128   0.0000       0.201946         5.4952   31-A"

                 SPIN DOWN ORBITALS
  NO   OCC          E(Eh)            E(eV)    Irrep
   0   1.0000    -443.561099    -12069.9111    1-A'
   1   1.0000    -443.559718    -12069.8736    2-A'
   2   1.0000    -443.546449    -12069.5125    3-A'
   3   1.0000    -443.545698    -12069.4921    4-A'
   4   1.0000    -318.186309     -8658.2897    5-A'
   5   1.0000     -56.370271     -1533.9131    6-A'
   6   1.0000     -56.368643     -1533.8687    7-A'
   7   1.0000     -56.357146     -1533.5559    8-A'
   8   1.0000     -56.355582     -1533.5134    9-A'
   9   1.0000     -51.286422     -1395.5745   10-A'
  10   1.0000     -51.286348     -1395.5725   11-A'
  11   1.0000     -51.284676     -1395.5270    1-A"
  12   1.0000     -51.284616     -1395.5254   12-A'
  13   1.0000     -51.284609     -1395.5252    2-A"
  14   1.0000     -51.284552     -1395.5236   13-A'
  15   1.0000     -51.284288     -1395.5164   14-A'
  16   1.0000     -51.284224     -1395.5147   15-A'
  17   1.0000     -51.282629     -1395.4713    3-A"
  18   1.0000     -51.282607     -1395.4707   16-A'
  19   1.0000     -51.282563     -1395.4695    4-A"
  20   1.0000     -51.282541     -1395.4689   17-A'
  21   1.0000     -38.013068     -1034.3882   18-A'
  22   1.0000     -33.515831      -912.0121   19-A'
  23   1.0000     -33.515041      -911.9906   20-A'
  24   1.0000     -33.513158      -911.9394    5-A"
  25   1.0000      -9.827948      -267.4321   21-A'
  26   1.0000      -9.827110      -267.4092   22-A'
  27   1.0000      -9.824316      -267.3332   23-A'
  28   1.0000      -9.823512      -267.3114   24-A'
  29   1.0000      -9.811914      -266.9957   25-A'
  30   1.0000      -9.811446      -266.9830   26-A'
  31   1.0000      -9.803908      -266.7779   27-A'
  32   1.0000      -9.803426      -266.7648   28-A'
  33   1.0000      -9.796146      -266.5667   29-A'
  34   1.0000      -9.795728      -266.5553   30-A'
  35   1.0000      -9.777584      -266.0616   31-A'
  36   1.0000      -9.776539      -266.0332   32-A'
  37   1.0000      -7.341294      -199.7668   33-A'
  38   1.0000      -7.339118      -199.7075   34-A'
  39   1.0000      -7.333895      -199.5654   35-A'
  40   1.0000      -7.331642      -199.5041   36-A'
  41   1.0000      -5.404429      -147.0620   37-A'
  42   1.0000      -5.404358      -147.0600   38-A'
  43   1.0000      -5.401669      -146.9869   39-A'
  44   1.0000      -5.401607      -146.9852   40-A'
  45   1.0000      -5.398631      -146.9042    6-A"
  46   1.0000      -5.398561      -146.9023    7-A"
  47   1.0000      -5.398437      -146.8989   41-A'
  48   1.0000      -5.398413      -146.8983   42-A'
  49   1.0000      -5.396237      -146.8391    8-A"
  50   1.0000      -5.396166      -146.8371    9-A"
  51   1.0000      -5.396126      -146.8360   43-A'
  52   1.0000      -5.396099      -146.8353   44-A'
  53   1.0000      -3.992978      -108.6544   45-A'
  54   1.0000      -2.505969       -68.1909   10-A"
  55   1.0000      -2.505532       -68.1790   46-A'
  56   1.0000      -2.504519       -68.1514   47-A'
  57   1.0000      -1.743373       -47.4396   48-A'
  58   1.0000      -1.743296       -47.4375   49-A'
  59   1.0000      -1.740656       -47.3657   50-A'
  60   1.0000      -1.740588       -47.3638   51-A'
  61   1.0000      -1.740102       -47.3506   52-A'
  62   1.0000      -1.739981       -47.3473   53-A'
  63   1.0000      -1.739973       -47.3471   11-A"
  64   1.0000      -1.739961       -47.3468   12-A"
  65   1.0000      -1.737529       -47.2806   54-A'
  66   1.0000      -1.737412       -47.2774   55-A'
  67   1.0000      -1.737328       -47.2751   13-A"
  68   1.0000      -1.737320       -47.2749   14-A"
  69   1.0000      -1.735013       -47.2121   15-A"
  70   1.0000      -1.735001       -47.2118   56-A'
  71   1.0000      -1.734914       -47.2094   57-A'
  72   1.0000      -1.734883       -47.2086   16-A"
  73   1.0000      -1.732715       -47.1496   17-A"
  74   1.0000      -1.732702       -47.1492   58-A'
  75   1.0000      -1.732617       -47.1469   59-A'
  76   1.0000      -1.732580       -47.1459   18-A"
  77   1.0000      -0.607371       -16.5274   60-A'
  78   1.0000      -0.597034       -16.2461   61-A'
  79   1.0000      -0.523736       -14.2516   62-A'
  80   1.0000      -0.518433       -14.1073   63-A'
  81   1.0000      -0.513238       -13.9659   64-A'
  82   1.0000      -0.494864       -13.4659   65-A'
  83   1.0000      -0.417356       -11.3568   66-A'
  84   1.0000      -0.408090       -11.1047   67-A'
  85   1.0000      -0.397015       -10.8033   68-A'
  86   1.0000      -0.377788       -10.2801   69-A'
  87   1.0000      -0.343456        -9.3459   70-A'
  88   1.0000      -0.308356        -8.3908   71-A'
  89   1.0000      -0.305965        -8.3257   72-A'
  90   1.0000      -0.277557        -7.5527   73-A'
  91   1.0000      -0.238717        -6.4958   74-A'
  92   1.0000      -0.217574        -5.9205   75-A'
  93   1.0000      -0.201812        -5.4916   76-A'
  94   1.0000      -0.201038        -5.4705   77-A'
  95   1.0000      -0.193371        -5.2619   78-A'
  96   1.0000      -0.150234        -4.0881   79-A'
  97   1.0000      -0.143904        -3.9158   80-A'
  98   1.0000      -0.135202        -3.6790   81-A'
  99   1.0000      -0.134933        -3.6717   19-A"
 100   1.0000      -0.124889        -3.3984   82-A'
 101   1.0000      -0.122498        -3.3333   20-A"
 102   1.0000      -0.114045        -3.1033   83-A'
 103   1.0000      -0.082482        -2.2445   84-A'
 104   1.0000      -0.069895        -1.9019   85-A'
 105   1.0000      -0.057819        -1.5733   86-A'
 106   1.0000      -0.052527        -1.4293   87-A'
 107   1.0000      -0.051435        -1.3996   21-A"
 108   1.0000      -0.040825        -1.1109   22-A"
 109   1.0000      -0.031694        -0.8624   23-A"
 110   1.0000      -0.023612        -0.6425   24-A"
 111   1.0000      -0.022428        -0.6103   88-A'
 112   1.0000      -0.001565        -0.0426   89-A'
 113   1.0000       0.008534         0.2322   25-A"
 114   1.0000       0.010870         0.2958   26-A"
 115   1.0000       0.011623         0.3163   90-A'
 116   1.0000       0.029910         0.8139   91-A'
 117   1.0000       0.033110         0.9010   92-A'
 118   1.0000       0.052586         1.4309   93-A'
 119   1.0000       0.056503         1.5375   27-A"
 120   1.0000       0.061424         1.6714   28-A"
 121   1.0000       0.072783         1.9805   29-A"
 122   1.0000       0.103456         2.8152   30-A"
 123   0.0000       0.146602         3.9893   94-A'
 124   0.0000       0.179433         4.8826   95-A'
 125   0.0000       0.186543         5.0761   96-A'
 126   0.0000       0.198159         5.3922   97-A'
 127   0.0000       0.200784         5.4636   98-A'

MULLIKEN ATOMIC CHARGES AND SPIN POPULATIONS
--------------------------------------------
   0 Cu:    0.643350    0.310571
   1 Se:   -0.768918    0.173878
   2 C :    0.163009   -0.002525
   3 Se:   -0.709496    0.172649
   4 C :    0.240162   -0.003394
   5 Se:   -0.768161    0.173919
   6 C :    0.163323   -0.002658
   7 Se:   -0.708009    0.172519
   8 C :    0.240889   -0.003261
   9 C :   -0.020582   -0.000520
  10 C :   -0.023158   -0.000548
  11 C :   -0.084520   -0.001061
  12 H :   -0.039242    0.002166
  13 C :   -0.082002   -0.001071
  14 H :   -0.044602    0.002206
  15 H :   -0.043971    0.002095
  16 H :   -0.049543    0.002170
  17 C :   -0.560972   -0.003467
  18 C :   -0.504296   -0.003325
  19 C :   -0.389617   -0.000205
  20 H :    0.664676    0.004194
  21 C :   -0.385475   -0.000205
  22 H :    0.602391    0.004066
  23 H :    0.234357    0.000895
  24 H :    0.230407    0.000912
Sum of atomic charges         :   -2.0000000

LOEWDIN ATOMIC CHARGES AND SPIN POPULATIONS
-------------------------------------------
   0 Cu:   -0.615541    0.391135
   1 Se:   -0.170522    0.123121
   2 C :    0.102720    0.012456
   3 Se:   -0.219134    0.123390
   4 C :    0.013834    0.011534
   5 Se:   -0.172926    0.123036
   6 C :    0.098155    0.012440
   7 Se:   -0.219804    0.123390
   8 C :    0.012759    0.011546
   9 C :    0.282564    0.006648
  10 C :    0.286839    0.006662
  11 C :    0.233154    0.000503
  12 H :   -0.323766    0.009705
  13 C :    0.229412    0.000515
  14 H :   -0.317113    0.009710
  15 H :   -0.342557    0.000593
  16 H :   -0.336471    0.000632
  17 C :    0.629804    0.007340
  18 C :    0.609692    0.007343
  19 C :    0.523714    0.000377
  20 H :   -0.856349    0.008540
  21 C :    0.517954    0.000378
  22 H :   -0.822261    0.008592
  23 H :   -0.572893    0.000216
  24 H :   -0.571263    0.000201

  Mayer bond orders larger than 0.100000
B(  0-Cu,  1-Se) :   0.5469 B(  0-Cu,  3-Se) :   0.5491 B(  0-Cu,  5-Se) :   0.5472
B(  0-Cu,  7-Se) :   0.5495 B(  1-Se,  2-C ) :   1.0537 B(  2-C ,  6-C ) :   1.1429
B(  2-C , 17-C ) :   1.3366 B(  3-Se,  4-C ) :   1.0388 B(  4-C ,  8-C ) :   1.1263
B(  4-C , 10-C ) :   1.2529 B(  5-Se,  6-C ) :   1.0532 B(  6-C , 18-C ) :   1.3307
B(  7-Se,  8-C ) :   1.0392 B(  8-C ,  9-C ) :   1.2530 B(  9-C , 13-C ) :   1.3718
B(  9-C , 14-H ) :   0.9945 B( 10-C , 11-C ) :   1.3708 B( 10-C , 12-H ) :   0.9948
B( 11-C , 13-C ) :   1.3014 B( 11-C , 15-H ) :   1.0098 B( 13-C , 16-H ) :   1.0101
B( 17-C , 19-C ) :   1.4972 B( 17-C , 20-H ) :   0.3335 B( 18-C , 21-C ) :   1.4882
B( 18-C , 22-H ) :   0.4292 B( 19-C , 21-C ) :   1.3682 B( 19-C , 23-H ) :   0.8539
B( 21-C , 24-H ) :   0.8574

FINAL SINGLE POINT ENERGY    -11626.840346821706

DIPOLE MOMENT
-------------
                                X             Y             Z
Electronic contribution:     -0.77312       0.11721      -0.00000
Nuclear contribution   :      0.36123      -0.06675       0.00000
                        -----------------------------------------
Total Dipole Moment    :     -0.41190       0.05046      -0.00000
                        -----------------------------------------
Magnitude (a.u.)       :      0.41498
Magnitude (Debye)      :      1.05479

Rotational constants in cm-1:     0.017621     0.004098     0.003325
Rotational constants in MHz :   528.263178   122.855000    99.674337

                             ****ORCA TERMINATED NORMALLY****
TOTAL RUN TIME: 0 days 16 hours 8 minutes 19 seconds 936 msec
