                         Program Version 5.0.4 -  RELEASE  -
|  1> ! RIJCOSX nofrozencore ReducedPop printbasis
|  2> ! M06L ano-rcc-dzp autoaux
|  3>
|  4> %maxcore 7500
|  5> %basis
|  6> PCDTrimBas overlap
|  7> PCDTrimAuxJ Coulomb
|  8> PCDTrimAuxJK Coulomb
|  9> PCDTrimAuxC Coulomb
| 10> PCDThresh -1
| 11> end
| 12>
| 13> %basis
| 14> newgto Cu "ano-rcc-tzp" end
| 15> newgto Se "ano-rcc-tzp" end
| 16> end
| 17>
| 18> %pal
| 19> nprocs 8
| 20> end
| 21>
| 22> % sym SymThresh 1e-2 end
| 23> * xyz -2 2
| 24> Cu 0.0002528650652137591 -0.00036850798635834256 9.772984592518785e-05
| 25> Se 1.75180505769932 1.4575709550501954 -0.6422604061509187
| 26> C 1.0010247740574478 2.862379670535395 -1.0346296797395287
| 27> Se 1.3929551797137436 -1.8551400608675965 0.480842223314282
| 28> C 0.4084008584149512 -3.007551062697014 0.9514251909325242
| 29> Se -1.3983028433882025 1.8497213847947414 -0.4785627874537377
| 30> C -0.3847524953421106 3.0430970085004216 -0.9653158396544645
| 31> Se -1.7558222758117115 -1.449592136057958 0.6400089408221639
| 32> C -1.0164528920832994 -2.917860226682451 1.0543142707130215
| 33> C -1.6451286598052952 -4.01206707074856 1.472682834071988
| 34> C 0.8395555778936395 -4.306608422492624 1.338705039388537
| 35> C 0.055186371726111835 -5.308617104548032 1.7412104906046761
| 36> H 1.8875466925488036 -4.633869187469452 1.3489848461770328
| 37> C -1.2012149464806976 -5.129828234705933 1.7991374178214365
| 38> H -2.724791681756934 -4.017773047414024 1.5748796234860762
| 39> H 0.39623884038496476 -6.301118464813747 2.036016864942827
| 40> H -1.9123325106395523 -5.877542593094586 2.111183091954602
| 41> C 1.722682967816964 3.9839814702129677 -1.4706498752956327
| 42> C -0.8244680435485262 4.291643710322891 -1.335184101720522
| 43> C 1.2217585971163267 5.182470536678435 -1.8183636515555057
| 44> H 2.7980049930033335 3.9071440976359453 -1.5452896069038344
| 45> C -0.09616600303399488 5.31586406955811 -1.7397867430804737
| 46> H -1.8819344617608273 4.517275537024476 -1.3111513316231709
| 47> H 1.8089718459010278 6.035040562269612 -2.15339005805681
| 48> H -0.6124242760571468 6.2303517648404565 -1.9926498040311267
| 49> *
| 50>
| 51> % eprnmr
| 52> gtensor true
| 53> Nuclei = all H {aiso,adip,aorb,fgrad,rho}
| 54> Nuclei = all Cu {aiso,adip,aorb,fgrad,rho}
| 55> end
| 56>
| 57>                          ****END OF INPUT****

CARTESIAN COORDINATES (ANGSTROEM)
---------------------------------
  Cu     0.000248   -0.000384    0.000000
  Se     1.781350    1.559687    0.000000
  C      1.048795    3.027500    0.000000
  Se     1.370575   -1.932512    0.000000
  C      0.364345   -3.159844    0.000000
  Se    -1.376028    1.926730    0.000000
  C     -0.340056    3.197604    0.000000
  Se    -1.785263   -1.551347    0.000000
  C     -1.065132   -3.086123    0.000000
  C     -1.713103   -4.247023    0.000000
  C      0.777541   -4.520983    0.000000
  C     -0.025375   -5.587095    0.000000
  H      1.824955   -4.850245    0.000000
  C     -1.284335   -5.417142    0.000000
  H     -2.797390   -4.268705    0.000000
  H      0.302006   -6.626859    0.000000
  H     -2.009821   -6.214518    0.000000
  C      1.790556    4.218586    0.000000
  C     -0.762617    4.505451    0.000000
  C      1.305767    5.472853    0.000000
  H      2.869228    4.153319    0.000000
  C     -0.015667    5.594128    0.000000
  H     -1.821094    4.727599    0.000000
  H      1.908423    6.378801    0.000000
  H     -0.520177    6.549230    0.000000

 Total Charge           Charge          ....   -2
 Multiplicity           Mult            ....    2
 Number of Electrons    NEL             ....  247
 Basis Dimension        Dim             ....  575

ORBITAL ENERGIES
----------------
                 SPIN UP ORBITALS
  NO   OCC          E(Eh)            E(eV)    Irrep
   0   1.0000    -443.566031    -12070.0453    1-A'
   1   1.0000    -443.560001    -12069.8813    2-A'
   2   1.0000    -443.546194    -12069.5056    3-A'
   3   1.0000    -443.539793    -12069.3314    4-A'
   4   1.0000    -318.186644     -8658.2988    5-A'
   5   1.0000     -56.372570     -1533.9756    6-A'
   6   1.0000     -56.368989     -1533.8782    7-A'
   7   1.0000     -56.356353     -1533.5343    8-A'
   8   1.0000     -56.352296     -1533.4239    9-A'
   9   1.0000     -51.290434     -1395.6837   10-A'
  10   1.0000     -51.289223     -1395.6507   11-A'
  11   1.0000     -51.288937     -1395.6429    1-A"
  12   1.0000     -51.285681     -1395.5543   12-A'
  13   1.0000     -51.285077     -1395.5379   13-A'
  14   1.0000     -51.284330     -1395.5176   14-A'
  15   1.0000     -51.283882     -1395.5054    2-A"
  16   1.0000     -51.283731     -1395.5013   15-A'
  17   1.0000     -51.283270     -1395.4887    3-A"
  18   1.0000     -51.280138     -1395.4035   16-A'
  19   1.0000     -51.278649     -1395.3630   17-A'
  20   1.0000     -51.278071     -1395.3472    4-A"
  21   1.0000     -38.027315     -1034.7758   18-A'
  22   1.0000     -33.529453      -912.3828   19-A'
  23   1.0000     -33.528588      -912.3593   20-A'
  24   1.0000     -33.517315      -912.0525    5-A"
  25   1.0000      -9.812451      -267.0104   21-A'
  26   1.0000      -9.809514      -266.9305   22-A'
  27   1.0000      -9.806306      -266.8431   23-A'
  28   1.0000      -9.804174      -266.7851   24-A'
  29   1.0000      -9.803900      -266.7777   25-A'
  30   1.0000      -9.802815      -266.7481   26-A'
  31   1.0000      -9.801960      -266.7249   27-A'
  32   1.0000      -9.798376      -266.6274   28-A'
  33   1.0000      -9.795746      -266.5558   29-A'
  34   1.0000      -9.793672      -266.4994   30-A'
  35   1.0000      -9.781935      -266.1800   31-A'
  36   1.0000      -9.779835      -266.1228   32-A'
  37   1.0000      -7.343233      -199.8195   33-A'
  38   1.0000      -7.340187      -199.7366   34-A'
  39   1.0000      -7.333019      -199.5416   35-A'
  40   1.0000      -7.329730      -199.4521   36-A'
  41   1.0000      -5.407035      -147.1329   37-A'
  42   1.0000      -5.403551      -147.0381   38-A'
  43   1.0000      -5.402747      -147.0162   39-A'
  44   1.0000      -5.401946      -146.9944    6-A"
  45   1.0000      -5.401889      -146.9929   40-A'
  46   1.0000      -5.399268      -146.9216   41-A'
  47   1.0000      -5.398206      -146.8926   42-A'
  48   1.0000      -5.397800      -146.8816    7-A"
  49   1.0000      -5.397506      -146.8736   43-A'
  50   1.0000      -5.397008      -146.8601    8-A"
  51   1.0000      -5.393711      -146.7703   44-A'
  52   1.0000      -5.392844      -146.7468    9-A"
  53   1.0000      -4.021680      -109.4355   45-A'
  54   1.0000      -2.541435       -69.1559   46-A'
  55   1.0000      -2.540304       -69.1252   47-A'
  56   1.0000      -2.516591       -68.4799   10-A"
  57   1.0000      -1.746942       -47.5367   48-A'
  58   1.0000      -1.743361       -47.4393   49-A'
  59   1.0000      -1.743016       -47.4299   11-A"
  60   1.0000      -1.742516       -47.4163   50-A'
  61   1.0000      -1.741731       -47.3949   51-A'
  62   1.0000      -1.739819       -47.3429   52-A'
  63   1.0000      -1.739033       -47.3215   12-A"
  64   1.0000      -1.739024       -47.3212   53-A'
  65   1.0000      -1.738732       -47.3133   54-A'
  66   1.0000      -1.738607       -47.3099   13-A"
  67   1.0000      -1.738284       -47.3011   14-A"
  68   1.0000      -1.737456       -47.2786   55-A'
  69   1.0000      -1.735394       -47.2225   56-A'
  70   1.0000      -1.734686       -47.2032   15-A"
  71   1.0000      -1.734659       -47.2025   57-A'
  72   1.0000      -1.734305       -47.1928   16-A"
  73   1.0000      -1.733987       -47.1842   58-A'
  74   1.0000      -1.733857       -47.1806   17-A"
  75   1.0000      -1.729870       -47.0722   18-A"
  76   1.0000      -1.729835       -47.0712   59-A'
  77   1.0000      -0.621832       -16.9209   60-A'
  78   1.0000      -0.610338       -16.6081   61-A'
  79   1.0000      -0.536343       -14.5946   62-A'
  80   1.0000      -0.529740       -14.4150   63-A'
  81   1.0000      -0.498543       -13.5660   64-A'
  82   1.0000      -0.498367       -13.5613   65-A'
  83   1.0000      -0.423622       -11.5273   66-A'
  84   1.0000      -0.417285       -11.3549   67-A'
  85   1.0000      -0.388113       -10.5611   68-A'
  86   1.0000      -0.383660       -10.4399   69-A'
  87   1.0000      -0.319661        -8.6984   70-A'
  88   1.0000      -0.316989        -8.6257   71-A'
  89   1.0000      -0.284723        -7.7477   72-A'
  90   1.0000      -0.281277        -7.6539   73-A'
  91   1.0000      -0.244619        -6.6564   74-A'
  92   1.0000      -0.234420        -6.3789   75-A'
  93   1.0000      -0.205705        -5.5975   76-A'
  94   1.0000      -0.204496        -5.5646   77-A'
  95   1.0000      -0.163299        -4.4436   78-A'
  96   1.0000      -0.154241        -4.1971   79-A'
  97   1.0000      -0.141349        -3.8463   19-A"
  98   1.0000      -0.137795        -3.7496   80-A'
  99   1.0000      -0.135113        -3.6766   81-A'
 100   1.0000      -0.134505        -3.6601   20-A"
 101   1.0000      -0.130359        -3.5473   82-A'
 102   1.0000      -0.105953        -2.8831   83-A'
 103   1.0000      -0.076214        -2.0739   84-A'
 104   1.0000      -0.074390        -2.0243   85-A'
 105   1.0000      -0.068569        -1.8659   86-A'
 106   1.0000      -0.060926        -1.6579   21-A"
 107   1.0000      -0.055150        -1.5007   87-A'
 108   1.0000      -0.054478        -1.4824   22-A"
 109   1.0000      -0.032281        -0.8784   23-A"
 110   1.0000      -0.029664        -0.8072   88-A'
 111   1.0000      -0.026559        -0.7227   24-A"
 112   1.0000      -0.025738        -0.7004   89-A'
 113   1.0000      -0.002376        -0.0646   25-A"
 114   1.0000      -0.000846        -0.0230   26-A"
 115   1.0000       0.002013         0.0548   90-A'
 116   1.0000       0.021047         0.5727   91-A'
 117   1.0000       0.025107         0.6832   92-A'
 118   1.0000       0.041802         1.1375   93-A'
 119   1.0000       0.053857         1.4655   27-A"
 120   1.0000       0.055197         1.5020   28-A"
 121   1.0000       0.071816         1.9542   29-A"
 122   1.0000       0.100884         2.7452   30-A"
 123   1.0000       0.115690         3.1481   94-A'
 124   0.0000       0.179479         4.8839   95-A'
 125   0.0000       0.180674         4.9164   96-A'
 126   0.0000       0.196196         5.3388   97-A'
 127   0.0000       0.196657         5.3513   98-A'
 128   0.0000       0.209679         5.7056   31-A"

                 SPIN DOWN ORBITALS
  NO   OCC          E(Eh)            E(eV)    Irrep
   0   1.0000    -443.565584    -12070.0332    1-A'
   1   1.0000    -443.559551    -12069.8690    2-A'
   2   1.0000    -443.545744    -12069.4933    3-A'
   3   1.0000    -443.539344    -12069.3192    4-A'
   4   1.0000    -318.186520     -8658.2954    5-A'
   5   1.0000     -56.372389     -1533.9707    6-A'
   6   1.0000     -56.368806     -1533.8732    7-A'
   7   1.0000     -56.356173     -1533.5294    8-A'
   8   1.0000     -56.352115     -1533.4190    9-A'
   9   1.0000     -51.290107     -1395.6748   10-A'
  10   1.0000     -51.288690     -1395.6362    1-A"
  11   1.0000     -51.288507     -1395.6312   11-A'
  12   1.0000     -51.285364     -1395.5457   12-A'
  13   1.0000     -51.284751     -1395.5290   13-A'
  14   1.0000     -51.283636     -1395.4987    2-A"
  15   1.0000     -51.283605     -1395.4978   14-A'
  16   1.0000     -51.283019     -1395.4819    3-A"
  17   1.0000     -51.282994     -1395.4812   15-A'
  18   1.0000     -51.279825     -1395.3950   16-A'
  19   1.0000     -51.277913     -1395.3429   17-A'
  20   1.0000     -51.277823     -1395.3405    4-A"
  21   1.0000     -38.013362     -1034.3962   18-A'
  22   1.0000     -33.516193      -912.0220   19-A'
  23   1.0000     -33.515329      -911.9985   20-A'
  24   1.0000     -33.513422      -911.9466    5-A"
  25   1.0000      -9.812484      -267.0113   21-A'
  26   1.0000      -9.809529      -266.9309   22-A'
  27   1.0000      -9.806323      -266.8436   23-A'
  28   1.0000      -9.804126      -266.7838   24-A'
  29   1.0000      -9.803882      -266.7772   25-A'
  30   1.0000      -9.802709      -266.7453   26-A'
  31   1.0000      -9.801821      -266.7211   27-A'
  32   1.0000      -9.798331      -266.6261   28-A'
  33   1.0000      -9.795635      -266.5528   29-A'
  34   1.0000      -9.793625      -266.4981   30-A'
  35   1.0000      -9.781864      -266.1780   31-A'
  36   1.0000      -9.779792      -266.1217   32-A'
  37   1.0000      -7.342838      -199.8088   33-A'
  38   1.0000      -7.339790      -199.7258   34-A'
  39   1.0000      -7.332615      -199.5306   35-A'
  40   1.0000      -7.329325      -199.4411   36-A'
  41   1.0000      -5.406676      -147.1231   37-A'
  42   1.0000      -5.403194      -147.0284   38-A'
  43   1.0000      -5.402384      -147.0064   39-A'
  44   1.0000      -5.401633      -146.9859    6-A"
  45   1.0000      -5.401077      -146.9708   40-A'
  46   1.0000      -5.398916      -146.9120   41-A'
  47   1.0000      -5.397492      -146.8732    7-A"
  48   1.0000      -5.397390      -146.8704   42-A'
  49   1.0000      -5.396695      -146.8515    8-A"
  50   1.0000      -5.396675      -146.8510   43-A'
  51   1.0000      -5.392881      -146.7477   44-A'
  52   1.0000      -5.392535      -146.7383    9-A"
  53   1.0000      -3.993277      -108.6626   45-A'
  54   1.0000      -2.506223       -68.1978   10-A"
  55   1.0000      -2.505996       -68.1916   46-A'
  56   1.0000      -2.504758       -68.1579   47-A'
  57   1.0000      -1.746516       -47.5251   48-A'
  58   1.0000      -1.742709       -47.4215   11-A"
  59   1.0000      -1.742473       -47.4151   49-A'
  60   1.0000      -1.742074       -47.4042   50-A'
  61   1.0000      -1.741283       -47.3827   51-A'
  62   1.0000      -1.738939       -47.3189   52-A'
  63   1.0000      -1.738734       -47.3134   12-A"
  64   1.0000      -1.738122       -47.2967   53-A'
  65   1.0000      -1.737978       -47.2928   13-A"
  66   1.0000      -1.737928       -47.2914   54-A'
  67   1.0000      -1.737839       -47.2890   14-A"
  68   1.0000      -1.736993       -47.2660   55-A'
  69   1.0000      -1.734511       -47.1984   56-A'
  70   1.0000      -1.734007       -47.1847   15-A"
  71   1.0000      -1.733924       -47.1825   16-A"
  72   1.0000      -1.733868       -47.1809   57-A'
  73   1.0000      -1.733189       -47.1625   58-A'
  74   1.0000      -1.733083       -47.1596   17-A"
  75   1.0000      -1.729099       -47.0512   18-A"
  76   1.0000      -1.729050       -47.0498   59-A'
  77   1.0000      -0.621376       -16.9085   60-A'
  78   1.0000      -0.609728       -16.5915   61-A'
  79   1.0000      -0.534750       -14.5513   62-A'
  80   1.0000      -0.528440       -14.3796   63-A'
  81   1.0000      -0.497201       -13.5295   64-A'
  82   1.0000      -0.496961       -13.5230   65-A'
  83   1.0000      -0.420767       -11.4497   66-A'
  84   1.0000      -0.414403       -11.2765   67-A'
  85   1.0000      -0.385581       -10.4922   68-A'
  86   1.0000      -0.381334       -10.3766   69-A'
  87   1.0000      -0.318044        -8.6544   70-A'
  88   1.0000      -0.315315        -8.5801   71-A'
  89   1.0000      -0.282241        -7.6802   72-A'
  90   1.0000      -0.278522        -7.5790   73-A'
  91   1.0000      -0.243478        -6.6254   74-A'
  92   1.0000      -0.233315        -6.3488   75-A'
  93   1.0000      -0.204011        -5.5514   76-A'
  94   1.0000      -0.203063        -5.5256   77-A'
  95   1.0000      -0.161863        -4.4045   78-A'
  96   1.0000      -0.152564        -4.1515   79-A'
  97   1.0000      -0.141155        -3.8410   19-A"
  98   1.0000      -0.135875        -3.6973   80-A'
  99   1.0000      -0.134216        -3.6522   20-A"
 100   1.0000      -0.133985        -3.6459   81-A'
 101   1.0000      -0.128800        -3.5048   82-A'
 102   1.0000      -0.103956        -2.8288   83-A'
 103   1.0000      -0.074700        -2.0327   84-A'
 104   1.0000      -0.072622        -1.9761   85-A'
 105   1.0000      -0.059857        -1.6288   21-A"
 106   1.0000      -0.058732        -1.5982   86-A'
 107   1.0000      -0.053565        -1.4576   22-A"
 108   1.0000      -0.051743        -1.4080   87-A'
 109   1.0000      -0.030029        -0.8171   23-A"
 110   1.0000      -0.025690        -0.6991   24-A"
 111   1.0000      -0.019605        -0.5335   88-A'
 112   1.0000      -0.001170        -0.0318   89-A'
 113   1.0000       0.007269         0.1978   25-A"
 114   1.0000       0.010518         0.2862   26-A"
 115   1.0000       0.012814         0.3487   90-A'
 116   1.0000       0.031966         0.8698   91-A'
 117   1.0000       0.033952         0.9239   92-A'
 118   1.0000       0.053059         1.4438   93-A'
 119   1.0000       0.055804         1.5185   27-A"
 120   1.0000       0.058931         1.6036   28-A"
 121   1.0000       0.073525         2.0007   29-A"
 122   1.0000       0.104102         2.8328   30-A"
 123   0.0000       0.145599         3.9619   94-A'
 124   0.0000       0.181200         4.9307   95-A'
 125   0.0000       0.182439         4.9644   96-A'
 126   0.0000       0.199348         5.4245   97-A'
 127   0.0000       0.199887         5.4392   98-A'

MULLIKEN ATOMIC CHARGES AND SPIN POPULATIONS
--------------------------------------------
   0 Cu:    0.632166    0.311394
   1 Se:   -0.738441    0.171884
   2 C :    0.201028   -0.002636
   3 Se:   -0.661807    0.169773
   4 C :    0.150827   -0.004466
   5 Se:   -0.755425    0.175456
   6 C :    0.205565   -0.003240
   7 Se:   -0.832460    0.175126
   8 C :    0.197773   -0.000513
   9 C :   -0.009501   -0.002251
  10 C :   -0.156671   -0.000372
  11 C :   -0.086902   -0.000707
  12 H :    0.056551    0.002130
  13 C :   -0.023796   -0.001328
  14 H :    0.061617    0.003214
  15 H :   -0.005566    0.001989
  16 H :   -0.006382    0.001179
  17 C :   -0.121159   -0.001834
  18 C :   -0.075544   -0.001682
  19 C :   -0.132719   -0.000870
  20 H :    0.084089    0.002835
  21 C :   -0.077770   -0.000955
  22 H :    0.077121    0.002865
  23 H :    0.001414    0.001511
  24 H :    0.015994    0.001498
Sum of atomic charges         :   -2.0000000

LOEWDIN ATOMIC CHARGES AND SPIN POPULATIONS
-------------------------------------------
   0 Cu:   -0.626500    0.391233
   1 Se:   -0.206176    0.122903
   2 C :    0.047635    0.012439
   3 Se:   -0.203104    0.122789
   4 C :    0.023583    0.014421
   5 Se:   -0.202622    0.125566
   6 C :    0.036908    0.012973
   7 Se:   -0.204711    0.126486
   8 C :    0.073464    0.013136
   9 C :    0.311390    0.005559
  10 C :    0.372989    0.007153
  11 C :    0.286683    0.000493
  12 H :   -0.425309    0.005725
  13 C :    0.254528    0.000043
  14 H :   -0.425745    0.007939
  15 H :   -0.379598    0.000595
  16 H :   -0.370049    0.000078
  17 C :    0.367578    0.006459
  18 C :    0.353902    0.006573
  19 C :    0.300537    0.000311
  20 H :   -0.451357    0.008186
  21 C :    0.291852    0.000252
  22 H :   -0.439961    0.008046
  23 H :   -0.389516    0.000357
  24 H :   -0.396402    0.000284

  Mayer bond orders larger than 0.100000
B(  0-Cu,  1-Se) :   0.5511 B(  0-Cu,  3-Se) :   0.5488 B(  0-Cu,  5-Se) :   0.5560
B(  0-Cu,  7-Se) :   0.5610 B(  1-Se,  2-C ) :   1.0412 B(  2-C ,  6-C ) :   1.1422
B(  2-C , 17-C ) :   1.2602 B(  3-Se,  4-C ) :   1.1239 B(  4-C ,  8-C ) :   1.1385
B(  4-C , 10-C ) :   1.2444 B(  5-Se,  6-C ) :   1.0414 B(  6-C , 18-C ) :   1.2451
B(  7-Se,  8-C ) :   0.9838 B(  8-C ,  9-C ) :   1.2622 B(  9-C , 13-C ) :   1.3223
B(  9-C , 14-H ) :   0.9675 B( 10-C , 11-C ) :   1.3793 B( 10-C , 12-H ) :   0.9883
B( 11-C , 13-C ) :   1.3005 B( 11-C , 15-H ) :   0.9993 B( 13-C , 16-H ) :   0.9933
B( 17-C , 19-C ) :   1.3804 B( 17-C , 20-H ) :   0.9681 B( 18-C , 21-C ) :   1.3659
B( 18-C , 22-H ) :   0.9674 B( 19-C , 21-C ) :   1.3043 B( 19-C , 23-H ) :   1.0016
B( 21-C , 24-H ) :   0.9897

FINAL SINGLE POINT ENERGY    -11627.071341915082

DIPOLE MOMENT
-------------
                                X             Y             Z
Electronic contribution:      0.20338       0.15381       0.00000
Nuclear contribution   :     -0.13374      -0.16635       0.00000
                        -----------------------------------------
Total Dipole Moment    :      0.06964      -0.01254       0.00000
                        -----------------------------------------
Magnitude (a.u.)       :      0.07076
Magnitude (Debye)      :      0.17986

Rotational constants in cm-1:     0.017792     0.004100     0.003332
Rotational constants in MHz :   533.403298   122.926827    99.903345

                             ****ORCA TERMINATED NORMALLY****
TOTAL RUN TIME: 0 days 17 hours 7 minutes 36 seconds 660 msec
