                         Program Version 5.0.4 -  RELEASE  -
|  1> ! RIJCOSX nofrozencore ReducedPop printbasis
|  2> ! M06L ano-rcc-dzp autoaux
|  3>
|  4> %maxcore 7500
|  5> %basis
|  6> PCDTrimBas overlap
|  7> PCDTrimAuxJ Coulomb
|  8> PCDTrimAuxJK Coulomb
|  9> PCDTrimAuxC Coulomb
| 10> PCDThresh -1
| 11> end
| 12>
| 13> %basis
| 14> newgto Cu "ano-rcc-tzp" end
| 15> newgto Se "ano-rcc-tzp" end
| 16> end
| 17>
| 18> %pal
| 19> nprocs 8
| 20> end
| 21>
| 22> % sym SymThresh 1e-2 end
| 23> * xyz -2 2
| 24> Cu 7.49442356121906e-05 4.764865489521987e-06 1.169006438695811e-05
| 25> Se 0.23766415702842142 1.886033919295814 -1.4186023246828694
| 26> C 0.4365818409678078 1.2510007076715002 -2.916305105289322
| 27> Se -0.5201761179291735 1.2327614010290573 1.9585092543102802
| 28> C -0.559920662520161 0.11023470349368937 3.1519491511721194
| 29> Se 0.25522852287281345 -1.2496064544464884 -1.9998367082509108
| 30> C 0.440756369571688 -0.11781102770882497 -3.1705368149972926
| 31> Se 0.027302174086841716 -1.8691876746620104 1.4599327011395964
| 32> C -0.31753292269784306 -1.2434317188413946 2.9348747725680053
| 33> C -0.3788311977241959 -2.078666928121332 4.04676563649076
| 34> C -0.8471451846017433 0.49524253395329865 4.458447663615509
| 35> C -0.9102515391147076 -0.3371019940766768 5.557002709435082
| 36> H -1.0428057327018323 1.55030760369386 4.618284514377519
| 37> C -0.6605960558291368 -1.6917512767752894 5.340791946172512
| 38> H -0.1808564159160861 -3.1307733491451915 3.8710489724705357
| 39> H -1.1444355600591618 0.06725442984876531 6.537705817044369
| 40> H -0.6829175685899298 -2.4274354525050454 6.139792579745413
| 41> C 0.6126504503858355 2.093533050795368 -4.010294685702594
| 42> C 0.6131742115623009 -0.5101181305335936 -4.494943275548409
| 43> C 0.7867194558076953 1.699770225045283 -5.321119771725042
| 44> H 0.6162884817832416 3.158457775028822 -3.803129748865175
| 45> C 0.7839062647544025 0.32906893929701014 -5.576709492625803
| 46> H 0.6072377241906871 -1.5780005003541733 -4.686225938061426
| 47> H 0.9171104160111189 2.4423251555950136 -6.103262359069262
| 48> H 0.9099892313792844 -0.08216140836631894 -6.5742747651151605
| 49> *
| 50>
| 51> % eprnmr
| 52> gtensor true
| 53> Nuclei = all H {aiso,adip,aorb,fgrad,rho}
| 54> Nuclei = all Cu {aiso,adip,aorb,fgrad,rho}
| 55> end
| 56>
| 57>                          ****END OF INPUT****

CARTESIAN COORDINATES (ANGSTROEM)
---------------------------------
  Cu     0.000000    0.000000    0.000000
  Se     0.134345    1.588883   -1.755969
  C      0.060392    0.693488   -3.126639
  Se    -0.134345    1.588883    1.755969
  C     -0.060392    0.693488    3.126639
  Se    -0.134345   -1.588883   -1.755969
  C     -0.060392   -0.693488   -3.126639
  Se     0.134345   -1.588883    1.755969
  C      0.060392   -0.693488    3.126639
  C      0.118595   -1.318862    4.368893
  C     -0.118595    1.318862    4.368893
  C     -0.064006    0.694220    5.597896
  H     -0.220817    2.398899    4.360734
  C      0.064006   -0.694220    5.597896
  H      0.220817   -2.398899    4.360734
  H     -0.118810    1.278516    6.512078
  H      0.118810   -1.278516    6.512078
  C      0.118595    1.318862   -4.368893
  C     -0.118595   -1.318862   -4.368893
  C      0.064006    0.694220   -5.597896
  H      0.220817    2.398899   -4.360734
  C     -0.064006   -0.694220   -5.597896
  H     -0.220817   -2.398899   -4.360734
  H      0.118810    1.278516   -6.512078
  H     -0.118810   -1.278516   -6.512078

 Total Charge           Charge          ....   -2
 Multiplicity           Mult            ....    2
 Number of Electrons    NEL             ....  247
 Basis Dimension        Dim             ....  575

ORBITAL ENERGIES
----------------
                 SPIN UP ORBITALS
  NO   OCC          E(Eh)            E(eV)    Irrep
   0   1.0000    -443.561194    -12069.9137    1-B3
   1   1.0000    -443.560123    -12069.8846    1-B2
   2   1.0000    -443.546595    -12069.5165    1-A
   3   1.0000    -443.546534    -12069.5148    1-B1
   4   1.0000    -318.186551     -8658.2962    2-A
   5   1.0000     -56.369886     -1533.9026    2-B3
   6   1.0000     -56.369582     -1533.8943    2-B2
   7   1.0000     -56.356979     -1533.5514    3-A
   8   1.0000     -56.356723     -1533.5444    2-B1
   9   1.0000     -51.286172     -1395.5677    3-B2
  10   1.0000     -51.286109     -1395.5660    3-B1
  11   1.0000     -51.286107     -1395.5659    3-B3
  12   1.0000     -51.286077     -1395.5651    4-A
  13   1.0000     -51.284812     -1395.5307    4-B2
  14   1.0000     -51.284805     -1395.5305    4-B3
  15   1.0000     -51.284769     -1395.5295    4-B1
  16   1.0000     -51.284738     -1395.5287    5-A
  17   1.0000     -51.284367     -1395.5186    6-A
  18   1.0000     -51.284342     -1395.5179    5-B1
  19   1.0000     -51.284325     -1395.5174    5-B3
  20   1.0000     -51.284291     -1395.5165    5-B2
  21   1.0000     -38.027123     -1034.7706    7-A
  22   1.0000     -33.529249      -912.3773    6-B3
  23   1.0000     -33.528463      -912.3559    6-B1
  24   1.0000     -33.517169      -912.0485    6-B2
  25   1.0000      -9.816785      -267.1283    7-B1
  26   1.0000      -9.816784      -267.1283    8-A
  27   1.0000      -9.816360      -267.1167    7-B2
  28   1.0000      -9.816360      -267.1167    7-B3
  29   1.0000      -9.809225      -266.9226    8-B1
  30   1.0000      -9.809218      -266.9224    9-A
  31   1.0000      -9.808795      -266.9109    8-B2
  32   1.0000      -9.808792      -266.9108    8-B3
  33   1.0000      -9.807412      -266.8732    9-B1
  34   1.0000      -9.807411      -266.8732   10-A
  35   1.0000      -9.807408      -266.8731    9-B2
  36   1.0000      -9.807407      -266.8731    9-B3
  37   1.0000      -7.341036      -199.7597   10-B3
  38   1.0000      -7.340979      -199.7582   10-B2
  39   1.0000      -7.333754      -199.5616   11-A
  40   1.0000      -7.333646      -199.5586   10-B1
  41   1.0000      -5.404022      -147.0509   11-B2
  42   1.0000      -5.403995      -147.0502   11-B1
  43   1.0000      -5.403983      -147.0499   11-B3
  44   1.0000      -5.403974      -147.0496   12-A
  45   1.0000      -5.398722      -146.9067   12-B2
  46   1.0000      -5.398720      -146.9066   12-B3
  47   1.0000      -5.398707      -146.9063   12-B1
  48   1.0000      -5.398695      -146.9060   13-A
  49   1.0000      -5.398273      -146.8945   14-A
  50   1.0000      -5.398263      -146.8942   13-B1
  51   1.0000      -5.398256      -146.8940   13-B3
  52   1.0000      -5.398238      -146.8935   13-B2
  53   1.0000      -4.021473      -109.4298   15-A
  54   1.0000      -2.541085       -69.1464   14-B3
  55   1.0000      -2.540154       -69.1211   14-B1
  56   1.0000      -2.516472       -68.4767   14-B2
  57   1.0000      -1.743011       -47.4298   16-A
  58   1.0000      -1.742998       -47.4294   15-B1
  59   1.0000      -1.742983       -47.4290   15-B3
  60   1.0000      -1.742972       -47.4287   15-B2
  61   1.0000      -1.740332       -47.3568   17-A
  62   1.0000      -1.740314       -47.3563   16-B1
  63   1.0000      -1.740251       -47.3546   16-B3
  64   1.0000      -1.740240       -47.3543   16-B2
  65   1.0000      -1.739557       -47.3357   17-B2
  66   1.0000      -1.739555       -47.3357   17-B3
  67   1.0000      -1.739551       -47.3356   17-B1
  68   1.0000      -1.739549       -47.3355   18-A
  69   1.0000      -1.735211       -47.2175   19-A
  70   1.0000      -1.735203       -47.2173   18-B1
  71   1.0000      -1.735169       -47.2163   18-B2
  72   1.0000      -1.735166       -47.2163   18-B3
  73   1.0000      -1.735130       -47.2153   20-A
  74   1.0000      -1.735129       -47.2153   19-B2
  75   1.0000      -1.735128       -47.2152   19-B1
  76   1.0000      -1.735126       -47.2152   19-B3
  77   1.0000      -0.601316       -16.3626   21-A
  78   1.0000      -0.601114       -16.3571   20-B1
  79   1.0000      -0.520170       -14.1546   22-A
  80   1.0000      -0.519432       -14.1345   21-B1
  81   1.0000      -0.499323       -13.5873   20-B3
  82   1.0000      -0.499089       -13.5809   20-B2
  83   1.0000      -0.413140       -11.2421   21-B3
  84   1.0000      -0.412019       -11.2116   21-B2
  85   1.0000      -0.382243       -10.4014   23-A
  86   1.0000      -0.377739       -10.2788   22-B1
  87   1.0000      -0.319878        -8.7043   24-A
  88   1.0000      -0.317649        -8.6437   23-B1
  89   1.0000      -0.287622        -7.8266   22-B3
  90   1.0000      -0.284458        -7.7405   22-B2
  91   1.0000      -0.229055        -6.2329   25-A
  92   1.0000      -0.222481        -6.0540   24-B1
  93   1.0000      -0.199823        -5.4375   26-A
  94   1.0000      -0.198779        -5.4090   25-B1
  95   1.0000      -0.170528        -4.6403   23-B3
  96   1.0000      -0.165804        -4.5118   23-B2
  97   1.0000      -0.139164        -3.7868   24-B3
  98   1.0000      -0.137474        -3.7409   24-B2
  99   1.0000      -0.135733        -3.6935   27-A
 100   1.0000      -0.129593        -3.5264   25-B2
 101   1.0000      -0.129390        -3.5209   25-B3
 102   1.0000      -0.110350        -3.0028   26-B1
 103   1.0000      -0.082070        -2.2332   28-A
 104   1.0000      -0.071476        -1.9450   26-B3
 105   1.0000      -0.065433        -1.7805   26-B2
 106   1.0000      -0.062872        -1.7108   27-B1
 107   1.0000      -0.047766        -1.2998   27-B3
 108   1.0000      -0.046988        -1.2786   27-B2
 109   1.0000      -0.033134        -0.9016   28-B1
 110   1.0000      -0.030269        -0.8237   28-B2
 111   1.0000      -0.028920        -0.7869   29-A
 112   1.0000      -0.027436        -0.7466   30-A
 113   1.0000      -0.001539        -0.0419   29-B1
 114   1.0000      -0.000752        -0.0205   28-B3
 115   1.0000       0.000802         0.0218   31-A
 116   1.0000       0.019315         0.5256   32-A
 117   1.0000       0.021649         0.5891   30-B1
 118   1.0000       0.040788         1.1099   29-B3
 119   1.0000       0.054722         1.4890   33-A
 120   1.0000       0.055846         1.5196   31-B1
 121   1.0000       0.071111         1.9350   29-B2
 122   1.0000       0.099435         2.7058   30-B3
 123   1.0000       0.115281         3.1370   30-B2
 124   0.0000       0.182305         4.9608   32-B1
 125   0.0000       0.182446         4.9646   34-A
 126   0.0000       0.196203         5.3390   31-B2
 127   0.0000       0.196627         5.3505   31-B3
 128   0.0000       0.202023         5.4973   32-B2

                 SPIN DOWN ORBITALS
  NO   OCC          E(Eh)            E(eV)    Irrep
   0   1.0000    -443.560743    -12069.9014    1-B3
   1   1.0000    -443.559672    -12069.8723    1-B2
   2   1.0000    -443.546145    -12069.5042    1-A
   3   1.0000    -443.546083    -12069.5025    1-B1
   4   1.0000    -318.186426     -8658.2928    2-A
   5   1.0000     -56.369703     -1533.8976    2-B3
   6   1.0000     -56.369399     -1533.8893    2-B2
   7   1.0000     -56.356798     -1533.5464    3-A
   8   1.0000     -56.356543     -1533.5395    2-B1
   9   1.0000     -51.285853     -1395.5590    3-B2
  10   1.0000     -51.285787     -1395.5572    3-B3
  11   1.0000     -51.285781     -1395.5571    3-B1
  12   1.0000     -51.285749     -1395.5562    4-A
  13   1.0000     -51.284126     -1395.5120    5-A
  14   1.0000     -51.284097     -1395.5112    4-B1
  15   1.0000     -51.284086     -1395.5109    4-B3
  16   1.0000     -51.284081     -1395.5108    4-B2
  17   1.0000     -51.284061     -1395.5103    5-B3
  18   1.0000     -51.284039     -1395.5096    5-B1
  19   1.0000     -51.284038     -1395.5096    5-B2
  20   1.0000     -51.284004     -1395.5087    6-A
  21   1.0000     -38.013218     -1034.3923    7-A
  22   1.0000     -33.516034      -912.0177    6-B3
  23   1.0000     -33.515250      -911.9963    6-B1
  24   1.0000     -33.513284      -911.9428    6-B2
  25   1.0000      -9.816734      -267.1269    7-B1
  26   1.0000      -9.816734      -267.1269    8-A
  27   1.0000      -9.816309      -267.1153    7-B2
  28   1.0000      -9.816309      -267.1153    7-B3
  29   1.0000      -9.809243      -266.9231    8-B1
  30   1.0000      -9.809237      -266.9229    9-A
  31   1.0000      -9.808811      -266.9113    8-B2
  32   1.0000      -9.808808      -266.9112    8-B3
  33   1.0000      -9.807292      -266.8700    9-B1
  34   1.0000      -9.807291      -266.8700   10-A
  35   1.0000      -9.807290      -266.8699    9-B2
  36   1.0000      -9.807289      -266.8699    9-B3
  37   1.0000      -7.340638      -199.7489   10-B3
  38   1.0000      -7.340584      -199.7474   10-B2
  39   1.0000      -7.333350      -199.5506   11-A
  40   1.0000      -7.333241      -199.5476   10-B1
  41   1.0000      -5.403661      -147.0411   11-B2
  42   1.0000      -5.403633      -147.0403   11-B1
  43   1.0000      -5.403622      -147.0400   11-B3
  44   1.0000      -5.403612      -147.0398   12-A
  45   1.0000      -5.398045      -146.8883   13-A
  46   1.0000      -5.398033      -146.8879   12-B1
  47   1.0000      -5.398030      -146.8879   12-B3
  48   1.0000      -5.398017      -146.8875   12-B2
  49   1.0000      -5.397815      -146.8820   13-B3
  50   1.0000      -5.397812      -146.8819   13-B2
  51   1.0000      -5.397807      -146.8818   13-B1
  52   1.0000      -5.397792      -146.8814   14-A
  53   1.0000      -3.993148      -108.6591   15-A
  54   1.0000      -2.506135       -68.1954   14-B2
  55   1.0000      -2.505724       -68.1842   14-B3
  56   1.0000      -2.504724       -68.1570   14-B1
  57   1.0000      -1.742565       -47.4176   16-A
  58   1.0000      -1.742553       -47.4173   15-B1
  59   1.0000      -1.742536       -47.4168   15-B3
  60   1.0000      -1.742526       -47.4165   15-B2
  61   1.0000      -1.739449       -47.3328   17-A
  62   1.0000      -1.739432       -47.3323   16-B1
  63   1.0000      -1.739372       -47.3307   16-B3
  64   1.0000      -1.739361       -47.3304   16-B2
  65   1.0000      -1.739241       -47.3271   17-B2
  66   1.0000      -1.739240       -47.3271   17-B1
  67   1.0000      -1.739239       -47.3271   17-B3
  68   1.0000      -1.739238       -47.3271   18-A
  69   1.0000      -1.734417       -47.1959   19-A
  70   1.0000      -1.734410       -47.1957   18-B1
  71   1.0000      -1.734403       -47.1955   18-B2
  72   1.0000      -1.734401       -47.1955   18-B3
  73   1.0000      -1.734366       -47.1945   20-A
  74   1.0000      -1.734362       -47.1944   19-B1
  75   1.0000      -1.734340       -47.1938   19-B2
  76   1.0000      -1.734336       -47.1937   19-B3
  77   1.0000      -0.600504       -16.3405   21-A
  78   1.0000      -0.600316       -16.3354   20-B1
  79   1.0000      -0.519023       -14.1233   22-A
  80   1.0000      -0.518321       -14.1042   21-B1
  81   1.0000      -0.497633       -13.5413   20-B3
  82   1.0000      -0.497415       -13.5354   20-B2
  83   1.0000      -0.410472       -11.1695   21-B3
  84   1.0000      -0.409331       -11.1385   21-B2
  85   1.0000      -0.379743       -10.3333   23-A
  86   1.0000      -0.375423       -10.2158   22-B1
  87   1.0000      -0.318137        -8.6570   24-A
  88   1.0000      -0.315752        -8.5921   23-B1
  89   1.0000      -0.285230        -7.7615   22-B3
  90   1.0000      -0.281820        -7.6687   22-B2
  91   1.0000      -0.227917        -6.2019   25-A
  92   1.0000      -0.221405        -6.0247   24-B1
  93   1.0000      -0.198533        -5.4024   26-A
  94   1.0000      -0.197566        -5.3761   25-B1
  95   1.0000      -0.169105        -4.6016   23-B3
  96   1.0000      -0.163788        -4.4569   23-B2
  97   1.0000      -0.138270        -3.7625   24-B3
  98   1.0000      -0.135792        -3.6951   24-B2
  99   1.0000      -0.133768        -3.6400   27-A
 100   1.0000      -0.129207        -3.5159   25-B2
 101   1.0000      -0.128976        -3.5096   25-B3
 102   1.0000      -0.108620        -2.9557   26-B1
 103   1.0000      -0.080711        -2.1962   28-A
 104   1.0000      -0.070006        -1.9050   26-B3
 105   1.0000      -0.060694        -1.6516   27-B1
 106   1.0000      -0.054293        -1.4774   26-B2
 107   1.0000      -0.046583        -1.2676   27-B3
 108   1.0000      -0.046306        -1.2601   27-B2
 109   1.0000      -0.030828        -0.8389   28-B1
 110   1.0000      -0.026516        -0.7215   29-A
 111   1.0000      -0.022380        -0.6090   30-A
 112   1.0000      -0.002034        -0.0554   28-B2
 113   1.0000       0.008203         0.2232   29-B1
 114   1.0000       0.010452         0.2844   28-B3
 115   1.0000       0.011120         0.3026   31-A
 116   1.0000       0.029865         0.8127   30-B1
 117   1.0000       0.032129         0.8743   32-A
 118   1.0000       0.052010         1.4153   29-B3
 119   1.0000       0.056767         1.5447   33-A
 120   1.0000       0.059471         1.6183   31-B1
 121   1.0000       0.072871         1.9829   29-B2
 122   1.0000       0.102682         2.7941   30-B3
 123   0.0000       0.145050         3.9470   30-B2
 124   0.0000       0.184196         5.0122   32-B1
 125   0.0000       0.184355         5.0165   34-A
 126   0.0000       0.199431         5.4268   31-B2
 127   0.0000       0.199947         5.4408   31-B3

MULLIKEN ATOMIC CHARGES AND SPIN POPULATIONS
--------------------------------------------
   0 Cu:    0.632803    0.311633
   1 Se:   -0.729630    0.172882
   2 C :    0.218936   -0.003321
   3 Se:   -0.729630    0.172882
   4 C :    0.218936   -0.003321
   5 Se:   -0.729630    0.172882
   6 C :    0.218936   -0.003321
   7 Se:   -0.729630    0.172882
   8 C :    0.218936   -0.003321
   9 C :   -0.097629   -0.001170
  10 C :   -0.097629   -0.001170
  11 C :   -0.157702   -0.000608
  12 H :    0.086669    0.002716
  13 C :   -0.157702   -0.000608
  14 H :    0.086669    0.002716
  15 H :    0.021155    0.001592
  16 H :    0.021155    0.001592
  17 C :   -0.097629   -0.001170
  18 C :   -0.097629   -0.001170
  19 C :   -0.157702   -0.000608
  20 H :    0.086669    0.002716
  21 C :   -0.157702   -0.000608
  22 H :    0.086669    0.002716
  23 H :    0.021155    0.001592
  24 H :    0.021155    0.001592
Sum of atomic charges         :   -2.0000000

LOEWDIN ATOMIC CHARGES AND SPIN POPULATIONS
-------------------------------------------
   0 Cu:   -0.618271    0.391625
   1 Se:   -0.203308    0.123160
   2 C :    0.039340    0.011658
   3 Se:   -0.203308    0.123160
   4 C :    0.039340    0.011658
   5 Se:   -0.203308    0.123160
   6 C :    0.039340    0.011658
   7 Se:   -0.203308    0.123160
   8 C :    0.039340    0.011658
   9 C :    0.367746    0.007007
  10 C :    0.367746    0.007007
  11 C :    0.319323    0.000523
  12 H :   -0.455618    0.009343
  13 C :    0.319323    0.000523
  14 H :   -0.455618    0.009343
  15 H :   -0.412916    0.000403
  16 H :   -0.412916    0.000403
  17 C :    0.367746    0.007007
  18 C :    0.367746    0.007007
  19 C :    0.319323    0.000523
  20 H :   -0.455618    0.009343
  21 C :    0.319323    0.000523
  22 H :   -0.455618    0.009343
  23 H :   -0.412916    0.000403
  24 H :   -0.412916    0.000403

  Mayer bond orders larger than 0.100000
B(  0-Cu,  1-Se) :   0.5517 B(  0-Cu,  3-Se) :   0.5517 B(  0-Cu,  5-Se) :   0.5517
B(  0-Cu,  7-Se) :   0.5517 B(  1-Se,  2-C ) :   1.0374 B(  2-C ,  6-C ) :   1.1366
B(  2-C , 17-C ) :   1.2578 B(  3-Se,  4-C ) :   1.0374 B(  4-C ,  8-C ) :   1.1366
B(  4-C , 10-C ) :   1.2578 B(  5-Se,  6-C ) :   1.0374 B(  6-C , 18-C ) :   1.2578
B(  7-Se,  8-C ) :   1.0374 B(  8-C ,  9-C ) :   1.2578 B(  9-C , 13-C ) :   1.3794
B(  9-C , 14-H ) :   0.9629 B( 10-C , 11-C ) :   1.3794 B( 10-C , 12-H ) :   0.9629
B( 11-C , 13-C ) :   1.3113 B( 11-C , 15-H ) :   0.9955 B( 13-C , 16-H ) :   0.9955
B( 17-C , 19-C ) :   1.3794 B( 17-C , 20-H ) :   0.9629 B( 18-C , 21-C ) :   1.3794
B( 18-C , 22-H ) :   0.9629 B( 19-C , 21-C ) :   1.3113 B( 19-C , 23-H ) :   0.9955
B( 21-C , 24-H ) :   0.9955

FINAL SINGLE POINT ENERGY    -11627.146885386413

DIPOLE MOMENT
-------------
                                X             Y             Z
Electronic contribution:      0.00000       0.00000      -0.00000
Nuclear contribution   :     -0.00000       0.00000      -0.00000
                        -----------------------------------------
Total Dipole Moment    :      0.00000       0.00000      -0.00000
                        -----------------------------------------
Magnitude (a.u.)       :      0.00000
Magnitude (Debye)      :      0.00000

Rotational constants in cm-1:     0.017488     0.004091     0.003325
Rotational constants in MHz :   524.265265   122.642420    99.666038

                             ****ORCA TERMINATED NORMALLY****
TOTAL RUN TIME: 0 days 17 hours 7 minutes 17 seconds 162 msec
