                         Program Version 5.0.4 -  RELEASE  -
|  1> ! RIJCOSX nofrozencore ReducedPop printbasis
|  2> ! M06L ano-rcc-dzp autoaux
|  3>
|  4> %maxcore 7500
|  5> %basis
|  6> PCDTrimBas overlap
|  7> PCDTrimAuxJ Coulomb
|  8> PCDTrimAuxJK Coulomb
|  9> PCDTrimAuxC Coulomb
| 10> PCDThresh -1
| 11> end
| 12>
| 13> %basis
| 14> newgto Cu "ano-rcc-tzp" end
| 15> newgto Se "ano-rcc-tzp" end
| 16> end
| 17>
| 18> %pal
| 19> nprocs 8
| 20> end
| 21>
| 22> % sym SymThresh 1e-2 end
| 23> * xyz -2 2
| 24> Cu -4.326630323905553e-05 5.768338490618386e-05 0.00013267122562858586
| 25> Se 0.5058739809925475 -2.05498850948065 1.0625927254730516
| 26> C 2.0909919198341234 -1.9381441606946261 1.4599227841703584
| 27> Se -2.2513230420373427 -0.539813666539975 -0.4981200000837082
| 28> C -2.8304151984613632 0.7757476113498719 -1.2822369622245686
| 29> Se 2.2499345088883596 0.5416648829853747 0.5023777799472587
| 30> C 2.8522148008310597 -0.8048096699818214 1.2153924536498453
| 31> Se -0.5072607949506736 2.0568374338710202 -1.0583402173138305
| 32> C -2.0692083632457607 1.9091034945762841 -1.5267180901713384
| 33> C -2.70846247875699 2.965659828910355 -2.166965888550612
| 34> C -4.156114983922484 0.8102727067629762 -1.7020022280196951
| 35> C -4.780852572213987 1.8544938455505513 -2.350079822903901
| 36> H -4.746859752317402 -0.06992485112501179 -1.494506479725769
| 37> C -4.0188452602171285 2.9890512580069806 -2.5948040977858455
| 38> H -2.113663750083342 3.850492449876585 -2.340356971528497
| 39> H -5.784082679140928 1.7245725536674537 -2.7611748201743436
| 40> H -4.380445938121004 3.813664132576088 -3.212737210528098
| 41> C 2.7027271837533293 -2.958012819005103 2.184555373839556
| 42> C 4.150400680045024 -0.8026542978544727 1.7195244945939394
| 43> C 4.003211437321438 -2.9682073592608735 2.642746299369922
| 44> H 2.091412262818848 -3.820826381631258 2.4085886406666743
| 45> C 4.765231579630231 -1.8336688981896676 2.3979741263868273
| 46> H 4.724602173580804 0.09959965589016653 1.5627596794744552
| 47> H 4.507686617538581 -3.9833029950836907 2.8225709093301594
| 48> H 5.911003787740214 -1.8937856557714432 2.3719813979878
| 49> *
| 50>
| 51> % eprnmr
| 52> gtensor true
| 53> Nuclei = all H {aiso,adip,aorb,fgrad,rho}
| 54> Nuclei = all Cu {aiso,adip,aorb,fgrad,rho}
| 55> end
| 56>
| 57>                          ****END OF INPUT****

CARTESIAN COORDINATES (ANGSTROEM)
---------------------------------
  Cu     0.000138   -0.000060   -0.000000
  Se     0.701285    1.609857   -1.588883
  C      1.190606    2.891636   -0.693488
  Se    -0.696841   -1.611782   -1.588883
  C     -1.260392   -2.861408   -0.693488
  Se     0.701285    1.609857    1.588883
  C      1.190606    2.891636    0.693488
  Se    -0.696841   -1.611782    1.588883
  C     -1.260392   -2.861408    0.693488
  C     -1.731908   -4.010953    1.318861
  C     -1.731908   -4.010953   -1.318861
  C     -2.212604   -5.142082   -0.694220
  H     -1.714638   -4.009542   -2.398898
  C     -2.212604   -5.142082    0.694220
  H     -1.714638   -4.009542    2.398898
  H     -2.689599   -5.931727   -1.278516
  H     -2.689599   -5.931727    1.278516
  C      1.750243    4.003012   -1.318861
  C      1.750243    4.003012    1.318861
  C      2.262648    5.120404   -0.694220
  H      1.785909    3.978672   -2.398898
  C      2.262648    5.120404    0.694220
  H      1.785909    3.978672    2.398898
  H      2.282623    6.108011   -1.278516
  H      2.282623    6.108011    1.278516

 Total Charge           Charge          ....   -2
 Multiplicity           Mult            ....    2
 Number of Electrons    NEL             ....  247
 Basis Dimension        Dim             ....  575

ORBITAL ENERGIES
----------------
                 SPIN UP ORBITALS
  NO   OCC          E(Eh)            E(eV)    Irrep
   0   1.0000    -443.562837    -12069.9584    1-A"
   1   1.0000    -443.561717    -12069.9279    2-A"
   2   1.0000    -443.548198    -12069.5601    1-A'
   3   1.0000    -443.548135    -12069.5584    2-A'
   4   1.0000    -318.188467     -8658.3484    3-A'
   5   1.0000     -56.371509     -1533.9467    3-A"
   6   1.0000     -56.371226     -1533.9390    4-A"
   7   1.0000     -56.358685     -1533.5978    4-A'
   8   1.0000     -56.358275     -1533.5866    5-A'
   9   1.0000     -51.287952     -1395.6161    5-A"
  10   1.0000     -51.287902     -1395.6148    6-A'
  11   1.0000     -51.287511     -1395.6041    6-A"
  12   1.0000     -51.287466     -1395.6029    7-A'
  13   1.0000     -51.286602     -1395.5794    7-A"
  14   1.0000     -51.286545     -1395.5778    8-A'
  15   1.0000     -51.286188     -1395.5681    8-A"
  16   1.0000     -51.286182     -1395.5680    9-A"
  17   1.0000     -51.286140     -1395.5668    9-A'
  18   1.0000     -51.286123     -1395.5664   10-A'
  19   1.0000     -51.285735     -1395.5558   10-A"
  20   1.0000     -51.285687     -1395.5545   11-A'
  21   1.0000     -38.029028     -1034.8225   12-A'
  22   1.0000     -33.531087      -912.4273   11-A"
  23   1.0000     -33.530294      -912.4057   13-A'
  24   1.0000     -33.519110      -912.1014   14-A'
  25   1.0000      -9.820402      -267.2267   15-A'
  26   1.0000      -9.819956      -267.2146   12-A"
  27   1.0000      -9.817304      -267.1424   16-A'
  28   1.0000      -9.816856      -267.1302   13-A"
  29   1.0000      -9.811204      -266.9764   17-A'
  30   1.0000      -9.810747      -266.9640   14-A"
  31   1.0000      -9.809771      -266.9375   18-A'
  32   1.0000      -9.809319      -266.9251   15-A"
  33   1.0000      -9.807478      -266.8751   19-A'
  34   1.0000      -9.807478      -266.8750   16-A"
  35   1.0000      -9.807443      -266.8741   17-A"
  36   1.0000      -9.807439      -266.8740   20-A'
  37   1.0000      -7.342843      -199.8089   18-A"
  38   1.0000      -7.342458      -199.7984   19-A"
  39   1.0000      -7.335606      -199.6120   21-A'
  40   1.0000      -7.335082      -199.5977   22-A'
  41   1.0000      -5.405914      -147.1024   20-A"
  42   1.0000      -5.405895      -147.1019   23-A'
  43   1.0000      -5.405306      -147.0859   21-A"
  44   1.0000      -5.405289      -147.0854   24-A'
  45   1.0000      -5.400562      -146.9567   22-A"
  46   1.0000      -5.400536      -146.9561   25-A'
  47   1.0000      -5.400283      -146.9492   23-A"
  48   1.0000      -5.400257      -146.9485   26-A'
  49   1.0000      -5.400017      -146.9419   24-A"
  50   1.0000      -5.399991      -146.9412   27-A'
  51   1.0000      -5.399637      -146.9316   25-A"
  52   1.0000      -5.399611      -146.9309   28-A'
  53   1.0000      -4.023326      -109.4803   29-A'
  54   1.0000      -2.542893       -69.1956   26-A"
  55   1.0000      -2.541939       -69.1697   30-A'
  56   1.0000      -2.518413       -68.5295   31-A'
  57   1.0000      -1.744970       -47.4830   32-A'
  58   1.0000      -1.744941       -47.4823   27-A"
  59   1.0000      -1.744368       -47.4667   33-A'
  60   1.0000      -1.744338       -47.4659   28-A"
  61   1.0000      -1.742168       -47.4068   34-A'
  62   1.0000      -1.742087       -47.4046   29-A"
  63   1.0000      -1.741603       -47.3914   35-A'
  64   1.0000      -1.741522       -47.3892   36-A'
  65   1.0000      -1.741521       -47.3892   30-A"
  66   1.0000      -1.741514       -47.3890   31-A"
  67   1.0000      -1.740884       -47.3719   37-A'
  68   1.0000      -1.740877       -47.3717   32-A"
  69   1.0000      -1.737173       -47.2709   38-A'
  70   1.0000      -1.737124       -47.2696   33-A"
  71   1.0000      -1.737079       -47.2683   39-A'
  72   1.0000      -1.737036       -47.2672   34-A"
  73   1.0000      -1.736561       -47.2542   40-A'
  74   1.0000      -1.736520       -47.2531   35-A"
  75   1.0000      -1.736482       -47.2521   41-A'
  76   1.0000      -1.736433       -47.2507   36-A"
  77   1.0000      -0.603784       -16.4298   42-A'
  78   1.0000      -0.603574       -16.4241   43-A'
  79   1.0000      -0.522295       -14.2124   44-A'
  80   1.0000      -0.520746       -14.1702   45-A'
  81   1.0000      -0.500345       -13.6151   37-A"
  82   1.0000      -0.499785       -13.5998   38-A"
  83   1.0000      -0.413638       -11.2557   39-A"
  84   1.0000      -0.411479       -11.1969   40-A"
  85   1.0000      -0.383427       -10.4336   46-A'
  86   1.0000      -0.378099       -10.2886   47-A'
  87   1.0000      -0.322040        -8.7632   48-A'
  88   1.0000      -0.319770        -8.7014   49-A'
  89   1.0000      -0.286784        -7.8038   41-A"
  90   1.0000      -0.279958        -7.6180   42-A"
  91   1.0000      -0.228300        -6.2124   50-A'
  92   1.0000      -0.218085        -5.9344   51-A'
  93   1.0000      -0.201342        -5.4788   52-A'
  94   1.0000      -0.200237        -5.4487   53-A'
  95   1.0000      -0.169938        -4.6242   43-A"
  96   1.0000      -0.164495        -4.4761   44-A"
  97   1.0000      -0.142068        -3.8659   54-A'
  98   1.0000      -0.138597        -3.7714   45-A"
  99   1.0000      -0.132664        -3.6100   46-A"
 100   1.0000      -0.132345        -3.6013   55-A'
 101   1.0000      -0.128326        -3.4919   56-A'
 102   1.0000      -0.109993        -2.9931   57-A'
 103   1.0000      -0.084104        -2.2886   58-A'
 104   1.0000      -0.072597        -1.9755   47-A"
 105   1.0000      -0.066967        -1.8223   48-A"
 106   1.0000      -0.064779        -1.7627   59-A'
 107   1.0000      -0.048688        -1.3249   60-A'
 108   1.0000      -0.044113        -1.2004   61-A'
 109   1.0000      -0.034152        -0.9293   49-A"
 110   1.0000      -0.031478        -0.8566   50-A"
 111   1.0000      -0.029759        -0.8098   62-A'
 112   1.0000      -0.027399        -0.7456   51-A"
 113   1.0000      -0.002835        -0.0771   52-A"
 114   1.0000      -0.002525        -0.0687   63-A'
 115   1.0000      -0.000834        -0.0227   64-A'
 116   1.0000       0.017790         0.4841   65-A'
 117   1.0000       0.019833         0.5397   66-A'
 118   1.0000       0.039406         1.0723   53-A"
 119   1.0000       0.054286         1.4772   54-A"
 120   1.0000       0.055471         1.5094   55-A"
 121   1.0000       0.068490         1.8637   67-A'
 122   1.0000       0.097242         2.6461   68-A'
 123   1.0000       0.114836         3.1248   56-A"
 124   0.0000       0.181527         4.9396   69-A'
 125   0.0000       0.181636         4.9426   70-A'
 126   0.0000       0.195902         5.3308   57-A"
 127   0.0000       0.197425         5.3722   58-A"
 128   0.0000       0.197707         5.3799   71-A'

                 SPIN DOWN ORBITALS
  NO   OCC          E(Eh)            E(eV)    Irrep
   0   1.0000    -443.562384    -12069.9461    1-A"
   1   1.0000    -443.561264    -12069.9156    2-A"
   2   1.0000    -443.547745    -12069.5477    1-A'
   3   1.0000    -443.547682    -12069.5460    2-A'
   4   1.0000    -318.188345     -8658.3450    3-A'
   5   1.0000     -56.371325     -1533.9417    3-A"
   6   1.0000     -56.371042     -1533.9340    4-A"
   7   1.0000     -56.358504     -1533.5929    4-A'
   8   1.0000     -56.358093     -1533.5817    5-A'
   9   1.0000     -51.287630     -1395.6074    5-A"
  10   1.0000     -51.287573     -1395.6058    6-A'
  11   1.0000     -51.287187     -1395.5953    6-A"
  12   1.0000     -51.287134     -1395.5939    7-A'
  13   1.0000     -51.285938     -1395.5613    7-A"
  14   1.0000     -51.285889     -1395.5600    8-A'
  15   1.0000     -51.285867     -1395.5594    8-A"
  16   1.0000     -51.285819     -1395.5581    9-A'
  17   1.0000     -51.285484     -1395.5490    9-A"
  18   1.0000     -51.285444     -1395.5479   10-A"
  19   1.0000     -51.285436     -1395.5476   10-A'
  20   1.0000     -51.285393     -1395.5465   11-A'
  21   1.0000     -38.015125     -1034.4441   12-A'
  22   1.0000     -33.517876      -912.0678   11-A"
  23   1.0000     -33.517083      -912.0462   13-A'
  24   1.0000     -33.515225      -911.9956   14-A'
  25   1.0000      -9.820354      -267.2254   15-A'
  26   1.0000      -9.819908      -267.2133   12-A"
  27   1.0000      -9.817254      -267.1411   16-A'
  28   1.0000      -9.816806      -267.1289   13-A"
  29   1.0000      -9.811224      -266.9770   17-A'
  30   1.0000      -9.810765      -266.9645   14-A"
  31   1.0000      -9.809791      -266.9380   18-A'
  32   1.0000      -9.809337      -266.9256   15-A"
  33   1.0000      -9.807359      -266.8718   16-A"
  34   1.0000      -9.807358      -266.8718   19-A'
  35   1.0000      -9.807322      -266.8708   17-A"
  36   1.0000      -9.807318      -266.8707   20-A'
  37   1.0000      -7.342444      -199.7981   18-A"
  38   1.0000      -7.342058      -199.7876   19-A"
  39   1.0000      -7.335200      -199.6009   21-A'
  40   1.0000      -7.334674      -199.5866   22-A'
  41   1.0000      -5.405551      -147.0925   20-A"
  42   1.0000      -5.405532      -147.0920   23-A'
  43   1.0000      -5.404941      -147.0759   21-A"
  44   1.0000      -5.404922      -147.0754   24-A'
  45   1.0000      -5.399970      -146.9407   22-A"
  46   1.0000      -5.399944      -146.9399   25-A'
  47   1.0000      -5.399739      -146.9344   23-A"
  48   1.0000      -5.399714      -146.9337   26-A'
  49   1.0000      -5.399328      -146.9232   24-A"
  50   1.0000      -5.399302      -146.9225   27-A'
  51   1.0000      -5.399185      -146.9193   25-A"
  52   1.0000      -5.399160      -146.9186   28-A'
  53   1.0000      -3.995067      -108.7113   29-A'
  54   1.0000      -2.508071       -68.2481   30-A'
  55   1.0000      -2.507610       -68.2355   26-A"
  56   1.0000      -2.506598       -68.2080   31-A'
  57   1.0000      -1.744525       -47.4709   32-A'
  58   1.0000      -1.744496       -47.4701   27-A"
  59   1.0000      -1.743917       -47.4544   33-A'
  60   1.0000      -1.743887       -47.4536   28-A"
  61   1.0000      -1.741278       -47.3826   34-A'
  62   1.0000      -1.741208       -47.3807   35-A'
  63   1.0000      -1.741207       -47.3806   29-A"
  64   1.0000      -1.741188       -47.3801   30-A"
  65   1.0000      -1.740705       -47.3670   36-A'
  66   1.0000      -1.740622       -47.3647   31-A"
  67   1.0000      -1.740573       -47.3634   37-A'
  68   1.0000      -1.740565       -47.3632   32-A"
  69   1.0000      -1.736392       -47.2496   38-A'
  70   1.0000      -1.736354       -47.2486   33-A"
  71   1.0000      -1.736289       -47.2468   39-A'
  72   1.0000      -1.736243       -47.2456   34-A"
  73   1.0000      -1.735778       -47.2329   40-A'
  74   1.0000      -1.735746       -47.2321   35-A"
  75   1.0000      -1.735688       -47.2305   41-A'
  76   1.0000      -1.735637       -47.2291   36-A"
  77   1.0000      -0.602964       -16.4075   42-A'
  78   1.0000      -0.602767       -16.4021   43-A'
  79   1.0000      -0.521153       -14.1813   44-A'
  80   1.0000      -0.519622       -14.1396   45-A'
  81   1.0000      -0.498638       -13.5686   37-A"
  82   1.0000      -0.498057       -13.5528   38-A"
  83   1.0000      -0.410937       -11.1822   39-A"
  84   1.0000      -0.408747       -11.1226   40-A"
  85   1.0000      -0.380914       -10.3652   46-A'
  86   1.0000      -0.375736       -10.2243   47-A'
  87   1.0000      -0.320302        -8.7159   48-A'
  88   1.0000      -0.317862        -8.6495   49-A'
  89   1.0000      -0.284308        -7.7364   41-A"
  90   1.0000      -0.277277        -7.5451   42-A"
  91   1.0000      -0.227164        -6.1815   50-A'
  92   1.0000      -0.217033        -5.9058   51-A'
  93   1.0000      -0.200048        -5.4436   52-A'
  94   1.0000      -0.199010        -5.4153   53-A'
  95   1.0000      -0.168497        -4.5850   43-A"
  96   1.0000      -0.162734        -4.4282   44-A"
  97   1.0000      -0.140691        -3.8284   54-A'
  98   1.0000      -0.137470        -3.7408   45-A"
  99   1.0000      -0.131846        -3.5877   55-A'
 100   1.0000      -0.130902        -3.5620   46-A"
 101   1.0000      -0.127310        -3.4643   56-A'
 102   1.0000      -0.108397        -2.9496   57-A'
 103   1.0000      -0.082788        -2.2528   58-A'
 104   1.0000      -0.071184        -1.9370   47-A"
 105   1.0000      -0.062582        -1.7029   59-A'
 106   1.0000      -0.055680        -1.5151   48-A"
 107   1.0000      -0.047789        -1.3004   60-A'
 108   1.0000      -0.042864        -1.1664   61-A'
 109   1.0000      -0.031619        -0.8604   49-A"
 110   1.0000      -0.026346        -0.7169   50-A"
 111   1.0000      -0.023692        -0.6447   62-A'
 112   1.0000      -0.003591        -0.0977   51-A"
 113   1.0000       0.006779         0.1845   52-A"
 114   1.0000       0.008601         0.2340   63-A'
 115   1.0000       0.009570         0.2604   64-A'
 116   1.0000       0.027985         0.7615   65-A'
 117   1.0000       0.030631         0.8335   66-A'
 118   1.0000       0.050641         1.3780   53-A"
 119   1.0000       0.056246         1.5305   54-A"
 120   1.0000       0.058939         1.6038   55-A"
 121   1.0000       0.070220         1.9108   67-A'
 122   1.0000       0.100505         2.7349   68-A'
 123   0.0000       0.144659         3.9364   56-A"
 124   0.0000       0.183067         4.9815   69-A'
 125   0.0000       0.183481         4.9928   70-A'
 126   0.0000       0.197868         5.3843   71-A'
 127   0.0000       0.199062         5.4168   57-A"

MULLIKEN ATOMIC CHARGES AND SPIN POPULATIONS
--------------------------------------------
   0 Cu:    0.639392    0.310240
   1 Se:   -0.725632    0.172934
   2 C :    0.224264   -0.003206
   3 Se:   -0.731968    0.173994
   4 C :    0.222107   -0.003242
   5 Se:   -0.725632    0.172934
   6 C :    0.224264   -0.003206
   7 Se:   -0.731968    0.173994
   8 C :    0.222107   -0.003242
   9 C :   -0.100943   -0.001496
  10 C :   -0.100943   -0.001496
  11 C :   -0.155165   -0.000696
  12 H :    0.092481    0.002761
  13 C :   -0.155165   -0.000696
  14 H :    0.092481    0.002761
  15 H :    0.015661    0.001616
  16 H :    0.015661    0.001616
  17 C :   -0.086377   -0.001371
  18 C :   -0.086377   -0.001371
  19 C :   -0.145736   -0.000885
  20 H :    0.094679    0.002687
  21 C :   -0.145736   -0.000885
  22 H :    0.094679    0.002687
  23 H :   -0.023067    0.001784
  24 H :   -0.023067    0.001784
Sum of atomic charges         :   -2.0000000

LOEWDIN ATOMIC CHARGES AND SPIN POPULATIONS
-------------------------------------------
   0 Cu:   -0.614854    0.390543
   1 Se:   -0.199389    0.123138
   2 C :    0.040712    0.011746
   3 Se:   -0.201296    0.123741
   4 C :    0.038719    0.011801
   5 Se:   -0.199389    0.123138
   6 C :    0.040712    0.011746
   7 Se:   -0.201296    0.123741
   8 C :    0.038719    0.011801
   9 C :    0.370117    0.006943
  10 C :    0.370117    0.006943
  11 C :    0.315072    0.000430
  12 H :   -0.460286    0.009433
  13 C :    0.315072    0.000430
  14 H :   -0.460286    0.009433
  15 H :   -0.406424    0.000404
  16 H :   -0.406424    0.000404
  17 C :    0.361212    0.006951
  18 C :    0.361212    0.006951
  19 C :    0.278674    0.000267
  20 H :   -0.464236    0.009322
  21 C :    0.278674    0.000267
  22 H :   -0.464236    0.009322
  23 H :   -0.365449    0.000551
  24 H :   -0.365449    0.000551

  Mayer bond orders larger than 0.100000
B(  0-Cu,  1-Se) :   0.5480 B(  0-Cu,  3-Se) :   0.5514 B(  0-Cu,  5-Se) :   0.5480
B(  0-Cu,  7-Se) :   0.5514 B(  1-Se,  2-C ) :   1.0411 B(  2-C ,  6-C ) :   1.1277
B(  2-C , 17-C ) :   1.2637 B(  3-Se,  4-C ) :   1.0394 B(  4-C ,  8-C ) :   1.1331
B(  4-C , 10-C ) :   1.2579 B(  5-Se,  6-C ) :   1.0411 B(  6-C , 18-C ) :   1.2637
B(  7-Se,  8-C ) :   1.0394 B(  8-C ,  9-C ) :   1.2579 B(  9-C , 13-C ) :   1.3778
B(  9-C , 14-H ) :   0.9592 B( 10-C , 11-C ) :   1.3778 B( 10-C , 12-H ) :   0.9592
B( 11-C , 13-C ) :   1.3125 B( 11-C , 15-H ) :   0.9991 B( 13-C , 16-H ) :   0.9991
B( 17-C , 19-C ) :   1.3680 B( 17-C , 20-H ) :   0.9562 B( 18-C , 21-C ) :   1.3680
B( 18-C , 22-H ) :   0.9562 B( 19-C , 21-C ) :   1.3126 B( 19-C , 23-H ) :   1.0168
B( 21-C , 24-H ) :   1.0168

FINAL SINGLE POINT ENERGY    -11627.127661507973

DIPOLE MOMENT
-------------
                                X             Y             Z
Electronic contribution:      0.46626      -0.45543       0.00000
Nuclear contribution   :     -0.72205       0.31276      -0.00000
                        -----------------------------------------
Total Dipole Moment    :     -0.25579      -0.14267       0.00000
                        -----------------------------------------
Magnitude (a.u.)       :      0.29288
Magnitude (Debye)      :      0.74445

Rotational constants in cm-1:     0.017608     0.004097     0.003325
Rotational constants in MHz :   527.883011   122.839351    99.666036

                             ****ORCA TERMINATED NORMALLY****
TOTAL RUN TIME: 0 days 16 hours 39 minutes 31 seconds 428 msec
