                         Program Version 5.0.4 -  RELEASE  -
|  1> ! RIJCOSX nofrozencore ReducedPop printbasis
|  2> ! M06L ano-rcc-dzp autoaux
|  3>
|  4> %maxcore 7500
|  5> %basis
|  6> PCDTrimBas overlap
|  7> PCDTrimAuxJ Coulomb
|  8> PCDTrimAuxJK Coulomb
|  9> PCDTrimAuxC Coulomb
| 10> PCDThresh -1
| 11> end
| 12>
| 13> %basis
| 14> newgto Cu "ano-rcc-tzp" end
| 15> newgto Se "ano-rcc-tzp" end
| 16> end
| 17>
| 18> %pal
| 19> nprocs 8
| 20> end
| 21>
| 22> % sym SymThresh 1e-2 end
| 23> * xyz -2 2
| 24> Cu 5.789546712134094e-06 2.589621763889152e-05 0.00014447445123919725
| 25> Se -1.915483903043043 -0.6311819475649446 -1.2429787747440066
| 26> C -1.3660708349809434 -0.7715383384368775 -2.7717867756208325
| 27> Se -1.1029409262069487 0.11520807183957195 2.0920408218784274
| 28> C 0.06984675390715499 0.5526588057382409 3.1522373771685746
| 29> Se 1.1029728679294675 -0.11501338957317309 -2.0909398207242442
| 30> C -0.061589716637449055 -0.5525944310553272 -3.162462150829976
| 31> Se 1.9147953080931035 0.6311969927720472 1.2439512168433942
| 32> C 1.3641963346054276 0.769565447648911 2.7626206422876898
| 33> C 2.2744334665259376 1.1417404143391334 3.7770327851365697
| 34> C -0.22206229431643568 0.7173892736367242 4.493378432628493
| 35> C 0.6563164621780103 1.0816877402383436 5.5024941934512945
| 36> H -1.2575038039659328 0.532498154763218 4.738350455972941
| 37> C 1.9273655933886404 1.2986855025333148 5.143330776300163
| 38> H 3.2816615509232783 1.2993779475601097 3.4084171686316944
| 39> H 0.5205177234796303 1.2373228311275195 6.58982882326166
| 40> H 2.4600950973291975 1.5801451837650866 6.110338986346571
| 41> C -2.2872604140365516 -1.1437031019904773 -3.77207564294139
| 42> C 0.21445457591881406 -0.7209722821136959 -4.504627891461541
| 43> C -1.9391463093219776 -1.2998877916284728 -5.135256506176513
| 44> H -3.2972302345317117 -1.3037033342837363 -3.4138053131538455
| 45> C -0.6323888487509859 -1.0775141183168913 -5.5087356295635725
| 46> H 1.2357574573328136 -0.5492678922211458 -4.808793206591471
| 47> H -2.584636738918884 -1.5852536363120204 -5.980388478907309
| 48> H -0.28485827289710847 -1.175764150384497 -6.531319671393577
| 49> *
| 50>
| 51> % eprnmr
| 52> gtensor true
| 53> Nuclei = all H {aiso,adip,aorb,fgrad,rho}
| 54> Nuclei = all Cu {aiso,adip,aorb,fgrad,rho}
| 55> end
| 56>
| 57>                          ****END OF INPUT****

CARTESIAN COORDINATES (ANGSTROEM)
---------------------------------
  Cu     0.000147    0.000009    0.000000
  Se    -1.295943   -1.983179    0.000000
  C     -2.836449   -1.448717    0.000000
  Se     2.101590   -1.090737    0.000000
  C      3.198481    0.128951    0.000000
  Se    -2.100472    1.090790    0.000000
  C     -3.208700   -0.120687    0.000000
  Se     1.296917    1.982492    0.000000
  C      2.827118    1.446631    0.000000
  C      3.872742    2.396761    0.000000
  C      4.553381   -0.145373    0.000000
  C      5.593047    0.772053    0.000000
  H      4.782799   -1.200694    0.000000
  C      5.252143    2.066440    0.000000
  H      3.517397    3.420951    0.000000
  H      6.693392    0.652883    0.000000
  H      6.242743    2.629322    0.000000
  C     -3.867950   -2.409800    0.000000
  C     -4.564930    0.137381    0.000000
  C     -5.244170   -2.078350    0.000000
  H     -3.523148   -3.436984    0.000000
  C     -5.598937   -0.747677    0.000000
  H     -4.854647    1.177152    0.000000
  H     -6.113229   -2.754423    0.000000
  H     -6.629713   -0.410616    0.000000

 Total Charge           Charge          ....   -2
 Multiplicity           Mult            ....    2
 Number of Electrons    NEL             ....  247
 Basis Dimension        Dim             ....  575

ORBITAL ENERGIES
----------------
                 SPIN UP ORBITALS
  NO   OCC          E(Eh)            E(eV)    Irrep
   0   1.0000    -443.563866    -12069.9864    1-A'
   1   1.0000    -443.561829    -12069.9310    2-A'
   2   1.0000    -443.547965    -12069.5537    3-A'
   3   1.0000    -443.547439    -12069.5394    4-A'
   4   1.0000    -318.187415     -8658.3197    5-A'
   5   1.0000     -56.371957     -1533.9589    6-A'
   6   1.0000     -56.370768     -1533.9266    7-A'
   7   1.0000     -56.357847     -1533.5750    8-A'
   8   1.0000     -56.357488     -1533.5652    9-A'
   9   1.0000     -51.288131     -1395.6210   10-A'
  10   1.0000     -51.287253     -1395.5971   11-A'
  11   1.0000     -51.286819     -1395.5853   12-A'
  12   1.0000     -51.286388     -1395.5736    1-A"
  13   1.0000     -51.286173     -1395.5677   13-A'
  14   1.0000     -51.285947     -1395.5616   14-A'
  15   1.0000     -51.285770     -1395.5567   15-A'
  16   1.0000     -51.285502     -1395.5495    2-A"
  17   1.0000     -51.284789     -1395.5301   16-A'
  18   1.0000     -51.284399     -1395.5194   17-A'
  19   1.0000     -51.284341     -1395.5179    3-A"
  20   1.0000     -51.283909     -1395.5061    4-A"
  21   1.0000     -38.027952     -1034.7932   18-A'
  22   1.0000     -33.529985      -912.3973   19-A'
  23   1.0000     -33.529260      -912.3776   20-A'
  24   1.0000     -33.518012      -912.0715    5-A"
  25   1.0000      -9.820443      -267.2279   21-A'
  26   1.0000      -9.819010      -267.1888   22-A'
  27   1.0000      -9.814181      -267.0574   23-A'
  28   1.0000      -9.813548      -267.0402   24-A'
  29   1.0000      -9.811991      -266.9979   25-A'
  30   1.0000      -9.811802      -266.9927   26-A'
  31   1.0000      -9.810906      -266.9683   27-A'
  32   1.0000      -9.810435      -266.9555   28-A'
  33   1.0000      -9.808196      -266.8946   29-A'
  34   1.0000      -9.807902      -266.8866   30-A'
  35   1.0000      -9.806131      -266.8384   31-A'
  36   1.0000      -9.802964      -266.7522   32-A'
  37   1.0000      -7.342427      -199.7976   33-A'
  38   1.0000      -7.341803      -199.7806   34-A'
  39   1.0000      -7.334345      -199.5777   35-A'
  40   1.0000      -7.334229      -199.5745   36-A'
  41   1.0000      -5.405635      -147.0948   37-A'
  42   1.0000      -5.405037      -147.0785   38-A'
  43   1.0000      -5.404048      -147.0516   39-A'
  44   1.0000      -5.403680      -147.0416   40-A'
  45   1.0000      -5.400334      -146.9506   41-A'
  46   1.0000      -5.399964      -146.9405    6-A"
  47   1.0000      -5.399791      -146.9358   42-A'
  48   1.0000      -5.399382      -146.9247    7-A"
  49   1.0000      -5.398626      -146.9041   43-A'
  50   1.0000      -5.398268      -146.8943   44-A'
  51   1.0000      -5.398225      -146.8932    8-A"
  52   1.0000      -5.397731      -146.8797    9-A"
  53   1.0000      -4.022280      -109.4518   45-A'
  54   1.0000      -2.541800       -69.1659   46-A'
  55   1.0000      -2.540979       -69.1435   47-A'
  56   1.0000      -2.517325       -68.4999   10-A"
  57   1.0000      -1.744929       -47.4819   48-A'
  58   1.0000      -1.744203       -47.4622   49-A'
  59   1.0000      -1.743001       -47.4295   50-A'
  60   1.0000      -1.742653       -47.4200   51-A'
  61   1.0000      -1.741922       -47.4001   52-A'
  62   1.0000      -1.741334       -47.3841   53-A'
  63   1.0000      -1.741280       -47.3826   11-A"
  64   1.0000      -1.740671       -47.3661   12-A"
  65   1.0000      -1.740281       -47.3555   54-A'
  66   1.0000      -1.739960       -47.3467   55-A'
  67   1.0000      -1.739515       -47.3346   13-A"
  68   1.0000      -1.739084       -47.3229   14-A"
  69   1.0000      -1.736904       -47.2636   56-A'
  70   1.0000      -1.736769       -47.2599   15-A"
  71   1.0000      -1.736349       -47.2485   57-A'
  72   1.0000      -1.736214       -47.2448   16-A"
  73   1.0000      -1.735105       -47.2146   17-A"
  74   1.0000      -1.735071       -47.2137   58-A'
  75   1.0000      -1.734674       -47.2029   18-A"
  76   1.0000      -1.734637       -47.2019   59-A'
  77   1.0000      -0.605633       -16.4801   60-A'
  78   1.0000      -0.603413       -16.4197   61-A'
  79   1.0000      -0.529780       -14.4160   62-A'
  80   1.0000      -0.524150       -14.2628   63-A'
  81   1.0000      -0.497743       -13.5443   64-A'
  82   1.0000      -0.496889       -13.5210   65-A'
  83   1.0000      -0.409672       -11.1477   66-A'
  84   1.0000      -0.402783       -10.9603   67-A'
  85   1.0000      -0.393703       -10.7132   68-A'
  86   1.0000      -0.384463       -10.4618   69-A'
  87   1.0000      -0.324418        -8.8279   70-A'
  88   1.0000      -0.321160        -8.7392   71-A'
  89   1.0000      -0.283484        -7.7140   72-A'
  90   1.0000      -0.273647        -7.4463   73-A'
  91   1.0000      -0.238879        -6.5002   74-A'
  92   1.0000      -0.228445        -6.2163   75-A'
  93   1.0000      -0.198776        -5.4090   76-A'
  94   1.0000      -0.193680        -5.2703   77-A'
  95   1.0000      -0.169136        -4.6024   78-A'
  96   1.0000      -0.162852        -4.4314   79-A'
  97   1.0000      -0.140617        -3.8264   80-A'
  98   1.0000      -0.136433        -3.7125   81-A'
  99   1.0000      -0.132733        -3.6118   19-A"
 100   1.0000      -0.131934        -3.5901   82-A'
 101   1.0000      -0.131214        -3.5705   20-A"
 102   1.0000      -0.107057        -2.9132   83-A'
 103   1.0000      -0.077498        -2.1088   84-A'
 104   1.0000      -0.072227        -1.9654   85-A'
 105   1.0000      -0.065996        -1.7958   86-A'
 106   1.0000      -0.060785        -1.6540   87-A'
 107   1.0000      -0.053488        -1.4555   21-A"
 108   1.0000      -0.050077        -1.3627   22-A"
 109   1.0000      -0.032609        -0.8873   23-A"
 110   1.0000      -0.032013        -0.8711   88-A'
 111   1.0000      -0.028819        -0.7842   89-A'
 112   1.0000      -0.025539        -0.6950   24-A"
 113   1.0000      -0.002051        -0.0558   25-A"
 114   1.0000      -0.001219        -0.0332   26-A"
 115   1.0000       0.000040         0.0011   90-A'
 116   1.0000       0.018518         0.5039   91-A'
 117   1.0000       0.020109         0.5472   92-A'
 118   1.0000       0.040170         1.0931   93-A'
 119   1.0000       0.056188         1.5290   27-A"
 120   1.0000       0.058899         1.6027   28-A"
 121   1.0000       0.068390         1.8610   29-A"
 122   1.0000       0.097406         2.6505   30-A"
 123   1.0000       0.115864         3.1528   94-A'
 124   0.0000       0.179468         4.8836   95-A'
 125   0.0000       0.181212         4.9310   96-A'
 126   0.0000       0.195394         5.3169   31-A"
 127   0.0000       0.197259         5.3677   97-A'
 128   0.0000       0.199838         5.4379   98-A'

                 SPIN DOWN ORBITALS
  NO   OCC          E(Eh)            E(eV)    Irrep
   0   1.0000    -443.563414    -12069.9741    1-A'
   1   1.0000    -443.561375    -12069.9186    2-A'
   2   1.0000    -443.547511    -12069.5414    3-A'
   3   1.0000    -443.546986    -12069.5271    4-A'
   4   1.0000    -318.187295     -8658.3165    5-A'
   5   1.0000     -56.371774     -1533.9539    6-A'
   6   1.0000     -56.370584     -1533.9216    7-A'
   7   1.0000     -56.357665     -1533.5700    8-A'
   8   1.0000     -56.357306     -1533.5603    9-A'
   9   1.0000     -51.287803     -1395.6121   10-A'
  10   1.0000     -51.286921     -1395.5881   11-A'
  11   1.0000     -51.286139     -1395.5668    1-A"
  12   1.0000     -51.286092     -1395.5655   12-A'
  13   1.0000     -51.285849     -1395.5589   13-A'
  14   1.0000     -51.285443     -1395.5479   14-A'
  15   1.0000     -51.285250     -1395.5426    2-A"
  16   1.0000     -51.285210     -1395.5415   15-A'
  17   1.0000     -51.284092     -1395.5111    3-A"
  18   1.0000     -51.284061     -1395.5102   16-A'
  19   1.0000     -51.283664     -1395.4994   17-A'
  20   1.0000     -51.283658     -1395.4993    4-A"
  21   1.0000     -38.014061     -1034.4152   18-A'
  22   1.0000     -33.516783      -912.0380   19-A'
  23   1.0000     -33.516054      -912.0182   20-A'
  24   1.0000     -33.514145      -911.9663    5-A"
  25   1.0000      -9.820384      -267.2262   21-A'
  26   1.0000      -9.818951      -267.1872   22-A'
  27   1.0000      -9.814049      -267.0538   23-A'
  28   1.0000      -9.813415      -267.0366   24-A'
  29   1.0000      -9.811944      -266.9966   25-A'
  30   1.0000      -9.811751      -266.9913   26-A'
  31   1.0000      -9.810934      -266.9691   27-A'
  32   1.0000      -9.810456      -266.9561   28-A'
  33   1.0000      -9.808216      -266.8951   29-A'
  34   1.0000      -9.807926      -266.8872   30-A'
  35   1.0000      -9.806012      -266.8352   31-A'
  36   1.0000      -9.802847      -266.7490   32-A'
  37   1.0000      -7.342029      -199.7868   33-A'
  38   1.0000      -7.341403      -199.7697   34-A'
  39   1.0000      -7.333939      -199.5666   35-A'
  40   1.0000      -7.333822      -199.5634   36-A'
  41   1.0000      -5.405269      -147.0848   37-A'
  42   1.0000      -5.404666      -147.0684   38-A'
  43   1.0000      -5.403688      -147.0418   39-A'
  44   1.0000      -5.403316      -147.0317   40-A'
  45   1.0000      -5.399655      -146.9321    6-A"
  46   1.0000      -5.399517      -146.9283   41-A'
  47   1.0000      -5.399069      -146.9161    7-A"
  48   1.0000      -5.398965      -146.9133   42-A'
  49   1.0000      -5.397913      -146.8847    8-A"
  50   1.0000      -5.397803      -146.8817   43-A'
  51   1.0000      -5.397439      -146.8718   44-A'
  52   1.0000      -5.397418      -146.8712    9-A"
  53   1.0000      -3.994027      -108.6830   45-A'
  54   1.0000      -2.507013       -68.2193   10-A"
  55   1.0000      -2.506522       -68.2059   46-A'
  56   1.0000      -2.505627       -68.1816   47-A'
  57   1.0000      -1.744483       -47.4698   48-A'
  58   1.0000      -1.743748       -47.4498   49-A'
  59   1.0000      -1.742551       -47.4172   50-A'
  60   1.0000      -1.742195       -47.4075   51-A'
  61   1.0000      -1.741027       -47.3758   52-A'
  62   1.0000      -1.740972       -47.3743   11-A"
  63   1.0000      -1.740429       -47.3595   53-A'
  64   1.0000      -1.740358       -47.3575   12-A"
  65   1.0000      -1.739391       -47.3312   54-A'
  66   1.0000      -1.739209       -47.3263   13-A"
  67   1.0000      -1.739061       -47.3223   55-A'
  68   1.0000      -1.738776       -47.3145   14-A"
  69   1.0000      -1.736114       -47.2421   56-A'
  70   1.0000      -1.736009       -47.2392   15-A"
  71   1.0000      -1.735552       -47.2268   57-A'
  72   1.0000      -1.735446       -47.2239   16-A"
  73   1.0000      -1.734336       -47.1937   17-A"
  74   1.0000      -1.734271       -47.1919   58-A'
  75   1.0000      -1.733901       -47.1819   18-A"
  76   1.0000      -1.733835       -47.1800   59-A'
  77   1.0000      -0.604826       -16.4581   60-A'
  78   1.0000      -0.602602       -16.3976   61-A'
  79   1.0000      -0.528770       -14.3886   62-A'
  80   1.0000      -0.523057       -14.2331   63-A'
  81   1.0000      -0.495950       -13.4955   64-A'
  82   1.0000      -0.494942       -13.4680   65-A'
  83   1.0000      -0.407006       -11.0752   66-A'
  84   1.0000      -0.400116       -10.8877   67-A'
  85   1.0000      -0.391499       -10.6532   68-A'
  86   1.0000      -0.382188       -10.3999   69-A'
  87   1.0000      -0.322328        -8.7710   70-A'
  88   1.0000      -0.319055        -8.6819   71-A'
  89   1.0000      -0.281062        -7.6481   72-A'
  90   1.0000      -0.271160        -7.3786   73-A'
  91   1.0000      -0.237639        -6.4665   74-A'
  92   1.0000      -0.227317        -6.1856   75-A'
  93   1.0000      -0.197560        -5.3759   76-A'
  94   1.0000      -0.192565        -5.2400   77-A'
  95   1.0000      -0.167610        -4.5609   78-A'
  96   1.0000      -0.160852        -4.3770   79-A'
  97   1.0000      -0.139219        -3.7883   80-A'
  98   1.0000      -0.134984        -3.6731   81-A'
  99   1.0000      -0.132338        -3.6011   19-A"
 100   1.0000      -0.130820        -3.5598   20-A"
 101   1.0000      -0.130189        -3.5426   82-A'
 102   1.0000      -0.105061        -2.8588   83-A'
 103   1.0000      -0.076096        -2.0707   84-A'
 104   1.0000      -0.070718        -1.9243   85-A'
 105   1.0000      -0.059067        -1.6073   86-A'
 106   1.0000      -0.054554        -1.4845   87-A'
 107   1.0000      -0.052725        -1.4347   21-A"
 108   1.0000      -0.049286        -1.3411   22-A"
 109   1.0000      -0.029967        -0.8154   23-A"
 110   1.0000      -0.024469        -0.6658   24-A"
 111   1.0000      -0.023690        -0.6446   88-A'
 112   1.0000      -0.002800        -0.0762   89-A'
 113   1.0000       0.008351         0.2272   25-A"
 114   1.0000       0.009236         0.2513   26-A"
 115   1.0000       0.010335         0.2812   90-A'
 116   1.0000       0.028335         0.7710   91-A'
 117   1.0000       0.031489         0.8569   92-A'
 118   1.0000       0.051445         1.3999   93-A'
 119   1.0000       0.058465         1.5909   27-A"
 120   1.0000       0.061876         1.6837   28-A"
 121   1.0000       0.070154         1.9090   29-A"
 122   1.0000       0.100683         2.7397   30-A"
 123   0.0000       0.145744         3.9659   94-A'
 124   0.0000       0.180826         4.9205   95-A'
 125   0.0000       0.182996         4.9796   96-A'
 126   0.0000       0.195519         5.3204   31-A"
 127   0.0000       0.200297         5.4504   97-A'

MULLIKEN ATOMIC CHARGES AND SPIN POPULATIONS
--------------------------------------------
   0 Cu:    0.638627    0.310555
   1 Se:   -0.708358    0.174851
   2 C :    0.245348   -0.003563
   3 Se:   -0.749178    0.173792
   4 C :    0.245009   -0.003042
   5 Se:   -0.754246    0.172462
   6 C :    0.215890   -0.003137
   7 Se:   -0.703523    0.172493
   8 C :    0.248696   -0.003801
   9 C :   -0.199056   -0.001208
  10 C :   -0.160618   -0.001558
  11 C :   -0.075445   -0.000157
  12 H :    0.095576    0.002375
  13 C :   -0.102853    0.000058
  14 H :    0.093118    0.002313
  15 H :    0.001289    0.001212
  16 H :   -0.014173    0.001710
  17 C :   -0.166367   -0.001114
  18 C :   -0.088783   -0.001541
  19 C :   -0.159729   -0.000164
  20 H :    0.091733    0.002483
  21 C :   -0.117392   -0.000681
  22 H :    0.093468    0.002597
  23 H :    0.015133    0.001552
  24 H :    0.015834    0.001514
Sum of atomic charges         :   -2.0000000

LOEWDIN ATOMIC CHARGES AND SPIN POPULATIONS
-------------------------------------------
   0 Cu:   -0.610151    0.391253
   1 Se:   -0.201775    0.123450
   2 C :    0.038536    0.011243
   3 Se:   -0.198017    0.123201
   4 C :    0.033976    0.011583
   5 Se:   -0.199812    0.123101
   6 C :    0.035818    0.011936
   7 Se:   -0.197070    0.121517
   8 C :    0.032300    0.011268
   9 C :    0.388868    0.007067
  10 C :    0.375821    0.006557
  11 C :    0.292332    0.000503
  12 H :   -0.471417    0.009962
  13 C :    0.296960    0.000765
  14 H :   -0.476693    0.010263
  15 H :   -0.392999    0.000414
  16 H :   -0.383429    0.000693
  17 C :    0.388340    0.007382
  18 C :    0.363120    0.006524
  19 C :    0.318598    0.000689
  20 H :   -0.469037    0.010367
  21 C :    0.308276    0.000382
  22 H :   -0.460451    0.008998
  23 H :   -0.412135    0.000521
  24 H :   -0.399959    0.000361

  Mayer bond orders larger than 0.100000
B(  0-Cu,  1-Se) :   0.5494 B(  0-Cu,  3-Se) :   0.5508 B(  0-Cu,  5-Se) :   0.5522
B(  0-Cu,  7-Se) :   0.5474 B(  1-Se,  2-C ) :   1.0470 B(  2-C ,  6-C ) :   1.1281
B(  2-C , 17-C ) :   1.2660 B(  3-Se,  4-C ) :   1.0312 B(  4-C ,  8-C ) :   1.1104
B(  4-C , 10-C ) :   1.2807 B(  5-Se,  6-C ) :   1.0331 B(  6-C , 18-C ) :   1.2584
B(  7-Se,  8-C ) :   1.0588 B(  8-C ,  9-C ) :   1.2761 B(  9-C , 13-C ) :   1.3631
B(  9-C , 14-H ) :   0.9650 B( 10-C , 11-C ) :   1.3509 B( 10-C , 12-H ) :   0.9596
B( 11-C , 13-C ) :   1.3190 B( 11-C , 15-H ) :   0.9961 B( 13-C , 16-H ) :   0.9968
B( 17-C , 19-C ) :   1.3840 B( 17-C , 20-H ) :   0.9639 B( 18-C , 21-C ) :   1.3636
B( 18-C , 22-H ) :   0.9569 B( 19-C , 21-C ) :   1.3153 B( 19-C , 23-H ) :   0.9952
B( 21-C , 24-H ) :   0.9967

FINAL SINGLE POINT ENERGY    -11627.116235433992

DIPOLE MOMENT
-------------
                                X             Y             Z
Electronic contribution:     -0.16168      -0.09665      -0.00000
Nuclear contribution   :      0.08617       0.07928       0.00000
                        -----------------------------------------
Total Dipole Moment    :     -0.07551      -0.01737      -0.00000
                        -----------------------------------------
Magnitude (a.u.)       :      0.07748
Magnitude (Debye)      :      0.19694

Rotational constants in cm-1:     0.017679     0.004095     0.003325
Rotational constants in MHz :   529.994811   122.755834    99.670457

                             ****ORCA TERMINATED NORMALLY****
TOTAL RUN TIME: 0 days 16 hours 52 minutes 57 seconds 389 msec
