                         Program Version 5.0.4 -  RELEASE  -
|  1> ! RIJCOSX nofrozencore ReducedPop printbasis
|  2> ! M06L ano-rcc-dzp autoaux
|  3>
|  4> %maxcore 7500
|  5> %basis
|  6> PCDTrimBas overlap
|  7> PCDTrimAuxJ Coulomb
|  8> PCDTrimAuxJK Coulomb
|  9> PCDTrimAuxC Coulomb
| 10> PCDThresh -1
| 11> end
| 12>
| 13> %basis
| 14> newgto Cu "ano-rcc-tzp" end
| 15> newgto Se "ano-rcc-tzp" end
| 16> end
| 17>
| 18> %pal
| 19> nprocs 8
| 20> end
| 21>
| 22> % sym SymThresh 1e-2 end
| 23> * xyz -2 2
| 24> Cu -6.986301112113395e-05 -0.00015940597621983584 -0.00016379833461451754
| 25> Se 1.9269268460399493 -1.3008990005445253 0.4501197685814179
| 26> C 3.043109295738662 -0.7773059420226022 -0.629029863483681
| 27> Se -1.376702854158286 -1.0507766769769966 1.6150997469889001
| 28> C -2.836869906427855 -0.3264911517328751 1.4509101826364559
| 29> Se 1.3790226569041326 1.0560697557522294 -1.6096608198612818
| 30> C 2.80353560376589 0.250432491045824 -1.529064604754034
| 31> Se -1.9246792448160563 1.3060273375786438 -0.4448501225778571
| 32> C -3.0759478341041357 0.7023784634931614 0.5520377927280538
| 33> C -4.32989400300391 1.3059205800678613 0.6113958740153498
| 34> C -3.8752402315874575 -0.6508092565920232 2.3208070593089225
| 35> C -5.152183695637251 -0.12995593136005976 2.292804385430869
| 36> H -3.6319803974888574 -1.3398203191169795 3.1339083699329753
| 37> C -5.391861567860645 0.8992043797099272 1.392165721629012
| 38> H -4.458987940510253 2.2192368031649266 0.024561544015970584
| 39> H -5.86808165334861 -0.3993865970090831 3.0763474816691216
| 40> H -6.309527818697389 1.4958834102243144 1.4175866219601712
| 41> C 4.345552562808066 -1.2701936288898685 -0.5746861519871864
| 42> C 3.8898537582163213 0.6841517097530361 -2.2865444598501377
| 43> C 5.377433019730303 -0.9321281213271446 -1.425996920348139
| 44> H 4.581522876264748 -1.9396507229599513 0.26272673323574547
| 45> C 5.139189696490207 0.10030982594323845 -2.323267117117001
| 46> H 3.7526734525018846 1.6152037394172123 -2.8509354757533956
| 47> H 6.386835359176484 -1.319492435097823 -1.2363338642735675
| 48> H 5.94871005525829 0.5833592477737062 -2.8873067008779674
| 49> *
| 50>
| 51> % eprnmr
| 52> gtensor true
| 53> Nuclei = all H {aiso,adip,aorb,fgrad,rho}
| 54> Nuclei = all Cu {aiso,adip,aorb,fgrad,rho}
| 55> end
| 56>
| 57>                          ****END OF INPUT****

CARTESIAN COORDINATES (ANGSTROEM)
---------------------------------
  Cu    -0.000222   -0.000088    0.000000
  Se    -0.640790    1.634880   -1.588883
  C     -1.204387    2.886002   -0.693488
  Se     0.648057   -1.632012   -1.588883
  C      1.099104   -2.927558   -0.693488
  Se    -0.640790    1.634880    1.588883
  C     -1.204387    2.886002    0.693488
  Se     0.648057   -1.632012    1.588883
  C      1.099104   -2.927558    0.693488
  C      1.626357   -4.054968    1.318862
  C      1.626357   -4.054968   -1.318862
  C      2.034947   -5.214969   -0.694220
  H      1.780582   -3.985323   -2.398899
  C      2.034947   -5.214969    0.694220
  H      1.780582   -3.985323    2.398899
  H      2.507864   -6.011123   -1.278516
  H      2.507864   -6.011123    1.278516
  C     -1.578195    4.073979   -1.318861
  C     -1.578195    4.073979    1.318861
  C     -2.078577    5.197748   -0.694220
  H     -1.393599    4.138069   -2.398898
  C     -2.078577    5.197748    0.694220
  H     -1.393599    4.138069    2.398898
  H     -2.256580    6.110306   -1.278516
  H     -2.256580    6.110306    1.278516

 Total Charge           Charge          ....   -2
 Multiplicity           Mult            ....    2
 Number of Electrons    NEL             ....  247
 Basis Dimension        Dim             ....  575

ORBITAL ENERGIES
----------------
                 SPIN UP ORBITALS
  NO   OCC          E(Eh)            E(eV)    Irrep
   0   1.0000    -443.561056    -12069.9100    1-A"
   1   1.0000    -443.560041    -12069.8823    2-A"
   2   1.0000    -443.546581    -12069.5161    1-A'
   3   1.0000    -443.546460    -12069.5128    2-A'
   4   1.0000    -318.187172     -8658.3131    3-A'
   5   1.0000     -56.369943     -1533.9041    3-A"
   6   1.0000     -56.369691     -1533.8973    4-A"
   7   1.0000     -56.357107     -1533.5548    4-A'
   8   1.0000     -56.356863     -1533.5482    5-A'
   9   1.0000     -51.286423     -1395.5745    5-A"
  10   1.0000     -51.286362     -1395.5729    6-A'
  11   1.0000     -51.286345     -1395.5724    6-A"
  12   1.0000     -51.286311     -1395.5715    7-A'
  13   1.0000     -51.285070     -1395.5377    7-A"
  14   1.0000     -51.285031     -1395.5366    8-A"
  15   1.0000     -51.285018     -1395.5363    8-A'
  16   1.0000     -51.284966     -1395.5349    9-A'
  17   1.0000     -51.284641     -1395.5260    9-A"
  18   1.0000     -51.284593     -1395.5247   10-A'
  19   1.0000     -51.284589     -1395.5246   10-A"
  20   1.0000     -51.284539     -1395.5232   11-A'
  21   1.0000     -38.027736     -1034.7873   12-A'
  22   1.0000     -33.529800      -912.3922   11-A"
  23   1.0000     -33.528999      -912.3704   13-A'
  24   1.0000     -33.517829      -912.0665   14-A'
  25   1.0000      -9.817815      -267.1563   15-A'
  26   1.0000      -9.817368      -267.1442   16-A'
  27   1.0000      -9.817368      -267.1442   12-A"
  28   1.0000      -9.816921      -267.1320   13-A"
  29   1.0000      -9.809682      -266.9350   17-A'
  30   1.0000      -9.809380      -266.9268   18-A'
  31   1.0000      -9.809345      -266.9258   14-A"
  32   1.0000      -9.809022      -266.9171   19-A'
  33   1.0000      -9.808967      -266.9156   15-A"
  34   1.0000      -9.808907      -266.9139   16-A"
  35   1.0000      -9.808406      -266.9003   20-A'
  36   1.0000      -9.808367      -266.8992   17-A"
  37   1.0000      -7.341311      -199.7672   18-A"
  38   1.0000      -7.341272      -199.7662   19-A"
  39   1.0000      -7.334049      -199.5696   21-A'
  40   1.0000      -7.333937      -199.5666   22-A'
  41   1.0000      -5.404411      -147.0615   20-A"
  42   1.0000      -5.404390      -147.0609   23-A'
  43   1.0000      -5.404305      -147.0586   21-A"
  44   1.0000      -5.404290      -147.0582   24-A'
  45   1.0000      -5.399073      -146.9162   22-A"
  46   1.0000      -5.399048      -146.9156   25-A'
  47   1.0000      -5.398984      -146.9138   23-A"
  48   1.0000      -5.398958      -146.9131   26-A'
  49   1.0000      -5.398740      -146.9072   24-A"
  50   1.0000      -5.398713      -146.9065   27-A'
  51   1.0000      -5.398646      -146.9046   25-A"
  52   1.0000      -5.398620      -146.9039   28-A'
  53   1.0000      -4.022030      -109.4450   29-A'
  54   1.0000      -2.541595       -69.1603   26-A"
  55   1.0000      -2.540635       -69.1342   30-A'
  56   1.0000      -2.517136       -68.4947   31-A'
  57   1.0000      -1.743446       -47.4416   32-A'
  58   1.0000      -1.743416       -47.4408   27-A"
  59   1.0000      -1.743371       -47.4395   33-A'
  60   1.0000      -1.743342       -47.4387   28-A"
  61   1.0000      -1.740691       -47.3666   34-A'
  62   1.0000      -1.740609       -47.3644   29-A"
  63   1.0000      -1.740591       -47.3639   35-A'
  64   1.0000      -1.740511       -47.3617   30-A"
  65   1.0000      -1.740002       -47.3479   36-A'
  66   1.0000      -1.739995       -47.3477   31-A"
  67   1.0000      -1.739885       -47.3447   37-A'
  68   1.0000      -1.739878       -47.3445   32-A"
  69   1.0000      -1.735622       -47.2287   38-A'
  70   1.0000      -1.735596       -47.2280   33-A"
  71   1.0000      -1.735586       -47.2277   39-A'
  72   1.0000      -1.735544       -47.2266   40-A'
  73   1.0000      -1.735522       -47.2260   34-A"
  74   1.0000      -1.735509       -47.2256   35-A"
  75   1.0000      -1.735488       -47.2250   41-A'
  76   1.0000      -1.735433       -47.2235   36-A"
  77   1.0000      -0.602867       -16.4048   42-A'
  78   1.0000      -0.602663       -16.3993   43-A'
  79   1.0000      -0.521877       -14.2010   44-A'
  80   1.0000      -0.521137       -14.1809   45-A'
  81   1.0000      -0.498785       -13.5726   37-A"
  82   1.0000      -0.498451       -13.5636   38-A"
  83   1.0000      -0.412801       -11.2329   39-A"
  84   1.0000      -0.411643       -11.2014   40-A"
  85   1.0000      -0.382986       -10.4216   46-A'
  86   1.0000      -0.378356       -10.2956   47-A'
  87   1.0000      -0.319753        -8.7009   48-A'
  88   1.0000      -0.317451        -8.6383   49-A'
  89   1.0000      -0.286285        -7.7902   41-A"
  90   1.0000      -0.282954        -7.6996   42-A"
  91   1.0000      -0.228762        -6.2249   50-A'
  92   1.0000      -0.222064        -6.0427   51-A'
  93   1.0000      -0.200640        -5.4597   52-A'
  94   1.0000      -0.199568        -5.4305   53-A'
  95   1.0000      -0.169064        -4.6005   43-A"
  96   1.0000      -0.164279        -4.4703   44-A"
  97   1.0000      -0.138383        -3.7656   45-A"
  98   1.0000      -0.137037        -3.7290   54-A'
  99   1.0000      -0.136529        -3.7151   46-A"
 100   1.0000      -0.130840        -3.5603   55-A'
 101   1.0000      -0.130761        -3.5582   56-A'
 102   1.0000      -0.110399        -3.0041   57-A'
 103   1.0000      -0.081934        -2.2295   58-A'
 104   1.0000      -0.071334        -1.9411   47-A"
 105   1.0000      -0.065664        -1.7868   48-A"
 106   1.0000      -0.062878        -1.7110   59-A'
 107   1.0000      -0.049186        -1.3384   60-A'
 108   1.0000      -0.048471        -1.3190   61-A'
 109   1.0000      -0.032337        -0.8799   49-A"
 110   1.0000      -0.030195        -0.8217   50-A"
 111   1.0000      -0.029757        -0.8097   62-A'
 112   1.0000      -0.025651        -0.6980   51-A"
 113   1.0000      -0.001755        -0.0477   52-A"
 114   1.0000      -0.001310        -0.0356   63-A'
 115   1.0000       0.000332         0.0090   64-A'
 116   1.0000       0.018960         0.5159   65-A'
 117   1.0000       0.020730         0.5641   66-A'
 118   1.0000       0.040283         1.0961   53-A"
 119   1.0000       0.054691         1.4882   54-A"
 120   1.0000       0.056141         1.5277   55-A"
 121   1.0000       0.070029         1.9056   67-A'
 122   1.0000       0.098898         2.6911   68-A'
 123   1.0000       0.116270         3.1639   56-A"
 124   0.0000       0.181423         4.9368   69-A'
 125   0.0000       0.181605         4.9417   70-A'
 126   0.0000       0.195953         5.3321   57-A"
 127   0.0000       0.196398         5.3443   58-A"
 128   0.0000       0.200790         5.4638   71-A'

                 SPIN DOWN ORBITALS
  NO   OCC          E(Eh)            E(eV)    Irrep
   0   1.0000    -443.560602    -12069.8976    1-A"
   1   1.0000    -443.559588    -12069.8700    2-A"
   2   1.0000    -443.546127    -12069.5037    1-A'
   3   1.0000    -443.546007    -12069.5004    2-A'
   4   1.0000    -318.187050     -8658.3098    3-A'
   5   1.0000     -56.369759     -1533.8991    3-A"
   6   1.0000     -56.369508     -1533.8923    4-A"
   7   1.0000     -56.356926     -1533.5499    4-A'
   8   1.0000     -56.356682     -1533.5433    5-A'
   9   1.0000     -51.286101     -1395.5658    5-A"
  10   1.0000     -51.286032     -1395.5639    6-A'
  11   1.0000     -51.286022     -1395.5636    6-A"
  12   1.0000     -51.285980     -1395.5625    7-A'
  13   1.0000     -51.284394     -1395.5193    7-A"
  14   1.0000     -51.284347     -1395.5180    8-A'
  15   1.0000     -51.284341     -1395.5179    8-A"
  16   1.0000     -51.284328     -1395.5175    9-A"
  17   1.0000     -51.284292     -1395.5165    9-A'
  18   1.0000     -51.284291     -1395.5165   10-A"
  19   1.0000     -51.284283     -1395.5163   10-A'
  20   1.0000     -51.284234     -1395.5149   11-A'
  21   1.0000     -38.013831     -1034.4089   12-A'
  22   1.0000     -33.516588      -912.0327   11-A"
  23   1.0000     -33.515787      -912.0109   13-A'
  24   1.0000     -33.513943      -911.9608   14-A'
  25   1.0000      -9.817763      -267.1549   15-A'
  26   1.0000      -9.817317      -267.1428   16-A'
  27   1.0000      -9.817316      -267.1428   12-A"
  28   1.0000      -9.816870      -267.1306   13-A"
  29   1.0000      -9.809689      -266.9352   17-A'
  30   1.0000      -9.809395      -266.9272   18-A'
  31   1.0000      -9.809311      -266.9249   14-A"
  32   1.0000      -9.808968      -266.9156   15-A"
  33   1.0000      -9.808913      -266.9141   19-A'
  34   1.0000      -9.808839      -266.9121   16-A"
  35   1.0000      -9.808290      -266.8971   20-A'
  36   1.0000      -9.808264      -266.8964   17-A"
  37   1.0000      -7.340910      -199.7563   18-A"
  38   1.0000      -7.340872      -199.7553   19-A"
  39   1.0000      -7.333642      -199.5585   21-A'
  40   1.0000      -7.333529      -199.5555   22-A'
  41   1.0000      -5.404047      -147.0516   20-A"
  42   1.0000      -5.404025      -147.0510   23-A'
  43   1.0000      -5.403941      -147.0487   21-A"
  44   1.0000      -5.403925      -147.0483   24-A'
  45   1.0000      -5.398434      -146.8989   22-A"
  46   1.0000      -5.398408      -146.8982   25-A'
  47   1.0000      -5.398333      -146.8961   23-A"
  48   1.0000      -5.398307      -146.8954   26-A'
  49   1.0000      -5.398238      -146.8935   24-A"
  50   1.0000      -5.398214      -146.8929   27-A'
  51   1.0000      -5.398158      -146.8913   25-A"
  52   1.0000      -5.398132      -146.8906   28-A'
  53   1.0000      -3.993776      -108.6762   29-A'
  54   1.0000      -2.506792       -68.2133   30-A'
  55   1.0000      -2.506318       -68.2004   26-A"
  56   1.0000      -2.505299       -68.1727   31-A'
  57   1.0000      -1.742996       -47.4293   32-A'
  58   1.0000      -1.742966       -47.4285   27-A"
  59   1.0000      -1.742922       -47.4273   33-A'
  60   1.0000      -1.742893       -47.4265   28-A"
  61   1.0000      -1.739796       -47.3422   34-A'
  62   1.0000      -1.739712       -47.3400   29-A"
  63   1.0000      -1.739697       -47.3396   35-A'
  64   1.0000      -1.739690       -47.3394   36-A'
  65   1.0000      -1.739682       -47.3392   30-A"
  66   1.0000      -1.739617       -47.3374   31-A"
  67   1.0000      -1.739571       -47.3361   37-A'
  68   1.0000      -1.739560       -47.3358   32-A"
  69   1.0000      -1.734851       -47.2077   38-A'
  70   1.0000      -1.734828       -47.2071   33-A"
  71   1.0000      -1.734780       -47.2058   39-A'
  72   1.0000      -1.734769       -47.2055   40-A'
  73   1.0000      -1.734742       -47.2047   34-A"
  74   1.0000      -1.734720       -47.2041   35-A"
  75   1.0000      -1.734687       -47.2032   41-A'
  76   1.0000      -1.734632       -47.2017   36-A"
  77   1.0000      -0.602059       -16.3829   42-A'
  78   1.0000      -0.601869       -16.3777   43-A'
  79   1.0000      -0.520727       -14.1697   44-A'
  80   1.0000      -0.520023       -14.1505   45-A'
  81   1.0000      -0.497072       -13.5260   37-A"
  82   1.0000      -0.496746       -13.5171   38-A"
  83   1.0000      -0.410121       -11.1600   39-A"
  84   1.0000      -0.408942       -11.1279   40-A"
  85   1.0000      -0.380450       -10.3526   46-A'
  86   1.0000      -0.376005       -10.2316   47-A'
  87   1.0000      -0.318020        -8.6538   48-A'
  88   1.0000      -0.315562        -8.5869   49-A'
  89   1.0000      -0.283862        -7.7243   41-A"
  90   1.0000      -0.280270        -7.6265   42-A"
  91   1.0000      -0.227634        -6.1942   50-A'
  92   1.0000      -0.221008        -6.0139   51-A'
  93   1.0000      -0.199336        -5.4242   52-A'
  94   1.0000      -0.198342        -5.3972   53-A'
  95   1.0000      -0.167668        -4.5625   43-A"
  96   1.0000      -0.162292        -4.4162   44-A"
  97   1.0000      -0.137481        -3.7410   45-A"
  98   1.0000      -0.135119        -3.6768   54-A'
  99   1.0000      -0.134754        -3.6668   46-A"
 100   1.0000      -0.130417        -3.5488   55-A'
 101   1.0000      -0.130336        -3.5466   56-A'
 102   1.0000      -0.108644        -2.9564   57-A'
 103   1.0000      -0.080605        -2.1934   58-A'
 104   1.0000      -0.069892        -1.9018   47-A"
 105   1.0000      -0.060730        -1.6525   59-A'
 106   1.0000      -0.054196        -1.4747   48-A"
 107   1.0000      -0.048053        -1.3076   60-A'
 108   1.0000      -0.047866        -1.3025   61-A'
 109   1.0000      -0.029791        -0.8107   49-A"
 110   1.0000      -0.024631        -0.6702   50-A"
 111   1.0000      -0.023365        -0.6358   62-A'
 112   1.0000      -0.002383        -0.0648   51-A"
 113   1.0000       0.007796         0.2121   52-A"
 114   1.0000       0.009914         0.2698   63-A'
 115   1.0000       0.010682         0.2907   64-A'
 116   1.0000       0.028915         0.7868   65-A'
 117   1.0000       0.031851         0.8667   66-A'
 118   1.0000       0.051216         1.3937   53-A"
 119   1.0000       0.056582         1.5397   54-A"
 120   1.0000       0.060072         1.6346   55-A"
 121   1.0000       0.071763         1.9528   67-A'
 122   1.0000       0.102159         2.7799   68-A'
 123   0.0000       0.146072         3.9748   56-A"
 124   0.0000       0.183288         4.9875   69-A'
 125   0.0000       0.183487         4.9929   70-A'
 126   0.0000       0.199208         5.4207   57-A"
 127   0.0000       0.199738         5.4352   58-A"

MULLIKEN ATOMIC CHARGES AND SPIN POPULATIONS
--------------------------------------------
   0 Cu:    0.637572    0.309883
   1 Se:   -0.727069    0.173500
   2 C :    0.219679   -0.003369
   3 Se:   -0.728785    0.173417
   4 C :    0.220207   -0.003350
   5 Se:   -0.727069    0.173500
   6 C :    0.219679   -0.003369
   7 Se:   -0.728785    0.173417
   8 C :    0.220207   -0.003350
   9 C :   -0.089887   -0.001213
  10 C :   -0.089887   -0.001213
  11 C :   -0.154032   -0.000683
  12 H :    0.078318    0.002657
  13 C :   -0.154032   -0.000683
  14 H :    0.078318    0.002657
  15 H :    0.014869    0.001634
  16 H :    0.014869    0.001634
  17 C :   -0.085642   -0.001089
  18 C :   -0.085642   -0.001089
  19 C :   -0.153321   -0.000682
  20 H :    0.073778    0.002592
  21 C :   -0.153321   -0.000682
  22 H :    0.073778    0.002592
  23 H :    0.013099    0.001646
  24 H :    0.013099    0.001646
Sum of atomic charges         :   -2.0000000

LOEWDIN ATOMIC CHARGES AND SPIN POPULATIONS
-------------------------------------------
   0 Cu:   -0.616667    0.390567
   1 Se:   -0.205636    0.123566
   2 C :    0.037293    0.011629
   3 Se:   -0.204913    0.123462
   4 C :    0.037535    0.011668
   5 Se:   -0.205636    0.123566
   6 C :    0.037293    0.011629
   7 Se:   -0.204913    0.123462
   8 C :    0.037535    0.011668
   9 C :    0.363875    0.007053
  10 C :    0.363875    0.007053
  11 C :    0.310972    0.000493
  12 H :   -0.447461    0.009223
  13 C :    0.310972    0.000493
  14 H :   -0.447461    0.009223
  15 H :   -0.405857    0.000421
  16 H :   -0.405857    0.000421
  17 C :    0.361561    0.007100
  18 C :    0.361561    0.007100
  19 C :    0.308195    0.000511
  20 H :   -0.443351    0.009159
  21 C :    0.308195    0.000511
  22 H :   -0.443351    0.009159
  23 H :   -0.403879    0.000431
  24 H :   -0.403879    0.000431

  Mayer bond orders larger than 0.100000
B(  0-Cu,  1-Se) :   0.5501 B(  0-Cu,  3-Se) :   0.5504 B(  0-Cu,  5-Se) :   0.5501
B(  0-Cu,  7-Se) :   0.5504 B(  1-Se,  2-C ) :   1.0371 B(  2-C ,  6-C ) :   1.1392
B(  2-C , 17-C ) :   1.2547 B(  3-Se,  4-C ) :   1.0371 B(  4-C ,  8-C ) :   1.1380
B(  4-C , 10-C ) :   1.2555 B(  5-Se,  6-C ) :   1.0371 B(  6-C , 18-C ) :   1.2547
B(  7-Se,  8-C ) :   1.0371 B(  8-C ,  9-C ) :   1.2555 B(  9-C , 13-C ) :   1.3796
B(  9-C , 14-H ) :   0.9676 B( 10-C , 11-C ) :   1.3796 B( 10-C , 12-H ) :   0.9676
B( 11-C , 13-C ) :   1.3112 B( 11-C , 15-H ) :   1.0002 B( 13-C , 16-H ) :   1.0002
B( 17-C , 19-C ) :   1.3800 B( 17-C , 20-H ) :   0.9701 B( 18-C , 21-C ) :   1.3800
B( 18-C , 22-H ) :   0.9701 B( 19-C , 21-C ) :   1.3106 B( 19-C , 23-H ) :   1.0015
B( 21-C , 24-H ) :   1.0015

FINAL SINGLE POINT ENERGY    -11627.132975499411

DIPOLE MOMENT
-------------
                                X             Y             Z
Electronic contribution:     -0.83712      -0.34253      -0.00000
Nuclear contribution   :      1.04925       0.41415       0.00000
                        -----------------------------------------
Total Dipole Moment    :      0.21213       0.07162      -0.00000
                        -----------------------------------------
Magnitude (a.u.)       :      0.22390
Magnitude (Debye)      :      0.56910

Rotational constants in cm-1:     0.017607     0.004097     0.003325
Rotational constants in MHz :   527.843109   122.837194    99.666039

                             ****ORCA TERMINATED NORMALLY****
TOTAL RUN TIME: 0 days 17 hours 5 minutes 8 seconds 599 msec
