                         Program Version 5.0.4 -  RELEASE  -
|  1> ! RIJCOSX nofrozencore ReducedPop printbasis
|  2> ! M06L ano-rcc-dzp autoaux
|  3>
|  4> %maxcore 7500
|  5> %basis
|  6> PCDTrimBas overlap
|  7> PCDTrimAuxJ Coulomb
|  8> PCDTrimAuxJK Coulomb
|  9> PCDTrimAuxC Coulomb
| 10> PCDThresh -1
| 11> end
| 12>
| 13> %basis
| 14> newgto Cu "ano-rcc-tzp" end
| 15> newgto Se "ano-rcc-tzp" end
| 16> end
| 17>
| 18> %pal
| 19> nprocs 8
| 20> end
| 21>
| 22> % sym SymThresh 1e-2 end
| 23> * xyz -2 2
| 24> Cu 0.000492432610965377 -8.454225502100372e-05 0.00015829002108087932
| 25> Se 1.493224308593259 -1.6915359541789328 0.7234118813374238
| 26> C 2.9496134353254932 -1.0181750504159874 1.0349419174826882
| 27> Se -1.8583370320160568 -1.4356803795305881 -0.2997314721524241
| 28> C -3.025926259366657 -0.4092484321022268 -0.815142508315067
| 29> Se 1.8729157540009733 1.425788377657275 0.30567100464453745
| 30> C 3.000139680416076 0.6292741543960537 0.7702855121148623
| 31> Se -1.4856838164284787 1.6946023010923144 -0.7217276902794736
| 32> C -2.9143747639615225 0.8403812565468969 -0.9944848580475609
| 33> C -4.10893368174746 1.5924663102049554 -1.471247405955057
| 34> C -4.409355287678351 -0.9443840914362982 -1.128789044883943
| 35> C -5.394267436857959 -0.34908831087628384 -1.517673187387658
| 36> H -4.333165735375885 -2.024110122434244 -0.9233828092668792
| 37> C -5.172135162412368 1.1906661412061814 -1.7138984713009604
| 38> H -3.883118978435689 2.6443510963273025 -1.5836478591461431
| 39> H -6.3647403825733715 -0.7908329011607322 -1.7264422876153351
| 40> H -6.143684938897862 1.6125119258378637 -2.0694573157198075
| 41> C 3.8698199257954244 -1.6270064937833946 1.407206743264244
| 42> C 4.166699519181953 1.0330329076198956 1.0428186758393165
| 43> C 5.294268080081858 -1.0466549079126672 1.7251750752586457
| 44> H 4.115625770801521 -2.7152425286786395 1.6636395637968608
| 45> C 5.562870835993358 0.13233469675141016 1.6037242127841886
| 46> H 4.4803304081478155 2.085035974658277 0.956069082512779
| 47> H 6.1945653237429585 -1.5752758759565606 2.078015289618579
| 48> H 6.334074740914935 1.0224670475209487 1.6781900927776903
| 49> *
| 50>
| 51> % eprnmr
| 52> gtensor true
| 53> Nuclei = all H {aiso,adip,aorb,fgrad,rho}
| 54> Nuclei = all Cu {aiso,adip,aorb,fgrad,rho}
| 55> end
| 56>
| 57>                          ****END OF INPUT****

CARTESIAN COORDINATES (ANGSTROEM)
---------------------------------
  Cu     0.000515   -0.000098    0.000000
  Se     1.595551   -1.751729    0.000000
  C      3.096447   -1.104546    0.000000
  Se    -1.901406   -1.410350    0.000000
  C     -3.141956   -0.341000    0.000000
  Se     1.916827    1.399963    0.000000
  C      3.109861    0.564736    0.000000
  Se    -1.587770    1.754654    0.000000
  C     -3.055512    0.923401    0.000000
  C     -4.317622    1.715223    0.000000
  C     -4.570150   -0.849806    0.000000
  C     -5.610168   -0.222095    0.000000
  H     -4.465094   -1.946514    0.000000
  C     -5.415452    1.333790    0.000000
  H     -4.107458    2.776316    0.000000
  H     -6.610464   -0.646298    0.000000
  H     -6.437424    1.785296    0.000000
  C      4.069392   -1.744401    0.000000
  C      4.315298    0.945628    0.000000
  C      5.539234   -1.190748    0.000000
  H      4.351317   -2.853885    0.000000
  C      5.790939   -0.001817    0.000000
  H      4.616926    2.004694    0.000000
  H      6.489533   -1.748782    0.000000
  H      6.573011    0.881925    0.000000

 Total Charge           Charge          ....   -2
 Multiplicity           Mult            ....    2
 Number of Electrons    NEL             ....  247
 Basis Dimension        Dim             ....  575

ORBITAL ENERGIES
----------------
                 SPIN UP ORBITALS
  NO   OCC          E(Eh)            E(eV)    Irrep
   0   1.0000    -443.579639    -12070.4156    1-A'
   1   1.0000    -443.557708    -12069.8188    2-A'
   2   1.0000    -443.541280    -12069.3718    3-A'
   3   1.0000    -443.540349    -12069.3465    4-A'
   4   1.0000    -318.185194     -8658.2593    5-A'
   5   1.0000     -56.379973     -1534.1771    6-A'
   6   1.0000     -56.367105     -1533.8269    7-A'
   7   1.0000     -56.352513     -1533.4298    8-A'
   8   1.0000     -56.352168     -1533.4204    9-A'
   9   1.0000     -51.291763     -1395.7198   10-A'
  10   1.0000     -51.291016     -1395.6995   11-A'
  11   1.0000     -51.290655     -1395.6897    1-A"
  12   1.0000     -51.285826     -1395.5583   12-A'
  13   1.0000     -51.284528     -1395.5229   13-A'
  14   1.0000     -51.283939     -1395.5069    2-A"
  15   1.0000     -51.281501     -1395.4406   14-A'
  16   1.0000     -51.280114     -1395.4028   15-A'
  17   1.0000     -51.279492     -1395.3859    3-A"
  18   1.0000     -51.277963     -1395.3443   16-A'
  19   1.0000     -51.276526     -1395.3052   17-A'
  20   1.0000     -51.275883     -1395.2877    4-A"
  21   1.0000     -38.025619     -1034.7297   18-A'
  22   1.0000     -33.527733      -912.3360   19-A'
  23   1.0000     -33.527012      -912.3164   20-A'
  24   1.0000     -33.515653      -912.0073    5-A"
  25   1.0000      -9.824427      -267.3362   21-A'
  26   1.0000      -9.817628      -267.1512   22-A'
  27   1.0000      -9.816763      -267.1277   23-A'
  28   1.0000      -9.812651      -267.0158   24-A'
  29   1.0000      -9.809819      -266.9388   25-A'
  30   1.0000      -9.804235      -266.7868   26-A'
  31   1.0000      -9.801013      -266.6991   27-A'
  32   1.0000      -9.799683      -266.6629   28-A'
  33   1.0000      -9.798340      -266.6264   29-A'
  34   1.0000      -9.796726      -266.5825   30-A'
  35   1.0000      -9.796186      -266.5678   31-A'
  36   1.0000      -9.786443      -266.3027   32-A'
  37   1.0000      -7.347277      -199.9296   33-A'
  38   1.0000      -7.339098      -199.7070   34-A'
  39   1.0000      -7.330222      -199.4655   35-A'
  40   1.0000      -7.328697      -199.4240   36-A'
  41   1.0000      -5.408643      -147.1766   37-A'
  42   1.0000      -5.403460      -147.0356   38-A'
  43   1.0000      -5.403216      -147.0290   39-A'
  44   1.0000      -5.402692      -147.0147    6-A"
  45   1.0000      -5.400526      -146.9558   40-A'
  46   1.0000      -5.398302      -146.8953   41-A'
  47   1.0000      -5.397421      -146.8713    7-A"
  48   1.0000      -5.397119      -146.8631   42-A'
  49   1.0000      -5.395196      -146.8108   43-A'
  50   1.0000      -5.394226      -146.7844    8-A"
  51   1.0000      -5.391439      -146.7085   44-A'
  52   1.0000      -5.390232      -146.6757    9-A"
  53   1.0000      -4.019832      -109.3852   45-A'
  54   1.0000      -2.539450       -69.1019   46-A'
  55   1.0000      -2.538556       -69.0776   47-A'
  56   1.0000      -2.514752       -68.4299   10-A"
  57   1.0000      -1.751865       -47.6707   48-A'
  58   1.0000      -1.745316       -47.4925   49-A'
  59   1.0000      -1.744610       -47.4732   11-A"
  60   1.0000      -1.742424       -47.4138   50-A'
  61   1.0000      -1.739823       -47.3430   51-A'
  62   1.0000      -1.739812       -47.3427   52-A'
  63   1.0000      -1.739728       -47.3404   12-A"
  64   1.0000      -1.738853       -47.3166   53-A'
  65   1.0000      -1.738804       -47.3153   13-A"
  66   1.0000      -1.736806       -47.2609   54-A'
  67   1.0000      -1.736134       -47.2426   55-A'
  68   1.0000      -1.735604       -47.2282   14-A"
  69   1.0000      -1.734551       -47.1995   56-A'
  70   1.0000      -1.734418       -47.1959   15-A"
  71   1.0000      -1.733352       -47.1669   57-A'
  72   1.0000      -1.732087       -47.1325   16-A"
  73   1.0000      -1.731354       -47.1125   17-A"
  74   1.0000      -1.731289       -47.1108   58-A'
  75   1.0000      -1.727431       -47.0058   18-A"
  76   1.0000      -1.727361       -47.0039   59-A'
  77   1.0000      -0.614406       -16.7188   60-A'
  78   1.0000      -0.595030       -16.1916   61-A'
  79   1.0000      -0.539727       -14.6867   62-A'
  80   1.0000      -0.535592       -14.5742   63-A'
  81   1.0000      -0.515216       -14.0197   64-A'
  82   1.0000      -0.512113       -13.9353   65-A'
  83   1.0000      -0.426854       -11.6153   66-A'
  84   1.0000      -0.399423       -10.8689   67-A'
  85   1.0000      -0.382990       -10.4217   68-A'
  86   1.0000      -0.367790       -10.0081   69-A'
  87   1.0000      -0.328723        -8.9450   70-A'
  88   1.0000      -0.287801        -7.8315   71-A'
  89   1.0000      -0.278593        -7.5809   72-A'
  90   1.0000      -0.277227        -7.5437   73-A'
  91   1.0000      -0.246011        -6.6943   74-A'
  92   1.0000      -0.216292        -5.8856   75-A'
  93   1.0000      -0.211836        -5.7643   76-A'
  94   1.0000      -0.199908        -5.4398   77-A'
  95   1.0000      -0.182057        -4.9540   78-A'
  96   1.0000      -0.159779        -4.3478   79-A'
  97   1.0000      -0.154204        -4.1961   80-A'
  98   1.0000      -0.141154        -3.8410   81-A'
  99   1.0000      -0.140719        -3.8292   19-A"
 100   1.0000      -0.128372        -3.4932   20-A"
 101   1.0000      -0.116925        -3.1817   82-A'
 102   1.0000      -0.102149        -2.7796   83-A'
 103   1.0000      -0.066691        -1.8148   21-A"
 104   1.0000      -0.062685        -1.7057   22-A"
 105   1.0000      -0.062532        -1.7016   84-A'
 106   1.0000      -0.058965        -1.6045   85-A'
 107   1.0000      -0.049288        -1.3412   86-A'
 108   1.0000      -0.043755        -1.1906   23-A"
 109   1.0000      -0.039411        -1.0724   24-A"
 110   1.0000      -0.027911        -0.7595   87-A'
 111   1.0000      -0.026139        -0.7113   88-A'
 112   1.0000      -0.018343        -0.4991   89-A'
 113   1.0000      -0.004998        -0.1360   25-A"
 114   1.0000      -0.000591        -0.0161   26-A"
 115   1.0000       0.003836         0.1044   90-A'
 116   1.0000       0.020224         0.5503   91-A'
 117   1.0000       0.038749         1.0544   92-A'
 118   1.0000       0.039889         1.0854   27-A"
 119   1.0000       0.044725         1.2170   93-A'
 120   1.0000       0.066542         1.8107   28-A"
 121   1.0000       0.082745         2.2516   29-A"
 122   1.0000       0.099642         2.7114   30-A"
 123   1.0000       0.115666         3.1474   94-A'
 124   0.0000       0.173639         4.7250   95-A'
 125   0.0000       0.184237         5.0133   96-A'
 126   0.0000       0.193111         5.2548   97-A'
 127   0.0000       0.193646         5.2694   98-A'
 128   0.0000       0.216587         5.8936   31-A"

                 SPIN DOWN ORBITALS
  NO   OCC          E(Eh)            E(eV)    Irrep
   0   1.0000    -443.579228    -12070.4044    1-A'
   1   1.0000    -443.557263    -12069.8067    2-A'
   2   1.0000    -443.540870    -12069.3607    3-A'
   3   1.0000    -443.539908    -12069.3345    4-A'
   4   1.0000    -318.185070     -8658.2559    5-A'
   5   1.0000     -56.379802     -1534.1724    6-A'
   6   1.0000     -56.366924     -1533.8220    7-A'
   7   1.0000     -56.352336     -1533.4250    8-A'
   8   1.0000     -56.351999     -1533.4158    9-A'
   9   1.0000     -51.291373     -1395.7092   10-A'
  10   1.0000     -51.290438     -1395.6838   11-A'
  11   1.0000     -51.290428     -1395.6835    1-A"
  12   1.0000     -51.285512     -1395.5497   12-A'
  13   1.0000     -51.283795     -1395.5030   13-A'
  14   1.0000     -51.283693     -1395.5002    2-A"
  15   1.0000     -51.281196     -1395.4323   14-A'
  16   1.0000     -51.279384     -1395.3830   15-A'
  17   1.0000     -51.279250     -1395.3793    3-A"
  18   1.0000     -51.277644     -1395.3356   16-A'
  19   1.0000     -51.275880     -1395.2876   17-A'
  20   1.0000     -51.275657     -1395.2816    4-A"
  21   1.0000     -38.011989     -1034.3588   18-A'
  22   1.0000     -33.514778      -911.9835   19-A'
  23   1.0000     -33.514053      -911.9637   20-A'
  24   1.0000     -33.511857      -911.9040    5-A"
  25   1.0000      -9.824201      -267.3301   21-A'
  26   1.0000      -9.817599      -267.1505   22-A'
  27   1.0000      -9.816728      -267.1268   23-A'
  28   1.0000      -9.812388      -267.0087   24-A'
  29   1.0000      -9.809619      -266.9333   25-A'
  30   1.0000      -9.804095      -266.7830   26-A'
  31   1.0000      -9.800836      -266.6943   27-A'
  32   1.0000      -9.799490      -266.6577   28-A'
  33   1.0000      -9.798400      -266.6280   29-A'
  34   1.0000      -9.796796      -266.5844   30-A'
  35   1.0000      -9.796141      -266.5665   31-A'
  36   1.0000      -9.786379      -266.3009   32-A'
  37   1.0000      -7.346909      -199.9196   33-A'
  38   1.0000      -7.338705      -199.6963   34-A'
  39   1.0000      -7.329826      -199.4547   35-A'
  40   1.0000      -7.328323      -199.4138   36-A'
  41   1.0000      -5.408284      -147.1669   37-A'
  42   1.0000      -5.403111      -147.0261   38-A'
  43   1.0000      -5.402482      -147.0090   39-A'
  44   1.0000      -5.402393      -147.0066    6-A"
  45   1.0000      -5.400183      -146.9464   40-A'
  46   1.0000      -5.397480      -146.8729   41-A'
  47   1.0000      -5.397118      -146.8631    7-A"
  48   1.0000      -5.396770      -146.8536   42-A'
  49   1.0000      -5.394380      -146.7885   43-A'
  50   1.0000      -5.393930      -146.7763    8-A"
  51   1.0000      -5.390697      -146.6883   44-A'
  52   1.0000      -5.389942      -146.6678    9-A"
  53   1.0000      -3.991987      -108.6275   45-A'
  54   1.0000      -2.504754       -68.1578   46-A'
  55   1.0000      -2.504629       -68.1544   10-A"
  56   1.0000      -2.503662       -68.1281   47-A'
  57   1.0000      -1.751411       -47.6583   48-A'
  58   1.0000      -1.744475       -47.4696   49-A'
  59   1.0000      -1.744295       -47.4647   11-A"
  60   1.0000      -1.741980       -47.4017   50-A'
  61   1.0000      -1.739094       -47.3232   51-A'
  62   1.0000      -1.739017       -47.3211   12-A"
  63   1.0000      -1.738934       -47.3188   52-A'
  64   1.0000      -1.738515       -47.3074   13-A"
  65   1.0000      -1.738406       -47.3044   53-A'
  66   1.0000      -1.735943       -47.2374   54-A'
  67   1.0000      -1.735674       -47.2301   55-A'
  68   1.0000      -1.735325       -47.2206   14-A"
  69   1.0000      -1.733778       -47.1785   56-A'
  70   1.0000      -1.733661       -47.1753   15-A"
  71   1.0000      -1.732523       -47.1443   57-A'
  72   1.0000      -1.731783       -47.1242   16-A"
  73   1.0000      -1.730606       -47.0922   17-A"
  74   1.0000      -1.730526       -47.0900   58-A'
  75   1.0000      -1.726736       -46.9869   18-A"
  76   1.0000      -1.726656       -46.9847   59-A'
  77   1.0000      -0.613928       -16.7058   60-A'
  78   1.0000      -0.593138       -16.1401   61-A'
  79   1.0000      -0.537496       -14.6260   62-A'
  80   1.0000      -0.534454       -14.5432   63-A'
  81   1.0000      -0.513650       -13.9771   64-A'
  82   1.0000      -0.511437       -13.9169   65-A'
  83   1.0000      -0.423204       -11.5160   66-A'
  84   1.0000      -0.396824       -10.7981   67-A'
  85   1.0000      -0.380178       -10.3452   68-A'
  86   1.0000      -0.365062        -9.9338   69-A'
  87   1.0000      -0.327210        -8.9038   70-A'
  88   1.0000      -0.285717        -7.7748   71-A'
  89   1.0000      -0.276070        -7.5123   72-A'
  90   1.0000      -0.275494        -7.4966   73-A'
  91   1.0000      -0.245046        -6.6681   74-A'
  92   1.0000      -0.214456        -5.8356   75-A'
  93   1.0000      -0.210695        -5.7333   76-A'
  94   1.0000      -0.198598        -5.4041   77-A'
  95   1.0000      -0.181237        -4.9317   78-A'
  96   1.0000      -0.158072        -4.3014   79-A'
  97   1.0000      -0.152280        -4.1437   80-A'
  98   1.0000      -0.140491        -3.8230   19-A"
  99   1.0000      -0.139020        -3.7829   81-A'
 100   1.0000      -0.127520        -3.4700   20-A"
 101   1.0000      -0.112057        -3.0492   82-A'
 102   1.0000      -0.099190        -2.6991   83-A'
 103   1.0000      -0.065529        -1.7831   21-A"
 104   1.0000      -0.061920        -1.6849   22-A"
 105   1.0000      -0.060517        -1.6467   84-A'
 106   1.0000      -0.049930        -1.3587   85-A'
 107   1.0000      -0.046819        -1.2740   86-A'
 108   1.0000      -0.042693        -1.1617   23-A"
 109   1.0000      -0.038890        -1.0582   24-A"
 110   1.0000      -0.024149        -0.6571   87-A'
 111   1.0000      -0.013359        -0.3635   88-A'
 112   1.0000       0.001079         0.0294   89-A'
 113   1.0000       0.004889         0.1330   25-A"
 114   1.0000       0.010607         0.2886   26-A"
 115   1.0000       0.014235         0.3874   90-A'
 116   1.0000       0.032359         0.8805   91-A'
 117   1.0000       0.044088         1.1997   27-A"
 118   1.0000       0.044755         1.2178   92-A'
 119   1.0000       0.054844         1.4924   93-A'
 120   1.0000       0.068468         1.8631   28-A"
 121   1.0000       0.084821         2.3081   29-A"
 122   1.0000       0.102700         2.7946   30-A"
 123   0.0000       0.143546         3.9061   94-A'
 124   0.0000       0.174162         4.7392   95-A'
 125   0.0000       0.188153         5.1199   96-A'
 126   0.0000       0.194199         5.2844   97-A'
 127   0.0000       0.199780         5.4363   98-A'

MULLIKEN ATOMIC CHARGES AND SPIN POPULATIONS
--------------------------------------------
   0 Cu:    0.622158    0.308965
   1 Se:   -0.756992    0.151502
   2 C :    0.178177    0.017200
   3 Se:   -0.767489    0.174740
   4 C :    0.243580   -0.007575
   5 Se:   -0.487853    0.141582
   6 C :    0.087690    0.004862
   7 Se:   -0.813093    0.175216
   8 C :    0.241009   -0.005640
   9 C :   -0.057991    0.002136
  10 C :   -0.023007    0.006085
  11 C :   -0.192812   -0.001683
  12 H :    0.074630    0.001241
  13 C :   -0.093622   -0.001439
  14 H :    0.076678    0.002574
  15 H :    0.012959    0.000701
  16 H :   -0.008493    0.000306
  17 C :   -0.042956   -0.013301
  18 C :   -0.199148   -0.009328
  19 C :   -0.147054    0.007878
  20 H :    0.027215    0.014554
  21 C :   -0.032797    0.009184
  22 H :    0.066081    0.005045
  23 H :    0.013528    0.007092
  24 H :   -0.020398    0.008102
Sum of atomic charges         :   -2.0000000

LOEWDIN ATOMIC CHARGES AND SPIN POPULATIONS
-------------------------------------------
   0 Cu:   -0.599561    0.383275
   1 Se:   -0.224030    0.111162
   2 C :    0.020412    0.021294
   3 Se:   -0.182444    0.122335
   4 C :    0.020192    0.009662
   5 Se:   -0.186906    0.102268
   6 C :   -0.075776    0.022578
   7 Se:   -0.196197    0.123658
   8 C :    0.049919    0.008504
   9 C :    0.320266    0.007414
  10 C :    0.350269    0.009045
  11 C :    0.332308   -0.000047
  12 H :   -0.458645    0.012760
  13 C :    0.306278   -0.000170
  14 H :   -0.449383    0.011014
  15 H :   -0.391206   -0.000016
  16 H :   -0.361466   -0.000037
  17 C :    0.317568    0.007260
  18 C :    0.405173    0.005088
  19 C :    0.287057    0.008737
  20 H :   -0.382922    0.010008
  21 C :    0.321818    0.009275
  22 H :   -0.459411    0.005374
  23 H :   -0.423866    0.004372
  24 H :   -0.339448    0.005187

  Mayer bond orders larger than 0.100000
B(  0-Cu,  1-Se) :   0.5562 B(  0-Cu,  3-Se) :   0.5522 B(  0-Cu,  5-Se) :   0.5325
B(  0-Cu,  7-Se) :   0.5604 B(  1-Se,  2-C ) :   1.0621 B(  2-C ,  6-C ) :   0.8930
B(  2-C , 17-C ) :   1.5519 B(  3-Se,  4-C ) :   1.0160 B(  4-C ,  8-C ) :   1.2708
B(  4-C , 10-C ) :   1.0687 B(  5-Se,  6-C ) :   1.2949 B(  5-Se, 18-C ) :   0.1314
B(  6-C , 18-C ) :   1.4584 B(  7-Se,  8-C ) :   0.9620 B(  8-C ,  9-C ) :   1.0838
B(  9-C , 13-C ) :   1.6340 B(  9-C , 14-H ) :   0.9601 B( 10-C , 11-C ) :   1.6372
B( 10-C , 12-H ) :   0.9455 B( 11-C , 13-C ) :   1.0796 B( 11-C , 15-H ) :   0.9959
B( 13-C , 16-H ) :   0.9732 B( 17-C , 19-C ) :   1.0449 B( 17-C , 20-H ) :   0.9441
B( 18-C , 21-C ) :   0.9883 B( 18-C , 22-H ) :   0.9708 B( 19-C , 21-C ) :   1.6640
B( 19-C , 23-H ) :   0.9948 B( 21-C , 24-H ) :   0.9432

FINAL SINGLE POINT ENERGY    -11626.758845882749

DIPOLE MOMENT
-------------
                                X             Y             Z
Electronic contribution:     -0.97754      -0.13637      -0.00000
Nuclear contribution   :      0.14362       0.31441       0.00000
                        -----------------------------------------
Total Dipole Moment    :     -0.83392       0.17804      -0.00000
                        -----------------------------------------
Magnitude (a.u.)       :      0.85271
Magnitude (Debye)      :      2.16742

Rotational constants in cm-1:     0.017580     0.004095     0.003322
Rotational constants in MHz :   527.028225   122.778843    99.580196

                             ****ORCA TERMINATED NORMALLY****
TOTAL RUN TIME: 0 days 16 hours 55 minutes 56 seconds 941 msec
