                         Program Version 5.0.4 -  RELEASE  -
|  1> ! RIJCOSX nofrozencore ReducedPop printbasis
|  2> ! M06L ano-rcc-dzp autoaux
|  3>
|  4> %maxcore 7500
|  5> %basis
|  6> PCDTrimBas overlap
|  7> PCDTrimAuxJ Coulomb
|  8> PCDTrimAuxJK Coulomb
|  9> PCDTrimAuxC Coulomb
| 10> PCDThresh -1
| 11> end
| 12>
| 13> %basis
| 14> newgto Cu "ano-rcc-tzp" end
| 15> newgto Se "ano-rcc-tzp" end
| 16> end
| 17>
| 18> %pal
| 19> nprocs 8
| 20> end
| 21>
| 22> % sym SymThresh 1e-2 end
| 23> * xyz -2 2
| 24> Cu 7.0555243160582676e-06 -9.988737556161375e-06 1.031720401366774e-05
| 25> Se -0.06406191652440871 1.6763236659513143 1.6714725758350826
| 26> C -1.5202304777737472 1.4843953470109321 2.3968566115456507
| 27> Se 2.1203136748200677 0.6073378742744342 -0.8621989101441907
| 28> C 2.395295179248957 -0.4559326996278248 -2.076412120260761
| 29> Se -2.1190308923053545 -0.6091539516213638 0.8640747067989257
| 30> C -2.417188471201686 0.48692775226459356 2.04439783620635
| 31> Se 0.06534205321750353 -1.6781359975216603 -1.6696006481318528
| 32> C 1.4983918661344677 -1.4534777070902236 -2.4287909372689556
| 33> C 1.8649871728470946 -2.2790302804786413 -3.4863268821431883
| 34> C 3.5707241678307726 -0.3819521346197943 -2.8161450316684
| 35> C 3.933300055660271 -1.2082526218271292 -3.858452781713258
| 36> H 4.271133469601653 0.3873148467669004 -2.5255287829364508
| 37> C 3.0354264626167202 -2.20681778163536 -4.211236378971161
| 38> H 1.1684931789887842 -3.0632423881037267 -3.744603699994735
| 39> H 4.87877907983803 -1.0649054356573329 -4.370956054532148
| 40> H 3.225257903772729 -2.903996591241477 -5.020585936936587
| 41> C -1.8332520468569307 2.2341012439003 3.5327343866605663
| 42> C -3.5390117908814394 0.3370558807853352 2.8625176395835825
| 43> C -3.0435171255690867 2.218271422784966 4.199407135782889
| 44> H -1.315745940197348 3.27171295956569 3.5292778488022316
| 45> C -3.9413700711538366 1.2196781840499111 3.846650469108223
| 46> H -4.418151012243242 -0.17917670577795192 2.3105452579135015
| 47> H -3.199849196829524 2.8680246501173507 5.057740767890808
| 48> H -4.853466087731406 1.029067942628917 4.407969983465028
| 49> *
| 50>
| 51> % eprnmr
| 52> gtensor true
| 53> Nuclei = all H {aiso,adip,aorb,fgrad,rho}
| 54> Nuclei = all Cu {aiso,adip,aorb,fgrad,rho}
| 55> end
| 56>
| 57>                          ****END OF INPUT****

CARTESIAN COORDINATES (ANGSTROEM)
---------------------------------
  Cu     0.000012    0.000011    0.000000
  Se     1.171589   -1.307981    1.588883
  C      2.043597   -2.366906    0.693488
  Se    -1.169421    1.309916    1.588883
  C     -2.080590    2.333886    0.693488
  Se     1.171589   -1.307981   -1.588883
  C      2.043597   -2.366906   -0.693488
  Se    -1.169421    1.309916   -1.588883
  C     -2.080590    2.333886   -0.693488
  C     -2.911454    3.257402   -1.318862
  C     -2.911454    3.257402    1.318862
  C     -3.727162    4.176685    0.694220
  H     -2.894118    3.261940    2.398899
  C     -3.727162    4.176685   -0.694220
  H     -2.894118    3.261940   -2.398899
  H     -4.338155    4.856704    1.278516
  H     -4.338155    4.856704   -1.278516
  C      2.965125   -3.209496    1.318862
  C      2.965125   -3.209496   -1.318862
  C      3.713491   -4.188888    0.694220
  H      2.645195   -3.484131    2.398899
  C      3.713491   -4.188888   -0.694220
  H      2.645195   -3.484131   -2.398899
  H      4.381060   -4.818406    1.278516
  H      4.381060   -4.818406   -1.278516

 Total Charge           Charge          ....   -2
 Multiplicity           Mult            ....    2
 Number of Electrons    NEL             ....  247
 Basis Dimension        Dim             ....  575

ORBITAL ENERGIES
----------------
                 SPIN UP ORBITALS
  NO   OCC          E(Eh)            E(eV)    Irrep
   0   1.0000    -443.561863    -12069.9319    1-A"
   1   1.0000    -443.558156    -12069.8310    2-A"
   2   1.0000    -443.547457    -12069.5399    1-A'
   3   1.0000    -443.545396    -12069.4838    2-A'
   4   1.0000    -318.187681     -8658.3270    3-A'
   5   1.0000     -56.370684     -1533.9243    3-A"
   6   1.0000     -56.368669     -1533.8695    4-A"
   7   1.0000     -56.357620     -1533.5688    4-A'
   8   1.0000     -56.356849     -1533.5478    5-A'
   9   1.0000     -51.286813     -1395.5851    5-A"
  10   1.0000     -51.286749     -1395.5834    6-A'
  11   1.0000     -51.286743     -1395.5832    6-A"
  12   1.0000     -51.286713     -1395.5824    7-A'
  13   1.0000     -51.285464     -1395.5484    7-A"
  14   1.0000     -51.285435     -1395.5476    8-A"
  15   1.0000     -51.285412     -1395.5470    8-A'
  16   1.0000     -51.285368     -1395.5458    9-A'
  17   1.0000     -51.285079     -1395.5379    9-A"
  18   1.0000     -51.285032     -1395.5367   10-A'
  19   1.0000     -51.284995     -1395.5357   10-A"
  20   1.0000     -51.284946     -1395.5343   11-A'
  21   1.0000     -38.028247     -1034.8012   12-A'
  22   1.0000     -33.530297      -912.4058   11-A"
  23   1.0000     -33.529512      -912.3844   13-A'
  24   1.0000     -33.518370      -912.0812   14-A'
  25   1.0000      -9.817305      -267.1424   15-A'
  26   1.0000      -9.816860      -267.1303   12-A"
  27   1.0000      -9.816471      -267.1197   16-A'
  28   1.0000      -9.816022      -267.1076   13-A"
  29   1.0000      -9.812936      -267.0236   14-A"
  30   1.0000      -9.812935      -267.0235   17-A'
  31   1.0000      -9.811161      -266.9753   18-A'
  32   1.0000      -9.810709      -266.9630   15-A"
  33   1.0000      -9.809074      -266.9185   19-A'
  34   1.0000      -9.808624      -266.9062   16-A"
  35   1.0000      -9.807032      -266.8629   20-A'
  36   1.0000      -9.807030      -266.8629   17-A"
  37   1.0000      -7.341741      -199.7789   18-A"
  38   1.0000      -7.341498      -199.7723   19-A"
  39   1.0000      -7.334651      -199.5860   21-A'
  40   1.0000      -7.334341      -199.5776   22-A'
  41   1.0000      -5.405385      -147.0880   20-A"
  42   1.0000      -5.405366      -147.0875   23-A'
  43   1.0000      -5.404576      -147.0660   21-A"
  44   1.0000      -5.404558      -147.0655   24-A'
  45   1.0000      -5.400017      -146.9419   22-A"
  46   1.0000      -5.399991      -146.9412   25-A'
  47   1.0000      -5.399785      -146.9356   23-A"
  48   1.0000      -5.399759      -146.9349   26-A'
  49   1.0000      -5.399241      -146.9208   24-A"
  50   1.0000      -5.399216      -146.9201   27-A'
  51   1.0000      -5.398895      -146.9114   25-A"
  52   1.0000      -5.398869      -146.9107   28-A'
  53   1.0000      -4.022562      -109.4595   29-A'
  54   1.0000      -2.542104       -69.1742   26-A"
  55   1.0000      -2.541168       -69.1487   30-A'
  56   1.0000      -2.517702       -68.5101   31-A'
  57   1.0000      -1.744428       -47.4683   32-A'
  58   1.0000      -1.744400       -47.4675   27-A"
  59   1.0000      -1.743612       -47.4461   33-A'
  60   1.0000      -1.743583       -47.4453   28-A"
  61   1.0000      -1.741689       -47.3938   34-A'
  62   1.0000      -1.741608       -47.3916   29-A"
  63   1.0000      -1.741032       -47.3759   35-A'
  64   1.0000      -1.741024       -47.3757   30-A"
  65   1.0000      -1.740890       -47.3720   36-A'
  66   1.0000      -1.740808       -47.3698   31-A"
  67   1.0000      -1.740125       -47.3512   37-A'
  68   1.0000      -1.740118       -47.3510   32-A"
  69   1.0000      -1.736673       -47.2573   38-A'
  70   1.0000      -1.736616       -47.2557   33-A"
  71   1.0000      -1.736602       -47.2554   39-A'
  72   1.0000      -1.736568       -47.2544   34-A"
  73   1.0000      -1.735794       -47.2334   40-A'
  74   1.0000      -1.735739       -47.2318   35-A"
  75   1.0000      -1.735728       -47.2316   41-A'
  76   1.0000      -1.735694       -47.2306   36-A"
  77   1.0000      -0.603359       -16.4182   42-A'
  78   1.0000      -0.603141       -16.4123   43-A'
  79   1.0000      -0.522523       -14.2186   44-A'
  80   1.0000      -0.521693       -14.1960   45-A'
  81   1.0000      -0.499891       -13.6027   37-A"
  82   1.0000      -0.497225       -13.5302   38-A"
  83   1.0000      -0.413435       -11.2501   39-A"
  84   1.0000      -0.411766       -11.2047   40-A"
  85   1.0000      -0.383832       -10.4446   46-A'
  86   1.0000      -0.379131       -10.3167   47-A'
  87   1.0000      -0.320518        -8.7217   48-A'
  88   1.0000      -0.312426        -8.5015   49-A'
  89   1.0000      -0.287634        -7.8269   41-A"
  90   1.0000      -0.283930        -7.7261   42-A"
  91   1.0000      -0.229433        -6.2432   50-A'
  92   1.0000      -0.221906        -6.0384   51-A'
  93   1.0000      -0.200759        -5.4629   52-A'
  94   1.0000      -0.198926        -5.4131   53-A'
  95   1.0000      -0.169542        -4.6135   43-A"
  96   1.0000      -0.159805        -4.3485   44-A"
  97   1.0000      -0.140937        -3.8351   54-A'
  98   1.0000      -0.138527        -3.7695   45-A"
  99   1.0000      -0.134579        -3.6621   55-A'
 100   1.0000      -0.131063        -3.5664   56-A'
 101   1.0000      -0.127709        -3.4751   46-A"
 102   1.0000      -0.107768        -2.9325   57-A'
 103   1.0000      -0.077473        -2.1082   58-A'
 104   1.0000      -0.072189        -1.9644   47-A"
 105   1.0000      -0.066434        -1.8078   48-A"
 106   1.0000      -0.061894        -1.6842   59-A'
 107   1.0000      -0.048903        -1.3307   60-A'
 108   1.0000      -0.043044        -1.1713   61-A'
 109   1.0000      -0.034803        -0.9471   49-A"
 110   1.0000      -0.030659        -0.8343   50-A"
 111   1.0000      -0.029578        -0.8049   62-A'
 112   1.0000      -0.025394        -0.6910   51-A"
 113   1.0000      -0.002575        -0.0701   52-A"
 114   1.0000      -0.001897        -0.0516   63-A'
 115   1.0000      -0.000023        -0.0006   64-A'
 116   1.0000       0.018500         0.5034   65-A'
 117   1.0000       0.020436         0.5561   66-A'
 118   1.0000       0.040243         1.0951   53-A"
 119   1.0000       0.053221         1.4482   54-A"
 120   1.0000       0.055081         1.4988   55-A"
 121   1.0000       0.069299         1.8857   67-A'
 122   1.0000       0.097986         2.6663   68-A'
 123   1.0000       0.115845         3.1523   56-A"
 124   0.0000       0.181792         4.9468   69-A'
 125   0.0000       0.181993         4.9523   70-A'
 126   0.0000       0.185786         5.0555   71-A'
 127   0.0000       0.195970         5.3326   57-A"
 128   0.0000       0.196801         5.3552   58-A"

                 SPIN DOWN ORBITALS
  NO   OCC          E(Eh)            E(eV)    Irrep
   0   1.0000    -443.561412    -12069.9196    1-A"
   1   1.0000    -443.557698    -12069.8186    2-A"
   2   1.0000    -443.547006    -12069.5276    1-A'
   3   1.0000    -443.544938    -12069.4714    2-A'
   4   1.0000    -318.187558     -8658.3236    3-A'
   5   1.0000     -56.370501     -1533.9193    3-A"
   6   1.0000     -56.368484     -1533.8644    4-A"
   7   1.0000     -56.357440     -1533.5639    4-A'
   8   1.0000     -56.356667     -1533.5429    5-A'
   9   1.0000     -51.286491     -1395.5764    5-A"
  10   1.0000     -51.286419     -1395.5744    6-A"
  11   1.0000     -51.286417     -1395.5744    6-A'
  12   1.0000     -51.286382     -1395.5734    7-A'
  13   1.0000     -51.284828     -1395.5311    7-A"
  14   1.0000     -51.284780     -1395.5298    8-A'
  15   1.0000     -51.284746     -1395.5289    8-A"
  16   1.0000     -51.284716     -1395.5281    9-A"
  17   1.0000     -51.284701     -1395.5277   10-A"
  18   1.0000     -51.284697     -1395.5275    9-A'
  19   1.0000     -51.284677     -1395.5270   10-A'
  20   1.0000     -51.284640     -1395.5260   11-A'
  21   1.0000     -38.014346     -1034.4229   12-A'
  22   1.0000     -33.517090      -912.0464   11-A"
  23   1.0000     -33.516306      -912.0250   13-A'
  24   1.0000     -33.514482      -911.9754   14-A'
  25   1.0000      -9.817249      -267.1409   15-A'
  26   1.0000      -9.816804      -267.1288   12-A"
  27   1.0000      -9.816420      -267.1184   16-A'
  28   1.0000      -9.815972      -267.1062   13-A"
  29   1.0000      -9.812818      -267.0203   17-A'
  30   1.0000      -9.812817      -267.0203   14-A"
  31   1.0000      -9.811181      -266.9758   18-A'
  32   1.0000      -9.810729      -266.9635   15-A"
  33   1.0000      -9.809093      -266.9190   19-A'
  34   1.0000      -9.808640      -266.9067   16-A"
  35   1.0000      -9.806912      -266.8596   20-A'
  36   1.0000      -9.806911      -266.8596   17-A"
  37   1.0000      -7.341342      -199.7681   18-A"
  38   1.0000      -7.341094      -199.7613   19-A"
  39   1.0000      -7.334239      -199.5748   21-A'
  40   1.0000      -7.333936      -199.5665   22-A'
  41   1.0000      -5.405018      -147.0780   20-A"
  42   1.0000      -5.404999      -147.0775   23-A'
  43   1.0000      -5.404213      -147.0561   21-A"
  44   1.0000      -5.404194      -147.0556   24-A'
  45   1.0000      -5.399470      -146.9271   22-A"
  46   1.0000      -5.399445      -146.9264   25-A'
  47   1.0000      -5.399179      -146.9191   23-A"
  48   1.0000      -5.399153      -146.9184   26-A'
  49   1.0000      -5.398583      -146.9029   24-A"
  50   1.0000      -5.398557      -146.9022   27-A'
  51   1.0000      -5.398419      -146.8984   25-A"
  52   1.0000      -5.398394      -146.8978   28-A'
  53   1.0000      -3.994319      -108.6909   29-A'
  54   1.0000      -2.507367       -68.2289   30-A'
  55   1.0000      -2.506851       -68.2149   26-A"
  56   1.0000      -2.505832       -68.1871   31-A'
  57   1.0000      -1.743979       -47.4561   32-A'
  58   1.0000      -1.743950       -47.4553   27-A"
  59   1.0000      -1.743163       -47.4339   33-A'
  60   1.0000      -1.743133       -47.4331   28-A"
  61   1.0000      -1.740807       -47.3698   34-A'
  62   1.0000      -1.740743       -47.3680   29-A"
  63   1.0000      -1.740701       -47.3669   35-A'
  64   1.0000      -1.740673       -47.3661   30-A"
  65   1.0000      -1.740006       -47.3480   36-A'
  66   1.0000      -1.739924       -47.3458   31-A"
  67   1.0000      -1.739813       -47.3427   37-A'
  68   1.0000      -1.739802       -47.3424   32-A"
  69   1.0000      -1.735866       -47.2353   38-A'
  70   1.0000      -1.735826       -47.2342   33-A"
  71   1.0000      -1.735808       -47.2337   39-A'
  72   1.0000      -1.735764       -47.2325   34-A"
  73   1.0000      -1.734998       -47.2117   40-A'
  74   1.0000      -1.734960       -47.2107   35-A"
  75   1.0000      -1.734952       -47.2105   41-A'
  76   1.0000      -1.734908       -47.2092   36-A"
  77   1.0000      -0.602547       -16.3961   42-A'
  78   1.0000      -0.602343       -16.3906   43-A'
  79   1.0000      -0.521373       -14.1873   44-A'
  80   1.0000      -0.520580       -14.1657   45-A'
  81   1.0000      -0.498201       -13.5567   37-A"
  82   1.0000      -0.495449       -13.4818   38-A"
  83   1.0000      -0.410759       -11.1773   39-A"
  84   1.0000      -0.409087       -11.1318   40-A"
  85   1.0000      -0.381299       -10.3757   46-A'
  86   1.0000      -0.376746       -10.2518   47-A'
  87   1.0000      -0.318720        -8.6728   48-A'
  88   1.0000      -0.310561        -8.4508   49-A'
  89   1.0000      -0.285230        -7.7615   41-A"
  90   1.0000      -0.281257        -7.6534   42-A"
  91   1.0000      -0.228312        -6.2127   50-A'
  92   1.0000      -0.220874        -6.0103   51-A'
  93   1.0000      -0.199481        -5.4282   52-A'
  94   1.0000      -0.197732        -5.3806   53-A'
  95   1.0000      -0.167988        -4.5712   43-A"
  96   1.0000      -0.157494        -4.2856   44-A"
  97   1.0000      -0.140084        -3.8119   54-A'
  98   1.0000      -0.137233        -3.7343   45-A"
  99   1.0000      -0.133068        -3.6210   55-A'
 100   1.0000      -0.130668        -3.5557   56-A'
 101   1.0000      -0.126794        -3.4502   46-A"
 102   1.0000      -0.105807        -2.8792   57-A'
 103   1.0000      -0.075890        -2.0651   58-A'
 104   1.0000      -0.070758        -1.9254   47-A"
 105   1.0000      -0.060107        -1.6356   59-A'
 106   1.0000      -0.055184        -1.5016   48-A"
 107   1.0000      -0.048015        -1.3066   60-A'
 108   1.0000      -0.042046        -1.1441   61-A'
 109   1.0000      -0.030894        -0.8407   49-A"
 110   1.0000      -0.025835        -0.7030   50-A"
 111   1.0000      -0.023298        -0.6340   62-A'
 112   1.0000      -0.002608        -0.0710   51-A"
 113   1.0000       0.007014         0.1908   52-A"
 114   1.0000       0.009239         0.2514   63-A'
 115   1.0000       0.010386         0.2826   64-A'
 116   1.0000       0.028639         0.7793   65-A'
 117   1.0000       0.031324         0.8524   66-A'
 118   1.0000       0.050962         1.3867   53-A"
 119   1.0000       0.055817         1.5189   54-A"
 120   1.0000       0.058605         1.5947   55-A"
 121   1.0000       0.071036         1.9330   67-A'
 122   1.0000       0.101244         2.7550   68-A'
 123   0.0000       0.145683         3.9642   56-A"
 124   0.0000       0.183722         4.9993   69-A'
 125   0.0000       0.183951         5.0056   70-A'
 126   0.0000       0.186062         5.0630   71-A'
 127   0.0000       0.199289         5.4229   57-A"

MULLIKEN ATOMIC CHARGES AND SPIN POPULATIONS
--------------------------------------------
   0 Cu:    0.639939    0.308850
   1 Se:   -0.702865    0.175567
   2 C :    0.245785   -0.003398
   3 Se:   -0.733354    0.172712
   4 C :    0.221338   -0.003160
   5 Se:   -0.702865    0.175567
   6 C :    0.245785   -0.003398
   7 Se:   -0.733354    0.172712
   8 C :    0.221338   -0.003160
   9 C :   -0.102412   -0.001496
  10 C :   -0.102412   -0.001496
  11 C :   -0.156738   -0.000688
  12 H :    0.092075    0.002668
  13 C :   -0.156738   -0.000688
  14 H :    0.092075    0.002668
  15 H :    0.021065    0.001599
  16 H :    0.021065    0.001599
  17 C :   -0.133677   -0.001265
  18 C :   -0.133677   -0.001265
  19 C :   -0.124361   -0.000696
  20 H :    0.026938    0.001982
  21 C :   -0.124361   -0.000696
  22 H :    0.026938    0.001982
  23 H :    0.026236    0.001751
  24 H :    0.026236    0.001751
Sum of atomic charges         :   -2.0000000

LOEWDIN ATOMIC CHARGES AND SPIN POPULATIONS
-------------------------------------------
   0 Cu:   -0.616151    0.390295
   1 Se:   -0.207639    0.125186
   2 C :    0.031826    0.011614
   3 Se:   -0.202274    0.122777
   4 C :    0.038413    0.011772
   5 Se:   -0.207639    0.125186
   6 C :    0.031826    0.011614
   7 Se:   -0.202274    0.122777
   8 C :    0.038413    0.011772
   9 C :    0.371191    0.006920
  10 C :    0.371191    0.006920
  11 C :    0.319843    0.000457
  12 H :   -0.459837    0.009388
  13 C :    0.319843    0.000457
  14 H :   -0.459837    0.009388
  15 H :   -0.412064    0.000391
  16 H :   -0.412064    0.000391
  17 C :    0.337399    0.006800
  18 C :    0.337399    0.006800
  19 C :    0.306701    0.000560
  20 H :   -0.400926    0.008565
  21 C :    0.306701    0.000560
  22 H :   -0.400926    0.008565
  23 H :   -0.414557    0.000423
  24 H :   -0.414557    0.000423

  Mayer bond orders larger than 0.100000
B(  0-Cu,  1-Se) :   0.5447 B(  0-Cu,  3-Se) :   0.5505 B(  0-Cu,  5-Se) :   0.5447
B(  0-Cu,  7-Se) :   0.5505 B(  1-Se,  2-C ) :   1.0380 B(  2-C ,  6-C ) :   1.1286
B(  2-C , 17-C ) :   1.2649 B(  3-Se,  4-C ) :   1.0402 B(  4-C ,  8-C ) :   1.1336
B(  4-C , 10-C ) :   1.2571 B(  5-Se,  6-C ) :   1.0380 B(  6-C , 18-C ) :   1.2649
B(  7-Se,  8-C ) :   1.0402 B(  8-C ,  9-C ) :   1.2571 B(  9-C , 13-C ) :   1.3794
B(  9-C , 14-H ) :   0.9597 B( 10-C , 11-C ) :   1.3794 B( 10-C , 12-H ) :   0.9597
B( 11-C , 13-C ) :   1.3126 B( 11-C , 15-H ) :   0.9956 B( 13-C , 16-H ) :   0.9956
B( 17-C , 19-C ) :   1.3573 B( 17-C , 20-H ) :   0.9983 B( 18-C , 21-C ) :   1.3573
B( 18-C , 22-H ) :   0.9983 B( 19-C , 21-C ) :   1.3281 B( 19-C , 23-H ) :   0.9876
B( 21-C , 24-H ) :   0.9876

FINAL SINGLE POINT ENERGY    -11627.104158889666

DIPOLE MOMENT
-------------
                                X             Y             Z
Electronic contribution:      0.28986       0.43925       0.00000
Nuclear contribution   :     -0.43123      -0.38491       0.00000
                        -----------------------------------------
Total Dipole Moment    :     -0.14136       0.05433       0.00000
                        -----------------------------------------
Magnitude (a.u.)       :      0.15145
Magnitude (Debye)      :      0.38495

Rotational constants in cm-1:     0.017607     0.004097     0.003325
Rotational constants in MHz :   527.848004   122.837462    99.666038

                             ****ORCA TERMINATED NORMALLY****
TOTAL RUN TIME: 0 days 17 hours 9 minutes 9 seconds 736 msec
