                         Program Version 5.0.4 -  RELEASE  -
|  1> ! RIJCOSX nofrozencore ReducedPop printbasis
|  2> ! M06L ano-rcc-dzp autoaux
|  3>
|  4> %maxcore 7500
|  5> %basis
|  6> PCDTrimBas overlap
|  7> PCDTrimAuxJ Coulomb
|  8> PCDTrimAuxJK Coulomb
|  9> PCDTrimAuxC Coulomb
| 10> PCDThresh -1
| 11> end
| 12>
| 13> %basis
| 14> newgto Cu "ano-rcc-tzp" end
| 15> newgto Se "ano-rcc-tzp" end
| 16> end
| 17>
| 18> %pal
| 19> nprocs 8
| 20> end
| 21>
| 22> % sym SymThresh 1e-2 end
| 23> * xyz -2 2
| 24> Cu -0.002239437937866734 0.00035170360917826163 9.789429878280436e-05
| 25> Se 0.3580677181457505 2.297887192333112 -0.4469347370694539
| 26> C 0.20267524766911826 2.4330965864661174 -2.074472239627031
| 27> Se 0.14805105158899085 0.19200466996766338 2.3557181994264518
| 28> C -0.1589260920598218 -1.3185300877413084 2.9153288428601827
| 29> Se -0.11722991103204844 -0.1968451284548466 -2.35706550800397
| 30> C -0.004773958981392062 1.3442391720612359 -2.908172894737479
| 31> Se -0.32722683816229536 -2.3027307508961807 0.4455865656069748
| 32> C -0.36638418145226287 -2.4073861071120417 2.081628576047967
| 33> C -0.5614272084416976 -3.6389662177834965 2.698274279724142
| 34> C -0.16682340749820548 -1.5682110600466557 4.283786444258752
| 35> C -0.14453722537464964 -2.825260635089165 4.880836516866404
| 36> H -0.04078699139807461 -0.7097737726957013 4.9280505876977365
| 37> C -0.352276404302029 -3.915255615273659 4.0462581709358485
| 38> H -0.7585418994262098 -4.476302560631398 2.0441375422218204
| 39> H 0.016504838688314354 -2.9348831312700687 5.955992636452489
| 40> H -0.36616990634838575 -4.94226754616088 4.418990542927053
| 41> C 0.33879219793364856 3.6739316433841007 -2.6885428571328913
| 42> C -0.055724808834019424 1.6031622455993968 -4.274058020347187
| 43> C 0.5292680574864066 3.8874596945703863 -4.053995940660928
| 44> H 0.4592616566832921 4.5233051158829305 -2.0310556667612105
| 45> C 0.3216225222332991 2.7974487895975013 -4.888576789266768
| 46> H -0.2583363822048988 0.7567510826299781 -4.914974774158423
| 47> H 0.8141976438499727 4.8719048137864425 -4.438575529166834
| 48> H 0.43178423734430643 2.8644779381176 -5.975588858996202
| 49> *
| 50>
| 51> % eprnmr
| 52> gtensor true
| 53> Nuclei = all H {aiso,adip,aorb,fgrad,rho}
| 54> Nuclei = all Cu {aiso,adip,aorb,fgrad,rho}
| 55> end
| 56>
| 57>                          ****END OF INPUT****

CARTESIAN COORDINATES (ANGSTROEM)
---------------------------------
  Cu    -0.000007   -0.002269    0.000000
  Se    -1.755912    0.021748    1.588883
  C     -3.126887   -0.078265    0.693488
  Se     1.756005    0.009490    1.588883
  C      3.126391   -0.087600    0.693488
  Se    -1.755912    0.021748   -1.588883
  C     -3.126887   -0.078265   -0.693488
  Se     1.756005    0.009490   -1.588883
  C      3.126391   -0.087600   -0.693488
  C      4.368556   -0.119480   -1.318862
  C      4.368556   -0.119480    1.318862
  C      5.598123    0.067938    0.694220
  H      4.360288   -0.155954    2.398899
  C      5.598123    0.067938   -0.694220
  H      4.360288   -0.155954   -2.398899
  H      6.512688    0.194680    1.278516
  H      6.512688    0.194680   -1.278516
  C     -4.369230   -0.106049    1.318862
  C     -4.369230   -0.106049   -1.318862
  C     -5.597588    0.111437    0.694220
  H     -4.361194   -0.147196    2.398899
  C     -5.597588    0.111437   -0.694220
  H     -4.361194   -0.147196   -2.398899
  H     -6.511332    0.259393    1.278516
  H     -6.511332    0.259393   -1.278516

 Total Charge           Charge          ....   -2
 Multiplicity           Mult            ....    2
 Number of Electrons    NEL             ....  247
 Basis Dimension        Dim             ....  575

ORBITAL ENERGIES
----------------
                 SPIN UP ORBITALS
  NO   OCC          E(Eh)            E(eV)    Irrep
   0   1.0000    -443.561087    -12069.9108    1-A"
   1   1.0000    -443.560038    -12069.8822    2-A"
   2   1.0000    -443.546709    -12069.5196    1-A'
   3   1.0000    -443.546559    -12069.5155    2-A'
   4   1.0000    -318.187401     -8658.3194    3-A'
   5   1.0000     -56.370045     -1533.9069    3-A"
   6   1.0000     -56.369746     -1533.8988    4-A"
   7   1.0000     -56.357283     -1533.5596    4-A'
   8   1.0000     -56.357026     -1533.5526    5-A'
   9   1.0000     -51.286565     -1395.5784    5-A"
  10   1.0000     -51.286501     -1395.5767    6-A'
  11   1.0000     -51.286494     -1395.5765    6-A"
  12   1.0000     -51.286463     -1395.5756    7-A'
  13   1.0000     -51.285193     -1395.5411    7-A"
  14   1.0000     -51.285172     -1395.5405    8-A"
  15   1.0000     -51.285144     -1395.5397    8-A'
  16   1.0000     -51.285104     -1395.5386    9-A'
  17   1.0000     -51.284755     -1395.5291    9-A"
  18   1.0000     -51.284717     -1395.5281   10-A"
  19   1.0000     -51.284708     -1395.5279   10-A'
  20   1.0000     -51.284666     -1395.5267   11-A'
  21   1.0000     -38.027959     -1034.7934   12-A'
  22   1.0000     -33.529986      -912.3973   11-A"
  23   1.0000     -33.529257      -912.3775   13-A'
  24   1.0000     -33.518072      -912.0731   14-A'
  25   1.0000      -9.818857      -267.1847   15-A'
  26   1.0000      -9.818410      -267.1725   12-A"
  27   1.0000      -9.818358      -267.1711   16-A'
  28   1.0000      -9.817911      -267.1589   13-A"
  29   1.0000      -9.809636      -266.9338   17-A'
  30   1.0000      -9.809486      -266.9297   18-A'
  31   1.0000      -9.809191      -266.9216   14-A"
  32   1.0000      -9.809039      -266.9175   15-A"
  33   1.0000      -9.808035      -266.8902   19-A'
  34   1.0000      -9.808028      -266.8900   16-A"
  35   1.0000      -9.807814      -266.8842   20-A'
  36   1.0000      -9.807808      -266.8840   17-A"
  37   1.0000      -7.341437      -199.7707   18-A"
  38   1.0000      -7.341379      -199.7691   19-A"
  39   1.0000      -7.334206      -199.5739   21-A'
  40   1.0000      -7.334103      -199.5711   22-A'
  41   1.0000      -5.404551      -147.0653   20-A"
  42   1.0000      -5.404527      -147.0646   23-A'
  43   1.0000      -5.404501      -147.0640   21-A"
  44   1.0000      -5.404490      -147.0636   24-A'
  45   1.0000      -5.399196      -146.9196   22-A"
  46   1.0000      -5.399175      -146.9190   23-A"
  47   1.0000      -5.399174      -146.9190   25-A'
  48   1.0000      -5.399146      -146.9182   26-A'
  49   1.0000      -5.398806      -146.9090   24-A"
  50   1.0000      -5.398785      -146.9084   25-A"
  51   1.0000      -5.398781      -146.9083   27-A'
  52   1.0000      -5.398758      -146.9077   28-A'
  53   1.0000      -4.022285      -109.4519   29-A'
  54   1.0000      -2.541789       -69.1656   26-A"
  55   1.0000      -2.540932       -69.1423   30-A'
  56   1.0000      -2.517423       -68.5026   31-A'
  57   1.0000      -1.743530       -47.4439   32-A'
  58   1.0000      -1.743509       -47.4433   33-A'
  59   1.0000      -1.743500       -47.4431   27-A"
  60   1.0000      -1.743480       -47.4425   28-A"
  61   1.0000      -1.740832       -47.3704   34-A'
  62   1.0000      -1.740799       -47.3695   35-A'
  63   1.0000      -1.740749       -47.3682   29-A"
  64   1.0000      -1.740719       -47.3674   30-A"
  65   1.0000      -1.740100       -47.3505   36-A'
  66   1.0000      -1.740093       -47.3503   31-A"
  67   1.0000      -1.740079       -47.3499   37-A'
  68   1.0000      -1.740072       -47.3498   32-A"
  69   1.0000      -1.735707       -47.2310   38-A'
  70   1.0000      -1.735688       -47.2305   39-A'
  71   1.0000      -1.735666       -47.2299   40-A'
  72   1.0000      -1.735652       -47.2295   41-A'
  73   1.0000      -1.735650       -47.2294   33-A"
  74   1.0000      -1.735634       -47.2290   34-A"
  75   1.0000      -1.735631       -47.2289   35-A"
  76   1.0000      -1.735616       -47.2285   36-A"
  77   1.0000      -0.601720       -16.3736   42-A'
  78   1.0000      -0.601319       -16.3627   43-A'
  79   1.0000      -0.520128       -14.1534   44-A'
  80   1.0000      -0.519259       -14.1297   45-A'
  81   1.0000      -0.498238       -13.5577   37-A"
  82   1.0000      -0.497781       -13.5453   38-A"
  83   1.0000      -0.410473       -11.1695   39-A"
  84   1.0000      -0.409081       -11.1317   40-A"
  85   1.0000      -0.384139       -10.4530   46-A'
  86   1.0000      -0.379596       -10.3293   47-A'
  87   1.0000      -0.320697        -8.7266   48-A'
  88   1.0000      -0.318326        -8.6621   49-A'
  89   1.0000      -0.286823        -7.8049   41-A"
  90   1.0000      -0.283636        -7.7181   42-A"
  91   1.0000      -0.228904        -6.2288   50-A'
  92   1.0000      -0.222257        -6.0479   51-A'
  93   1.0000      -0.198626        -5.4049   52-A'
  94   1.0000      -0.197536        -5.3752   53-A'
  95   1.0000      -0.171549        -4.6681   43-A"
  96   1.0000      -0.166694        -4.5360   44-A"
  97   1.0000      -0.137995        -3.7550   54-A'
  98   1.0000      -0.137042        -3.7291   45-A"
  99   1.0000      -0.135262        -3.6807   46-A"
 100   1.0000      -0.130484        -3.5506   55-A'
 101   1.0000      -0.130245        -3.5442   56-A'
 102   1.0000      -0.111338        -3.0297   57-A'
 103   1.0000      -0.081750        -2.2245   58-A'
 104   1.0000      -0.072080        -1.9614   47-A"
 105   1.0000      -0.066314        -1.8045   48-A"
 106   1.0000      -0.063021        -1.7149   59-A'
 107   1.0000      -0.047329        -1.2879   60-A'
 108   1.0000      -0.046603        -1.2681   61-A'
 109   1.0000      -0.032452        -0.8831   49-A"
 110   1.0000      -0.031024        -0.8442   50-A"
 111   1.0000      -0.029988        -0.8160   62-A'
 112   1.0000      -0.024673        -0.6714   51-A"
 113   1.0000      -0.001654        -0.0450   52-A"
 114   1.0000      -0.001439        -0.0392   63-A'
 115   1.0000       0.000088         0.0024   64-A'
 116   1.0000       0.018730         0.5097   65-A'
 117   1.0000       0.020415         0.5555   66-A'
 118   1.0000       0.040842         1.1114   53-A"
 119   1.0000       0.056017         1.5243   54-A"
 120   1.0000       0.056881         1.5478   55-A"
 121   1.0000       0.069736         1.8976   67-A'
 122   1.0000       0.098425         2.6783   68-A'
 123   1.0000       0.115964         3.1555   56-A"
 124   0.0000       0.181839         4.9481   69-A'
 125   0.0000       0.181930         4.9506   70-A'
 126   0.0000       0.196481         5.3465   57-A"
 127   0.0000       0.196954         5.3594   58-A"
 128   0.0000       0.197458         5.3731   71-A'

                 SPIN DOWN ORBITALS
  NO   OCC          E(Eh)            E(eV)    Irrep
   0   1.0000    -443.560635    -12069.8985    1-A"
   1   1.0000    -443.559586    -12069.8699    2-A"
   2   1.0000    -443.546258    -12069.5073    1-A'
   3   1.0000    -443.546107    -12069.5032    2-A'
   4   1.0000    -318.187278     -8658.3160    3-A'
   5   1.0000     -56.369862     -1533.9019    3-A"
   6   1.0000     -56.369563     -1533.8938    4-A"
   7   1.0000     -56.357103     -1533.5547    4-A'
   8   1.0000     -56.356846     -1533.5477    5-A'
   9   1.0000     -51.286245     -1395.5697    5-A"
  10   1.0000     -51.286173     -1395.5677    6-A'
  11   1.0000     -51.286173     -1395.5677    6-A"
  12   1.0000     -51.286134     -1395.5666    7-A'
  13   1.0000     -51.284505     -1395.5223    7-A"
  14   1.0000     -51.284468     -1395.5213    8-A"
  15   1.0000     -51.284459     -1395.5211    8-A'
  16   1.0000     -51.284458     -1395.5210    9-A"
  17   1.0000     -51.284436     -1395.5205   10-A"
  18   1.0000     -51.284418     -1395.5200    9-A'
  19   1.0000     -51.284417     -1395.5199   10-A'
  20   1.0000     -51.284376     -1395.5188   11-A'
  21   1.0000     -38.014090     -1034.4160   12-A'
  22   1.0000     -33.516809      -912.0387   11-A"
  23   1.0000     -33.516076      -912.0188   13-A'
  24   1.0000     -33.514197      -911.9677   14-A'
  25   1.0000      -9.818792      -267.1829   15-A'
  26   1.0000      -9.818345      -267.1708   12-A"
  27   1.0000      -9.818296      -267.1694   16-A'
  28   1.0000      -9.817849      -267.1573   13-A"
  29   1.0000      -9.809655      -266.9343   17-A'
  30   1.0000      -9.809504      -266.9302   18-A'
  31   1.0000      -9.809206      -266.9221   14-A"
  32   1.0000      -9.809055      -266.9180   15-A"
  33   1.0000      -9.807926      -266.8872   19-A'
  34   1.0000      -9.807921      -266.8871   16-A"
  35   1.0000      -9.807702      -266.8811   20-A'
  36   1.0000      -9.807698      -266.8810   17-A"
  37   1.0000      -7.341037      -199.7598   18-A"
  38   1.0000      -7.340981      -199.7583   19-A"
  39   1.0000      -7.333800      -199.5628   21-A'
  40   1.0000      -7.333697      -199.5600   22-A'
  41   1.0000      -5.404189      -147.0555   20-A"
  42   1.0000      -5.404163      -147.0547   23-A'
  43   1.0000      -5.404139      -147.0541   21-A"
  44   1.0000      -5.404126      -147.0538   24-A'
  45   1.0000      -5.398511      -146.9010   22-A"
  46   1.0000      -5.398489      -146.9003   23-A"
  47   1.0000      -5.398487      -146.9003   25-A'
  48   1.0000      -5.398462      -146.8996   26-A'
  49   1.0000      -5.398353      -146.8967   24-A"
  50   1.0000      -5.398336      -146.8962   25-A"
  51   1.0000      -5.398332      -146.8961   27-A'
  52   1.0000      -5.398306      -146.8954   28-A'
  53   1.0000      -3.994098      -108.6849   29-A'
  54   1.0000      -2.507117       -68.2221   30-A'
  55   1.0000      -2.506599       -68.2080   26-A"
  56   1.0000      -2.505668       -68.1827   31-A'
  57   1.0000      -1.743080       -47.4316   32-A'
  58   1.0000      -1.743060       -47.4311   33-A'
  59   1.0000      -1.743050       -47.4308   27-A"
  60   1.0000      -1.743031       -47.4303   28-A"
  61   1.0000      -1.739941       -47.3462   34-A'
  62   1.0000      -1.739909       -47.3453   35-A'
  63   1.0000      -1.739856       -47.3439   29-A"
  64   1.0000      -1.739826       -47.3431   30-A"
  65   1.0000      -1.739787       -47.3420   36-A'
  66   1.0000      -1.739780       -47.3418   31-A"
  67   1.0000      -1.739766       -47.3414   37-A'
  68   1.0000      -1.739758       -47.3412   32-A"
  69   1.0000      -1.734914       -47.2094   38-A'
  70   1.0000      -1.734896       -47.2089   39-A'
  71   1.0000      -1.734888       -47.2087   40-A'
  72   1.0000      -1.734884       -47.2086   33-A"
  73   1.0000      -1.734872       -47.2083   41-A'
  74   1.0000      -1.734869       -47.2082   34-A"
  75   1.0000      -1.734834       -47.2072   35-A"
  76   1.0000      -1.734818       -47.2068   36-A"
  77   1.0000      -0.600897       -16.3512   42-A'
  78   1.0000      -0.600499       -16.3404   43-A'
  79   1.0000      -0.518981       -14.1222   44-A'
  80   1.0000      -0.518140       -14.0993   45-A'
  81   1.0000      -0.496512       -13.5108   37-A"
  82   1.0000      -0.496056       -13.4984   38-A"
  83   1.0000      -0.407778       -11.0962   39-A"
  84   1.0000      -0.406363       -11.0577   40-A"
  85   1.0000      -0.381642       -10.3850   46-A'
  86   1.0000      -0.377285       -10.2665   47-A'
  87   1.0000      -0.318936        -8.6787   48-A'
  88   1.0000      -0.316402        -8.6097   49-A'
  89   1.0000      -0.284474        -7.7409   41-A"
  90   1.0000      -0.281036        -7.6474   42-A"
  91   1.0000      -0.227774        -6.1980   50-A'
  92   1.0000      -0.221200        -6.0192   51-A'
  93   1.0000      -0.197346        -5.3701   52-A'
  94   1.0000      -0.196323        -5.3422   53-A'
  95   1.0000      -0.170128        -4.6294   43-A"
  96   1.0000      -0.164631        -4.4798   44-A"
  97   1.0000      -0.136150        -3.7048   45-A"
  98   1.0000      -0.136031        -3.7016   54-A'
  99   1.0000      -0.133580        -3.6349   46-A"
 100   1.0000      -0.130081        -3.5397   55-A'
 101   1.0000      -0.129819        -3.5325   56-A'
 102   1.0000      -0.109562        -2.9813   57-A'
 103   1.0000      -0.080403        -2.1879   58-A'
 104   1.0000      -0.070644        -1.9223   47-A"
 105   1.0000      -0.060854        -1.6559   59-A'
 106   1.0000      -0.054785        -1.4908   48-A"
 107   1.0000      -0.046208        -1.2574   60-A'
 108   1.0000      -0.045793        -1.2461   61-A'
 109   1.0000      -0.029825        -0.8116   49-A"
 110   1.0000      -0.024724        -0.6728   50-A"
 111   1.0000      -0.023596        -0.6421   62-A'
 112   1.0000      -0.002208        -0.0601   51-A"
 113   1.0000       0.007918         0.2154   52-A"
 114   1.0000       0.009669         0.2631   63-A'
 115   1.0000       0.010442         0.2842   64-A'
 116   1.0000       0.028594         0.7781   65-A'
 117   1.0000       0.031547         0.8584   66-A'
 118   1.0000       0.052015         1.4154   53-A"
 119   1.0000       0.057931         1.5764   54-A"
 120   1.0000       0.060390         1.6433   55-A"
 121   1.0000       0.071466         1.9447   67-A'
 122   1.0000       0.101638         2.7657   68-A'
 123   0.0000       0.145584         3.9615   56-A"
 124   0.0000       0.183462         4.9923   69-A'
 125   0.0000       0.183620         4.9966   70-A'
 126   0.0000       0.197666         5.3788   71-A'
 127   0.0000       0.199326         5.4239   57-A"

MULLIKEN ATOMIC CHARGES AND SPIN POPULATIONS
--------------------------------------------
   0 Cu:    0.639128    0.309284
   1 Se:   -0.734309    0.172799
   2 C :    0.235710   -0.003072
   3 Se:   -0.734074    0.172739
   4 C :    0.233000   -0.003090
   5 Se:   -0.734309    0.172799
   6 C :    0.235710   -0.003072
   7 Se:   -0.734074    0.172739
   8 C :    0.233000   -0.003090
   9 C :   -0.120077   -0.002040
  10 C :   -0.120077   -0.002040
  11 C :   -0.147873    0.000786
  12 H :    0.094208    0.002780
  13 C :   -0.147873    0.000786
  14 H :    0.094208    0.002780
  15 H :    0.015239    0.001383
  16 H :    0.015239    0.001383
  17 C :   -0.124066   -0.002172
  18 C :   -0.124066   -0.002172
  19 C :   -0.145776    0.001142
  20 H :    0.094700    0.002770
  21 C :   -0.145776    0.001142
  22 H :    0.094700    0.002770
  23 H :    0.013753    0.001332
  24 H :    0.013753    0.001332
Sum of atomic charges         :   -2.0000000

LOEWDIN ATOMIC CHARGES AND SPIN POPULATIONS
-------------------------------------------
   0 Cu:   -0.616446    0.389525
   1 Se:   -0.202399    0.123311
   2 C :    0.037773    0.011583
   3 Se:   -0.202316    0.123201
   4 C :    0.037900    0.011615
   5 Se:   -0.202399    0.123311
   6 C :    0.037773    0.011583
   7 Se:   -0.202316    0.123201
   8 C :    0.037900    0.011615
   9 C :    0.372158    0.006713
  10 C :    0.372158    0.006713
  11 C :    0.316503    0.001271
  12 H :   -0.462874    0.009150
  13 C :    0.316503    0.001271
  14 H :   -0.462874    0.009150
  15 H :   -0.407114    0.000562
  16 H :   -0.407114    0.000562
  17 C :    0.372365    0.006666
  18 C :    0.372365    0.006666
  19 C :    0.315644    0.001477
  20 H :   -0.463587    0.009087
  21 C :    0.315644    0.001477
  22 H :   -0.463587    0.009087
  23 H :   -0.405830    0.000603
  24 H :   -0.405830    0.000603

  Mayer bond orders larger than 0.100000
B(  0-Cu,  1-Se) :   0.5483 B(  0-Cu,  3-Se) :   0.5489 B(  0-Cu,  5-Se) :   0.5483
B(  0-Cu,  7-Se) :   0.5489 B(  1-Se,  2-C ) :   1.0354 B(  2-C ,  6-C ) :   1.1286
B(  2-C , 17-C ) :   1.2657 B(  3-Se,  4-C ) :   1.0360 B(  4-C ,  8-C ) :   1.1296
B(  4-C , 10-C ) :   1.2641 B(  5-Se,  6-C ) :   1.0354 B(  6-C , 18-C ) :   1.2657
B(  7-Se,  8-C ) :   1.0360 B(  8-C ,  9-C ) :   1.2641 B(  9-C , 13-C ) :   1.3713
B(  9-C , 14-H ) :   0.9604 B( 10-C , 11-C ) :   1.3713 B( 10-C , 12-H ) :   0.9604
B( 11-C , 13-C ) :   1.3201 B( 11-C , 15-H ) :   0.9983 B( 13-C , 16-H ) :   0.9983
B( 17-C , 19-C ) :   1.3692 B( 17-C , 20-H ) :   0.9605 B( 18-C , 21-C ) :   1.3692
B( 18-C , 22-H ) :   0.9605 B( 19-C , 21-C ) :   1.3223 B( 19-C , 23-H ) :   0.9989
B( 21-C , 24-H ) :   0.9989

FINAL SINGLE POINT ENERGY    -11627.135271907813

DIPOLE MOMENT
-------------
                                X             Y             Z
Electronic contribution:      0.01400       0.37371       0.00000
Nuclear contribution   :     -0.00104      -0.34775      -0.00000
                        -----------------------------------------
Total Dipole Moment    :      0.01296       0.02596       0.00000
                        -----------------------------------------
Magnitude (a.u.)       :      0.02901
Magnitude (Debye)      :      0.07374

Rotational constants in cm-1:     0.017584     0.004096     0.003325
Rotational constants in MHz :   527.158505   122.800083    99.666038

                             ****ORCA TERMINATED NORMALLY****
TOTAL RUN TIME: 0 days 17 hours 18 minutes 27 seconds 606 msec
