                         Program Version 5.0.4 -  RELEASE  -
|  1> ! RIJCOSX nofrozencore ReducedPop printbasis
|  2> ! M06L ano-rcc-dzp autoaux
|  3>
|  4> %maxcore 7500
|  5> %basis
|  6> PCDTrimBas overlap
|  7> PCDTrimAuxJ Coulomb
|  8> PCDTrimAuxJK Coulomb
|  9> PCDTrimAuxC Coulomb
| 10> PCDThresh -1
| 11> end
| 12>
| 13> %basis
| 14> newgto Cu "ano-rcc-tzp" end
| 15> newgto Se "ano-rcc-tzp" end
| 16> end
| 17>
| 18> %pal
| 19> nprocs 8
| 20> end
| 21>
| 22> % sym SymThresh 1e-2 end
| 23> * xyz -2 2
| 24> Cu -3.634772357117039e-05 3.272328797856467e-05 0.00013284964966105747
| 25> Se 0.818697471150571 -1.6701757939144122 -1.4652474406048364
| 26> C 0.8821497478365626 -0.9615657820233947 -2.9503050991986624
| 27> Se 0.05089933123817604 -1.3487571622595955 1.9462428355305381
| 28> C -0.4946713253900516 -0.36154767092892065 3.1285031162694605
| 29> Se -0.0513643955630487 1.3494042373099246 -1.9449167985578362
| 30> C 0.4922915305379336 0.39083908835429265 -3.164234844770534
| 31> Se -0.8186636964472966 1.66926923745619 1.4665578327818098
| 32> C -0.8698702012343166 0.9376649706268424 2.9264460953672002
| 33> C -1.3150472990448223 1.6483233331388334 4.046439968420884
| 34> C -0.5881928710125038 -0.8687893638632406 4.438221441822521
| 35> C -1.0363771221577553 -0.14567888710304755 5.55325874705451
| 36> H -0.2730554973654088 -1.9036966817894914 4.51575053103105
| 37> C -1.417626949843305 1.176038303749867 5.345403644077415
| 38> H -1.5987754231526947 2.669508262195524 3.83029182643787
| 39> H -1.1228835280744562 -0.5045380194789486 6.5841701130422905
| 40> H -1.770178710467915 1.7648705502826676 6.189758094180346
| 41> C 1.3165463371451422 -1.6462885200471469 -4.057457499562464
| 42> C 0.5991533051835842 0.844383871599796 -4.454489721207888
| 43> C 1.4099712292301376 -1.1730050250850255 -5.311106842062729
| 44> H 1.638021639573353 -2.6820126932785184 -4.011094405415477
| 45> C 1.0270531387532338 0.1566327019055508 -5.523368720227077
| 46> H 0.3324242414946965 1.8572901890038984 -4.744266009615876
| 47> H 1.8007432635110576 -2.0213684401517824 -5.926738008464513
| 48> H 0.9656754668750775 0.873910740591264 -6.3824464427702665
| 49> *
| 50>
| 51> % eprnmr
| 52> gtensor true
| 53> Nuclei = all H {aiso,adip,aorb,fgrad,rho}
| 54> Nuclei = all Cu {aiso,adip,aorb,fgrad,rho}
| 55> end
| 56>
| 57>                          ****END OF INPUT****

CARTESIAN COORDINATES (ANGSTROEM)
---------------------------------
  Cu     0.000038    0.000136    0.000000
  Se    -1.795862   -1.543238    0.000000
  C     -1.096398   -3.033976    0.000000
  Se    -1.357456    1.940853    0.000000
  C     -0.286580    3.175031    0.000000
  Se     1.358174   -1.939483    0.000000
  C      0.316254   -3.210525    0.000000
  Se     1.794950    1.544545    0.000000
  C      1.070612    3.008948    0.000000
  C      1.849474    4.171264    0.000000
  C     -0.779960    4.493355    0.000000
  C      0.011820    5.651004    0.000000
  H     -1.863526    4.540693    0.000000
  C      1.392453    5.479703    0.000000
  H      2.914531    3.982336    0.000000
  H     -0.334139    6.689923    0.000000
  H      2.035316    6.357586    0.000000
  C     -1.847666   -4.182422    0.000000
  C      0.753870   -4.510668    0.000000
  C     -1.388253   -5.444683    0.000000
  H     -2.933013   -4.166848    0.000000
  C      0.000560   -5.620229    0.000000
  H      1.808058   -4.774832    0.000000
  H     -2.296644   -6.097561    0.000000
  H      0.727681   -6.473203    0.000000

 Total Charge           Charge          ....   -2
 Multiplicity           Mult            ....    2
 Number of Electrons    NEL             ....  247
 Basis Dimension        Dim             ....  575

ORBITAL ENERGIES
----------------
                 SPIN UP ORBITALS
  NO   OCC          E(Eh)            E(eV)    Irrep
   0   1.0000    -443.562607    -12069.9522    1-A'
   1   1.0000    -443.559560    -12069.8692    2-A'
   2   1.0000    -443.547606    -12069.5440    3-A'
   3   1.0000    -443.546447    -12069.5124    4-A'
   4   1.0000    -318.187426     -8658.3201    5-A'
   5   1.0000     -56.371133     -1533.9365    6-A'
   6   1.0000     -56.369132     -1533.8821    7-A'
   7   1.0000     -56.357586     -1533.5679    8-A'
   8   1.0000     -56.357004     -1533.5521    9-A'
   9   1.0000     -51.286710     -1395.5823   10-A'
  10   1.0000     -51.286660     -1395.5810   11-A'
  11   1.0000     -51.286458     -1395.5755   12-A'
  12   1.0000     -51.286211     -1395.5687   13-A'
  13   1.0000     -51.285389     -1395.5464   14-A'
  14   1.0000     -51.285328     -1395.5447   15-A'
  15   1.0000     -51.285103     -1395.5386   16-A'
  16   1.0000     -51.284923     -1395.5337    1-A"
  17   1.0000     -51.284873     -1395.5323    2-A"
  18   1.0000     -51.284850     -1395.5317   17-A'
  19   1.0000     -51.284698     -1395.5276    3-A"
  20   1.0000     -51.284438     -1395.5205    4-A"
  21   1.0000     -38.027990     -1034.7942   18-A'
  22   1.0000     -33.530080      -912.3999   19-A'
  23   1.0000     -33.529247      -912.3772   20-A'
  24   1.0000     -33.518035      -912.0721    5-A"
  25   1.0000      -9.820185      -267.2208   21-A'
  26   1.0000      -9.819001      -267.1886   22-A'
  27   1.0000      -9.818600      -267.1777   23-A'
  28   1.0000      -9.817296      -267.1422   24-A'
  29   1.0000      -9.812360      -267.0079   25-A'
  30   1.0000      -9.809333      -266.9255   26-A'
  31   1.0000      -9.809003      -266.9166   27-A'
  32   1.0000      -9.808719      -266.9088   28-A'
  33   1.0000      -9.808577      -266.9050   29-A'
  34   1.0000      -9.807691      -266.8808   30-A'
  35   1.0000      -9.802183      -266.7310   31-A'
  36   1.0000      -9.801932      -266.7241   32-A'
  37   1.0000      -7.341863      -199.7822   33-A'
  38   1.0000      -7.340910      -199.7563   34-A'
  39   1.0000      -7.334236      -199.5747   35-A'
  40   1.0000      -7.333991      -199.5680   36-A'
  41   1.0000      -5.404477      -147.0633   37-A'
  42   1.0000      -5.404411      -147.0615   38-A'
  43   1.0000      -5.404326      -147.0592   39-A'
  44   1.0000      -5.404205      -147.0559   40-A'
  45   1.0000      -5.399234      -146.9206   41-A'
  46   1.0000      -5.399066      -146.9161   42-A'
  47   1.0000      -5.399033      -146.9152   43-A'
  48   1.0000      -5.398856      -146.9103   44-A'
  49   1.0000      -5.398747      -146.9074    6-A"
  50   1.0000      -5.398742      -146.9072    7-A"
  51   1.0000      -5.398641      -146.9045    8-A"
  52   1.0000      -5.398573      -146.9026    9-A"
  53   1.0000      -4.022285      -109.4519   45-A'
  54   1.0000      -2.541917       -69.1691   46-A'
  55   1.0000      -2.540898       -69.1414   47-A'
  56   1.0000      -2.517293       -68.4990   10-A"
  57   1.0000      -1.743558       -47.4446   48-A'
  58   1.0000      -1.743468       -47.4422   49-A'
  59   1.0000      -1.743270       -47.4368   50-A'
  60   1.0000      -1.743094       -47.4320   51-A'
  61   1.0000      -1.740828       -47.3703   52-A'
  62   1.0000      -1.740717       -47.3673   53-A'
  63   1.0000      -1.740563       -47.3631   54-A'
  64   1.0000      -1.740431       -47.3595   55-A'
  65   1.0000      -1.740052       -47.3492   11-A"
  66   1.0000      -1.739954       -47.3465   12-A"
  67   1.0000      -1.739915       -47.3455   13-A"
  68   1.0000      -1.739759       -47.3412   14-A"
  69   1.0000      -1.735742       -47.2320   56-A'
  70   1.0000      -1.735635       -47.2290   57-A'
  71   1.0000      -1.735605       -47.2282   15-A"
  72   1.0000      -1.735537       -47.2264   16-A"
  73   1.0000      -1.735520       -47.2259   58-A'
  74   1.0000      -1.735503       -47.2254   17-A"
  75   1.0000      -1.735405       -47.2228   18-A"
  76   1.0000      -1.735389       -47.2223   59-A'
  77   1.0000      -0.606104       -16.4929   60-A'
  78   1.0000      -0.602122       -16.3846   61-A'
  79   1.0000      -0.522069       -14.2062   62-A'
  80   1.0000      -0.520578       -14.1657   63-A'
  81   1.0000      -0.506464       -13.7816   64-A'
  82   1.0000      -0.497450       -13.5363   65-A'
  83   1.0000      -0.424617       -11.5544   66-A'
  84   1.0000      -0.408070       -11.1041   67-A'
  85   1.0000      -0.384654       -10.4670   68-A'
  86   1.0000      -0.372632       -10.1398   69-A'
  87   1.0000      -0.322845        -8.7851   70-A'
  88   1.0000      -0.318833        -8.6759   71-A'
  89   1.0000      -0.290228        -7.8975   72-A'
  90   1.0000      -0.282651        -7.6913   73-A'
  91   1.0000      -0.231006        -6.2860   74-A'
  92   1.0000      -0.225653        -6.1403   75-A'
  93   1.0000      -0.197114        -5.3637   76-A'
  94   1.0000      -0.196344        -5.3428   77-A'
  95   1.0000      -0.168348        -4.5810   78-A'
  96   1.0000      -0.161833        -4.4037   79-A'
  97   1.0000      -0.139445        -3.7945   80-A'
  98   1.0000      -0.134858        -3.6697   81-A'
  99   1.0000      -0.133992        -3.6461   82-A'
 100   1.0000      -0.132240        -3.5984   19-A"
 101   1.0000      -0.130484        -3.5506   20-A"
 102   1.0000      -0.110064        -2.9950   83-A'
 103   1.0000      -0.082211        -2.2371   84-A'
 104   1.0000      -0.069877        -1.9014   85-A'
 105   1.0000      -0.064487        -1.7548   86-A'
 106   1.0000      -0.062435        -1.6989   87-A'
 107   1.0000      -0.048990        -1.3331   21-A"
 108   1.0000      -0.047942        -1.3046   22-A"
 109   1.0000      -0.035880        -0.9764   23-A"
 110   1.0000      -0.030028        -0.8171   88-A'
 111   1.0000      -0.029426        -0.8007   89-A'
 112   1.0000      -0.027835        -0.7574   24-A"
 113   1.0000      -0.002804        -0.0763   25-A"
 114   1.0000      -0.001181        -0.0321   26-A"
 115   1.0000       0.000377         0.0103   90-A'
 116   1.0000       0.018789         0.5113   91-A'
 117   1.0000       0.021374         0.5816   92-A'
 118   1.0000       0.040628         1.1056   93-A'
 119   1.0000       0.051417         1.3991   27-A"
 120   1.0000       0.056346         1.5333   28-A"
 121   1.0000       0.070652         1.9225   29-A"
 122   1.0000       0.099649         2.7116   30-A"
 123   1.0000       0.115666         3.1474   94-A'
 124   0.0000       0.181623         4.9422   95-A'
 125   0.0000       0.182859         4.9758   96-A'
 126   0.0000       0.192865         5.2481   97-A'
 127   0.0000       0.197737         5.3807   98-A'
 128   0.0000       0.198550         5.4028   31-A"

                 SPIN DOWN ORBITALS
  NO   OCC          E(Eh)            E(eV)    Irrep
   0   1.0000    -443.562154    -12069.9398    1-A'
   1   1.0000    -443.559110    -12069.8570    2-A'
   2   1.0000    -443.547153    -12069.5316    3-A'
   3   1.0000    -443.545997    -12069.5002    4-A'
   4   1.0000    -318.187303     -8658.3167    5-A'
   5   1.0000     -56.370949     -1533.9315    6-A'
   6   1.0000     -56.368949     -1533.8771    7-A'
   7   1.0000     -56.357404     -1533.5629    8-A'
   8   1.0000     -56.356824     -1533.5471    9-A'
   9   1.0000     -51.286387     -1395.5735   10-A'
  10   1.0000     -51.286328     -1395.5719   11-A'
  11   1.0000     -51.286137     -1395.5667   12-A'
  12   1.0000     -51.285886     -1395.5599   13-A'
  13   1.0000     -51.284672     -1395.5269    1-A"
  14   1.0000     -51.284652     -1395.5263   14-A'
  15   1.0000     -51.284623     -1395.5255    2-A"
  16   1.0000     -51.284600     -1395.5249   15-A'
  17   1.0000     -51.284449     -1395.5208    3-A"
  18   1.0000     -51.284377     -1395.5188   16-A'
  19   1.0000     -51.284188     -1395.5137    4-A"
  20   1.0000     -51.284121     -1395.5119   17-A'
  21   1.0000     -38.014065     -1034.4153   18-A'
  22   1.0000     -33.516847      -912.0398   19-A'
  23   1.0000     -33.516016      -912.0172   20-A'
  24   1.0000     -33.514145      -911.9663    5-A"
  25   1.0000      -9.820131      -267.2194   21-A'
  26   1.0000      -9.818953      -267.1873   22-A'
  27   1.0000      -9.818552      -267.1764   23-A'
  28   1.0000      -9.817246      -267.1408   24-A'
  29   1.0000      -9.812227      -267.0043   25-A'
  30   1.0000      -9.809339      -266.9257   26-A'
  31   1.0000      -9.809008      -266.9167   27-A'
  32   1.0000      -9.808727      -266.9090   28-A'
  33   1.0000      -9.808475      -266.9022   29-A'
  34   1.0000      -9.807710      -266.8814   30-A'
  35   1.0000      -9.802081      -266.7282   31-A'
  36   1.0000      -9.801829      -266.7213   32-A'
  37   1.0000      -7.341464      -199.7714   33-A'
  38   1.0000      -7.340512      -199.7455   34-A'
  39   1.0000      -7.333829      -199.5636   35-A'
  40   1.0000      -7.333585      -199.5570   36-A'
  41   1.0000      -5.404110      -147.0533   37-A'
  42   1.0000      -5.404047      -147.0516   38-A'
  43   1.0000      -5.403965      -147.0494   39-A'
  44   1.0000      -5.403841      -147.0460   40-A'
  45   1.0000      -5.398436      -146.8989    6-A"
  46   1.0000      -5.398429      -146.8987    7-A"
  47   1.0000      -5.398409      -146.8982   41-A'
  48   1.0000      -5.398330      -146.8960    8-A"
  49   1.0000      -5.398258      -146.8941    9-A"
  50   1.0000      -5.398244      -146.8937   42-A'
  51   1.0000      -5.398217      -146.8930   43-A'
  52   1.0000      -5.398033      -146.8879   44-A'
  53   1.0000      -3.993965      -108.6813   45-A'
  54   1.0000      -2.506940       -68.2173   10-A"
  55   1.0000      -2.506566       -68.2071   46-A'
  56   1.0000      -2.505473       -68.1774   47-A'
  57   1.0000      -1.743107       -47.4324   48-A'
  58   1.0000      -1.743018       -47.4299   49-A'
  59   1.0000      -1.742828       -47.4248   50-A'
  60   1.0000      -1.742643       -47.4197   51-A'
  61   1.0000      -1.739928       -47.3458   52-A'
  62   1.0000      -1.739821       -47.3429   53-A'
  63   1.0000      -1.739744       -47.3408   11-A"
  64   1.0000      -1.739675       -47.3390   54-A'
  65   1.0000      -1.739646       -47.3382   12-A"
  66   1.0000      -1.739611       -47.3372   13-A"
  67   1.0000      -1.739541       -47.3353   55-A'
  68   1.0000      -1.739450       -47.3328   14-A"
  69   1.0000      -1.734949       -47.2104   56-A'
  70   1.0000      -1.734842       -47.2075   57-A'
  71   1.0000      -1.734838       -47.2073   15-A"
  72   1.0000      -1.734768       -47.2054   16-A"
  73   1.0000      -1.734738       -47.2046   17-A"
  74   1.0000      -1.734722       -47.2042   58-A'
  75   1.0000      -1.734633       -47.2018   18-A"
  76   1.0000      -1.734586       -47.2005   59-A'
  77   1.0000      -0.605398       -16.4737   60-A'
  78   1.0000      -0.601271       -16.3614   61-A'
  79   1.0000      -0.521018       -14.1776   62-A'
  80   1.0000      -0.519239       -14.1292   63-A'
  81   1.0000      -0.505169       -13.7464   64-A'
  82   1.0000      -0.495608       -13.4862   65-A'
  83   1.0000      -0.421730       -11.4759   66-A'
  84   1.0000      -0.405431       -11.0323   67-A'
  85   1.0000      -0.382312       -10.4032   68-A'
  86   1.0000      -0.369937       -10.0665   69-A'
  87   1.0000      -0.320907        -8.7323   70-A'
  88   1.0000      -0.317519        -8.6401   71-A'
  89   1.0000      -0.287447        -7.8218   72-A'
  90   1.0000      -0.280142        -7.6231   73-A'
  91   1.0000      -0.229829        -6.2540   74-A'
  92   1.0000      -0.224407        -6.1064   75-A'
  93   1.0000      -0.195726        -5.3260   76-A'
  94   1.0000      -0.195111        -5.3092   77-A'
  95   1.0000      -0.166664        -4.5351   78-A'
  96   1.0000      -0.160559        -4.3690   79-A'
  97   1.0000      -0.138541        -3.7699   80-A'
  98   1.0000      -0.132999        -3.6191   81-A'
  99   1.0000      -0.131918        -3.5897   19-A"
 100   1.0000      -0.131550        -3.5796   82-A'
 101   1.0000      -0.130072        -3.5394   20-A"
 102   1.0000      -0.108374        -2.9490   83-A'
 103   1.0000      -0.080792        -2.1985   84-A'
 104   1.0000      -0.068314        -1.8589   85-A'
 105   1.0000      -0.060217        -1.6386   86-A'
 106   1.0000      -0.053218        -1.4481   87-A'
 107   1.0000      -0.048012        -1.3065   21-A"
 108   1.0000      -0.047105        -1.2818   22-A"
 109   1.0000      -0.034096        -0.9278   23-A"
 110   1.0000      -0.026399        -0.7184   24-A"
 111   1.0000      -0.023075        -0.6279   88-A'
 112   1.0000      -0.002312        -0.0629   89-A'
 113   1.0000       0.006825         0.1857   25-A"
 114   1.0000       0.010026         0.2728   26-A"
 115   1.0000       0.010796         0.2938   90-A'
 116   1.0000       0.029033         0.7900   91-A'
 117   1.0000       0.032008         0.8710   92-A'
 118   1.0000       0.051881         1.4118   93-A'
 119   1.0000       0.053996         1.4693   27-A"
 120   1.0000       0.059388         1.6160   28-A"
 121   1.0000       0.072379         1.9695   29-A"
 122   1.0000       0.102884         2.7996   30-A"
 123   0.0000       0.145528         3.9600   94-A'
 124   0.0000       0.183260         4.9867   95-A'
 125   0.0000       0.185211         5.0398   96-A'
 126   0.0000       0.196930         5.3587   97-A'
 127   0.0000       0.198730         5.4077   31-A"

MULLIKEN ATOMIC CHARGES AND SPIN POPULATIONS
--------------------------------------------
   0 Cu:    0.636178    0.310860
   1 Se:   -0.741957    0.173019
   2 C :    0.186776   -0.002496
   3 Se:   -0.723127    0.174528
   4 C :    0.245438   -0.003775
   5 Se:   -0.741441    0.171815
   6 C :    0.181179   -0.002694
   7 Se:   -0.734087    0.173322
   8 C :    0.234506   -0.003746
   9 C :   -0.126104   -0.000990
  10 C :   -0.151173   -0.000776
  11 C :   -0.152034   -0.000396
  12 H :    0.093615    0.002311
  13 C :   -0.138609   -0.000507
  14 H :    0.095609    0.002418
  15 H :    0.017579    0.001466
  16 H :    0.018047    0.001459
  17 C :    0.000416   -0.002052
  18 C :    0.005946   -0.001901
  19 C :   -0.181476   -0.001457
  20 H :    0.079195    0.003177
  21 C :   -0.179552   -0.001528
  22 H :    0.077851    0.003119
  23 H :   -0.000654    0.002389
  24 H :   -0.002121    0.002437
Sum of atomic charges         :   -2.0000000

LOEWDIN ATOMIC CHARGES AND SPIN POPULATIONS
-------------------------------------------
   0 Cu:   -0.618685    0.391026
   1 Se:   -0.207200    0.124609
   2 C :    0.047557    0.012842
   3 Se:   -0.200359    0.122792
   4 C :    0.036627    0.011050
   5 Se:   -0.207045    0.123796
   6 C :    0.044901    0.012893
   7 Se:   -0.198835    0.122307
   8 C :    0.033172    0.011367
   9 C :    0.377114    0.006905
  10 C :    0.383652    0.007219
  11 C :    0.317715    0.000524
  12 H :   -0.471442    0.010690
  13 C :    0.315747    0.000437
  14 H :   -0.469006    0.010064
  15 H :   -0.412271    0.000427
  16 H :   -0.409017    0.000388
  17 C :    0.342548    0.006736
  18 C :    0.341220    0.006687
  19 C :    0.311963    0.000378
  20 H :   -0.440248    0.007887
  21 C :    0.311694    0.000346
  22 H :   -0.439659    0.007679
  23 H :   -0.396291    0.000472
  24 H :   -0.393851    0.000480

  Mayer bond orders larger than 0.100000
B(  0-Cu,  1-Se) :   0.5533 B(  0-Cu,  3-Se) :   0.5496 B(  0-Cu,  5-Se) :   0.5531
B(  0-Cu,  7-Se) :   0.5508 B(  1-Se,  2-C ) :   1.0379 B(  2-C ,  6-C ) :   1.1513
B(  2-C , 17-C ) :   1.2473 B(  3-Se,  4-C ) :   1.0401 B(  4-C ,  8-C ) :   1.1271
B(  4-C , 10-C ) :   1.2584 B(  5-Se,  6-C ) :   1.0420 B(  6-C , 18-C ) :   1.2452
B(  7-Se,  8-C ) :   1.0394 B(  8-C ,  9-C ) :   1.2547 B(  9-C , 13-C ) :   1.3817
B(  9-C , 14-H ) :   0.9574 B( 10-C , 11-C ) :   1.3875 B( 10-C , 12-H ) :   0.9600
B( 11-C , 13-C ) :   1.3078 B( 11-C , 15-H ) :   0.9953 B( 13-C , 16-H ) :   0.9961
B( 17-C , 19-C ) :   1.3682 B( 17-C , 20-H ) :   0.9625 B( 18-C , 21-C ) :   1.3657
B( 18-C , 22-H ) :   0.9628 B( 19-C , 21-C ) :   1.3108 B( 19-C , 23-H ) :   1.0001
B( 21-C , 24-H ) :   1.0002

FINAL SINGLE POINT ENERGY    -11627.116732022972

DIPOLE MOMENT
-------------
                                X             Y             Z
Electronic contribution:     -0.04733       0.01764       0.00000
Nuclear contribution   :      0.05646       0.02625       0.00000
                        -----------------------------------------
Total Dipole Moment    :      0.00913       0.04389       0.00000
                        -----------------------------------------
Magnitude (a.u.)       :      0.04483
Magnitude (Debye)      :      0.11395

Rotational constants in cm-1:     0.017588     0.004099     0.003324
Rotational constants in MHz :   527.283411   122.889131    99.661853

                             ****ORCA TERMINATED NORMALLY****
TOTAL RUN TIME: 0 days 17 hours 3 minutes 53 seconds 905 msec
