                         Program Version 5.0.4 -  RELEASE  -
|  1> ! RIJCOSX nofrozencore ReducedPop printbasis
|  2> ! M06L ano-rcc-dzp autoaux
|  3>
|  4> %maxcore 7500
|  5> %basis
|  6> PCDTrimBas overlap
|  7> PCDTrimAuxJ Coulomb
|  8> PCDTrimAuxJK Coulomb
|  9> PCDTrimAuxC Coulomb
| 10> PCDThresh -1
| 11> end
| 12>
| 13> %basis
| 14> newgto Cu "ano-rcc-tzp" end
| 15> newgto Se "ano-rcc-tzp" end
| 16> end
| 17>
| 18> %pal
| 19> nprocs 8
| 20> end
| 21>
| 22> % sym SymThresh 1e-2 end
| 23> * xyz -2 2
| 24> Cu 0.0 0.0 0.0
| 25> Se 1.0857632345187906 -0.32364898620161037 2.079506155133224
| 26> C 2.160033285234649 -1.5281285745927349 1.8044142607177502
| 27> Se -1.4291424469361267 1.7340802784378635 0.7473244088327924
| 28> C -2.3139559911655425 2.139746405269535 -0.5691133758876138
| 29> Se 1.4291783045805462 -1.734045021439074 -0.7473376441406102
| 30> C 2.3179934240131663 -2.135776602809673 0.5676231311323463
| 31> Se -1.0857977130230403 0.32361508524123583 -2.0794934288757068
| 32> C -2.164094163465163 1.5241357194798184 -1.802915362107371
| 33> C -2.985995710684335 1.9745353838687263 -2.830488063323733
| 34> C -3.2712336752976543 3.145062081833801 -0.4839811826009784
| 35> C -4.084440899231482 3.5873189004329396 -1.5056120765119878
| 36> H -3.380702248399971 3.621019838466891 0.47936270448334783
| 37> C -3.932996192961496 2.9724579562717084 -2.741241603408281
| 38> H -2.864837488193411 1.4890207426961026 -3.787643637627544
| 39> H -4.797454990559511 4.386986402980703 -1.3343805156311568
| 40> H -4.529303976561612 3.2440474209416674 -3.6060171869669304
| 41> C 2.9774526534430694 -1.9829366277640343 2.833642009262396
| 42> C 3.2797884817720564 -3.1366505755456635 0.4808235435858035
| 43> C 3.891000022187047 -3.013751945980043 2.7567433279656104
| 44> H 2.958903838739021 -1.3965313724782873 3.7529237321446325
| 45> C 4.12644672398712 -3.5460154184557 1.4901067886025532
| 46> H 3.2866579906387723 -3.7134887760037647 -0.4446503099542033
| 47> H 4.753290821138571 -3.0238125439451298 3.5233420731068525
| 48> H 4.5733813416704185 -4.607305890303932 1.4170861762424902
| 49> *
| 50>
| 51> % eprnmr
| 52> gtensor true
| 53> Nuclei = all H {aiso,adip,aorb,fgrad,rho}
| 54> Nuclei = all Cu {aiso,adip,aorb,fgrad,rho}
| 55> end
| 56>
| 57>                          ****END OF INPUT****

CARTESIAN COORDINATES (ANGSTROEM)
---------------------------------
  Cu     0.000000    0.000000   -0.000000
  Se     0.661107    1.444814    1.755969
  C      0.283226    0.633043    3.126639
  Se     0.661153    1.444793   -1.755969
  C      0.288566    0.630599   -3.126639
  Se    -0.661107   -1.444814    1.755969
  C     -0.283226   -0.633043    3.126639
  Se    -0.661153   -1.444793   -1.755969
  C     -0.288566   -0.630599   -3.126639
  C     -0.548634   -1.199332   -4.368893
  C      0.548634    1.199332   -4.368893
  C      0.287931    0.631695   -5.597896
  H      0.999871    2.180591   -4.360734
  C     -0.287931   -0.631695   -5.597896
  H     -0.999871   -2.180591   -4.360734
  H      0.537363    1.160120   -6.512078
  H     -0.537363   -1.160120   -6.512078
  C      0.537360    1.204491    4.368893
  C     -0.537360   -1.204491    4.368893
  C      0.232544    0.657039    5.597895
  H      1.123899    2.123838    4.360734
  C     -0.232544   -0.657039    5.597895
  H     -1.123899   -2.123838    4.360734
  H      0.832787    1.024938    6.512077
  H     -0.832787   -1.024938    6.512077

 Total Charge           Charge          ....   -2
 Multiplicity           Mult            ....    2
 Number of Electrons    NEL             ....  247
 Basis Dimension        Dim             ....  575

ORBITAL ENERGIES
----------------
                 SPIN UP ORBITALS
  NO   OCC          E(Eh)            E(eV)    Irrep
   0   1.0000    -443.563768    -12069.9838    1-B
   1   1.0000    -443.562519    -12069.9498    2-B
   2   1.0000    -443.549418    -12069.5933    1-A
   3   1.0000    -443.548489    -12069.5680    2-A
   4   1.0000    -318.189064     -8658.3646    3-A
   5   1.0000     -56.372602     -1533.9765    3-B
   6   1.0000     -56.371681     -1533.9514    4-B
   7   1.0000     -56.359776     -1533.6275    4-A
   8   1.0000     -56.358606     -1533.5956    5-A
   9   1.0000     -51.288980     -1395.6441    5-B
  10   1.0000     -51.288932     -1395.6428    6-A
  11   1.0000     -51.287791     -1395.6117    6-B
  12   1.0000     -51.287744     -1395.6105    7-A
  13   1.0000     -51.287641     -1395.6077    7-B
  14   1.0000     -51.287585     -1395.6061    8-A
  15   1.0000     -51.287254     -1395.5971    9-A
  16   1.0000     -51.287206     -1395.5958    8-B
  17   1.0000     -51.286468     -1395.5757    9-B
  18   1.0000     -51.286409     -1395.5741   10-A
  19   1.0000     -51.286009     -1395.5633   11-A
  20   1.0000     -51.285961     -1395.5619   10-B
  21   1.0000     -38.029634     -1034.8390   12-A
  22   1.0000     -33.531697      -912.4439   11-B
  23   1.0000     -33.530885      -912.4218   13-A
  24   1.0000     -33.519725      -912.1181   12-B
  25   1.0000      -9.819070      -267.1905   14-A
  26   1.0000      -9.818642      -267.1788   13-B
  27   1.0000      -9.817267      -267.1414   15-A
  28   1.0000      -9.816819      -267.1292   14-B
  29   1.0000      -9.811377      -266.9811   16-A
  30   1.0000      -9.810929      -266.9690   15-B
  31   1.0000      -9.809922      -266.9416   17-A
  32   1.0000      -9.809604      -266.9329   18-A
  33   1.0000      -9.809598      -266.9327   16-B
  34   1.0000      -9.809471      -266.9293   17-B
  35   1.0000      -9.807758      -266.8827   19-A
  36   1.0000      -9.807757      -266.8826   18-B
  37   1.0000      -7.343901      -199.8377   19-B
  38   1.0000      -7.342770      -199.8069   20-B
  39   1.0000      -7.336643      -199.6402   20-A
  40   1.0000      -7.335378      -199.6058   21-A
  41   1.0000      -5.406854      -147.1280   21-B
  42   1.0000      -5.406836      -147.1275   22-A
  43   1.0000      -5.405592      -147.0936   22-B
  44   1.0000      -5.405575      -147.0932   23-A
  45   1.0000      -5.401562      -146.9840   23-B
  46   1.0000      -5.401544      -146.9835   24-A
  47   1.0000      -5.401305      -146.9770   25-A
  48   1.0000      -5.401287      -146.9765   24-B
  49   1.0000      -5.400320      -146.9502   25-B
  50   1.0000      -5.400294      -146.9495   26-A
  51   1.0000      -5.399895      -146.9386   27-A
  52   1.0000      -5.399869      -146.9379   26-B
  53   1.0000      -4.023929      -109.4967   28-A
  54   1.0000      -2.543514       -69.2125   27-B
  55   1.0000      -2.542512       -69.1853   29-A
  56   1.0000      -2.519023       -68.5461   28-B
  57   1.0000      -1.745926       -47.5091   30-A
  58   1.0000      -1.745898       -47.5083   29-B
  59   1.0000      -1.744646       -47.4742   31-A
  60   1.0000      -1.744617       -47.4735   30-B
  61   1.0000      -1.743123       -47.4328   32-A
  62   1.0000      -1.743041       -47.4306   31-B
  63   1.0000      -1.742522       -47.4164   32-B
  64   1.0000      -1.742515       -47.4163   33-A
  65   1.0000      -1.741917       -47.4000   34-A
  66   1.0000      -1.741835       -47.3977   33-B
  67   1.0000      -1.741140       -47.3788   34-B
  68   1.0000      -1.741133       -47.3786   35-A
  69   1.0000      -1.738206       -47.2990   36-A
  70   1.0000      -1.738140       -47.2972   35-B
  71   1.0000      -1.738098       -47.2961   36-B
  72   1.0000      -1.738075       -47.2954   37-A
  73   1.0000      -1.736855       -47.2622   38-A
  74   1.0000      -1.736789       -47.2604   37-B
  75   1.0000      -1.736749       -47.2594   38-B
  76   1.0000      -1.736726       -47.2587   39-A
  77   1.0000      -0.604311       -16.4441   40-A
  78   1.0000      -0.603992       -16.4355   41-A
  79   1.0000      -0.522794       -14.2259   42-A
  80   1.0000      -0.520133       -14.1535   43-A
  81   1.0000      -0.500827       -13.6282   39-B
  82   1.0000      -0.500572       -13.6213   40-B
  83   1.0000      -0.414217       -11.2714   41-B
  84   1.0000      -0.411497       -11.1974   42-B
  85   1.0000      -0.384002       -10.4492   44-A
  86   1.0000      -0.378308       -10.2943   45-A
  87   1.0000      -0.321895        -8.7592   46-A
  88   1.0000      -0.319431        -8.6921   47-A
  89   1.0000      -0.287907        -7.8343   43-B
  90   1.0000      -0.280234        -7.6256   44-B
  91   1.0000      -0.229223        -6.2375   48-A
  92   1.0000      -0.214198        -5.8286   49-A
  93   1.0000      -0.201516        -5.4835   50-A
  94   1.0000      -0.199681        -5.4336   51-A
  95   1.0000      -0.170359        -4.6357   45-B
  96   1.0000      -0.163151        -4.4396   46-B
  97   1.0000      -0.148711        -4.0466   47-B
  98   1.0000      -0.139353        -3.7920   48-B
  99   1.0000      -0.136285        -3.7085   52-A
 100   1.0000      -0.131866        -3.5883   49-B
 101   1.0000      -0.118763        -3.2317   50-B
 102   1.0000      -0.108798        -2.9605   53-A
 103   1.0000      -0.081612        -2.2208   54-A
 104   1.0000      -0.074664        -2.0317   51-B
 105   1.0000      -0.068692        -1.8692   52-B
 106   1.0000      -0.064353        -1.7511   55-A
 107   1.0000      -0.049721        -1.3530   53-B
 108   1.0000      -0.040505        -1.1022   54-B
 109   1.0000      -0.035002        -0.9525   56-A
 110   1.0000      -0.031634        -0.8608   55-B
 111   1.0000      -0.031537        -0.8582   57-A
 112   1.0000      -0.028158        -0.7662   58-A
 113   1.0000      -0.003944        -0.1073   59-A
 114   1.0000      -0.002818        -0.0767   56-B
 115   1.0000      -0.001325        -0.0360   60-A
 116   1.0000       0.017192         0.4678   61-A
 117   1.0000       0.018988         0.5167   62-A
 118   1.0000       0.038924         1.0592   57-B
 119   1.0000       0.051556         1.4029   63-A
 120   1.0000       0.054116         1.4726   64-A
 121   1.0000       0.068391         1.8610   58-B
 122   1.0000       0.097165         2.6440   59-B
 123   1.0000       0.114314         3.1106   60-B
 124   0.0000       0.181329         4.9342   65-A
 125   0.0000       0.183407         4.9908   66-A
 126   0.0000       0.195518         5.3203   61-B
 127   0.0000       0.196841         5.3563   62-B
 128   0.0000       0.198148         5.3919   63-B

                 SPIN DOWN ORBITALS
  NO   OCC          E(Eh)            E(eV)    Irrep
   0   1.0000    -443.563316    -12069.9714    1-B
   1   1.0000    -443.562065    -12069.9374    2-B
   2   1.0000    -443.548966    -12069.5810    1-A
   3   1.0000    -443.548033    -12069.5556    2-A
   4   1.0000    -318.188944     -8658.3613    3-A
   5   1.0000     -56.372419     -1533.9715    3-B
   6   1.0000     -56.371496     -1533.9464    4-B
   7   1.0000     -56.359595     -1533.6226    4-A
   8   1.0000     -56.358424     -1533.5907    5-A
   9   1.0000     -51.288658     -1395.6353    5-B
  10   1.0000     -51.288602     -1395.6338    6-A
  11   1.0000     -51.287466     -1395.6029    6-B
  12   1.0000     -51.287411     -1395.6014    7-A
  13   1.0000     -51.287012     -1395.5906    8-A
  14   1.0000     -51.286971     -1395.5894    7-B
  15   1.0000     -51.286894     -1395.5873    8-B
  16   1.0000     -51.286852     -1395.5862    9-A
  17   1.0000     -51.285758     -1395.5564   10-A
  18   1.0000     -51.285726     -1395.5556    9-B
  19   1.0000     -51.285709     -1395.5551   10-B
  20   1.0000     -51.285676     -1395.5542   11-A
  21   1.0000     -38.015761     -1034.4614   12-A
  22   1.0000     -33.518511      -912.0850   11-B
  23   1.0000     -33.517701      -912.0630   13-A
  24   1.0000     -33.515860      -912.0129   12-B
  25   1.0000      -9.819019      -267.1891   14-A
  26   1.0000      -9.818591      -267.1774   13-B
  27   1.0000      -9.817216      -267.1400   15-A
  28   1.0000      -9.816768      -267.1278   14-B
  29   1.0000      -9.811396      -266.9817   16-A
  30   1.0000      -9.810946      -266.9694   15-B
  31   1.0000      -9.809942      -266.9421   17-A
  32   1.0000      -9.809488      -266.9297   18-A
  33   1.0000      -9.809487      -266.9297   16-B
  34   1.0000      -9.809482      -266.9296   17-B
  35   1.0000      -9.807638      -266.8794   19-A
  36   1.0000      -9.807638      -266.8794   18-B
  37   1.0000      -7.343503      -199.8269   19-B
  38   1.0000      -7.342368      -199.7960   20-B
  39   1.0000      -7.336238      -199.6292   20-A
  40   1.0000      -7.334969      -199.5946   21-A
  41   1.0000      -5.406491      -147.1181   21-B
  42   1.0000      -5.406472      -147.1176   22-A
  43   1.0000      -5.405226      -147.0837   22-B
  44   1.0000      -5.405207      -147.0832   23-A
  45   1.0000      -5.401053      -146.9701   24-A
  46   1.0000      -5.401030      -146.9695   23-B
  47   1.0000      -5.400685      -146.9601   24-B
  48   1.0000      -5.400663      -146.9595   25-A
  49   1.0000      -5.399581      -146.9301   26-A
  50   1.0000      -5.399554      -146.9293   25-B
  51   1.0000      -5.399488      -146.9275   26-B
  52   1.0000      -5.399463      -146.9269   27-A
  53   1.0000      -3.995726      -108.7292   28-A
  54   1.0000      -2.508725       -68.2659   27-B
  55   1.0000      -2.508294       -68.2541   28-B
  56   1.0000      -2.507221       -68.2250   29-A
  57   1.0000      -1.745481       -47.4970   30-A
  58   1.0000      -1.745452       -47.4962   29-B
  59   1.0000      -1.744190       -47.4618   31-A
  60   1.0000      -1.744161       -47.4610   30-B
  61   1.0000      -1.742265       -47.4094   32-A
  62   1.0000      -1.742236       -47.4086   31-B
  63   1.0000      -1.742176       -47.4070   33-A
  64   1.0000      -1.742128       -47.4057   32-B
  65   1.0000      -1.741021       -47.3756   34-A
  66   1.0000      -1.740939       -47.3733   33-B
  67   1.0000      -1.740825       -47.3702   34-B
  68   1.0000      -1.740819       -47.3701   35-A
  69   1.0000      -1.737398       -47.2770   36-A
  70   1.0000      -1.737339       -47.2754   35-B
  71   1.0000      -1.737331       -47.2752   36-B
  72   1.0000      -1.737311       -47.2746   37-A
  73   1.0000      -1.736045       -47.2402   38-A
  74   1.0000      -1.735988       -47.2386   37-B
  75   1.0000      -1.735973       -47.2382   38-B
  76   1.0000      -1.735954       -47.2377   39-A
  77   1.0000      -0.603477       -16.4214   40-A
  78   1.0000      -0.603183       -16.4134   41-A
  79   1.0000      -0.521650       -14.1948   42-A
  80   1.0000      -0.518989       -14.1224   43-A
  81   1.0000      -0.499100       -13.5812   39-B
  82   1.0000      -0.498846       -13.5743   40-B
  83   1.0000      -0.411513       -11.1978   41-B
  84   1.0000      -0.408771       -11.1232   42-B
  85   1.0000      -0.381490       -10.3809   44-A
  86   1.0000      -0.375909       -10.2290   45-A
  87   1.0000      -0.320150        -8.7117   46-A
  88   1.0000      -0.317557        -8.6412   47-A
  89   1.0000      -0.285431        -7.7670   43-B
  90   1.0000      -0.277554        -7.5526   44-B
  91   1.0000      -0.228080        -6.2064   48-A
  92   1.0000      -0.213026        -5.7967   49-A
  93   1.0000      -0.200233        -5.4486   50-A
  94   1.0000      -0.198464        -5.4005   51-A
  95   1.0000      -0.168811        -4.5936   45-B
  96   1.0000      -0.161556        -4.3962   46-B
  97   1.0000      -0.147929        -4.0254   47-B
  98   1.0000      -0.138051        -3.7566   48-B
  99   1.0000      -0.134320        -3.6550   52-A
 100   1.0000      -0.131476        -3.5776   49-B
 101   1.0000      -0.117447        -3.1959   50-B
 102   1.0000      -0.107011        -2.9119   53-A
 103   1.0000      -0.080295        -2.1849   54-A
 104   1.0000      -0.073186        -1.9915   51-B
 105   1.0000      -0.062301        -1.6953   55-A
 106   1.0000      -0.058379        -1.5886   52-B
 107   1.0000      -0.048827        -1.3286   53-B
 108   1.0000      -0.038305        -1.0423   54-B
 109   1.0000      -0.032424        -0.8823   56-A
 110   1.0000      -0.027682        -0.7533   57-A
 111   1.0000      -0.024693        -0.6719   58-A
 112   1.0000      -0.004165        -0.1133   55-B
 113   1.0000       0.005651         0.1538   59-A
 114   1.0000       0.008268         0.2250   56-B
 115   1.0000       0.008995         0.2448   60-A
 116   1.0000       0.027126         0.7381   61-A
 117   1.0000       0.030031         0.8172   62-A
 118   1.0000       0.050186         1.3656   57-B
 119   1.0000       0.053720         1.4618   63-A
 120   1.0000       0.057415         1.5623   64-A
 121   1.0000       0.070103         1.9076   58-B
 122   1.0000       0.100399         2.7320   59-B
 123   0.0000       0.144109         3.9214   60-B
 124   0.0000       0.183229         4.9859   65-A
 125   0.0000       0.184980         5.0336   66-A
 126   0.0000       0.198046         5.3891   61-B
 127   0.0000       0.198775         5.4089   62-B

MULLIKEN ATOMIC CHARGES AND SPIN POPULATIONS
--------------------------------------------
   0 Cu:    0.637661    0.310027
   1 Se:   -0.721577    0.172602
   2 C :    0.228854   -0.003588
   3 Se:   -0.732391    0.174683
   4 C :    0.221671   -0.003193
   5 Se:   -0.721577    0.172602
   6 C :    0.228854   -0.003588
   7 Se:   -0.732391    0.174683
   8 C :    0.221671   -0.003193
   9 C :   -0.103052   -0.001527
  10 C :   -0.103052   -0.001527
  11 C :   -0.156536   -0.000633
  12 H :    0.092263    0.002770
  13 C :   -0.156536   -0.000633
  14 H :    0.092263    0.002770
  15 H :    0.021445    0.001582
  16 H :    0.021445    0.001582
  17 C :   -0.067402   -0.001165
  18 C :   -0.067402   -0.001165
  19 C :   -0.167480   -0.000578
  20 H :    0.084568    0.002410
  21 C :   -0.167480   -0.000578
  22 H :    0.084568    0.002410
  23 H :   -0.019192    0.001625
  24 H :   -0.019192    0.001625
Sum of atomic charges         :   -2.0000000

LOEWDIN ATOMIC CHARGES AND SPIN POPULATIONS
-------------------------------------------
   0 Cu:   -0.614662    0.390520
   1 Se:   -0.197492    0.122706
   2 C :    0.036722    0.011637
   3 Se:   -0.201501    0.124259
   4 C :    0.038609    0.011848
   5 Se:   -0.197492    0.122706
   6 C :    0.036722    0.011637
   7 Se:   -0.201501    0.124259
   8 C :    0.038609    0.011848
   9 C :    0.371470    0.006953
  10 C :    0.371470    0.006953
  11 C :    0.319995    0.000471
  12 H :   -0.459691    0.009459
  13 C :    0.319995    0.000471
  14 H :   -0.459691    0.009459
  15 H :   -0.411829    0.000389
  16 H :   -0.411829    0.000389
  17 C :    0.358291    0.006911
  18 C :    0.358291    0.006911
  19 C :    0.273586    0.000414
  20 H :   -0.453255    0.009205
  21 C :    0.273586    0.000414
  22 H :   -0.453255    0.009205
  23 H :   -0.367574    0.000489
  24 H :   -0.367574    0.000489

  Mayer bond orders larger than 0.100000
B(  0-Cu,  1-Se) :   0.5483 B(  0-Cu,  3-Se) :   0.5525 B(  0-Cu,  5-Se) :   0.5483
B(  0-Cu,  7-Se) :   0.5525 B(  1-Se,  2-C ) :   1.0423 B(  2-C ,  6-C ) :   1.1317
B(  2-C , 17-C ) :   1.2508 B(  3-Se,  4-C ) :   1.0388 B(  4-C ,  8-C ) :   1.1335
B(  4-C , 10-C ) :   1.2574 B(  5-Se,  6-C ) :   1.0423 B(  6-C , 18-C ) :   1.2508
B(  7-Se,  8-C ) :   1.0388 B(  8-C ,  9-C ) :   1.2574 B(  9-C , 13-C ) :   1.3793
B(  9-C , 14-H ) :   0.9599 B( 10-C , 11-C ) :   1.3793 B( 10-C , 12-H ) :   0.9599
B( 11-C , 13-C ) :   1.3124 B( 11-C , 15-H ) :   0.9955 B( 13-C , 16-H ) :   0.9955
B( 17-C , 19-C ) :   1.3861 B( 17-C , 20-H ) :   0.9622 B( 18-C , 21-C ) :   1.3861
B( 18-C , 22-H ) :   0.9622 B( 19-C , 21-C ) :   1.2850 B( 19-C , 23-H ) :   1.0125
B( 21-C , 24-H ) :   1.0125

FINAL SINGLE POINT ENERGY    -11627.125956718264

DIPOLE MOMENT
-------------
                                X             Y             Z
Electronic contribution:      0.00000      -0.00000      -0.37201
Nuclear contribution   :      0.00000      -0.00000       0.00000
                        -----------------------------------------
Total Dipole Moment    :      0.00000      -0.00000      -0.37201
                        -----------------------------------------
Magnitude (a.u.)       :      0.37201
Magnitude (Debye)      :      0.94556

Rotational constants in cm-1:     0.017609     0.004098     0.003325
Rotational constants in MHz :   527.904686   122.840530    99.666038

                             ****ORCA TERMINATED NORMALLY****
TOTAL RUN TIME: 0 days 17 hours 8 minutes 47 seconds 983 msec
