                         Program Version 5.0.4 -  RELEASE  -
|  1> ! RIJCOSX nofrozencore ReducedPop printbasis
|  2> ! M06L ano-rcc-dzp autoaux
|  3>
|  4> %maxcore 7500
|  5> %basis
|  6> PCDTrimBas overlap
|  7> PCDTrimAuxJ Coulomb
|  8> PCDTrimAuxJK Coulomb
|  9> PCDTrimAuxC Coulomb
| 10> PCDThresh -1
| 11> end
| 12>
| 13> %basis
| 14> newgto Cu "ano-rcc-tzp" end
| 15> newgto Se "ano-rcc-tzp" end
| 16> end
| 17>
| 18> %pal
| 19> nprocs 8
| 20> end
| 21>
| 22> % sym SymThresh 1e-2 end
| 23> * xyz -2 2
| 24> Cu 2.9691576626927434e-05 3.2000935946782837e-05 -0.0001324664122558515
| 25> Se -0.5280972116627028 0.46724813072411037 2.2600803220801473
| 26> C -0.6630429462538643 -1.0009986464378355 2.9846303470744275
| 27> Se 0.109877007533489 2.2633176455830606 -0.6888394337389806
| 28> C 0.4761255439847436 2.184375195025799 -2.278959836580328
| 29> Se -0.10928908991584856 -2.2626475499638694 0.6862131143113387
| 30> C -0.47736879920076675 -2.223718362033151 2.2880258828685087
| 31> Se 0.5283862887380528 -0.4654828048061802 -2.261504643619685
| 32> C 0.6554540042131164 1.0127654584518648 -2.952620079179131
| 33> C 0.9696505022506969 1.0741111925345983 -4.328701801265349
| 34> C 0.6140979288332714 3.3825857574624996 -2.991703620425081
| 35> C 0.9253599847357695 3.5018808266820365 -4.360352992441616
| 36> H 0.4552494717433421 4.265694029643132 -2.3806517338530107
| 37> C 1.1185894610230458 2.2536255531385962 -5.087546034147006
| 38> H 1.092106066156147 0.08800668839559836 -4.771484113519774
| 39> H 0.9966102553763606 4.513761296758365 -4.76482584037674
| 40> H 1.3632620281093064 2.1752200781337465 -6.1474499442656
| 41> C -0.9669312440626422 -1.150447891046256 4.32391080009159
| 42> C -0.6325798424927431 -3.334069121637736 3.067821418348635
| 43> C -1.0885891383632724 -2.30700183227874 4.96163953659242
| 44> H -1.138394375052712 -0.30950490508860523 4.993887705366475
| 45> C -0.9258147300569853 -3.3798043198459173 4.3510312511137395
| 46> H -0.5230257803993054 -4.349469110848211 2.6840188428893295
| 47> H -1.3274099076926005 -2.465311832481802 6.017941774029535
| 48> H -1.0479753279855117 -4.2697383001480365 4.966266136375759
| 49> *
| 50>
| 51> % eprnmr
| 52> gtensor true
| 53> Nuclei = all H {aiso,adip,aorb,fgrad,rho}
| 54> Nuclei = all Cu {aiso,adip,aorb,fgrad,rho}
| 55> end
| 56>
| 57>                          ****END OF INPUT****

CARTESIAN COORDINATES (ANGSTROEM)
---------------------------------
  Cu     0.000032   -0.000136    0.000000
  Se     0.472852    2.319823    0.000000
  C     -0.993958    3.059688    0.000000
  Se     2.262145   -0.701341    0.000000
  C      2.179316   -2.332902    0.000000
  Se    -2.261481    0.698648    0.000000
  C     -2.218645    2.342110    0.000000
  Se    -0.471090   -2.321281    0.000000
  C      1.005806   -3.026819    0.000000
  C      1.063817   -4.438456    0.000000
  C      3.376058   -3.061294    0.000000
  C      3.492050   -4.465169    0.000000
  H      4.260850   -2.432295    0.000000
  C      2.241747   -5.214189    0.000000
  H      0.076415   -4.895065    0.000000
  H      4.503171   -4.877734    0.000000
  H      2.160745   -6.301777    0.000000
  C     -1.140182    4.433359    0.000000
  C     -3.327346    3.139502    0.000000
  C     -2.295441    5.084889    0.000000
  H     -0.297421    5.122713    0.000000
  C     -3.369968    4.455894    0.000000
  H     -4.343906    2.743333    0.000000
  H     -2.451216    6.168220    0.000000
  H     -4.258603    5.084979    0.000000

 Total Charge           Charge          ....   -2
 Multiplicity           Mult            ....    2
 Number of Electrons    NEL             ....  247
 Basis Dimension        Dim             ....  575

ORBITAL ENERGIES
----------------
                 SPIN UP ORBITALS
  NO   OCC          E(Eh)            E(eV)    Irrep
   0   1.0000    -443.562061    -12069.9373    1-A'
   1   1.0000    -443.559000    -12069.8540    2-A'
   2   1.0000    -443.547126    -12069.5309    3-A'
   3   1.0000    -443.545815    -12069.4952    4-A'
   4   1.0000    -318.186827     -8658.3037    5-A'
   5   1.0000     -56.370826     -1533.9282    6-A'
   6   1.0000     -56.368277     -1533.8588    7-A'
   7   1.0000     -56.357315     -1533.5605    8-A'
   8   1.0000     -56.356113     -1533.5278    9-A'
   9   1.0000     -51.286648     -1395.5806   10-A'
  10   1.0000     -51.286566     -1395.5784   11-A'
  11   1.0000     -51.285422     -1395.5473   12-A'
  12   1.0000     -51.285330     -1395.5448   13-A'
  13   1.0000     -51.285248     -1395.5425   14-A'
  14   1.0000     -51.284907     -1395.5333   15-A'
  15   1.0000     -51.284888     -1395.5327    1-A"
  16   1.0000     -51.284808     -1395.5306    2-A"
  17   1.0000     -51.284050     -1395.5099   16-A'
  18   1.0000     -51.283594     -1395.4975    3-A"
  19   1.0000     -51.283510     -1395.4953   17-A'
  20   1.0000     -51.283035     -1395.4823    4-A"
  21   1.0000     -38.027405     -1034.7783   18-A'
  22   1.0000     -33.529483      -912.3836   19-A'
  23   1.0000     -33.528687      -912.3620   20-A'
  24   1.0000     -33.517448      -912.0561    5-A"
  25   1.0000      -9.830316      -267.4965   21-A'
  26   1.0000      -9.829119      -267.4639   22-A'
  27   1.0000      -9.814955      -267.0785   23-A'
  28   1.0000      -9.812992      -267.0251   24-A'
  29   1.0000      -9.811181      -266.9758   25-A'
  30   1.0000      -9.809619      -266.9333   26-A'
  31   1.0000      -9.808282      -266.8969   27-A'
  32   1.0000      -9.806864      -266.8583   28-A'
  33   1.0000      -9.797345      -266.5993   29-A'
  34   1.0000      -9.795049      -266.5368   30-A'
  35   1.0000      -9.789103      -266.3750   31-A'
  36   1.0000      -9.786878      -266.3145   32-A'
  37   1.0000      -7.341795      -199.7804   33-A'
  38   1.0000      -7.339765      -199.7252   34-A'
  39   1.0000      -7.334153      -199.5724   35-A'
  40   1.0000      -7.332860      -199.5373   36-A'
  41   1.0000      -5.404564      -147.0657   37-A'
  42   1.0000      -5.404380      -147.0607   38-A'
  43   1.0000      -5.403318      -147.0318   39-A'
  44   1.0000      -5.402772      -147.0169   40-A'
  45   1.0000      -5.399261      -146.9214   41-A'
  46   1.0000      -5.399114      -146.9174   42-A'
  47   1.0000      -5.398897      -146.9114    6-A"
  48   1.0000      -5.398719      -146.9066    7-A"
  49   1.0000      -5.397945      -146.8856   43-A'
  50   1.0000      -5.397485      -146.8730    8-A"
  51   1.0000      -5.397368      -146.8699   44-A'
  52   1.0000      -5.396817      -146.8549    9-A"
  53   1.0000      -4.021718      -109.4365   45-A'
  54   1.0000      -2.541330       -69.1531   46-A'
  55   1.0000      -2.540368       -69.1269   47-A'
  56   1.0000      -2.516726       -68.4836   10-A"
  57   1.0000      -1.743592       -47.4455   48-A'
  58   1.0000      -1.743464       -47.4421   49-A'
  59   1.0000      -1.742219       -47.4082   50-A'
  60   1.0000      -1.741644       -47.3925   51-A'
  61   1.0000      -1.740908       -47.3725   52-A'
  62   1.0000      -1.740721       -47.3674   53-A'
  63   1.0000      -1.740150       -47.3519   11-A"
  64   1.0000      -1.739975       -47.3471   12-A"
  65   1.0000      -1.739581       -47.3364   54-A'
  66   1.0000      -1.739014       -47.3210   55-A'
  67   1.0000      -1.738783       -47.3147   13-A"
  68   1.0000      -1.738169       -47.2980   14-A"
  69   1.0000      -1.735802       -47.2336   56-A'
  70   1.0000      -1.735739       -47.2319   15-A"
  71   1.0000      -1.735637       -47.2291   57-A'
  72   1.0000      -1.735578       -47.2275   16-A"
  73   1.0000      -1.734395       -47.1953   58-A'
  74   1.0000      -1.734341       -47.1938   17-A"
  75   1.0000      -1.733754       -47.1778   59-A'
  76   1.0000      -1.733697       -47.1763   18-A"
  77   1.0000      -0.619646       -16.8614   60-A'
  78   1.0000      -0.598271       -16.2798   61-A'
  79   1.0000      -0.536763       -14.6061   62-A'
  80   1.0000      -0.512406       -13.9433   63-A'
  81   1.0000      -0.498825       -13.5737   64-A'
  82   1.0000      -0.497930       -13.5494   65-A'
  83   1.0000      -0.415216       -11.2986   66-A'
  84   1.0000      -0.410165       -11.1612   67-A'
  85   1.0000      -0.396237       -10.7822   68-A'
  86   1.0000      -0.375590       -10.2203   69-A'
  87   1.0000      -0.323043        -8.7904   70-A'
  88   1.0000      -0.318387        -8.6638   71-A'
  89   1.0000      -0.288808        -7.8589   72-A'
  90   1.0000      -0.277072        -7.5395   73-A'
  91   1.0000      -0.245966        -6.6931   74-A'
  92   1.0000      -0.219447        -5.9715   75-A'
  93   1.0000      -0.206500        -5.6192   76-A'
  94   1.0000      -0.194021        -5.2796   77-A'
  95   1.0000      -0.169099        -4.6014   78-A'
  96   1.0000      -0.158006        -4.2996   79-A'
  97   1.0000      -0.140328        -3.8185   80-A'
  98   1.0000      -0.140080        -3.8118   19-A"
  99   1.0000      -0.136976        -3.7273   81-A'
 100   1.0000      -0.129271        -3.5176   82-A'
 101   1.0000      -0.128114        -3.4862   20-A"
 102   1.0000      -0.109504        -2.9797   83-A'
 103   1.0000      -0.079687        -2.1684   84-A'
 104   1.0000      -0.072349        -1.9687   85-A'
 105   1.0000      -0.064475        -1.7545   86-A'
 106   1.0000      -0.060197        -1.6380   21-A"
 107   1.0000      -0.059616        -1.6222   87-A'
 108   1.0000      -0.042836        -1.1656   22-A"
 109   1.0000      -0.032971        -0.8972   23-A"
 110   1.0000      -0.029813        -0.8113   88-A'
 111   1.0000      -0.028396        -0.7727   89-A'
 112   1.0000      -0.026624        -0.7245   24-A"
 113   1.0000      -0.001707        -0.0465   25-A"
 114   1.0000      -0.001066        -0.0290   26-A"
 115   1.0000       0.000853         0.0232   90-A'
 116   1.0000       0.018810         0.5119   91-A'
 117   1.0000       0.022643         0.6161   92-A'
 118   1.0000       0.041219         1.1216   93-A'
 119   1.0000       0.054764         1.4902   27-A"
 120   1.0000       0.057173         1.5558   28-A"
 121   1.0000       0.069954         1.9035   29-A"
 122   1.0000       0.098981         2.6934   30-A"
 123   1.0000       0.116250         3.1633   94-A'
 124   0.0000       0.178274         4.8511   95-A'
 125   0.0000       0.183657         4.9976   96-A'
 126   0.0000       0.196107         5.3363   97-A'
 127   0.0000       0.197120         5.3639   98-A'
 128   0.0000       0.197858         5.3840   31-A"

                 SPIN DOWN ORBITALS
  NO   OCC          E(Eh)            E(eV)    Irrep
   0   1.0000    -443.561609    -12069.9250    1-A'
   1   1.0000    -443.558548    -12069.8417    2-A'
   2   1.0000    -443.546674    -12069.5186    3-A'
   3   1.0000    -443.545363    -12069.4829    4-A'
   4   1.0000    -318.186704     -8658.3004    5-A'
   5   1.0000     -56.370643     -1533.9232    6-A'
   6   1.0000     -56.368093     -1533.8538    7-A'
   7   1.0000     -56.357135     -1533.5556    8-A'
   8   1.0000     -56.355932     -1533.5229    9-A'
   9   1.0000     -51.286324     -1395.5718   10-A'
  10   1.0000     -51.286236     -1395.5694   11-A'
  11   1.0000     -51.285099     -1395.5385   12-A'
  12   1.0000     -51.284638     -1395.5260    1-A"
  13   1.0000     -51.284599     -1395.5249   13-A'
  14   1.0000     -51.284586     -1395.5245   14-A'
  15   1.0000     -51.284558     -1395.5238    2-A"
  16   1.0000     -51.284520     -1395.5227   15-A'
  17   1.0000     -51.283344     -1395.4907    3-A"
  18   1.0000     -51.283316     -1395.4900   16-A'
  19   1.0000     -51.282786     -1395.4756    4-A"
  20   1.0000     -51.282778     -1395.4753   17-A'
  21   1.0000     -38.013485     -1034.3995   18-A'
  22   1.0000     -33.516256      -912.0237   19-A'
  23   1.0000     -33.515459      -912.0020   20-A'
  24   1.0000     -33.513562      -911.9504    5-A"
  25   1.0000      -9.830261      -267.4950   21-A'
  26   1.0000      -9.829065      -267.4625   22-A'
  27   1.0000      -9.814817      -267.0748   23-A'
  28   1.0000      -9.812855      -267.0214   24-A'
  29   1.0000      -9.811185      -266.9759   25-A'
  30   1.0000      -9.809624      -266.9334   26-A'
  31   1.0000      -9.808312      -266.8977   27-A'
  32   1.0000      -9.806894      -266.8591   28-A'
  33   1.0000      -9.797245      -266.5966   29-A'
  34   1.0000      -9.794951      -266.5342   30-A'
  35   1.0000      -9.789057      -266.3738   31-A'
  36   1.0000      -9.786834      -266.3133   32-A'
  37   1.0000      -7.341397      -199.7696   33-A'
  38   1.0000      -7.339366      -199.7143   34-A'
  39   1.0000      -7.333747      -199.5614   35-A'
  40   1.0000      -7.332453      -199.5262   36-A'
  41   1.0000      -5.404199      -147.0557   37-A'
  42   1.0000      -5.404014      -147.0507   38-A'
  43   1.0000      -5.402955      -147.0219   39-A'
  44   1.0000      -5.402414      -147.0072   40-A'
  45   1.0000      -5.398587      -146.9030    6-A"
  46   1.0000      -5.398444      -146.8991   41-A'
  47   1.0000      -5.398407      -146.8981    7-A"
  48   1.0000      -5.398292      -146.8950   42-A'
  49   1.0000      -5.397170      -146.8645    8-A"
  50   1.0000      -5.397118      -146.8631   43-A'
  51   1.0000      -5.396542      -146.8474   44-A'
  52   1.0000      -5.396503      -146.8463    9-A"
  53   1.0000      -3.993412      -108.6663   45-A'
  54   1.0000      -2.506380       -68.2021   10-A"
  55   1.0000      -2.505996       -68.1916   46-A'
  56   1.0000      -2.504955       -68.1633   47-A'
  57   1.0000      -1.743144       -47.4334   48-A'
  58   1.0000      -1.743016       -47.4299   49-A'
  59   1.0000      -1.741766       -47.3959   50-A'
  60   1.0000      -1.741194       -47.3803   51-A'
  61   1.0000      -1.740017       -47.3483   52-A'
  62   1.0000      -1.739843       -47.3435   11-A"
  63   1.0000      -1.739824       -47.3430   53-A'
  64   1.0000      -1.739669       -47.3388   12-A"
  65   1.0000      -1.738686       -47.3121   54-A'
  66   1.0000      -1.738473       -47.3063   13-A"
  67   1.0000      -1.738120       -47.2966   55-A'
  68   1.0000      -1.737864       -47.2897   14-A"
  69   1.0000      -1.735007       -47.2119   56-A'
  70   1.0000      -1.734977       -47.2111   15-A"
  71   1.0000      -1.734842       -47.2075   57-A'
  72   1.0000      -1.734811       -47.2066   16-A"
  73   1.0000      -1.733591       -47.1734   58-A'
  74   1.0000      -1.733567       -47.1728   17-A"
  75   1.0000      -1.732956       -47.1561   59-A'
  76   1.0000      -1.732923       -47.1552   18-A"
  77   1.0000      -0.619159       -16.8482   60-A'
  78   1.0000      -0.597334       -16.2543   61-A'
  79   1.0000      -0.535385       -14.5686   62-A'
  80   1.0000      -0.511419       -13.9164   63-A'
  81   1.0000      -0.497021       -13.5246   64-A'
  82   1.0000      -0.496425       -13.5084   65-A'
  83   1.0000      -0.412262       -11.2182   66-A'
  84   1.0000      -0.407612       -11.0917   67-A'
  85   1.0000      -0.393998       -10.7212   68-A'
  86   1.0000      -0.373173       -10.1545   69-A'
  87   1.0000      -0.321186        -8.7399   70-A'
  88   1.0000      -0.316498        -8.6123   71-A'
  89   1.0000      -0.286389        -7.7930   72-A'
  90   1.0000      -0.274307        -7.4643   73-A'
  91   1.0000      -0.244833        -6.6622   74-A'
  92   1.0000      -0.218407        -5.9431   75-A'
  93   1.0000      -0.205015        -5.5788   76-A'
  94   1.0000      -0.192800        -5.2464   77-A'
  95   1.0000      -0.167284        -4.5520   78-A'
  96   1.0000      -0.156604        -4.2614   79-A'
  97   1.0000      -0.139867        -3.8060   19-A"
  98   1.0000      -0.139141        -3.7862   80-A'
  99   1.0000      -0.134967        -3.6726   81-A'
 100   1.0000      -0.127669        -3.4741   20-A"
 101   1.0000      -0.127569        -3.4713   82-A'
 102   1.0000      -0.107653        -2.9294   83-A'
 103   1.0000      -0.078203        -2.1280   84-A'
 104   1.0000      -0.070406        -1.9159   85-A'
 105   1.0000      -0.059236        -1.6119   21-A"
 106   1.0000      -0.057481        -1.5641   86-A'
 107   1.0000      -0.053597        -1.4584   87-A'
 108   1.0000      -0.042024        -1.1435   22-A"
 109   1.0000      -0.030580        -0.8321   23-A"
 110   1.0000      -0.025645        -0.6978   24-A"
 111   1.0000      -0.022248        -0.6054   88-A'
 112   1.0000      -0.001771        -0.0482   89-A'
 113   1.0000       0.007937         0.2160   25-A"
 114   1.0000       0.010168         0.2767   26-A"
 115   1.0000       0.011254         0.3062   90-A'
 116   1.0000       0.029446         0.8013   91-A'
 117   1.0000       0.032859         0.8941   92-A'
 118   1.0000       0.052471         1.4278   93-A'
 119   1.0000       0.056926         1.5490   27-A"
 120   1.0000       0.060501         1.6463   28-A"
 121   1.0000       0.071686         1.9507   29-A"
 122   1.0000       0.102250         2.7824   30-A"
 123   0.0000       0.146106         3.9757   94-A'
 124   0.0000       0.180060         4.8997   95-A'
 125   0.0000       0.185665         5.0522   96-A'
 126   0.0000       0.198044         5.3890   31-A"
 127   0.0000       0.199430         5.4268   97-A'

MULLIKEN ATOMIC CHARGES AND SPIN POPULATIONS
--------------------------------------------
   0 Cu:    0.635596    0.310888
   1 Se:   -0.745596    0.173952
   2 C :    0.197126   -0.002243
   3 Se:   -0.725032    0.173488
   4 C :    0.240686   -0.004068
   5 Se:   -0.762310    0.172741
   6 C :    0.191794   -0.002076
   7 Se:   -0.720836    0.172855
   8 C :    0.240885   -0.004158
   9 C :   -0.107442   -0.000263
  10 C :   -0.096977   -0.000489
  11 C :   -0.198189   -0.000657
  12 H :    0.095731    0.002337
  13 C :   -0.202200   -0.000649
  14 H :    0.095529    0.002287
  15 H :    0.028988    0.001703
  16 H :    0.027834    0.001697
  17 C :   -0.148304   -0.002468
  18 C :   -0.123246   -0.002363
  19 C :   -0.016865   -0.000610
  20 H :    0.061357    0.002894
  21 C :   -0.015808   -0.000641
  22 H :    0.060536    0.002884
  23 H :   -0.006992    0.001555
  24 H :   -0.006268    0.001404
Sum of atomic charges         :   -2.0000000

LOEWDIN ATOMIC CHARGES AND SPIN POPULATIONS
-------------------------------------------
   0 Cu:   -0.619034    0.390917
   1 Se:   -0.208463    0.125851
   2 C :    0.048088    0.013463
   3 Se:   -0.200142    0.121927
   4 C :    0.030995    0.010782
   5 Se:   -0.208401    0.125326
   6 C :    0.042437    0.013657
   7 Se:   -0.199544    0.121202
   8 C :    0.038649    0.010568
   9 C :    0.381221    0.007438
  10 C :    0.378824    0.007402
  11 C :    0.334085    0.000522
  12 H :   -0.469643    0.010856
  13 C :    0.333448    0.000531
  14 H :   -0.471979    0.011086
  15 H :   -0.426086    0.000408
  16 H :   -0.427326    0.000421
  17 C :    0.361161    0.006278
  18 C :    0.353344    0.006066
  19 C :    0.264868    0.000413
  20 H :   -0.428134    0.006918
  21 C :    0.263536    0.000333
  22 H :   -0.426574    0.006809
  23 H :   -0.374066    0.000459
  24 H :   -0.371265    0.000368

  Mayer bond orders larger than 0.100000
B(  0-Cu,  1-Se) :   0.5550 B(  0-Cu,  3-Se) :   0.5486 B(  0-Cu,  5-Se) :   0.5561
B(  0-Cu,  7-Se) :   0.5484 B(  1-Se,  2-C ) :   1.0444 B(  2-C ,  6-C ) :   1.1334
B(  2-C , 17-C ) :   1.2846 B(  3-Se,  4-C ) :   1.0360 B(  4-C ,  8-C ) :   1.1348
B(  4-C , 10-C ) :   1.2434 B(  5-Se,  6-C ) :   1.0400 B(  6-C , 18-C ) :   1.2842
B(  7-Se,  8-C ) :   1.0347 B(  8-C ,  9-C ) :   1.2445 B(  9-C , 13-C ) :   1.4038
B(  9-C , 14-H ) :   0.9555 B( 10-C , 11-C ) :   1.4002 B( 10-C , 12-H ) :   0.9548
B( 11-C , 13-C ) :   1.2922 B( 11-C , 15-H ) :   0.9945 B( 13-C , 16-H ) :   0.9962
B( 17-C , 19-C ) :   1.3359 B( 17-C , 20-H ) :   0.9842 B( 18-C , 21-C ) :   1.3259
B( 18-C , 22-H ) :   0.9815 B( 19-C , 21-C ) :   1.3128 B( 19-C , 23-H ) :   0.9917
B( 21-C , 24-H ) :   0.9923

FINAL SINGLE POINT ENERGY    -11627.093045305923

DIPOLE MOMENT
-------------
                                X             Y             Z
Electronic contribution:      0.27749      -0.47065      -0.00000
Nuclear contribution   :     -0.35345       0.61792       0.00000
                        -----------------------------------------
Total Dipole Moment    :     -0.07597       0.14727      -0.00000
                        -----------------------------------------
Magnitude (a.u.)       :      0.16571
Magnitude (Debye)      :      0.42119

Rotational constants in cm-1:     0.017669     0.004097     0.003326
Rotational constants in MHz :   529.690178   122.830744    99.709046

                             ****ORCA TERMINATED NORMALLY****
TOTAL RUN TIME: 0 days 17 hours 1 minutes 57 seconds 14 msec
