                         Program Version 5.0.4 -  RELEASE  -
|  1> ! RIJCOSX nofrozencore ReducedPop printbasis
|  2> ! M06L ano-rcc-dzp autoaux
|  3>
|  4> %maxcore 7500
|  5> %basis
|  6> PCDTrimBas overlap
|  7> PCDTrimAuxJ Coulomb
|  8> PCDTrimAuxJK Coulomb
|  9> PCDTrimAuxC Coulomb
| 10> PCDThresh -1
| 11> end
| 12>
| 13> %basis
| 14> newgto Cu "ano-rcc-tzp" end
| 15> newgto Se "ano-rcc-tzp" end
| 16> end
| 17>
| 18> %pal
| 19> nprocs 8
| 20> end
| 21>
| 22> % sym SymThresh 1e-2 end
| 23> * xyz -2 2
| 24> Cu -3.275148141805956e-05 9.110517556819033e-06 -5.82181045201193e-07
| 25> Se 0.4542290964299012 1.671597243202564 1.614841686466219
| 26> C 0.19334015977076874 0.93887801853295 3.0558295157893633
| 27> Se 0.4421243822249359 1.3655839649230752 -1.883733265121735
| 28> C 0.1474196894272102 0.40077586279840965 -3.174087682498449
| 29> Se -0.43206486103526537 -1.3683822335950122 1.8839120803174711
| 30> C -0.15392663816188645 -0.3989658173249887 3.173972016823145
| 31> Se -0.46427127859999745 -1.6688037977458041 -1.615020193448461
| 32> C -0.18686885235410627 -0.940678149619618 -3.0557144836640204
| 33> C -0.27187310739225273 -1.673244077687409 -4.238623950620637
| 34> C 0.21674276190512848 0.9188337412332949 -4.466359097679782
| 35> C 0.06547720788608373 0.206624180087076 -5.637312248643656
| 36> H 0.4124042214535957 1.982124981572666 -4.551557927008159
| 37> C -0.1360550862439956 -1.1732728070479703 -5.51644699714725
| 38> H -0.4674460806258224 -2.7351224154304643 -4.1371686387260524
| 39> H 0.14422621581772746 0.7084763155305479 -6.59893060378181
| 40> H -0.2262771765614014 -1.8330023754058562 -6.376328480535557
| 41> C 0.3107866900193289 1.6624195293871256 4.239316663563022
| 42> C -0.2556842733112013 -0.9080013358582371 4.465666884417038
| 43> C 0.16697538084733474 1.1646717609443482 5.516997623668664
| 44> H 0.5399414910527924 2.714956371157657 4.138458292715433
| 45> C -0.09629443165084252 -0.1980518053181181 5.636763454280238
| 46> H -0.48490925836112286 -1.9619561713966598 4.550269098034887
| 47> H 0.2827205016699661 1.8173014702222734 6.377331801075074
| 48> H -0.2004501880819414 -0.6928375502996235 6.597930275893094
| 49> *
| 50>
| 51> % eprnmr
| 52> gtensor true
| 53> Nuclei = all H {aiso,adip,aorb,fgrad,rho}
| 54> Nuclei = all Cu {aiso,adip,aorb,fgrad,rho}
| 55> end
| 56>
| 57>                          ****END OF INPUT****

CARTESIAN COORDINATES (ANGSTROEM)
---------------------------------
  Cu    -0.000000    0.000000   -0.000000
  Se     0.443572    1.525808    1.755969
  C      0.173820    0.671477    3.126639
  Se     0.453623    1.523005   -1.755969
  C      0.167331    0.673287   -3.126639
  Se    -0.443572   -1.525808    1.755969
  C     -0.173820   -0.671477    3.126639
  Se    -0.453623   -1.523005   -1.755969
  C     -0.167331   -0.673287   -3.126639
  C     -0.244668   -1.300964   -4.368893
  C      0.244668    1.300964   -4.368893
  C      0.100957    0.692562   -5.597896
  H      0.440580    2.367585   -4.360734
  C     -0.100957   -0.692562   -5.597896
  H     -0.440580   -2.367585   -4.360734
  H      0.185604    1.275553   -6.512078
  H     -0.185604   -1.275553   -6.512078
  C      0.283593    1.290105    4.368893
  C     -0.283593   -1.290105    4.368893
  C      0.131824    0.683952    5.597895
  H      0.513076    2.347362    4.360734
  C     -0.131824   -0.683952    5.597895
  H     -0.513076   -2.347362    4.360734
  H      0.241934    1.259840    6.512077
  H     -0.241934   -1.259840    6.512077

 Total Charge           Charge          ....   -2
 Multiplicity           Mult            ....    2
 Number of Electrons    NEL             ....  247
 Basis Dimension        Dim             ....  575

ORBITAL ENERGIES
----------------
                 SPIN UP ORBITALS
  NO   OCC          E(Eh)            E(eV)    Irrep
   0   1.0000    -443.561300    -12069.9166    1-B
   1   1.0000    -443.560229    -12069.8875    2-B
   2   1.0000    -443.546723    -12069.5199    1-A
   3   1.0000    -443.546670    -12069.5185    2-A
   4   1.0000    -318.186574     -8658.2969    3-A
   5   1.0000     -56.369937     -1533.9040    3-B
   6   1.0000     -56.369647     -1533.8961    4-B
   7   1.0000     -56.357080     -1533.5541    4-A
   8   1.0000     -56.356808     -1533.5467    5-A
   9   1.0000     -51.286184     -1395.5680    5-B
  10   1.0000     -51.286129     -1395.5665    6-A
  11   1.0000     -51.286070     -1395.5649    6-B
  12   1.0000     -51.286031     -1395.5639    7-A
  13   1.0000     -51.284859     -1395.5320    7-B
  14   1.0000     -51.284808     -1395.5306    8-A
  15   1.0000     -51.284757     -1395.5292    8-B
  16   1.0000     -51.284699     -1395.5276    9-A
  17   1.0000     -51.284387     -1395.5191   10-A
  18   1.0000     -51.284345     -1395.5180    9-B
  19   1.0000     -51.284295     -1395.5166   11-A
  20   1.0000     -51.284248     -1395.5153   10-B
  21   1.0000     -38.027084     -1034.7696   12-A
  22   1.0000     -33.529146      -912.3744   11-B
  23   1.0000     -33.528347      -912.3527   13-A
  24   1.0000     -33.517204      -912.0495   12-B
  25   1.0000      -9.817277      -267.1417   14-A
  26   1.0000      -9.816873      -267.1307   13-B
  27   1.0000      -9.816359      -267.1167   15-A
  28   1.0000      -9.815929      -267.1050   14-B
  29   1.0000      -9.808910      -266.9140   16-A
  30   1.0000      -9.808590      -266.9053   17-A
  31   1.0000      -9.808477      -266.9022   15-B
  32   1.0000      -9.808143      -266.8931   16-B
  33   1.0000      -9.807651      -266.8797   18-A
  34   1.0000      -9.807634      -266.8793   17-B
  35   1.0000      -9.806853      -266.8580   19-A
  36   1.0000      -9.806848      -266.8579   18-B
  37   1.0000      -7.341064      -199.7605   19-B
  38   1.0000      -7.341002      -199.7588   20-B
  39   1.0000      -7.333835      -199.5638   20-A
  40   1.0000      -7.333664      -199.5592   21-A
  41   1.0000      -5.404042      -147.0515   21-B
  42   1.0000      -5.404022      -147.0509   22-A
  43   1.0000      -5.403900      -147.0476   22-B
  44   1.0000      -5.403884      -147.0472   23-A
  45   1.0000      -5.398911      -146.9118   23-B
  46   1.0000      -5.398900      -146.9115   24-A
  47   1.0000      -5.398700      -146.9061   24-B
  48   1.0000      -5.398685      -146.9057   25-A
  49   1.0000      -5.398202      -146.8925   26-A
  50   1.0000      -5.398190      -146.8922   25-B
  51   1.0000      -5.398124      -146.8904   27-A
  52   1.0000      -5.398108      -146.8900   26-B
  53   1.0000      -4.021406      -109.4280   28-A
  54   1.0000      -2.540956       -69.1429   27-B
  55   1.0000      -2.540010       -69.1172   29-A
  56   1.0000      -2.516541       -68.4786   28-B
  57   1.0000      -1.743067       -47.4313   30-A
  58   1.0000      -1.743037       -47.4305   29-B
  59   1.0000      -1.742924       -47.4274   31-A
  60   1.0000      -1.742895       -47.4266   30-B
  61   1.0000      -1.740433       -47.3596   32-A
  62   1.0000      -1.740361       -47.3576   31-B
  63   1.0000      -1.740272       -47.3552   33-A
  64   1.0000      -1.740197       -47.3532   32-B
  65   1.0000      -1.739560       -47.3358   34-A
  66   1.0000      -1.739557       -47.3358   33-B
  67   1.0000      -1.739446       -47.3327   34-B
  68   1.0000      -1.739446       -47.3327   35-A
  69   1.0000      -1.735268       -47.2190   36-A
  70   1.0000      -1.735236       -47.2182   35-B
  71   1.0000      -1.735212       -47.2175   37-A
  72   1.0000      -1.735201       -47.2172   36-B
  73   1.0000      -1.735121       -47.2150   38-A
  74   1.0000      -1.735090       -47.2142   37-B
  75   1.0000      -1.735066       -47.2135   39-A
  76   1.0000      -1.735054       -47.2132   38-B
  77   1.0000      -0.602114       -16.3843   40-A
  78   1.0000      -0.601500       -16.3677   41-A
  79   1.0000      -0.520770       -14.1709   42-A
  80   1.0000      -0.519684       -14.1413   43-A
  81   1.0000      -0.499025       -13.5791   39-B
  82   1.0000      -0.498680       -13.5698   40-B
  83   1.0000      -0.413332       -11.2473   41-B
  84   1.0000      -0.412165       -11.2156   42-B
  85   1.0000      -0.382586       -10.4107   44-A
  86   1.0000      -0.377955       -10.2847   45-A
  87   1.0000      -0.320306        -8.7160   46-A
  88   1.0000      -0.317986        -8.6528   47-A
  89   1.0000      -0.287616        -7.8264   43-B
  90   1.0000      -0.284414        -7.7393   44-B
  91   1.0000      -0.229253        -6.2383   48-A
  92   1.0000      -0.222547        -6.0558   49-A
  93   1.0000      -0.199998        -5.4422   50-A
  94   1.0000      -0.198867        -5.4114   51-A
  95   1.0000      -0.170660        -4.6439   45-B
  96   1.0000      -0.165768        -4.5108   46-B
  97   1.0000      -0.139226        -3.7885   47-B
  98   1.0000      -0.137587        -3.7439   48-B
  99   1.0000      -0.136421        -3.7122   52-A
 100   1.0000      -0.130190        -3.5426   49-B
 101   1.0000      -0.129741        -3.5304   50-B
 102   1.0000      -0.110220        -2.9993   53-A
 103   1.0000      -0.082423        -2.2428   54-A
 104   1.0000      -0.071667        -1.9502   51-B
 105   1.0000      -0.065703        -1.7879   52-B
 106   1.0000      -0.062908        -1.7118   55-A
 107   1.0000      -0.047859        -1.3023   53-B
 108   1.0000      -0.046805        -1.2736   54-B
 109   1.0000      -0.033466        -0.9107   56-A
 110   1.0000      -0.029778        -0.8103   55-B
 111   1.0000      -0.028852        -0.7851   57-A
 112   1.0000      -0.026745        -0.7278   58-A
 113   1.0000      -0.001577        -0.0429   59-A
 114   1.0000      -0.000555        -0.0151   56-B
 115   1.0000       0.000994         0.0270   60-A
 116   1.0000       0.019537         0.5316   61-A
 117   1.0000       0.021181         0.5764   62-A
 118   1.0000       0.040912         1.1133   57-B
 119   1.0000       0.054737         1.4895   63-A
 120   1.0000       0.055874         1.5204   64-A
 121   1.0000       0.070807         1.9268   58-B
 122   1.0000       0.099341         2.7032   59-B
 123   1.0000       0.116755         3.1771   60-B
 124   0.0000       0.182307         4.9608   65-A
 125   0.0000       0.182473         4.9654   66-A
 126   0.0000       0.196196         5.3388   61-B
 127   0.0000       0.196575         5.3491   62-B
 128   0.0000       0.202077         5.4988   63-B

                 SPIN DOWN ORBITALS
  NO   OCC          E(Eh)            E(eV)    Irrep
   0   1.0000    -443.560848    -12069.9043    1-B
   1   1.0000    -443.559777    -12069.8751    2-B
   2   1.0000    -443.546271    -12069.5076    1-A
   3   1.0000    -443.546218    -12069.5062    2-A
   4   1.0000    -318.186453     -8658.2936    3-A
   5   1.0000     -56.369753     -1533.8990    3-B
   6   1.0000     -56.369463     -1533.8911    4-B
   7   1.0000     -56.356898     -1533.5492    4-A
   8   1.0000     -56.356628     -1533.5418    5-A
   9   1.0000     -51.285864     -1395.5593    5-B
  10   1.0000     -51.285800     -1395.5576    6-A
  11   1.0000     -51.285748     -1395.5562    6-B
  12   1.0000     -51.285701     -1395.5549    7-A
  13   1.0000     -51.284181     -1395.5135    8-A
  14   1.0000     -51.284162     -1395.5130    7-B
  15   1.0000     -51.284071     -1395.5105    8-B
  16   1.0000     -51.284059     -1395.5102    9-A
  17   1.0000     -51.284045     -1395.5098   10-A
  18   1.0000     -51.284035     -1395.5095    9-B
  19   1.0000     -51.283970     -1395.5078   10-B
  20   1.0000     -51.283945     -1395.5071   11-A
  21   1.0000     -38.013227     -1034.3925   12-A
  22   1.0000     -33.515980      -912.0162   11-B
  23   1.0000     -33.515179      -911.9944   13-A
  24   1.0000     -33.513333      -911.9442   12-B
  25   1.0000      -9.817229      -267.1404   14-A
  26   1.0000      -9.816825      -267.1294   13-B
  27   1.0000      -9.816310      -267.1154   15-A
  28   1.0000      -9.815880      -267.1037   14-B
  29   1.0000      -9.808922      -266.9143   16-A
  30   1.0000      -9.808605      -266.9057   17-A
  31   1.0000      -9.808482      -266.9024   15-B
  32   1.0000      -9.808156      -266.8935   16-B
  33   1.0000      -9.807534      -266.8766   18-A
  34   1.0000      -9.807522      -266.8762   17-B
  35   1.0000      -9.806734      -266.8548   19-A
  36   1.0000      -9.806731      -266.8547   18-B
  37   1.0000      -7.340664      -199.7496   19-B
  38   1.0000      -7.340604      -199.7480   20-B
  39   1.0000      -7.333429      -199.5527   20-A
  40   1.0000      -7.333258      -199.5481   21-A
  41   1.0000      -5.403679      -147.0416   21-B
  42   1.0000      -5.403658      -147.0410   22-A
  43   1.0000      -5.403537      -147.0377   22-B
  44   1.0000      -5.403520      -147.0372   23-A
  45   1.0000      -5.398265      -146.8943   24-A
  46   1.0000      -5.398256      -146.8940   23-B
  47   1.0000      -5.398052      -146.8885   25-A
  48   1.0000      -5.398041      -146.8882   24-B
  49   1.0000      -5.397706      -146.8791   25-B
  50   1.0000      -5.397700      -146.8789   26-A
  51   1.0000      -5.397631      -146.8770   26-B
  52   1.0000      -5.397622      -146.8767   27-A
  53   1.0000      -3.993250      -108.6619   28-A
  54   1.0000      -2.506254       -68.1986   27-B
  55   1.0000      -2.505794       -68.1861   28-B
  56   1.0000      -2.504779       -68.1585   29-A
  57   1.0000      -1.742615       -47.4190   30-A
  58   1.0000      -1.742586       -47.4182   29-B
  59   1.0000      -1.742474       -47.4151   31-A
  60   1.0000      -1.742445       -47.4143   30-B
  61   1.0000      -1.739614       -47.3373   32-A
  62   1.0000      -1.739567       -47.3360   31-B
  63   1.0000      -1.739436       -47.3325   33-A
  64   1.0000      -1.739385       -47.3311   32-B
  65   1.0000      -1.739178       -47.3254   34-A
  66   1.0000      -1.739148       -47.3246   33-B
  67   1.0000      -1.739080       -47.3228   35-A
  68   1.0000      -1.739055       -47.3221   34-B
  69   1.0000      -1.734472       -47.1974   35-B
  70   1.0000      -1.734465       -47.1972   36-A
  71   1.0000      -1.734448       -47.1967   37-A
  72   1.0000      -1.734402       -47.1955   36-B
  73   1.0000      -1.734325       -47.1934   37-B
  74   1.0000      -1.734320       -47.1932   38-A
  75   1.0000      -1.734300       -47.1927   39-A
  76   1.0000      -1.734256       -47.1915   38-B
  77   1.0000      -0.601296       -16.3621   40-A
  78   1.0000      -0.600673       -16.3451   41-A
  79   1.0000      -0.519631       -14.1399   42-A
  80   1.0000      -0.518569       -14.1110   43-A
  81   1.0000      -0.497342       -13.5334   39-B
  82   1.0000      -0.497013       -13.5244   40-B
  83   1.0000      -0.410651       -11.1744   41-B
  84   1.0000      -0.409467       -11.1422   42-B
  85   1.0000      -0.380079       -10.3425   44-A
  86   1.0000      -0.375632       -10.2215   45-A
  87   1.0000      -0.318567        -8.6687   46-A
  88   1.0000      -0.316094        -8.6013   47-A
  89   1.0000      -0.285236        -7.7617   43-B
  90   1.0000      -0.281787        -7.6678   44-B
  91   1.0000      -0.228121        -6.2075   48-A
  92   1.0000      -0.221478        -6.0267   49-A
  93   1.0000      -0.198702        -5.4069   50-A
  94   1.0000      -0.197644        -5.3782   51-A
  95   1.0000      -0.169222        -4.6048   45-B
  96   1.0000      -0.163711        -4.4548   46-B
  97   1.0000      -0.138368        -3.7652   47-B
  98   1.0000      -0.136027        -3.7015   48-B
  99   1.0000      -0.134439        -3.6583   52-A
 100   1.0000      -0.129753        -3.5308   49-B
 101   1.0000      -0.129148        -3.5143   50-B
 102   1.0000      -0.108477        -2.9518   53-A
 103   1.0000      -0.081049        -2.2055   54-A
 104   1.0000      -0.070214        -1.9106   51-B
 105   1.0000      -0.060700        -1.6517   55-A
 106   1.0000      -0.054442        -1.4814   52-B
 107   1.0000      -0.046747        -1.2721   53-B
 108   1.0000      -0.045992        -1.2515   54-B
 109   1.0000      -0.030771        -0.8373   56-A
 110   1.0000      -0.025798        -0.7020   57-A
 111   1.0000      -0.022618        -0.6155   58-A
 112   1.0000      -0.001981        -0.0539   55-B
 113   1.0000       0.007992         0.2175   59-A
 114   1.0000       0.010656         0.2900   56-B
 115   1.0000       0.011329         0.3083   60-A
 116   1.0000       0.029272         0.7965   61-A
 117   1.0000       0.032359         0.8805   62-A
 118   1.0000       0.052013         1.4154   57-B
 119   1.0000       0.056620         1.5407   63-A
 120   1.0000       0.059517         1.6195   64-A
 121   1.0000       0.072700         1.9783   58-B
 122   1.0000       0.102734         2.7955   59-B
 123   0.0000       0.146402         3.9838   60-B
 124   0.0000       0.184194         5.0122   65-A
 125   0.0000       0.184364         5.0168   66-A
 126   0.0000       0.199332         5.4241   61-B
 127   0.0000       0.199742         5.4353   62-B

MULLIKEN ATOMIC CHARGES AND SPIN POPULATIONS
--------------------------------------------
   0 Cu:    0.637295    0.309179
   1 Se:   -0.733063    0.172994
   2 C :    0.221389   -0.002935
   3 Se:   -0.731303    0.173542
   4 C :    0.221211   -0.002688
   5 Se:   -0.733063    0.172994
   6 C :    0.221389   -0.002935
   7 Se:   -0.731303    0.173542
   8 C :    0.221211   -0.002688
   9 C :   -0.097570   -0.001355
  10 C :   -0.097570   -0.001355
  11 C :   -0.159322   -0.000701
  12 H :    0.087466    0.002749
  13 C :   -0.159322   -0.000701
  14 H :    0.087466    0.002749
  15 H :    0.020351    0.001549
  16 H :    0.020351    0.001549
  17 C :   -0.100673   -0.001414
  18 C :   -0.100673   -0.001414
  19 C :   -0.158036   -0.000681
  20 H :    0.090106    0.002776
  21 C :   -0.158036   -0.000681
  22 H :    0.090106    0.002776
  23 H :    0.020796    0.001576
  24 H :    0.020796    0.001576
Sum of atomic charges         :   -2.0000000

LOEWDIN ATOMIC CHARGES AND SPIN POPULATIONS
-------------------------------------------
   0 Cu:   -0.616627    0.389744
   1 Se:   -0.203009    0.123419
   2 C :    0.038068    0.011922
   3 Se:   -0.203497    0.124013
   4 C :    0.037872    0.012156
   5 Se:   -0.203009    0.123419
   6 C :    0.038068    0.011922
   7 Se:   -0.203497    0.124013
   8 C :    0.037872    0.012156
   9 C :    0.368055    0.006885
  10 C :    0.368055    0.006885
  11 C :    0.319728    0.000408
  12 H :   -0.455363    0.008997
  13 C :    0.319728    0.000408
  14 H :   -0.455363    0.008997
  15 H :   -0.412476    0.000383
  16 H :   -0.412476    0.000383
  17 C :    0.369775    0.006905
  18 C :    0.369775    0.006905
  19 C :    0.319702    0.000437
  20 H :   -0.458160    0.009213
  21 C :    0.319702    0.000437
  22 H :   -0.458160    0.009213
  23 H :   -0.412382    0.000389
  24 H :   -0.412382    0.000389

  Mayer bond orders larger than 0.100000
B(  0-Cu,  1-Se) :   0.5505 B(  0-Cu,  3-Se) :   0.5501 B(  0-Cu,  5-Se) :   0.5505
B(  0-Cu,  7-Se) :   0.5501 B(  1-Se,  2-C ) :   1.0396 B(  2-C ,  6-C ) :   1.1341
B(  2-C , 17-C ) :   1.2559 B(  3-Se,  4-C ) :   1.0394 B(  4-C ,  8-C ) :   1.1351
B(  4-C , 10-C ) :   1.2538 B(  5-Se,  6-C ) :   1.0396 B(  6-C , 18-C ) :   1.2559
B(  7-Se,  8-C ) :   1.0394 B(  8-C ,  9-C ) :   1.2538 B(  9-C , 13-C ) :   1.3837
B(  9-C , 14-H ) :   0.9623 B( 10-C , 11-C ) :   1.3837 B( 10-C , 12-H ) :   0.9623
B( 11-C , 13-C ) :   1.3072 B( 11-C , 15-H ) :   0.9962 B( 13-C , 16-H ) :   0.9962
B( 17-C , 19-C ) :   1.3809 B( 17-C , 20-H ) :   0.9608 B( 18-C , 21-C ) :   1.3809
B( 18-C , 22-H ) :   0.9608 B( 19-C , 21-C ) :   1.3103 B( 19-C , 23-H ) :   0.9960
B( 21-C , 24-H ) :   0.9960

FINAL SINGLE POINT ENERGY    -11627.144723324698

DIPOLE MOMENT
-------------
                                X             Y             Z
Electronic contribution:      0.00000       0.00000       0.00892
Nuclear contribution   :     -0.00000      -0.00000       0.00000
                        -----------------------------------------
Total Dipole Moment    :      0.00000       0.00000       0.00892
                        -----------------------------------------
Magnitude (a.u.)       :      0.00892
Magnitude (Debye)      :      0.02267

Rotational constants in cm-1:     0.017595     0.004097     0.003325
Rotational constants in MHz :   527.497536   122.818472    99.666038

                             ****ORCA TERMINATED NORMALLY****
TOTAL RUN TIME: 0 days 17 hours 5 minutes 27 seconds 110 msec
