                         Program Version 5.0.4 -  RELEASE  -
|  1> ! RIJCOSX nofrozencore ReducedPop printbasis
|  2> ! M06L ano-rcc-dzp autoaux
|  3>
|  4> %maxcore 7500
|  5> %basis
|  6> PCDTrimBas overlap
|  7> PCDTrimAuxJ Coulomb
|  8> PCDTrimAuxJK Coulomb
|  9> PCDTrimAuxC Coulomb
| 10> PCDThresh -1
| 11> end
| 12>
| 13> %basis
| 14> newgto Cu "ano-rcc-tzp" end
| 15> newgto Se "ano-rcc-tzp" end
| 16> end
| 17>
| 18> %pal
| 19> nprocs 8
| 20> end
| 21>
| 22> % sym SymThresh 1e-2 end
| 23> * xyz -2 2
| 24> Cu 0.0003909019621449478 -0.0007737301376541328 -0.0016005784360901987
| 25> Se 1.7819822801043996 1.1143656984015544 1.0950005435911618
| 26> C 3.0691850841763912 0.9631075894204324 0.1572169836719992
| 27> Se -1.6039288965718552 0.4651690158659475 1.6687655857936117
| 28> C -2.9594365806232408 -0.31941113818749123 0.9498862570101702
| 29> Se 1.6202291070453902 -0.4571576078126154 -1.6626941430061464
| 30> C 3.007057016024598 0.27332399728946466 -1.0577865670469377
| 31> Se -1.800099727612954 -1.1104594441192213 -1.0785880404835753
| 32> C -3.0489413329062227 -0.996873657965561 -0.22871289069133313
| 33> C -4.269888631456678 -1.4654696097327096 -0.4457668610438382
| 34> C -4.236185035020029 -0.2744552970949106 1.690087161370649
| 35> C -5.605853057668389 -0.7249369567573583 1.5825363915254367
| 36> H -3.9915064720028726 0.30096896272922824 2.6041256012415888
| 37> C -5.338662661188827 -1.3453455797704779 0.3229967044928848
| 38> H -4.5405071134924 -2.0377107318269947 -1.340662982442269
| 39> H -6.484509616582942 -0.6311590829843714 2.2055495818826336
| 40> H -6.137960505183109 -1.885858851148006 -0.24169111792748177
| 41> C 4.319909679439572 1.4959353355690974 0.4750305319166971
| 42> C 4.19726747585999 0.20638167339874453 -1.7930730440288931
| 43> C 5.443444334918071 1.395400573334407 -0.286576982420725
| 44> H 4.437355475095071 2.0419390972971634 1.4015457665392304
| 45> C 5.428855393165507 0.724530560083096 -1.491921210328971
| 46> H 4.104744830445659 -0.3357443350991623 -2.725436122779152
| 47> H 6.358229996655169 1.857912710147597 0.07747399858292156
| 48> H 6.291338677046074 0.6128899186478194 -2.138892386998003
| 49> *
| 50>
| 51> % eprnmr
| 52> gtensor true
| 53> Nuclei = all H {aiso,adip,aorb,fgrad,rho}
| 54> Nuclei = all Cu {aiso,adip,aorb,fgrad,rho}
| 55> end
| 56>
| 57>                          ****END OF INPUT****

CARTESIAN COORDINATES (ANGSTROEM)
---------------------------------
  Cu    -0.001798    0.000284    0.000000
  Se     1.371947    1.932372    0.000000
  C      0.391766    3.196672    0.000000
  Se     1.791750   -1.537329    0.000000
  C      0.878201   -2.998555    0.000000
  Se    -1.783699    1.554705    0.000000
  C     -0.997936    3.039759    0.000000
  Se    -1.354487   -1.949922    0.000000
  C     -0.471887   -3.181105    0.000000
  C     -0.803915   -4.464524    0.000000
  C      1.633814   -4.267041    0.000000
  C      1.416349   -5.696446    0.000000
  H      2.692982   -3.943606    0.000000
  C     -0.001335   -5.515034    0.000000
  H     -1.843052   -4.813419    0.000000
  H      2.065901   -6.560772    0.000000
  H     -0.700557   -6.387382    0.000000
  C      0.840747    4.518655    0.000000
  C     -1.753937    4.218823    0.000000
  C      0.050117    5.626530    0.000000
  H      1.905331    4.711017    0.000000
  C     -1.325280    5.519681    0.000000
  H     -2.823466    4.051876    0.000000
  H      0.528564    6.603450    0.000000
  H     -2.003267    6.365403    0.000000

 Total Charge           Charge          ....   -2
 Multiplicity           Mult            ....    2
 Number of Electrons    NEL             ....  247
 Basis Dimension        Dim             ....  575

ORBITAL ENERGIES
----------------
                 SPIN UP ORBITALS
  NO   OCC          E(Eh)            E(eV)    Irrep
   0   1.0000    -443.583122    -12070.5104    1-A'
   1   1.0000    -443.564948    -12070.0159    2-A'
   2   1.0000    -443.546117    -12069.5035    3-A'
   3   1.0000    -443.542933    -12069.4168    4-A'
   4   1.0000    -318.189618     -8658.3797    5-A'
   5   1.0000     -56.384184     -1534.2916    6-A'
   6   1.0000     -56.372727     -1533.9799    7-A'
   7   1.0000     -56.357716     -1533.5714    8-A'
   8   1.0000     -56.356770     -1533.5457    9-A'
   9   1.0000     -51.296604     -1395.8516   10-A'
  10   1.0000     -51.295630     -1395.8251   11-A'
  11   1.0000     -51.295588     -1395.8239    1-A"
  12   1.0000     -51.289907     -1395.6693   12-A'
  13   1.0000     -51.288677     -1395.6359   13-A'
  14   1.0000     -51.288354     -1395.6271    2-A"
  15   1.0000     -51.286299     -1395.5711   14-A'
  16   1.0000     -51.286212     -1395.5688   15-A'
  17   1.0000     -51.284852     -1395.5318   16-A'
  18   1.0000     -51.284628     -1395.5257   17-A'
  19   1.0000     -51.284312     -1395.5171    3-A"
  20   1.0000     -51.283876     -1395.5052    4-A"
  21   1.0000     -38.030110     -1034.8519   18-A'
  22   1.0000     -33.532163      -912.4565   19-A'
  23   1.0000     -33.531345      -912.4343   20-A'
  24   1.0000     -33.520278      -912.1331    5-A"
  25   1.0000      -9.833509      -267.5834   21-A'
  26   1.0000      -9.822588      -267.2862   22-A'
  27   1.0000      -9.819541      -267.2033   23-A'
  28   1.0000      -9.816475      -267.1199   24-A'
  29   1.0000      -9.814464      -267.0651   25-A'
  30   1.0000      -9.813880      -267.0493   26-A'
  31   1.0000      -9.811659      -266.9888   27-A'
  32   1.0000      -9.810102      -266.9465   28-A'
  33   1.0000      -9.806800      -266.8566   29-A'
  34   1.0000      -9.806507      -266.8486   30-A'
  35   1.0000      -9.797669      -266.6081   31-A'
  36   1.0000      -9.796116      -266.5659   32-A'
  37   1.0000      -7.351042      -200.0320   33-A'
  38   1.0000      -7.343638      -199.8305   34-A'
  39   1.0000      -7.335157      -199.5998   35-A'
  40   1.0000      -7.335020      -199.5961   36-A'
  41   1.0000      -5.411502      -147.2545   37-A'
  42   1.0000      -5.407241      -147.1385    6-A"
  43   1.0000      -5.406900      -147.1292   38-A'
  44   1.0000      -5.406526      -147.1191   39-A'
  45   1.0000      -5.406264      -147.1119   40-A'
  46   1.0000      -5.405144      -147.0814   41-A'
  47   1.0000      -5.401821      -146.9910   42-A'
  48   1.0000      -5.401749      -146.9891    7-A"
  49   1.0000      -5.400258      -146.9485   43-A'
  50   1.0000      -5.399587      -146.9302   44-A'
  51   1.0000      -5.398927      -146.9123    8-A"
  52   1.0000      -5.398911      -146.9118    9-A"
  53   1.0000      -4.024415      -109.5099   45-A'
  54   1.0000      -2.543968       -69.2249   46-A'
  55   1.0000      -2.542966       -69.1976   47-A'
  56   1.0000      -2.519604       -68.5619   10-A"
  57   1.0000      -1.753100       -47.7043   48-A'
  58   1.0000      -1.748173       -47.5702   11-A"
  59   1.0000      -1.748110       -47.5685   49-A'
  60   1.0000      -1.746608       -47.5276   50-A'
  61   1.0000      -1.744046       -47.4579   51-A'
  62   1.0000      -1.743822       -47.4518   52-A'
  63   1.0000      -1.743751       -47.4499   12-A"
  64   1.0000      -1.743521       -47.4436   53-A'
  65   1.0000      -1.743315       -47.4380   54-A'
  66   1.0000      -1.742840       -47.4251   13-A"
  67   1.0000      -1.742200       -47.4077   55-A'
  68   1.0000      -1.741267       -47.3823   56-A'
  69   1.0000      -1.740761       -47.3685   14-A"
  70   1.0000      -1.740305       -47.3561   15-A"
  71   1.0000      -1.738621       -47.3103   57-A'
  72   1.0000      -1.738501       -47.3070   16-A"
  73   1.0000      -1.736042       -47.2401   17-A"
  74   1.0000      -1.736000       -47.2390   58-A'
  75   1.0000      -1.735852       -47.2349   18-A"
  76   1.0000      -1.735819       -47.2340   59-A'
  77   1.0000      -0.617803       -16.8113   60-A'
  78   1.0000      -0.603448       -16.4207   61-A'
  79   1.0000      -0.536106       -14.5882   62-A'
  80   1.0000      -0.525630       -14.3031   63-A'
  81   1.0000      -0.497127       -13.5275   64-A'
  82   1.0000      -0.487596       -13.2682   65-A'
  83   1.0000      -0.428484       -11.6596   66-A'
  84   1.0000      -0.416671       -11.3382   67-A'
  85   1.0000      -0.382634       -10.4120   68-A'
  86   1.0000      -0.376346       -10.2409   69-A'
  87   1.0000      -0.318236        -8.6596   70-A'
  88   1.0000      -0.312265        -8.4972   71-A'
  89   1.0000      -0.296216        -8.0604   72-A'
  90   1.0000      -0.286576        -7.7981   73-A'
  91   1.0000      -0.242513        -6.5991   74-A'
  92   1.0000      -0.230492        -6.2720   75-A'
  93   1.0000      -0.201103        -5.4723   76-A'
  94   1.0000      -0.190866        -5.1937   77-A'
  95   1.0000      -0.168609        -4.5881   78-A'
  96   1.0000      -0.166038        -4.5181   79-A'
  97   1.0000      -0.142164        -3.8685   80-A'
  98   1.0000      -0.141760        -3.8575   19-A"
  99   1.0000      -0.137282        -3.7356   81-A'
 100   1.0000      -0.131093        -3.5672   20-A"
 101   1.0000      -0.125678        -3.4199   82-A'
 102   1.0000      -0.096321        -2.6210   83-A'
 103   1.0000      -0.079810        -2.1717   84-A'
 104   1.0000      -0.073317        -1.9951   85-A'
 105   1.0000      -0.066826        -1.8184   86-A'
 106   1.0000      -0.055847        -1.5197   21-A"
 107   1.0000      -0.051681        -1.4063   22-A"
 108   1.0000      -0.038353        -1.0436   87-A'
 109   1.0000      -0.036274        -0.9871   88-A'
 110   1.0000      -0.031966        -0.8698   23-A"
 111   1.0000      -0.023584        -0.6417   89-A'
 112   1.0000      -0.022754        -0.6192   24-A"
 113   1.0000      -0.004815        -0.1310   25-A"
 114   1.0000      -0.001052        -0.0286   90-A'
 115   1.0000      -0.000799        -0.0218   26-A"
 116   1.0000       0.017891         0.4869   91-A'
 117   1.0000       0.019966         0.5433   92-A'
 118   1.0000       0.042284         1.1506   93-A'
 119   1.0000       0.051692         1.4066   27-A"
 120   1.0000       0.053304         1.4505   28-A"
 121   1.0000       0.069804         1.8995   29-A"
 122   1.0000       0.098211         2.6725   30-A"
 123   1.0000       0.113563         3.0902   94-A'
 124   0.0000       0.179994         4.8979   95-A'
 125   0.0000       0.181179         4.9301   96-A'
 126   0.0000       0.196002         5.3335   97-A'
 127   0.0000       0.197621         5.3775   31-A"
 128   0.0000       0.198005         5.3880   98-A'

                 SPIN DOWN ORBITALS
  NO   OCC          E(Eh)            E(eV)    Irrep
   0   1.0000    -443.582665    -12070.4980    1-A'
   1   1.0000    -443.564486    -12070.0033    2-A'
   2   1.0000    -443.545678    -12069.4915    3-A'
   3   1.0000    -443.542483    -12069.4046    4-A'
   4   1.0000    -318.189497     -8658.3764    5-A'
   5   1.0000     -56.383999     -1534.2866    6-A'
   6   1.0000     -56.372540     -1533.9748    7-A'
   7   1.0000     -56.357539     -1533.5666    8-A'
   8   1.0000     -56.356589     -1533.5407    9-A'
   9   1.0000     -51.296250     -1395.8419   10-A'
  10   1.0000     -51.295336     -1395.8171    1-A"
  11   1.0000     -51.294930     -1395.8060   11-A'
  12   1.0000     -51.289558     -1395.6598   12-A'
  13   1.0000     -51.288095     -1395.6200    2-A"
  14   1.0000     -51.287941     -1395.6158   13-A'
  15   1.0000     -51.286000     -1395.5630   14-A'
  16   1.0000     -51.285911     -1395.5606   15-A'
  17   1.0000     -51.284129     -1395.5121   16-A'
  18   1.0000     -51.284072     -1395.5105    3-A"
  19   1.0000     -51.283866     -1395.5049   17-A'
  20   1.0000     -51.283628     -1395.4985    4-A"
  21   1.0000     -38.016296     -1034.4760   18-A'
  22   1.0000     -33.519038      -912.0994   19-A'
  23   1.0000     -33.518216      -912.0770   20-A'
  24   1.0000     -33.516422      -912.0282    5-A"
  25   1.0000      -9.833457      -267.5820   21-A'
  26   1.0000      -9.822496      -267.2837   22-A'
  27   1.0000      -9.819497      -267.2021   23-A'
  28   1.0000      -9.816404      -267.1179   24-A'
  29   1.0000      -9.814422      -267.0640   25-A'
  30   1.0000      -9.813831      -267.0479   26-A'
  31   1.0000      -9.811656      -266.9887   27-A'
  32   1.0000      -9.810139      -266.9475   28-A'
  33   1.0000      -9.806707      -266.8541   29-A'
  34   1.0000      -9.806362      -266.8447   30-A'
  35   1.0000      -9.797723      -266.6096   31-A'
  36   1.0000      -9.795953      -266.5614   32-A'
  37   1.0000      -7.350642      -200.0211   33-A'
  38   1.0000      -7.343232      -199.8195   34-A'
  39   1.0000      -7.334753      -199.5888   35-A'
  40   1.0000      -7.334624      -199.5853   36-A'
  41   1.0000      -5.411152      -147.2449   37-A'
  42   1.0000      -5.406910      -147.1295    6-A"
  43   1.0000      -5.406523      -147.1190   38-A'
  44   1.0000      -5.405919      -147.1025   39-A'
  45   1.0000      -5.405687      -147.0962   40-A'
  46   1.0000      -5.404803      -147.0722   41-A'
  47   1.0000      -5.401419      -146.9801    7-A"
  48   1.0000      -5.400979      -146.9681   42-A'
  49   1.0000      -5.399415      -146.9256   43-A'
  50   1.0000      -5.398782      -146.9083   44-A'
  51   1.0000      -5.398630      -146.9042    8-A"
  52   1.0000      -5.398618      -146.9039    9-A"
  53   1.0000      -3.996345      -108.7461   45-A'
  54   1.0000      -2.509333       -68.2824   10-A"
  55   1.0000      -2.508982       -68.2729   46-A'
  56   1.0000      -2.507787       -68.2403   47-A'
  57   1.0000      -1.752692       -47.6932   48-A'
  58   1.0000      -1.747864       -47.5618   11-A"
  59   1.0000      -1.747202       -47.5438   49-A'
  60   1.0000      -1.746159       -47.5154   50-A'
  61   1.0000      -1.743578       -47.4452   51-A'
  62   1.0000      -1.743082       -47.4317   52-A'
  63   1.0000      -1.742954       -47.4282   53-A'
  64   1.0000      -1.742930       -47.4275   12-A"
  65   1.0000      -1.742513       -47.4162   13-A"
  66   1.0000      -1.742385       -47.4127   54-A'
  67   1.0000      -1.741321       -47.3837   55-A'
  68   1.0000      -1.740486       -47.3610   14-A"
  69   1.0000      -1.740417       -47.3591   56-A'
  70   1.0000      -1.740027       -47.3486   15-A"
  71   1.0000      -1.737783       -47.2875   57-A'
  72   1.0000      -1.737699       -47.2852   16-A"
  73   1.0000      -1.735282       -47.2194   17-A"
  74   1.0000      -1.735237       -47.2182   58-A'
  75   1.0000      -1.735115       -47.2149   18-A"
  76   1.0000      -1.735062       -47.2134   59-A'
  77   1.0000      -0.616825       -16.7847   60-A'
  78   1.0000      -0.602669       -16.3994   61-A'
  79   1.0000      -0.534937       -14.5564   62-A'
  80   1.0000      -0.524371       -14.2688   63-A'
  81   1.0000      -0.495556       -13.4848   64-A'
  82   1.0000      -0.485931       -13.2229   65-A'
  83   1.0000      -0.426024       -11.5927   66-A'
  84   1.0000      -0.413955       -11.2643   67-A'
  85   1.0000      -0.380032       -10.3412   68-A'
  86   1.0000      -0.373517       -10.1639   69-A'
  87   1.0000      -0.316480        -8.6119   70-A'
  88   1.0000      -0.310661        -8.4535   71-A'
  89   1.0000      -0.293856        -7.9962   72-A'
  90   1.0000      -0.284054        -7.7295   73-A'
  91   1.0000      -0.241351        -6.5675   74-A'
  92   1.0000      -0.229428        -6.2431   75-A'
  93   1.0000      -0.199740        -5.4352   76-A'
  94   1.0000      -0.189566        -5.1583   77-A'
  95   1.0000      -0.166888        -4.5413   78-A'
  96   1.0000      -0.163632        -4.4526   79-A'
  97   1.0000      -0.141330        -3.8458   19-A"
  98   1.0000      -0.141115        -3.8399   80-A'
  99   1.0000      -0.135794        -3.6951   81-A'
 100   1.0000      -0.130714        -3.5569   20-A"
 101   1.0000      -0.123847        -3.3700   82-A'
 102   1.0000      -0.094383        -2.5683   83-A'
 103   1.0000      -0.077120        -2.0985   84-A'
 104   1.0000      -0.068497        -1.8639   85-A'
 105   1.0000      -0.059701        -1.6245   86-A'
 106   1.0000      -0.055105        -1.4995   21-A"
 107   1.0000      -0.050798        -1.3823   22-A"
 108   1.0000      -0.035840        -0.9752   87-A'
 109   1.0000      -0.029322        -0.7979   23-A"
 110   1.0000      -0.023496        -0.6394   88-A'
 111   1.0000      -0.021072        -0.5734   24-A"
 112   1.0000      -0.003051        -0.0830   89-A'
 113   1.0000       0.005589         0.1521   25-A"
 114   1.0000       0.008831         0.2403   26-A"
 115   1.0000       0.009961         0.2710   90-A'
 116   1.0000       0.028324         0.7707   91-A'
 117   1.0000       0.030198         0.8217   92-A'
 118   1.0000       0.052927         1.4402   93-A'
 119   1.0000       0.053597         1.4584   27-A"
 120   1.0000       0.056653         1.5416   28-A"
 121   1.0000       0.071487         1.9453   29-A"
 122   1.0000       0.101358         2.7581   30-A"
 123   0.0000       0.143132         3.8948   94-A'
 124   0.0000       0.181234         4.9316   95-A'
 125   0.0000       0.182829         4.9750   96-A'
 126   0.0000       0.197857         5.3840   31-A"
 127   0.0000       0.198814         5.4100   97-A'

MULLIKEN ATOMIC CHARGES AND SPIN POPULATIONS
--------------------------------------------
   0 Cu:    0.630064    0.308098
   1 Se:   -0.685766    0.175906
   2 C :    0.186490   -0.004589
   3 Se:   -0.782014    0.176472
   4 C :    0.263552    0.000355
   5 Se:   -0.767464    0.171042
   6 C :    0.233137   -0.001938
   7 Se:   -0.652522    0.171861
   8 C :    0.210156   -0.007076
   9 C :   -0.054616    0.001381
  10 C :   -0.107445   -0.001191
  11 C :   -0.296408   -0.000449
  12 H :    0.095248    0.001592
  13 C :   -0.038175   -0.000853
  14 H :    0.056072    0.001597
  15 H :   -0.012920    0.000819
  16 H :    0.004878    0.002734
  17 C :   -0.120914   -0.000506
  18 C :   -0.079558   -0.001814
  19 C :   -0.104820   -0.000585
  20 H :    0.079583    0.002480
  21 C :   -0.187471   -0.000978
  22 H :    0.097408    0.002598
  23 H :    0.025341    0.001991
  24 H :    0.008165    0.001051
Sum of atomic charges         :   -2.0000000

LOEWDIN ATOMIC CHARGES AND SPIN POPULATIONS
-------------------------------------------
   0 Cu:   -0.610681    0.387972
   1 Se:   -0.210368    0.126930
   2 C :    0.011777    0.014099
   3 Se:   -0.162837    0.124401
   4 C :    0.123949    0.009901
   5 Se:   -0.190359    0.120457
   6 C :    0.073437    0.010537
   7 Se:   -0.180019    0.122061
   8 C :   -0.096129    0.016872
   9 C :    0.339702    0.007539
  10 C :    0.382220    0.005500
  11 C :    0.364244    0.000405
  12 H :   -0.529199    0.013638
  13 C :    0.294595    0.000319
  14 H :   -0.414606    0.006197
  15 H :   -0.398556   -0.000162
  16 H :   -0.428757    0.000848
  17 C :    0.368840    0.007379
  18 C :    0.364727    0.005918
  19 C :    0.310317    0.000582
  20 H :   -0.443427    0.007663
  21 C :    0.317274    0.000081
  22 H :   -0.472367    0.010169
  23 H :   -0.412163    0.000624
  24 H :   -0.401614    0.000069

  Mayer bond orders larger than 0.100000
B(  0-Cu,  1-Se) :   0.5449 B(  0-Cu,  3-Se) :   0.5563 B(  0-Cu,  5-Se) :   0.5572
B(  0-Cu,  7-Se) :   0.5612 B(  1-Se,  2-C ) :   1.0909 B(  2-C ,  6-C ) :   1.1393
B(  2-C , 17-C ) :   1.2322 B(  3-Se,  4-C ) :   0.9546 B(  4-C ,  8-C ) :   1.1047
B(  4-C , 10-C ) :   1.2797 B(  5-Se,  6-C ) :   0.9959 B(  6-C , 18-C ) :   1.2731
B(  7-Se,  8-C ) :   1.1864 B(  8-C ,  9-C ) :   1.1443 B(  9-C , 13-C ) :   1.3899
B(  9-C , 14-H ) :   0.9805 B( 10-C , 11-C ) :   1.3398 B( 10-C , 12-H ) :   0.9550
B( 11-C , 13-C ) :   1.2515 B( 11-C , 15-H ) :   1.0339 B( 13-C , 16-H ) :   0.9966
B( 17-C , 19-C ) :   1.3941 B( 17-C , 20-H ) :   0.9695 B( 18-C , 21-C ) :   1.3706
B( 18-C , 22-H ) :   0.9548 B( 19-C , 21-C ) :   1.3042 B( 19-C , 23-H ) :   0.9887
B( 21-C , 24-H ) :   1.0062

FINAL SINGLE POINT ENERGY    -11627.030436132251

DIPOLE MOMENT
-------------
                                X             Y             Z
Electronic contribution:      0.40992       0.16419      -0.00000
Nuclear contribution   :     -0.41971       0.02525       0.00000
                        -----------------------------------------
Total Dipole Moment    :     -0.00978       0.18943      -0.00000
                        -----------------------------------------
Magnitude (a.u.)       :      0.18969
Magnitude (Debye)      :      0.48215

Rotational constants in cm-1:     0.017764     0.004073     0.003314
Rotational constants in MHz :   532.548508   122.119280    99.339606

                             ****ORCA TERMINATED NORMALLY****
TOTAL RUN TIME: 0 days 16 hours 57 minutes 23 seconds 619 msec
