                         Program Version 5.0.4 -  RELEASE  -
|  1> ! RIJCOSX nofrozencore ReducedPop printbasis
|  2> ! M06L ano-rcc-dzp autoaux
|  3>
|  4> %maxcore 7500
|  5> %basis
|  6> PCDTrimBas overlap
|  7> PCDTrimAuxJ Coulomb
|  8> PCDTrimAuxJK Coulomb
|  9> PCDTrimAuxC Coulomb
| 10> PCDThresh -1
| 11> end
| 12>
| 13> %basis
| 14> newgto Cu "ano-rcc-tzp" end
| 15> newgto Se "ano-rcc-tzp" end
| 16> end
| 17>
| 18> %pal
| 19> nprocs 8
| 20> end
| 21>
| 22> % sym SymThresh 1e-2 end
| 23> * xyz -2 2
| 24> Cu -0.00560180728361298 -0.0016750567188479114 -0.0012009684200273679
| 25> Se 0.18301252768530518 1.1207322322285989 2.1131508859644024
| 26> C 1.6864104402408295 1.4732562390759647 2.246705202113191
| 27> Se -2.3445278796397453 -0.4142399569748217 0.0553704409180469
| 28> C -2.5223006769502323 -1.1648249824183912 -1.3395849428578215
| 29> Se 2.3503867372448712 0.44063757294276423 -0.006166232197939633
| 30> C 2.568044507049768 1.186446964096775 1.364846240471453
| 31> Se -0.20211793603291392 -1.118899432094166 -2.1025667188484527
| 32> C -1.7145855338931166 -1.5111859090924362 -2.3101470173073233
| 33> C -2.024913352579859 -2.162371972304191 -3.463027304982459
| 34> C -3.8161097259505454 -1.5557623191587873 -1.624865716637323
| 35> C -4.176991030325565 -2.2051561464801575 -2.75568594084296
| 36> H -4.58316961194192 -1.3290627465246232 -0.9020393628908736
| 37> C -3.253163008433428 -2.529268532515073 -3.7256203608712495
| 38> H -1.2078243784157068 -2.3537871751001993 -4.13558643295779
| 39> H -5.219924448546775 -2.468152201180073 -2.884217630315647
| 40> H -3.531873559251019 -3.0505776983114288 -4.637440261698524
| 41> C 2.010011265544921 2.110620375717823 3.367821288881769
| 42> C 3.8512981540208706 1.5416212630417048 1.5844277011218073
| 43> C 3.262760355163693 2.472075898437458 3.6108266239689115
| 44> H 1.2281444705115114 2.324447728737515 4.071044162023547
| 45> C 4.24363855491163 2.1803838361257712 2.683008206520433
| 46> H 4.557940809540216 1.279189830157309 0.8142818802276006
| 47> H 3.509721143730513 2.9918092588273617 4.5312420029876845
| 48> H 5.278200926342409 2.456433652489144 2.8400110948450488
| 49> *
| 50>
| 51> % eprnmr
| 52> gtensor true
| 53> Nuclei = all H {aiso,adip,aorb,fgrad,rho}
| 54> Nuclei = all Cu {aiso,adip,aorb,fgrad,rho}
| 55> end
| 56>
| 57>                          ****END OF INPUT****

CARTESIAN COORDINATES (ANGSTROEM)
---------------------------------
  Cu    -0.001591   -0.005753    0.000000
  Se     2.381724    0.286936    0.000000
  C      2.596699    1.821895    0.000000
  Se    -0.039082   -2.381164    0.000000
  C     -1.613791   -2.628494    0.000000
  Se     0.094609    2.389470    0.000000
  C      1.644145    2.676210    0.000000
  Se    -2.370659   -0.305856    0.000000
  C     -2.669184   -1.853570    0.000000
  C     -3.977683   -2.224122    0.000000
  C     -1.990155   -3.957595    0.000000
  C     -3.276057   -4.378495    0.000000
  H     -1.211301   -4.703007    0.000000
  C     -4.325728   -3.485483    0.000000
  H     -4.697908   -1.425444    0.000000
  H     -3.465498   -5.445036    0.000000
  H     -5.362065   -3.812383    0.000000
  C      3.870089    2.204427    0.000000
  C      1.946249    3.991443    0.000000
  C      4.197189    3.489762    0.000000
  H      4.626281    1.443024    0.000000
  C      3.197294    4.442791    0.000000
  H      1.111628    4.673167    0.000000
  H      5.241811    3.784791    0.000000
  H      3.418356    5.502179    0.000000

 Total Charge           Charge          ....   -2
 Multiplicity           Mult            ....    2
 Number of Electrons    NEL             ....  247
 Basis Dimension        Dim             ....  575

ORBITAL ENERGIES
----------------
                 SPIN UP ORBITALS
  NO   OCC          E(Eh)            E(eV)    Irrep
   0   1.0000    -443.574401    -12070.2731    1-A'
   1   1.0000    -443.567577    -12070.0874    2-A'
   2   1.0000    -443.549611    -12069.5985    3-A'
   3   1.0000    -443.541998    -12069.3914    4-A'
   4   1.0000    -318.172678     -8657.9187    5-A'
   5   1.0000     -56.375529     -1534.0561    6-A'
   6   1.0000     -56.371564     -1533.9482    7-A'
   7   1.0000     -56.353724     -1533.4628    8-A'
   8   1.0000     -56.349455     -1533.3466    9-A'
   9   1.0000     -51.285880     -1395.5597   10-A'
  10   1.0000     -51.284558     -1395.5238   11-A'
  11   1.0000     -51.284146     -1395.5126    1-A"
  12   1.0000     -51.280552     -1395.4148   12-A'
  13   1.0000     -51.279922     -1395.3976   13-A'
  14   1.0000     -51.279339     -1395.3818   14-A'
  15   1.0000     -51.278898     -1395.3697    2-A"
  16   1.0000     -51.278810     -1395.3674   15-A'
  17   1.0000     -51.278406     -1395.3564    3-A"
  18   1.0000     -51.272312     -1395.1905   16-A'
  19   1.0000     -51.271218     -1395.1608   17-A'
  20   1.0000     -51.270835     -1395.1504    4-A"
  21   1.0000     -38.013123     -1034.3897   18-A'
  22   1.0000     -33.515134      -911.9932   19-A'
  23   1.0000     -33.514481      -911.9754   20-A'
  24   1.0000     -33.503560      -911.6782    5-A"
  25   1.0000      -9.805253      -266.8145   21-A'
  26   1.0000      -9.803991      -266.7801   22-A'
  27   1.0000      -9.803504      -266.7669   23-A'
  28   1.0000      -9.802037      -266.7270   24-A'
  29   1.0000      -9.797004      -266.5900   25-A'
  30   1.0000      -9.795037      -266.5365   26-A'
  31   1.0000      -9.794276      -266.5158   27-A'
  32   1.0000      -9.792973      -266.4803   28-A'
  33   1.0000      -9.791737      -266.4467   29-A'
  34   1.0000      -9.786514      -266.3046   30-A'
  35   1.0000      -9.783412      -266.2202   31-A'
  36   1.0000      -9.780497      -266.1408   32-A'
  37   1.0000      -7.339063      -199.7061   33-A'
  38   1.0000      -7.338524      -199.6914   34-A'
  39   1.0000      -7.327406      -199.3889   35-A'
  40   1.0000      -7.323983      -199.2957   36-A'
  41   1.0000      -5.401517      -146.9828   37-A'
  42   1.0000      -5.396241      -146.8392   38-A'
  43   1.0000      -5.395901      -146.8299   39-A'
  44   1.0000      -5.395725      -146.8251    6-A"
  45   1.0000      -5.395529      -146.8198   40-A'
  46   1.0000      -5.390889      -146.6935   41-A'
  47   1.0000      -5.390537      -146.6840    7-A"
  48   1.0000      -5.390323      -146.6782   42-A'
  49   1.0000      -5.390042      -146.6705   43-A'
  50   1.0000      -5.390001      -146.6694    8-A"
  51   1.0000      -5.385104      -146.5361   44-A'
  52   1.0000      -5.384765      -146.5269    9-A"
  53   1.0000      -4.007617      -109.0528   45-A'
  54   1.0000      -2.526646       -68.7535   46-A'
  55   1.0000      -2.526307       -68.7443   47-A'
  56   1.0000      -2.503306       -68.1184   10-A"
  57   1.0000      -1.741149       -47.3791   48-A'
  58   1.0000      -1.737663       -47.2842   49-A'
  59   1.0000      -1.737120       -47.2694   11-A"
  60   1.0000      -1.736271       -47.2463   50-A'
  61   1.0000      -1.736131       -47.2425   51-A'
  62   1.0000      -1.732709       -47.1494   52-A'
  63   1.0000      -1.732423       -47.1416   53-A'
  64   1.0000      -1.732399       -47.1410   12-A"
  65   1.0000      -1.732203       -47.1356   54-A'
  66   1.0000      -1.731952       -47.1288   13-A"
  67   1.0000      -1.731440       -47.1149   14-A"
  68   1.0000      -1.730265       -47.0829   55-A'
  69   1.0000      -1.727402       -47.0050   56-A'
  70   1.0000      -1.727377       -47.0043   15-A"
  71   1.0000      -1.726929       -46.9921   57-A'
  72   1.0000      -1.726913       -46.9917   16-A"
  73   1.0000      -1.726826       -46.9893   58-A'
  74   1.0000      -1.726057       -46.9684   17-A"
  75   1.0000      -1.721802       -46.8526   59-A'
  76   1.0000      -1.721780       -46.8520   18-A"
  77   1.0000      -0.635241       -17.2858   60-A'
  78   1.0000      -0.624005       -16.9800   61-A'
  79   1.0000      -0.534175       -14.5357   62-A'
  80   1.0000      -0.533185       -14.5087   63-A'
  81   1.0000      -0.524361       -14.2686   64-A'
  82   1.0000      -0.510766       -13.8987   65-A'
  83   1.0000      -0.419297       -11.4097   66-A'
  84   1.0000      -0.418257       -11.3813   67-A'
  85   1.0000      -0.382415       -10.4060   68-A'
  86   1.0000      -0.377604       -10.2751   69-A'
  87   1.0000      -0.343114        -9.3366   70-A'
  88   1.0000      -0.333856        -9.0847   71-A'
  89   1.0000      -0.277945        -7.5633   72-A'
  90   1.0000      -0.275372        -7.4932   73-A'
  91   1.0000      -0.227373        -6.1871   74-A'
  92   1.0000      -0.222405        -6.0520   75-A'
  93   1.0000      -0.216219        -5.8836   76-A'
  94   1.0000      -0.209942        -5.7128   77-A'
  95   1.0000      -0.169434        -4.6105   78-A'
  96   1.0000      -0.164270        -4.4700   79-A'
  97   1.0000      -0.155145        -4.2217   19-A"
  98   1.0000      -0.145527        -3.9600   20-A"
  99   1.0000      -0.144625        -3.9355   80-A'
 100   1.0000      -0.140737        -3.8297   81-A'
 101   1.0000      -0.124788        -3.3957   82-A'
 102   1.0000      -0.105538        -2.8718   83-A'
 103   1.0000      -0.082061        -2.2330   84-A'
 104   1.0000      -0.069493        -1.8910   85-A'
 105   1.0000      -0.053799        -1.4639   86-A'
 106   1.0000      -0.052913        -1.4398   21-A"
 107   1.0000      -0.052220        -1.4210   22-A"
 108   1.0000      -0.050831        -1.3832   87-A'
 109   1.0000      -0.040360        -1.0983   23-A"
 110   1.0000      -0.031471        -0.8564   24-A"
 111   1.0000      -0.025083        -0.6825   88-A'
 112   1.0000      -0.011535        -0.3139   89-A'
 113   1.0000       0.009028         0.2457   25-A"
 114   1.0000       0.010828         0.2946   26-A"
 115   1.0000       0.013553         0.3688   90-A'
 116   1.0000       0.030512         0.8303   91-A'
 117   1.0000       0.032590         0.8868   92-A'
 118   1.0000       0.056243         1.5304   93-A'
 119   1.0000       0.057620         1.5679   27-A"
 120   1.0000       0.060617         1.6495   28-A"
 121   1.0000       0.081813         2.2262   29-A"
 122   1.0000       0.109685         2.9847   30-A"
 123   1.0000       0.128472         3.4959   94-A'
 124   0.0000       0.181984         4.9520   95-A'
 125   0.0000       0.182354         4.9621   96-A'
 126   0.0000       0.195142         5.3101   97-A'
 127   0.0000       0.197421         5.3721   98-A'
 128   0.0000       0.206949         5.6314   31-A"

                 SPIN DOWN ORBITALS
  NO   OCC          E(Eh)            E(eV)    Irrep
   0   1.0000    -443.573927    -12070.2602    1-A'
   1   1.0000    -443.567124    -12070.0751    2-A'
   2   1.0000    -443.549139    -12069.5857    3-A'
   3   1.0000    -443.541550    -12069.3792    4-A'
   4   1.0000    -318.172559     -8657.9155    5-A'
   5   1.0000     -56.375340     -1534.0510    6-A'
   6   1.0000     -56.371382     -1533.9433    7-A'
   7   1.0000     -56.353540     -1533.4578    8-A'
   8   1.0000     -56.349279     -1533.3418    9-A'
   9   1.0000     -51.285564     -1395.5512   10-A'
  10   1.0000     -51.283896     -1395.5058    1-A"
  11   1.0000     -51.283809     -1395.5034   11-A'
  12   1.0000     -51.280197     -1395.4051   12-A'
  13   1.0000     -51.279526     -1395.3868   13-A'
  14   1.0000     -51.278646     -1395.3629    2-A"
  15   1.0000     -51.278614     -1395.3620   14-A'
  16   1.0000     -51.278143     -1395.3492    3-A"
  17   1.0000     -51.278076     -1395.3474   15-A'
  18   1.0000     -51.271954     -1395.1808   16-A'
  19   1.0000     -51.270591     -1395.1437    4-A"
  20   1.0000     -51.270535     -1395.1422   17-A'
  21   1.0000     -37.999423     -1034.0169   18-A'
  22   1.0000     -33.502126      -911.6392   19-A'
  23   1.0000     -33.501459      -911.6210   20-A'
  24   1.0000     -33.499723      -911.5738    5-A"
  25   1.0000      -9.805183      -266.8126   21-A'
  26   1.0000      -9.803913      -266.7780   22-A'
  27   1.0000      -9.803425      -266.7647   23-A'
  28   1.0000      -9.801982      -266.7255   24-A'
  29   1.0000      -9.796856      -266.5860   25-A'
  30   1.0000      -9.794872      -266.5320   26-A'
  31   1.0000      -9.794097      -266.5109   27-A'
  32   1.0000      -9.792776      -266.4750   28-A'
  33   1.0000      -9.791747      -266.4470   29-A'
  34   1.0000      -9.786535      -266.3052   30-A'
  35   1.0000      -9.783421      -266.2204   31-A'
  36   1.0000      -9.780504      -266.1411   32-A'
  37   1.0000      -7.338666      -199.6952   33-A'
  38   1.0000      -7.338116      -199.6803   34-A'
  39   1.0000      -7.326986      -199.3774   35-A'
  40   1.0000      -7.323585      -199.2849   36-A'
  41   1.0000      -5.401152      -146.9728   37-A'
  42   1.0000      -5.395850      -146.8285   38-A'
  43   1.0000      -5.395418      -146.8168    6-A"
  44   1.0000      -5.395111      -146.8084   39-A'
  45   1.0000      -5.395071      -146.8073   40-A'
  46   1.0000      -5.390230      -146.6756    7-A"
  47   1.0000      -5.390068      -146.6712   41-A'
  48   1.0000      -5.389673      -146.6605    8-A"
  49   1.0000      -5.389672      -146.6604   42-A'
  50   1.0000      -5.389466      -146.6548   43-A'
  51   1.0000      -5.384456      -146.5185    9-A"
  52   1.0000      -5.384297      -146.5142   44-A'
  53   1.0000      -3.979793      -108.2957   45-A'
  54   1.0000      -2.493098       -67.8407   10-A"
  55   1.0000      -2.491908       -67.8083   46-A'
  56   1.0000      -2.491473       -67.7964   47-A'
  57   1.0000      -1.740699       -47.3668   48-A'
  58   1.0000      -1.736816       -47.2612   11-A"
  59   1.0000      -1.736772       -47.2600   49-A'
  60   1.0000      -1.735803       -47.2336   50-A'
  61   1.0000      -1.735635       -47.2290   51-A'
  62   1.0000      -1.731786       -47.1243   52-A'
  63   1.0000      -1.731634       -47.1202   12-A"
  64   1.0000      -1.731631       -47.1201   13-A"
  65   1.0000      -1.731615       -47.1196   53-A'
  66   1.0000      -1.731224       -47.1090   54-A'
  67   1.0000      -1.731090       -47.1054   14-A"
  68   1.0000      -1.729818       -47.0707   55-A'
  69   1.0000      -1.726616       -46.9836   15-A"
  70   1.0000      -1.726598       -46.9831   56-A'
  71   1.0000      -1.726105       -46.9697   16-A"
  72   1.0000      -1.726074       -46.9689   57-A'
  73   1.0000      -1.725923       -46.9647   58-A'
  74   1.0000      -1.725741       -46.9598   17-A"
  75   1.0000      -1.721014       -46.8312   18-A"
  76   1.0000      -1.720994       -46.8306   59-A'
  77   1.0000      -0.634307       -17.2604   60-A'
  78   1.0000      -0.623164       -16.9572   61-A'
  79   1.0000      -0.533100       -14.5064   62-A'
  80   1.0000      -0.532153       -14.4806   63-A'
  81   1.0000      -0.522459       -14.2168   64-A'
  82   1.0000      -0.509036       -13.8516   65-A'
  83   1.0000      -0.416943       -11.3456   66-A'
  84   1.0000      -0.415813       -11.3148   67-A'
  85   1.0000      -0.380184       -10.3453   68-A'
  86   1.0000      -0.375588       -10.2203   69-A'
  87   1.0000      -0.341159        -9.2834   70-A'
  88   1.0000      -0.331970        -9.0334   71-A'
  89   1.0000      -0.275277        -7.4907   72-A'
  90   1.0000      -0.272542        -7.4162   73-A'
  91   1.0000      -0.225961        -6.1487   74-A'
  92   1.0000      -0.221211        -6.0194   75-A'
  93   1.0000      -0.214785        -5.8446   76-A'
  94   1.0000      -0.208669        -5.6782   77-A'
  95   1.0000      -0.168159        -4.5758   78-A'
  96   1.0000      -0.162787        -4.4297   79-A'
  97   1.0000      -0.154763        -4.2113   19-A"
  98   1.0000      -0.145169        -3.9503   20-A"
  99   1.0000      -0.143059        -3.8928   80-A'
 100   1.0000      -0.138225        -3.7613   81-A'
 101   1.0000      -0.122787        -3.3412   82-A'
 102   1.0000      -0.103804        -2.8247   83-A'
 103   1.0000      -0.080975        -2.2034   84-A'
 104   1.0000      -0.067239        -1.8297   85-A'
 105   1.0000      -0.052274        -1.4224   21-A"
 106   1.0000      -0.051682        -1.4063   22-A"
 107   1.0000      -0.051613        -1.4045   86-A'
 108   1.0000      -0.042698        -1.1619   87-A'
 109   1.0000      -0.039159        -1.0656   23-A"
 110   1.0000      -0.030368        -0.8264   24-A"
 111   1.0000      -0.010278        -0.2797   88-A'
 112   1.0000       0.011272         0.3067   89-A'
 113   1.0000       0.019087         0.5194   25-A"
 114   1.0000       0.022143         0.6025   26-A"
 115   1.0000       0.023873         0.6496   90-A'
 116   1.0000       0.040463         1.1011   91-A'
 117   1.0000       0.044321         1.2060   92-A'
 118   1.0000       0.059589         1.6215   27-A"
 119   1.0000       0.064588         1.7575   28-A"
 120   1.0000       0.067329         1.8321   93-A'
 121   1.0000       0.083660         2.2765   29-A"
 122   1.0000       0.113062         3.0766   30-A"
 123   0.0000       0.157830         4.2948   94-A'
 124   0.0000       0.186054         5.0628   95-A'
 125   0.0000       0.186604         5.0778   96-A'
 126   0.0000       0.201849         5.4926   97-A'
 127   0.0000       0.202787         5.5181   98-A'

MULLIKEN ATOMIC CHARGES AND SPIN POPULATIONS
--------------------------------------------
   0 Cu:    0.565180    0.307227
   1 Se:   -0.722507    0.179770
   2 C :    0.239791   -0.002700
   3 Se:   -0.749251    0.172848
   4 C :    0.261829   -0.005106
   5 Se:   -0.741300    0.173949
   6 C :    0.252617   -0.003611
   7 Se:   -0.716317    0.166931
   8 C :    0.193407   -0.002180
   9 C :   -0.114282   -0.000293
  10 C :   -0.067379   -0.001772
  11 C :   -0.159503   -0.000726
  12 H :    0.090095    0.002763
  13 C :   -0.145023   -0.001540
  14 H :    0.080209    0.003055
  15 H :    0.027166    0.000980
  16 H :    0.000096    0.003278
  17 C :   -0.091792   -0.001170
  18 C :   -0.072802   -0.000983
  19 C :   -0.153542   -0.000894
  20 H :    0.084339    0.003479
  21 C :   -0.177772   -0.001124
  22 H :    0.088047    0.003000
  23 H :    0.015538    0.002733
  24 H :    0.013158    0.002087
Sum of atomic charges         :   -2.0000000

LOEWDIN ATOMIC CHARGES AND SPIN POPULATIONS
-------------------------------------------
   0 Cu:   -0.561948    0.386188
   1 Se:   -0.189653    0.125106
   2 C :   -0.046013    0.011818
   3 Se:   -0.155438    0.122810
   4 C :   -0.001416    0.008929
   5 Se:   -0.165848    0.119775
   6 C :   -0.016285    0.009843
   7 Se:   -0.232417    0.114839
   8 C :   -0.005357    0.011905
   9 C :    0.365799    0.008974
  10 C :    0.386366    0.008458
  11 C :    0.321070    0.000382
  12 H :   -0.455669    0.011219
  13 C :    0.313739    0.000955
  14 H :   -0.446589    0.010254
  15 H :   -0.418674    0.000151
  16 H :   -0.390572    0.000952
  17 C :    0.376919    0.010445
  18 C :    0.378582    0.009760
  19 C :    0.325362    0.001185
  20 H :   -0.444431    0.011687
  21 C :    0.326441    0.000823
  22 H :   -0.455570    0.012248
  23 H :   -0.404982    0.000811
  24 H :   -0.403414    0.000482

  Mayer bond orders larger than 0.100000
B(  0-Cu,  1-Se) :   0.5711 B(  0-Cu,  3-Se) :   0.5700 B(  0-Cu,  5-Se) :   0.5806
B(  0-Cu,  7-Se) :   0.5716 B(  1-Se,  2-C ) :   1.0982 B(  2-C ,  6-C ) :   1.0797
B(  2-C , 17-C ) :   1.1968 B(  3-Se,  4-C ) :   1.0702 B(  4-C ,  8-C ) :   1.1039
B(  4-C , 10-C ) :   1.2055 B(  5-Se,  6-C ) :   1.0747 B(  6-C , 18-C ) :   1.2071
B(  7-Se,  8-C ) :   1.0628 B(  8-C ,  9-C ) :   1.2259 B(  9-C , 13-C ) :   1.4176
B(  9-C , 14-H ) :   0.9611 B( 10-C , 11-C ) :   1.4106 B( 10-C , 12-H ) :   0.9573
B( 11-C , 13-C ) :   1.2807 B( 11-C , 15-H ) :   0.9909 B( 13-C , 16-H ) :   1.0025
B( 17-C , 19-C ) :   1.4162 B( 17-C , 20-H ) :   0.9594 B( 18-C , 21-C ) :   1.4109
B( 18-C , 22-H ) :   0.9556 B( 19-C , 21-C ) :   1.2846 B( 19-C , 23-H ) :   0.9939
B( 21-C , 24-H ) :   0.9987

FINAL SINGLE POINT ENERGY    -11627.063820174528

DIPOLE MOMENT
-------------
                                X             Y             Z
Electronic contribution:      1.18585      -0.12900       0.00000
Nuclear contribution   :     -0.99456       0.15527       0.00000
                        -----------------------------------------
Total Dipole Moment    :      0.19129       0.02627       0.00000
                        -----------------------------------------
Magnitude (a.u.)       :      0.19309
Magnitude (Debye)      :      0.49079

Rotational constants in cm-1:     0.018302     0.004176     0.003400
Rotational constants in MHz :   548.668662   125.182372   101.927045

                             ****ORCA TERMINATED NORMALLY****
TOTAL RUN TIME: 0 days 17 hours 14 minutes 31 seconds 527 msec
