                         Program Version 5.0.4 -  RELEASE  -
|  1> ! RIJCOSX nofrozencore ReducedPop printbasis
|  2> ! M06L ano-rcc-dzp autoaux
|  3>
|  4> %maxcore 7500
|  5> %basis
|  6> PCDTrimBas overlap
|  7> PCDTrimAuxJ Coulomb
|  8> PCDTrimAuxJK Coulomb
|  9> PCDTrimAuxC Coulomb
| 10> PCDThresh -1
| 11> end
| 12>
| 13> %basis
| 14> newgto Cu "ano-rcc-tzp" end
| 15> newgto Se "ano-rcc-tzp" end
| 16> end
| 17>
| 18> %pal
| 19> nprocs 8
| 20> end
| 21>
| 22> % sym SymThresh 1e-2 end
| 23> * xyz -2 2
| 24> Cu -0.00028688600751503214 -2.0520133141905223e-05 7.405634900481815e-05
| 25> Se -0.5917556412408482 1.1141405089129355 -2.0041253687613603
| 26> C -0.8667164476971773 -0.08912121166667696 -3.0827317512205386
| 27> Se 0.20248772304207283 1.9623739816828614 1.3099938643529552
| 28> C 0.5573255006016813 1.4219273910597032 2.815777079734692
| 29> Se -0.19294514099412333 -1.9616914281633029 -1.3124571730122772
| 30> C -0.6944347954323419 -1.4317344256003142 -2.780383879913847
| 31> Se 0.6010016778197502 -1.1134791664400927 2.0017386099308077
| 32> C 0.7316462651960258 0.07946002898149551 3.117598577463103
| 33> C 1.1834141271392344 -0.21920892599302366 4.402160776294554
| 34> C 0.8518134973464792 2.333863632947891 3.828183372445817
| 35> C 1.1541121843120685 2.0222325228767546 5.137868103250797
| 36> H 0.9174774596579726 3.3918092383465335 3.532988475196128
| 37> C 1.3271809477578906 0.6782452026696681 5.440377869393821
| 38> H 1.5205061084287996 -1.252023853954194 4.577037340138421
| 39> H 1.4656994099505563 2.8213299728919226 5.827387272234637
| 40> H 1.7842716803667913 0.3461544763007601 6.384550102694943
| 41> C -1.1190109850530168 0.223816249543396 -4.418786964586662
| 42> C -0.7917064065901099 -2.329565322071718 -3.8436990819499735
| 43> C -1.3865337354555354 -0.6824907626636476 -5.425057626613243
| 44> H -1.0165028038911472 1.2880745160655587 -4.707141293815696
| 45> C -1.2075538948754938 -2.0260548297754135 -5.1240717334736585
| 46> H -0.4210476617481435 -3.3563020158849586 -3.6611359124013663
| 47> H -1.466293672646691 -0.32341139847566663 -6.4666322466873964
| 48> H -1.1340569016353488 -2.797609287185573 -5.912995749069693
| 49> *
| 50>
| 51> % eprnmr
| 52> gtensor true
| 53> Nuclei = all H {aiso,adip,aorb,fgrad,rho}
| 54> Nuclei = all Cu {aiso,adip,aorb,fgrad,rho}
| 55> end
| 56>
| 57>                          ****END OF INPUT****

CARTESIAN COORDINATES (ANGSTROEM)
---------------------------------
  Cu    -0.000287   -0.000021    0.000074
  Se    -0.591756    1.114140   -2.004125
  C     -0.866717   -0.089121   -3.082732
  Se     0.202487    1.962374    1.309994
  C      0.557325    1.421927    2.815777
  Se    -0.192945   -1.961691   -1.312457
  C     -0.694435   -1.431734   -2.780384
  Se     0.601001   -1.113479    2.001739
  C      0.731646    0.079460    3.117599
  C      1.183414   -0.219209    4.402161
  C      0.851813    2.333864    3.828183
  C      1.154112    2.022233    5.137868
  H      0.917477    3.391809    3.532989
  C      1.327181    0.678245    5.440378
  H      1.520506   -1.252024    4.577037
  H      1.465699    2.821330    5.827387
  H      1.784271    0.346154    6.384550
  C     -1.119011    0.223816   -4.418787
  C     -0.791707   -2.329565   -3.843699
  C     -1.386534   -0.682491   -5.425058
  H     -1.016503    1.288075   -4.707141
  C     -1.207554   -2.026055   -5.124072
  H     -0.421048   -3.356302   -3.661136
  H     -1.466294   -0.323411   -6.466632
  H     -1.134057   -2.797609   -5.912996

 Total Charge           Charge          ....   -2
 Multiplicity           Mult            ....    2
 Number of Electrons    NEL             ....  247
 Basis Dimension        Dim             ....  575

ORBITAL ENERGIES
----------------
                 SPIN UP ORBITALS
  NO   OCC          E(Eh)            E(eV)
   0   1.0000    -443.560828    -12069.9038
   1   1.0000    -443.559824    -12069.8764
   2   1.0000    -443.546568    -12069.5157
   3   1.0000    -443.546368    -12069.5103
   4   1.0000    -318.187426     -8658.3201
   5   1.0000     -56.369936     -1533.9039
   6   1.0000     -56.369671     -1533.8967
   7   1.0000     -56.357229     -1533.5582
   8   1.0000     -56.356991     -1533.5517
   9   1.0000     -51.286663     -1395.5810
  10   1.0000     -51.286603     -1395.5794
  11   1.0000     -51.286586     -1395.5790
  12   1.0000     -51.286551     -1395.5780
  13   1.0000     -51.285308     -1395.5442
  14   1.0000     -51.285277     -1395.5433
  15   1.0000     -51.285254     -1395.5427
  16   1.0000     -51.285207     -1395.5414
  17   1.0000     -51.284886     -1395.5327
  18   1.0000     -51.284845     -1395.5316
  19   1.0000     -51.284833     -1395.5312
  20   1.0000     -51.284785     -1395.5300
  21   1.0000     -38.027989     -1034.7942
  22   1.0000     -33.530052      -912.3991
  23   1.0000     -33.529245      -912.3772
  24   1.0000     -33.518104      -912.0740
  25   1.0000      -9.818968      -267.1877
  26   1.0000      -9.818503      -267.1750
  27   1.0000      -9.818296      -267.1694
  28   1.0000      -9.817848      -267.1572
  29   1.0000      -9.810855      -266.9669
  30   1.0000      -9.810648      -266.9613
  31   1.0000      -9.810248      -266.9504
  32   1.0000      -9.810097      -266.9463
  33   1.0000      -9.809854      -266.9397
  34   1.0000      -9.809851      -266.9396
  35   1.0000      -9.809582      -266.9323
  36   1.0000      -9.809378      -266.9268
  37   1.0000      -7.341520      -199.7729
  38   1.0000      -7.341497      -199.7723
  39   1.0000      -7.334314      -199.5768
  40   1.0000      -7.334210      -199.5740
  41   1.0000      -5.404781      -147.0716
  42   1.0000      -5.404756      -147.0709
  43   1.0000      -5.404659      -147.0682
  44   1.0000      -5.404643      -147.0678
  45   1.0000      -5.399417      -146.9256
  46   1.0000      -5.399387      -146.9248
  47   1.0000      -5.399318      -146.9229
  48   1.0000      -5.399281      -146.9219
  49   1.0000      -5.399093      -146.9168
  50   1.0000      -5.399056      -146.9158
  51   1.0000      -5.398981      -146.9137
  52   1.0000      -5.398935      -146.9125
  53   1.0000      -4.022290      -109.4521
  54   1.0000      -2.541845       -69.1671
  55   1.0000      -2.540888       -69.1411
  56   1.0000      -2.517420       -68.5025
  57   1.0000      -1.743788       -47.4509
  58   1.0000      -1.743753       -47.4499
  59   1.0000      -1.743686       -47.4481
  60   1.0000      -1.743644       -47.4470
  61   1.0000      -1.741087       -47.3774
  62   1.0000      -1.740994       -47.3749
  63   1.0000      -1.740976       -47.3744
  64   1.0000      -1.740885       -47.3719
  65   1.0000      -1.740361       -47.3576
  66   1.0000      -1.740321       -47.3566
  67   1.0000      -1.740252       -47.3547
  68   1.0000      -1.740190       -47.3530
  69   1.0000      -1.735990       -47.2387
  70   1.0000      -1.735935       -47.2372
  71   1.0000      -1.735907       -47.2364
  72   1.0000      -1.735883       -47.2358
  73   1.0000      -1.735876       -47.2356
  74   1.0000      -1.735833       -47.2344
  75   1.0000      -1.735791       -47.2333
  76   1.0000      -1.735774       -47.2328
  77   1.0000      -0.603099       -16.4112
  78   1.0000      -0.602894       -16.4056
  79   1.0000      -0.522121       -14.2076
  80   1.0000      -0.521381       -14.1875
  81   1.0000      -0.498611       -13.5679
  82   1.0000      -0.498200       -13.5567
  83   1.0000      -0.412726       -11.2309
  84   1.0000      -0.411558       -11.1991
  85   1.0000      -0.382822       -10.4171
  86   1.0000      -0.378138       -10.2897
  87   1.0000      -0.319292        -8.6884
  88   1.0000      -0.316962        -8.6250
  89   1.0000      -0.285687        -7.7739
  90   1.0000      -0.282278        -7.6812
  91   1.0000      -0.228077        -6.2063
  92   1.0000      -0.221358        -6.0235
  93   1.0000      -0.200844        -5.4653
  94   1.0000      -0.199725        -5.4348
  95   1.0000      -0.168342        -4.5808
  96   1.0000      -0.163600        -4.4518
  97   1.0000      -0.138221        -3.7612
  98   1.0000      -0.137223        -3.7340
  99   1.0000      -0.136245        -3.7074
 100   1.0000      -0.131205        -3.5703
 101   1.0000      -0.130990        -3.5644
 102   1.0000      -0.110372        -3.0034
 103   1.0000      -0.081855        -2.2274
 104   1.0000      -0.071184        -1.9370
 105   1.0000      -0.065668        -1.7869
 106   1.0000      -0.063131        -1.7179
 107   1.0000      -0.049568        -1.3488
 108   1.0000      -0.048904        -1.3308
 109   1.0000      -0.031967        -0.8699
 110   1.0000      -0.030505        -0.8301
 111   1.0000      -0.030058        -0.8179
 112   1.0000      -0.025025        -0.6810
 113   1.0000      -0.001858        -0.0506
 114   1.0000      -0.001584        -0.0431
 115   1.0000       0.000025         0.0007
 116   1.0000       0.018600         0.5061
 117   1.0000       0.020437         0.5561
 118   1.0000       0.039842         1.0842
 119   1.0000       0.054392         1.4801
 120   1.0000       0.056044         1.5250
 121   1.0000       0.069633         1.8948
 122   1.0000       0.098506         2.6805
 123   1.0000       0.116106         3.1594
 124   0.0000       0.180891         4.9223
 125   0.0000       0.181192         4.9305
 126   0.0000       0.195809         5.3282
 127   0.0000       0.196254         5.3404
 128   0.0000       0.200071         5.4442

                 SPIN DOWN ORBITALS
  NO   OCC          E(Eh)            E(eV)
   0   1.0000    -443.560374    -12069.8914
   1   1.0000    -443.559370    -12069.8641
   2   1.0000    -443.546114    -12069.5034
   3   1.0000    -443.545914    -12069.4979
   4   1.0000    -318.187304     -8658.3167
   5   1.0000     -56.369752     -1533.8989
   6   1.0000     -56.369487     -1533.8917
   7   1.0000     -56.357048     -1533.5532
   8   1.0000     -56.356810     -1533.5468
   9   1.0000     -51.286341     -1395.5723
  10   1.0000     -51.286275     -1395.5705
  11   1.0000     -51.286261     -1395.5701
  12   1.0000     -51.286221     -1395.5690
  13   1.0000     -51.284640     -1395.5260
  14   1.0000     -51.284599     -1395.5249
  15   1.0000     -51.284587     -1395.5246
  16   1.0000     -51.284564     -1395.5239
  17   1.0000     -51.284540     -1395.5233
  18   1.0000     -51.284536     -1395.5232
  19   1.0000     -51.284518     -1395.5227
  20   1.0000     -51.284472     -1395.5214
  21   1.0000     -38.014091     -1034.4160
  22   1.0000     -33.516846      -912.0397
  23   1.0000     -33.516041      -912.0178
  24   1.0000     -33.514219      -911.9683
  25   1.0000      -9.818916      -267.1863
  26   1.0000      -9.818451      -267.1736
  27   1.0000      -9.818244      -267.1680
  28   1.0000      -9.817797      -267.1558
  29   1.0000      -9.810751      -266.9641
  30   1.0000      -9.810560      -266.9589
  31   1.0000      -9.810224      -266.9498
  32   1.0000      -9.810093      -266.9462
  33   1.0000      -9.809862      -266.9399
  34   1.0000      -9.809784      -266.9378
  35   1.0000      -9.809487      -266.9297
  36   1.0000      -9.809345      -266.9258
  37   1.0000      -7.341119      -199.7620
  38   1.0000      -7.341097      -199.7614
  39   1.0000      -7.333907      -199.5658
  40   1.0000      -7.333802      -199.5629
  41   1.0000      -5.404415      -147.0616
  42   1.0000      -5.404390      -147.0609
  43   1.0000      -5.404294      -147.0583
  44   1.0000      -5.404277      -147.0579
  45   1.0000      -5.398782      -146.9083
  46   1.0000      -5.398746      -146.9073
  47   1.0000      -5.398680      -146.9056
  48   1.0000      -5.398629      -146.9042
  49   1.0000      -5.398589      -146.9031
  50   1.0000      -5.398559      -146.9022
  51   1.0000      -5.398480      -146.9001
  52   1.0000      -5.398448      -146.8992
  53   1.0000      -3.994053      -108.6837
  54   1.0000      -2.507085       -68.2213
  55   1.0000      -2.506594       -68.2079
  56   1.0000      -2.505567       -68.1799
  57   1.0000      -1.743339       -47.4387
  58   1.0000      -1.743303       -47.4377
  59   1.0000      -1.743237       -47.4359
  60   1.0000      -1.743193       -47.4347
  61   1.0000      -1.740196       -47.3531
  62   1.0000      -1.740107       -47.3507
  63   1.0000      -1.740083       -47.3501
  64   1.0000      -1.740041       -47.3489
  65   1.0000      -1.740003       -47.3479
  66   1.0000      -1.739990       -47.3475
  67   1.0000      -1.739939       -47.3461
  68   1.0000      -1.739879       -47.3445
  69   1.0000      -1.735209       -47.2174
  70   1.0000      -1.735142       -47.2156
  71   1.0000      -1.735131       -47.2153
  72   1.0000      -1.735100       -47.2145
  73   1.0000      -1.735082       -47.2140
  74   1.0000      -1.735033       -47.2127
  75   1.0000      -1.735018       -47.2122
  76   1.0000      -1.734974       -47.2111
  77   1.0000      -0.602290       -16.3891
  78   1.0000      -0.602099       -16.3840
  79   1.0000      -0.520967       -14.1762
  80   1.0000      -0.520263       -14.1571
  81   1.0000      -0.496887       -13.5210
  82   1.0000      -0.496478       -13.5098
  83   1.0000      -0.410044       -11.1579
  84   1.0000      -0.408853       -11.1255
  85   1.0000      -0.380264       -10.3475
  86   1.0000      -0.375763       -10.2250
  87   1.0000      -0.317566        -8.6414
  88   1.0000      -0.315080        -8.5738
  89   1.0000      -0.283250        -7.7076
  90   1.0000      -0.279572        -7.6076
  91   1.0000      -0.226955        -6.1758
  92   1.0000      -0.220311        -5.9950
  93   1.0000      -0.199533        -5.4296
  94   1.0000      -0.198493        -5.4013
  95   1.0000      -0.166969        -4.5435
  96   1.0000      -0.161657        -4.3989
  97   1.0000      -0.137311        -3.7364
  98   1.0000      -0.135360        -3.6833
  99   1.0000      -0.134417        -3.6577
 100   1.0000      -0.130781        -3.5587
 101   1.0000      -0.130513        -3.5514
 102   1.0000      -0.108609        -2.9554
 103   1.0000      -0.080549        -2.1918
 104   1.0000      -0.069761        -1.8983
 105   1.0000      -0.061011        -1.6602
 106   1.0000      -0.054273        -1.4768
 107   1.0000      -0.048452        -1.3184
 108   1.0000      -0.048265        -1.3134
 109   1.0000      -0.029335        -0.7982
 110   1.0000      -0.023981        -0.6526
 111   1.0000      -0.023676        -0.6443
 112   1.0000      -0.002688        -0.0731
 113   1.0000       0.007625         0.2075
 114   1.0000       0.009618         0.2617
 115   1.0000       0.010341         0.2814
 116   1.0000       0.028648         0.7795
 117   1.0000       0.031523         0.8578
 118   1.0000       0.050624         1.3775
 119   1.0000       0.056301         1.5320
 120   1.0000       0.060108         1.6356
 121   1.0000       0.071382         1.9424
 122   1.0000       0.101771         2.7693
 123   0.0000       0.145888         3.9698
 124   0.0000       0.182704         4.9716
 125   0.0000       0.183032         4.9806
 126   0.0000       0.199029         5.4159
 127   0.0000       0.199550         5.4300

MULLIKEN ATOMIC CHARGES AND SPIN POPULATIONS
--------------------------------------------
   0 Cu:    0.637287    0.309151
   1 Se:   -0.723665    0.173648
   2 C :    0.218235   -0.003404
   3 Se:   -0.725689    0.173601
   4 C :    0.218909   -0.003401
   5 Se:   -0.722959    0.173693
   6 C :    0.217612   -0.003499
   7 Se:   -0.725999    0.173363
   8 C :    0.219170   -0.003307
   9 C :   -0.082420   -0.001033
  10 C :   -0.082895   -0.000970
  11 C :   -0.152183   -0.000709
  12 H :    0.071289    0.002487
  13 C :   -0.152909   -0.000668
  14 H :    0.070879    0.002546
  15 H :    0.011566    0.001646
  16 H :    0.011794    0.001649
  17 C :   -0.075817   -0.000863
  18 C :   -0.076426   -0.000810
  19 C :   -0.153047   -0.000677
  20 H :    0.064101    0.002454
  21 C :   -0.149499   -0.000692
  22 H :    0.064863    0.002476
  23 H :    0.009894    0.001657
  24 H :    0.007906    0.001662
Sum of atomic charges         :   -2.0000000

LOEWDIN ATOMIC CHARGES AND SPIN POPULATIONS
-------------------------------------------
   0 Cu:   -0.617088    0.390317
   1 Se:   -0.207616    0.123718
   2 C :    0.036626    0.011579
   3 Se:   -0.206132    0.123597
   4 C :    0.037175    0.011603
   5 Se:   -0.207233    0.123754
   6 C :    0.036926    0.011546
   7 Se:   -0.206345    0.123514
   8 C :    0.037090    0.011615
   9 C :    0.360146    0.007111
  10 C :    0.360072    0.007147
  11 C :    0.306313    0.000513
  12 H :   -0.440786    0.009108
  13 C :    0.306360    0.000525
  14 H :   -0.440611    0.009085
  15 H :   -0.402228    0.000434
  16 H :   -0.402514    0.000439
  17 C :    0.356826    0.007188
  18 C :    0.356497    0.007220
  19 C :    0.302304    0.000546
  20 H :   -0.433987    0.008975
  21 C :    0.301914    0.000542
  22 H :   -0.434960    0.009020
  23 H :   -0.400267    0.000451
  24 H :   -0.398483    0.000452

  Mayer bond orders larger than 0.100000
B(  0-Cu,  1-Se) :   0.5494 B(  0-Cu,  3-Se) :   0.5503 B(  0-Cu,  5-Se) :   0.5500
B(  0-Cu,  7-Se) :   0.5497 B(  1-Se,  2-C ) :   1.0361 B(  2-C ,  6-C ) :   1.1425
B(  2-C , 17-C ) :   1.2535 B(  3-Se,  4-C ) :   1.0376 B(  4-C ,  8-C ) :   1.1403
B(  4-C , 10-C ) :   1.2544 B(  5-Se,  6-C ) :   1.0364 B(  6-C , 18-C ) :   1.2536
B(  7-Se,  8-C ) :   1.0367 B(  8-C ,  9-C ) :   1.2542 B(  9-C , 13-C ) :   1.3806
B(  9-C , 14-H ) :   0.9716 B( 10-C , 11-C ) :   1.3804 B( 10-C , 12-H ) :   0.9714
B( 11-C , 13-C ) :   1.3098 B( 11-C , 15-H ) :   1.0025 B( 13-C , 16-H ) :   1.0023
B( 17-C , 19-C ) :   1.3810 B( 17-C , 20-H ) :   0.9750 B( 18-C , 21-C ) :   1.3808
B( 18-C , 22-H ) :   0.9746 B( 19-C , 21-C ) :   1.3091 B( 19-C , 23-H ) :   1.0038
B( 21-C , 24-H ) :   1.0045

FINAL SINGLE POINT ENERGY    -11627.124547527152

DIPOLE MOMENT
-------------
                                X             Y             Z
Electronic contribution:     -1.08633      -0.07344       0.29831
Nuclear contribution   :      1.35625       0.09701      -0.35010
                        -----------------------------------------
Total Dipole Moment    :      0.26992       0.02356      -0.05179
                        -----------------------------------------
Magnitude (a.u.)       :      0.27585
Magnitude (Debye)      :      0.70116

Rotational constants in cm-1:     0.017602     0.004097     0.003325
Rotational constants in MHz :   527.701210   122.829512    99.666036

                             ****ORCA TERMINATED NORMALLY****
TOTAL RUN TIME: 0 days 15 hours 28 minutes 58 seconds 69 msec
