                         Program Version 5.0.4 -  RELEASE  -
|  1> ! RIJCOSX nofrozencore ReducedPop printbasis
|  2> ! M06L ano-rcc-dzp autoaux
|  3>
|  4> %maxcore 7500
|  5> %basis
|  6> PCDTrimBas overlap
|  7> PCDTrimAuxJ Coulomb
|  8> PCDTrimAuxJK Coulomb
|  9> PCDTrimAuxC Coulomb
| 10> PCDThresh -1
| 11> end
| 12>
| 13> %basis
| 14> newgto Cu "ano-rcc-tzp" end
| 15> newgto Se "ano-rcc-tzp" end
| 16> end
| 17>
| 18> %pal
| 19> nprocs 8
| 20> end
| 21>
| 22> % sym SymThresh 1e-2 end
| 23> * xyz -2 2
| 24> Cu 0.05162359738588778 0.40459615745955385 -0.020014001396613246
| 25> Se -2.0123145618437825 0.22929677030221823 1.2303036462737307
| 26> C -1.5350293026370596 0.2926281834206223 2.7958083769268827
| 27> Se -1.0356666065939537 -0.061474238579923755 -2.1305473646673954
| 28> C 0.2039411981354802 -0.22532324086198163 -3.188437078102141
| 29> Se 1.0135485898959555 -0.11187312544947456 2.1391226833440586
| 30> C -0.2143357039623859 0.14385751949622272 3.1924671048974558
| 31> Se 1.9901961658996004 -0.4026471066291428 -1.2217281805605165
| 32> C 1.5246095137312194 -0.374292057954799 -2.7917685476948506
| 33> C 2.4714522469925155 -0.49804770910160673 -3.804014288953616
| 34> C -0.04016592033085472 -0.21471688542122444 -4.5583920185167255
| 35> C 0.9033816232241414 -0.3287788539332457 -5.558587553313545
| 36> H -1.070689059511888 -0.09687098457657749 -4.859527268804005
| 37> C 2.2254670685196847 -0.4777214523839732 -5.161508440397202
| 38> H 3.4977651800481313 -0.6119740352456784 -3.487390117253013
| 39> H 0.6071011021328377 -0.29584318033475043 -6.602815230510658
| 40> H 3.0418765606022458 -0.570565361950325 -5.871512434160567
| 41> C -2.4700877444817717 0.5087440999560388 3.8034861103972597
| 42> C 0.04161969736958279 0.22611069260524666 4.5578283784054925
| 43> C -2.2100683081386387 0.5984096947295875 5.155539076255738
| 44> H -3.496118012714901 0.6248857785230213 3.486752347454159
| 45> C -0.8879496914909996 0.44972254821963803 5.5526036300734525
| 46> H 1.072459759945059 0.11074864172671656 4.858840755148523
| 47> H -3.014853120929395 0.7823584037161406 5.861035246712053
| 48> H -0.5799555790524482 0.5085832040754623 6.592290516429345
| 49> *
| 50>
| 51> % eprnmr
| 52> gtensor true
| 53> Nuclei = all H {aiso,adip,aorb,fgrad,rho}
| 54> Nuclei = all Cu {aiso,adip,aorb,fgrad,rho}
| 55> end
| 56>
| 57>                          ****END OF INPUT****

CARTESIAN COORDINATES (ANGSTROEM)
---------------------------------
  Cu     0.000000   -0.000000    0.408367
  Se     1.755969   -1.588883   -0.087482
  C      3.126639   -0.693488   -0.041162
  Se    -1.755969   -1.588883   -0.087482
  C     -3.126639   -0.693488   -0.041162
  Se     1.755969    1.588883   -0.087482
  C      3.126639    0.693488   -0.041162
  Se    -1.755969    1.588883   -0.087482
  C     -3.126639    0.693488   -0.041162
  C     -4.368893    1.318862    0.005574
  C     -4.368893   -1.318862    0.005574
  C     -5.597896   -0.694220    0.060971
  H     -4.360734   -2.398899    0.006760
  C     -5.597896    0.694220    0.060971
  H     -4.360734    2.398899    0.006760
  H     -6.512078   -1.278516    0.107123
  H     -6.512078    1.278516    0.107123
  C      4.368893   -1.318862    0.005574
  C      4.368893    1.318862    0.005574
  C      5.597896   -0.694220    0.060971
  H      4.360734   -2.398899    0.006760
  C      5.597896    0.694220    0.060971
  H      4.360734    2.398899    0.006760
  H      6.512078   -1.278516    0.107123
  H      6.512078    1.278516    0.107123

 Total Charge           Charge          ....   -2
 Multiplicity           Mult            ....    2
 Number of Electrons    NEL             ....  247
 Basis Dimension        Dim             ....  575

ORBITAL ENERGIES
----------------
                 SPIN UP ORBITALS
  NO   OCC          E(Eh)            E(eV)    Irrep
   0   1.0000    -443.561089    -12069.9109    1-B2
   1   1.0000    -443.560974    -12069.9077    1-A2
   2   1.0000    -443.547177    -12069.5323    1-A1
   3   1.0000    -443.547095    -12069.5301    1-B1
   4   1.0000    -318.178383     -8658.0740    2-A1
   5   1.0000     -56.369733     -1533.8984    2-A2
   6   1.0000     -56.369479     -1533.8915    2-B2
   7   1.0000     -56.356887     -1533.5489    3-A1
   8   1.0000     -56.356715     -1533.5442    2-B1
   9   1.0000     -51.286159     -1395.5673    3-A2
  10   1.0000     -51.286096     -1395.5656    3-B1
  11   1.0000     -51.286093     -1395.5655    3-B2
  12   1.0000     -51.286058     -1395.5646    4-A1
  13   1.0000     -51.284892     -1395.5329    4-A2
  14   1.0000     -51.284878     -1395.5325    4-B2
  15   1.0000     -51.284842     -1395.5315    4-B1
  16   1.0000     -51.284820     -1395.5309    5-A1
  17   1.0000     -51.284306     -1395.5169    5-A2
  18   1.0000     -51.284281     -1395.5162    5-B2
  19   1.0000     -51.284262     -1395.5157    5-B1
  20   1.0000     -51.284220     -1395.5146    6-A1
  21   1.0000     -38.019196     -1034.5549    7-A1
  22   1.0000     -33.521350      -912.1623    6-B2
  23   1.0000     -33.520854      -912.1488    6-B1
  24   1.0000     -33.509823      -911.8486    8-A1
  25   1.0000      -9.816410      -267.1181    7-B1
  26   1.0000      -9.816410      -267.1181    9-A1
  27   1.0000      -9.815962      -267.1059    6-A2
  28   1.0000      -9.815962      -267.1059    7-B2
  29   1.0000      -9.808313      -266.8978    8-B1
  30   1.0000      -9.808307      -266.8976   10-A1
  31   1.0000      -9.807866      -266.8856    7-A2
  32   1.0000      -9.807863      -266.8855    8-B2
  33   1.0000      -9.806712      -266.8542    9-B1
  34   1.0000      -9.806712      -266.8542   11-A1
  35   1.0000      -9.806705      -266.8540    8-A2
  36   1.0000      -9.806704      -266.8540    9-B2
  37   1.0000      -7.340633      -199.7488    9-A2
  38   1.0000      -7.340515      -199.7456   10-B2
  39   1.0000      -7.333293      -199.5491   12-A1
  40   1.0000      -7.333187      -199.5462   10-B1
  41   1.0000      -5.403520      -147.0373   10-A2
  42   1.0000      -5.403493      -147.0365   11-B1
  43   1.0000      -5.403480      -147.0362   11-B2
  44   1.0000      -5.403469      -147.0359   13-A1
  45   1.0000      -5.398786      -146.9084   11-A2
  46   1.0000      -5.398775      -146.9081   12-B2
  47   1.0000      -5.398763      -146.9078   12-B1
  48   1.0000      -5.398752      -146.9075   14-A1
  49   1.0000      -5.397334      -146.8689   12-A2
  50   1.0000      -5.397323      -146.8686   13-B2
  51   1.0000      -5.397312      -146.8683   13-B1
  52   1.0000      -5.397288      -146.8677   15-A1
  53   1.0000      -4.015347      -109.2631   16-A1
  54   1.0000      -2.534551       -68.9686   14-B2
  55   1.0000      -2.533946       -68.9522   14-B1
  56   1.0000      -2.511439       -68.3397   17-A1
  57   1.0000      -1.742566       -47.4176   18-A1
  58   1.0000      -1.742553       -47.4173   15-B1
  59   1.0000      -1.742536       -47.4168   15-B2
  60   1.0000      -1.742524       -47.4165   13-A2
  61   1.0000      -1.740101       -47.3506   19-A1
  62   1.0000      -1.740087       -47.3502   16-B1
  63   1.0000      -1.740038       -47.3488   16-B2
  64   1.0000      -1.740028       -47.3486   14-A2
  65   1.0000      -1.738798       -47.3151   20-A1
  66   1.0000      -1.738792       -47.3149   17-B1
  67   1.0000      -1.738771       -47.3144   17-B2
  68   1.0000      -1.738765       -47.3142   15-A2
  69   1.0000      -1.734743       -47.2048   21-A1
  70   1.0000      -1.734738       -47.2046   18-B1
  71   1.0000      -1.734688       -47.2033   22-A1
  72   1.0000      -1.734686       -47.2032   19-B1
  73   1.0000      -1.734677       -47.2030   16-A2
  74   1.0000      -1.734676       -47.2029   18-B2
  75   1.0000      -1.734663       -47.2026   17-A2
  76   1.0000      -1.734662       -47.2026   19-B2
  77   1.0000      -0.602248       -16.3880   23-A1
  78   1.0000      -0.602072       -16.3832   20-B1
  79   1.0000      -0.521313       -14.1856   24-A1
  80   1.0000      -0.520663       -14.1680   21-B1
  81   1.0000      -0.498869       -13.5749   20-B2
  82   1.0000      -0.498607       -13.5678   18-A2
  83   1.0000      -0.412631       -11.2283   21-B2
  84   1.0000      -0.411359       -11.1937   19-A2
  85   1.0000      -0.382525       -10.4090   25-A1
  86   1.0000      -0.378497       -10.2994   22-B1
  87   1.0000      -0.320429        -8.7193   26-A1
  88   1.0000      -0.318266        -8.6605   23-B1
  89   1.0000      -0.287062        -7.8114   22-B2
  90   1.0000      -0.283429        -7.7125   20-A2
  91   1.0000      -0.229400        -6.2423   27-A1
  92   1.0000      -0.223415        -6.0794   24-B1
  93   1.0000      -0.199953        -5.4410   28-A1
  94   1.0000      -0.199172        -5.4197   25-B1
  95   1.0000      -0.170185        -4.6310   23-B2
  96   1.0000      -0.164669        -4.4809   21-A2
  97   1.0000      -0.138509        -3.7690   24-B2
  98   1.0000      -0.136212        -3.7065   22-A2
  99   1.0000      -0.135222        -3.6796   29-A1
 100   1.0000      -0.129987        -3.5371   26-B1
 101   1.0000      -0.129896        -3.5346   30-A1
 102   1.0000      -0.110382        -3.0037   27-B1
 103   1.0000      -0.081012        -2.2045   31-A1
 104   1.0000      -0.071460        -1.9445   25-B2
 105   1.0000      -0.062630        -1.7043   28-B1
 106   1.0000      -0.060715        -1.6521   23-A2
 107   1.0000      -0.049347        -1.3428   32-A1
 108   1.0000      -0.047180        -1.2838   29-B1
 109   1.0000      -0.032475        -0.8837   24-A2
 110   1.0000      -0.030655        -0.8342   26-B2
 111   1.0000      -0.020489        -0.5575   33-A1
 112   1.0000      -0.019940        -0.5426   25-A2
 113   1.0000      -0.004287        -0.1166   30-B1
 114   1.0000       0.000519         0.0141   27-B2
 115   1.0000       0.005014         0.1364   34-A1
 116   1.0000       0.017937         0.4881   35-A1
 117   1.0000       0.034954         0.9511   31-B1
 118   1.0000       0.040807         1.1104   28-B2
 119   1.0000       0.056945         1.5495   26-A2
 120   1.0000       0.061301         1.6681   29-B2
 121   1.0000       0.072510         1.9731   36-A1
 122   1.0000       0.096880         2.6363   32-B1
 123   1.0000       0.110765         3.0141   27-A2
 124   0.0000       0.182183         4.9575   33-B1
 125   0.0000       0.182292         4.9604   37-A1
 126   0.0000       0.196451         5.3457   28-A2
 127   0.0000       0.196921         5.3585   30-B2
 128   0.0000       0.200870         5.4659   38-A1

                 SPIN DOWN ORBITALS
  NO   OCC          E(Eh)            E(eV)    Irrep
   0   1.0000    -443.560626    -12069.8982    1-B2
   1   1.0000    -443.560510    -12069.8951    1-A2
   2   1.0000    -443.546714    -12069.5197    1-A1
   3   1.0000    -443.546632    -12069.5174    1-B1
   4   1.0000    -318.178268     -8658.0709    2-A1
   5   1.0000     -56.369546     -1533.8933    2-A2
   6   1.0000     -56.369292     -1533.8864    2-B2
   7   1.0000     -56.356702     -1533.5438    3-A1
   8   1.0000     -56.356531     -1533.5392    2-B1
   9   1.0000     -51.285832     -1395.5584    3-A2
  10   1.0000     -51.285763     -1395.5566    3-B2
  11   1.0000     -51.285760     -1395.5565    3-B1
  12   1.0000     -51.285722     -1395.5554    4-A1
  13   1.0000     -51.284299     -1395.5167    4-A2
  14   1.0000     -51.284271     -1395.5160    4-B2
  15   1.0000     -51.284249     -1395.5154    4-B1
  16   1.0000     -51.284235     -1395.5150    5-A1
  17   1.0000     -51.283887     -1395.5055    5-A2
  18   1.0000     -51.283878     -1395.5053    5-B2
  19   1.0000     -51.283850     -1395.5045    5-B1
  20   1.0000     -51.283802     -1395.5032    6-A1
  21   1.0000     -38.006195     -1034.2011    7-A1
  22   1.0000     -33.508989      -911.8259    6-B2
  23   1.0000     -33.508481      -911.8121    6-B1
  24   1.0000     -33.506197      -911.7500    8-A1
  25   1.0000      -9.816351      -267.1165    7-B1
  26   1.0000      -9.816351      -267.1165    9-A1
  27   1.0000      -9.815903      -267.1043    6-A2
  28   1.0000      -9.815903      -267.1043    7-B2
  29   1.0000      -9.808326      -266.8981    8-B1
  30   1.0000      -9.808319      -266.8979   10-A1
  31   1.0000      -9.807875      -266.8859    7-A2
  32   1.0000      -9.807873      -266.8858    8-B2
  33   1.0000      -9.806593      -266.8510    9-B1
  34   1.0000      -9.806592      -266.8509   11-A1
  35   1.0000      -9.806588      -266.8508    8-A2
  36   1.0000      -9.806587      -266.8508    9-B2
  37   1.0000      -7.340230      -199.7378    9-A2
  38   1.0000      -7.340109      -199.7345   10-B2
  39   1.0000      -7.332881      -199.5378   12-A1
  40   1.0000      -7.332775      -199.5349   10-B1
  41   1.0000      -5.403156      -147.0274   10-A2
  42   1.0000      -5.403128      -147.0266   11-B1
  43   1.0000      -5.403116      -147.0262   11-B2
  44   1.0000      -5.403104      -147.0259   13-A1
  45   1.0000      -5.398192      -146.8923   11-A2
  46   1.0000      -5.398177      -146.8919   12-B2
  47   1.0000      -5.398167      -146.8916   12-B1
  48   1.0000      -5.398156      -146.8913   14-A1
  49   1.0000      -5.396768      -146.8535   12-A2
  50   1.0000      -5.396761      -146.8533   13-B2
  51   1.0000      -5.396749      -146.8530   13-B1
  52   1.0000      -5.396723      -146.8523   15-A1
  53   1.0000      -3.988823      -108.5414   16-A1
  54   1.0000      -2.501761       -68.0764   17-A1
  55   1.0000      -2.501387       -68.0662   14-B2
  56   1.0000      -2.500718       -68.0480   14-B1
  57   1.0000      -1.742117       -47.4054   18-A1
  58   1.0000      -1.742104       -47.4051   15-B1
  59   1.0000      -1.742086       -47.4046   15-B2
  60   1.0000      -1.742075       -47.4043   13-A2
  61   1.0000      -1.739374       -47.3308   19-A1
  62   1.0000      -1.739364       -47.3305   16-B1
  63   1.0000      -1.739327       -47.3295   16-B2
  64   1.0000      -1.739320       -47.3293   14-A2
  65   1.0000      -1.738318       -47.3020   20-A1
  66   1.0000      -1.738309       -47.3018   17-B1
  67   1.0000      -1.738272       -47.3008   17-B2
  68   1.0000      -1.738263       -47.3005   15-A2
  69   1.0000      -1.733928       -47.1826   21-A1
  70   1.0000      -1.733922       -47.1824   18-B1
  71   1.0000      -1.733900       -47.1818   22-A1
  72   1.0000      -1.733899       -47.1818   19-B1
  73   1.0000      -1.733893       -47.1816   16-A2
  74   1.0000      -1.733892       -47.1816   18-B2
  75   1.0000      -1.733851       -47.1805   17-A2
  76   1.0000      -1.733850       -47.1805   19-B2
  77   1.0000      -0.601414       -16.3653   23-A1
  78   1.0000      -0.601251       -16.3609   20-B1
  79   1.0000      -0.520116       -14.1531   24-A1
  80   1.0000      -0.519501       -14.1363   21-B1
  81   1.0000      -0.497153       -13.5282   20-B2
  82   1.0000      -0.496915       -13.5217   18-A2
  83   1.0000      -0.409873       -11.1532   21-B2
  84   1.0000      -0.408615       -11.1190   19-A2
  85   1.0000      -0.379960       -10.3392   25-A1
  86   1.0000      -0.376122       -10.2348   22-B1
  87   1.0000      -0.318632        -8.6704   26-A1
  88   1.0000      -0.316331        -8.6078   23-B1
  89   1.0000      -0.284582        -7.7439   22-B2
  90   1.0000      -0.280828        -7.6417   20-A2
  91   1.0000      -0.228220        -6.2102   27-A1
  92   1.0000      -0.222294        -6.0489   24-B1
  93   1.0000      -0.198649        -5.4055   28-A1
  94   1.0000      -0.197931        -5.3860   25-B1
  95   1.0000      -0.168680        -4.5900   23-B2
  96   1.0000      -0.162844        -4.4312   21-A2
  97   1.0000      -0.137607        -3.7445   24-B2
  98   1.0000      -0.134788        -3.6678   22-A2
  99   1.0000      -0.133511        -3.6330   29-A1
 100   1.0000      -0.129554        -3.5253   26-B1
 101   1.0000      -0.129126        -3.5137   30-A1
 102   1.0000      -0.108589        -2.9548   27-B1
 103   1.0000      -0.079622        -2.1666   31-A1
 104   1.0000      -0.069847        -1.9006   25-B2
 105   1.0000      -0.060168        -1.6373   28-B1
 106   1.0000      -0.051766        -1.4086   23-A2
 107   1.0000      -0.048500        -1.3198   32-A1
 108   1.0000      -0.046354        -1.2614   29-B1
 109   1.0000      -0.029045        -0.7904   26-B2
 110   1.0000      -0.027156        -0.7389   24-A2
 111   1.0000      -0.014445        -0.3931   33-A1
 112   1.0000       0.004987         0.1357   25-A2
 113   1.0000       0.005824         0.1585   30-B1
 114   1.0000       0.011032         0.3002   27-B2
 115   1.0000       0.014720         0.4006   34-A1
 116   1.0000       0.030060         0.8180   35-A1
 117   1.0000       0.044309         1.2057   31-B1
 118   1.0000       0.046773         1.2728   28-B2
 119   1.0000       0.059720         1.6251   26-A2
 120   1.0000       0.069932         1.9030   29-B2
 121   1.0000       0.074877         2.0375   36-A1
 122   1.0000       0.100041         2.7223   32-B1
 123   0.0000       0.138937         3.7807   27-A2
 124   0.0000       0.183742         4.9999   33-B1
 125   0.0000       0.183866         5.0032   37-A1
 126   0.0000       0.199123         5.4184   28-A2
 127   0.0000       0.199680         5.4336   30-B2

MULLIKEN ATOMIC CHARGES AND SPIN POPULATIONS
--------------------------------------------
   0 Cu:    0.517755    0.293870
   1 Se:   -0.716215    0.175856
   2 C :    0.230577   -0.002756
   3 Se:   -0.716215    0.175856
   4 C :    0.230577   -0.002756
   5 Se:   -0.716215    0.175856
   6 C :    0.230577   -0.002756
   7 Se:   -0.716215    0.175856
   8 C :    0.230577   -0.002756
   9 C :   -0.103449   -0.001075
  10 C :   -0.103449   -0.001075
  11 C :   -0.155704    0.000343
  12 H :    0.095098    0.002758
  13 C :   -0.155704    0.000343
  14 H :    0.095098    0.002758
  15 H :    0.020254    0.001406
  16 H :    0.020254    0.001406
  17 C :   -0.103449   -0.001075
  18 C :   -0.103449   -0.001075
  19 C :   -0.155704    0.000343
  20 H :    0.095098    0.002758
  21 C :   -0.155704    0.000343
  22 H :    0.095098    0.002758
  23 H :    0.020254    0.001406
  24 H :    0.020254    0.001406
Sum of atomic charges         :   -2.0000000

LOEWDIN ATOMIC CHARGES AND SPIN POPULATIONS
-------------------------------------------
   0 Cu:   -0.570486    0.364277
   1 Se:   -0.208875    0.128874
   2 C :    0.033963    0.012123
   3 Se:   -0.208875    0.128874
   4 C :    0.033963    0.012123
   5 Se:   -0.208875    0.128874
   6 C :    0.033963    0.012123
   7 Se:   -0.208875    0.128874
   8 C :    0.033963    0.012123
   9 C :    0.371246    0.007139
  10 C :    0.371246    0.007139
  11 C :    0.319300    0.001109
  12 H :   -0.461670    0.009183
  13 C :    0.319300    0.001109
  14 H :   -0.461670    0.009183
  15 H :   -0.411342    0.000503
  16 H :   -0.411342    0.000503
  17 C :    0.371246    0.007139
  18 C :    0.371246    0.007139
  19 C :    0.319300    0.001109
  20 H :   -0.461670    0.009183
  21 C :    0.319300    0.001109
  22 H :   -0.461670    0.009183
  23 H :   -0.411342    0.000503
  24 H :   -0.411342    0.000503

  Mayer bond orders larger than 0.100000
B(  0-Cu,  1-Se) :   0.5645 B(  0-Cu,  3-Se) :   0.5645 B(  0-Cu,  5-Se) :   0.5645
B(  0-Cu,  7-Se) :   0.5645 B(  1-Se,  2-C ) :   1.0331 B(  2-C ,  6-C ) :   1.1343
B(  2-C , 17-C ) :   1.2584 B(  3-Se,  4-C ) :   1.0331 B(  4-C ,  8-C ) :   1.1343
B(  4-C , 10-C ) :   1.2584 B(  5-Se,  6-C ) :   1.0331 B(  6-C , 18-C ) :   1.2584
B(  7-Se,  8-C ) :   1.0331 B(  8-C ,  9-C ) :   1.2584 B(  9-C , 13-C ) :   1.3789
B(  9-C , 14-H ) :   0.9589 B( 10-C , 11-C ) :   1.3789 B( 10-C , 12-H ) :   0.9589
B( 11-C , 13-C ) :   1.3126 B( 11-C , 15-H ) :   0.9958 B( 13-C , 16-H ) :   0.9958
B( 17-C , 19-C ) :   1.3789 B( 17-C , 20-H ) :   0.9589 B( 18-C , 21-C ) :   1.3789
B( 18-C , 22-H ) :   0.9589 B( 19-C , 21-C ) :   1.3126 B( 19-C , 23-H ) :   0.9958
B( 21-C , 24-H ) :   0.9958

FINAL SINGLE POINT ENERGY    -11627.131276519358

DIPOLE MOMENT
-------------
                                X             Y             Z
Electronic contribution:      0.00000      -0.00000      -1.75834
Nuclear contribution   :     -0.00000       0.00000       1.90820
                        -----------------------------------------
Total Dipole Moment    :      0.00000      -0.00000       0.14986
                        -----------------------------------------
Magnitude (a.u.)       :      0.14986
Magnitude (Debye)      :      0.38091

Rotational constants in cm-1:     0.017374     0.004085     0.003325
Rotational constants in MHz :   520.849833   122.454575    99.666038

                             ****ORCA TERMINATED NORMALLY****
TOTAL RUN TIME: 0 days 17 hours 12 minutes 52 seconds 247 msec
