                         Program Version 5.0.4 -  RELEASE  -
|  1> ! RIJCOSX nofrozencore ReducedPop printbasis
|  2> ! M06L ano-rcc-dzp autoaux
|  3>
|  4> %maxcore 7500
|  5> %basis
|  6> PCDTrimBas overlap
|  7> PCDTrimAuxJ Coulomb
|  8> PCDTrimAuxJK Coulomb
|  9> PCDTrimAuxC Coulomb
| 10> PCDThresh -1
| 11> end
| 12>
| 13> %basis
| 14> newgto Cu "ano-rcc-tzp" end
| 15> newgto Se "ano-rcc-tzp" end
| 16> end
| 17>
| 18> %pal
| 19> nprocs 8
| 20> end
| 21>
| 22> % sym SymThresh 1e-2 end
| 23> * xyz -2 2
| 24> Cu 0.00022390140965267968 -4.513695888515831e-05 0.0002529838210205199
| 25> Se 0.03901578405757122 -1.6569160013744633 1.692847838225466
| 26> C 1.3536283065657182 -1.254564054423816 2.5109617971155402
| 27> Se -1.9735253433421465 -0.7778325101284881 -1.0543880379132142
| 28> C -2.2449896669262075 0.20689057637580985 -2.290948963226034
| 29> Se 1.9738581130853112 0.7787265196040849 1.0538031042797336
| 30> C 2.1376766713568687 -0.2891528129460158 2.273574894836549
| 31> Se -0.03603394850378177 1.657507002184555 -1.6906706049415412
| 32> C -1.3533154682945778 1.367187702420315 -2.6232754693739824
| 33> C -1.6872213720432827 2.070897531499031 -3.636838415030918
| 34> C -3.2606243431687765 0.08245396221709357 -3.1093794810315263
| 35> C -3.6757624374802704 0.8112268294601386 -4.223411502529459
| 36> H -4.006756299275827 -0.7073050264210787 -3.0124153366013386
| 37> C -2.734638066893483 1.9918729170737879 -4.530177290971076
| 38> H -1.1049375975920879 2.9306927462229804 -3.9559320287458726
| 39> H -4.526309808402646 0.7305402881900248 -4.932328772600448
| 40> H -3.054950990558728 2.5802266078972216 -5.41578534133956
| 41> C 1.6916076403161069 -2.169240382364012 3.739236098131597
| 42> C 3.3719853095460435 -0.03989367973681999 3.170206467145591
| 43> C 2.907733927275166 -1.8048081858457998 4.503835361138098
| 44> H 0.8578294390579823 -2.92742974442008 3.723271340201121
| 45> C 3.5327464650720617 -1.0059936728601084 4.285378310363542
| 46> H 3.8994176704360712 0.8511236521453523 2.768977562407229
| 47> H 2.7196851526221852 -2.693186024030594 5.217487349013577
| 48> H 4.479638093820074 -0.48346158842509734 4.641966164015258
| 49> *
| 50>
| 51> % eprnmr
| 52> gtensor true
| 53> Nuclei = all H {aiso,adip,aorb,fgrad,rho}
| 54> Nuclei = all Cu {aiso,adip,aorb,fgrad,rho}
| 55> end
| 56>
| 57>                          ****END OF INPUT****

CARTESIAN COORDINATES (ANGSTROEM)
---------------------------------
  Cu     0.000312   -0.000138    0.000000
  Se     0.633337   -2.282873    0.000000
  C      2.229651   -2.177114    0.000000
  Se    -2.335394   -0.396858    0.000000
  C     -3.039952    1.043994    0.000000
  Se     2.335520    0.397970    0.000000
  C      2.926994   -1.120320    0.000000
  Se    -0.629603    2.282673    0.000000
  C     -2.268781    2.331281    0.000000
  C     -2.957203    3.408354    0.000000
  C     -4.338673    1.217633    0.000000
  C     -5.143263    2.356558    0.000000
  H     -5.047575    0.388602    0.000000
  C     -4.313877    3.654966    0.000000
  H     -2.489458    4.388832    0.000000
  H     -6.239142    2.534195    0.000000
  H     -4.943829    4.569418    0.000000
  C      2.997530   -3.544551    0.000000
  C      4.470920   -1.197062    0.000000
  C      4.476985   -3.457367    0.000000
  H      2.161698   -4.300643    0.000000
  C      5.022618   -2.574898    0.000000
  H      4.855204   -0.155233    0.000000
  H      4.540354   -4.610563    0.000000
  H      6.090701   -2.179933    0.000000

 Total Charge           Charge          ....   -2
 Multiplicity           Mult            ....    2
 Number of Electrons    NEL             ....  247
 Basis Dimension        Dim             ....  575

ORBITAL ENERGIES
----------------
                 SPIN UP ORBITALS
  NO   OCC          E(Eh)            E(eV)    Irrep
   0   1.0000    -443.569464    -12070.1387    1-A'
   1   1.0000    -443.567818    -12070.0940    2-A'
   2   1.0000    -443.551692    -12069.6551    3-A'
   3   1.0000    -443.549803    -12069.6037    4-A'
   4   1.0000    -318.188906     -8658.3603    5-A'
   5   1.0000     -56.376730     -1534.0888    6-A'
   6   1.0000     -56.375484     -1534.0549    7-A'
   7   1.0000     -56.361406     -1533.6718    8-A'
   8   1.0000     -56.359660     -1533.6243    9-A'
   9   1.0000     -51.292564     -1395.7416   10-A'
  10   1.0000     -51.291670     -1395.7173   11-A'
  11   1.0000     -51.291240     -1395.7056   12-A'
  12   1.0000     -51.291036     -1395.7000    1-A"
  13   1.0000     -51.290475     -1395.6848   13-A'
  14   1.0000     -51.290044     -1395.6731    2-A"
  15   1.0000     -51.287998     -1395.6174   14-A'
  16   1.0000     -51.287446     -1395.6023   15-A'
  17   1.0000     -51.286583     -1395.5789   16-A'
  18   1.0000     -51.286262     -1395.5701    3-A"
  19   1.0000     -51.286206     -1395.5686   17-A'
  20   1.0000     -51.285678     -1395.5543    4-A"
  21   1.0000     -38.029226     -1034.8279   18-A'
  22   1.0000     -33.531107      -912.4278   19-A'
  23   1.0000     -33.530504      -912.4114   20-A'
  24   1.0000     -33.519570      -912.1139    5-A"
  25   1.0000      -9.824061      -267.3263   21-A'
  26   1.0000      -9.823870      -267.3211   22-A'
  27   1.0000      -9.822991      -267.2972   23-A'
  28   1.0000      -9.822051      -267.2716   24-A'
  29   1.0000      -9.813872      -267.0490   25-A'
  30   1.0000      -9.811058      -266.9724   26-A'
  31   1.0000      -9.808517      -266.9033   27-A'
  32   1.0000      -9.807995      -266.8891   28-A'
  33   1.0000      -9.806990      -266.8618   29-A'
  34   1.0000      -9.804013      -266.7808   30-A'
  35   1.0000      -9.803397      -266.7640   31-A'
  36   1.0000      -9.799021      -266.6449   32-A'
  37   1.0000      -7.346421      -199.9063   33-A'
  38   1.0000      -7.345950      -199.8935   34-A'
  39   1.0000      -7.337478      -199.6629   35-A'
  40   1.0000      -7.336436      -199.6346   36-A'
  41   1.0000      -5.409513      -147.2003   37-A'
  42   1.0000      -5.408962      -147.1853   38-A'
  43   1.0000      -5.405822      -147.0999   39-A'
  44   1.0000      -5.405582      -147.0934   40-A'
  45   1.0000      -5.404462      -147.0629    6-A"
  46   1.0000      -5.404073      -147.0523   41-A'
  47   1.0000      -5.403969      -147.0495   42-A'
  48   1.0000      -5.403539      -147.0378    7-A"
  49   1.0000      -5.400561      -146.9567   43-A'
  50   1.0000      -5.400351      -146.9510   44-A'
  51   1.0000      -5.400319      -146.9502    8-A"
  52   1.0000      -5.399837      -146.9370    9-A"
  53   1.0000      -4.023506      -109.4852   45-A'
  54   1.0000      -2.542690       -69.1901   46-A'
  55   1.0000      -2.542123       -69.1747   47-A'
  56   1.0000      -2.519007       -68.5457   10-A"
  57   1.0000      -1.749128       -47.5962   48-A'
  58   1.0000      -1.748603       -47.5819   49-A'
  59   1.0000      -1.745651       -47.5016   50-A'
  60   1.0000      -1.745509       -47.4977   11-A"
  61   1.0000      -1.745486       -47.4971   51-A'
  62   1.0000      -1.744822       -47.4790   52-A'
  63   1.0000      -1.744725       -47.4764   53-A'
  64   1.0000      -1.744724       -47.4764   12-A"
  65   1.0000      -1.742135       -47.4059   54-A'
  66   1.0000      -1.741942       -47.4007   55-A'
  67   1.0000      -1.741526       -47.3893   13-A"
  68   1.0000      -1.741098       -47.3777   14-A"
  69   1.0000      -1.741005       -47.3752   56-A'
  70   1.0000      -1.740983       -47.3745   15-A"
  71   1.0000      -1.740569       -47.3633   57-A'
  72   1.0000      -1.740477       -47.3608   16-A"
  73   1.0000      -1.737064       -47.2679   58-A'
  74   1.0000      -1.736971       -47.2654   17-A"
  75   1.0000      -1.736946       -47.2647   59-A'
  76   1.0000      -1.736931       -47.2643   18-A"
  77   1.0000      -0.612020       -16.6539   60-A'
  78   1.0000      -0.602282       -16.3889   61-A'
  79   1.0000      -0.565097       -15.3771   62-A'
  80   1.0000      -0.516964       -14.0673   63-A'
  81   1.0000      -0.500902       -13.6302   64-A'
  82   1.0000      -0.477372       -12.9899   65-A'
  83   1.0000      -0.415682       -11.3113   66-A'
  84   1.0000      -0.403088       -10.9686   67-A'
  85   1.0000      -0.389453       -10.5976   68-A'
  86   1.0000      -0.380584       -10.3562   69-A'
  87   1.0000      -0.341241        -9.2856   70-A'
  88   1.0000      -0.304864        -8.2958   71-A'
  89   1.0000      -0.297465        -8.0944   72-A'
  90   1.0000      -0.267999        -7.2926   73-A'
  91   1.0000      -0.250766        -6.8237   74-A'
  92   1.0000      -0.225522        -6.1368   75-A'
  93   1.0000      -0.213424        -5.8076   76-A'
  94   1.0000      -0.189466        -5.1556   77-A'
  95   1.0000      -0.180582        -4.9139   78-A'
  96   1.0000      -0.157698        -4.2912   79-A'
  97   1.0000      -0.143869        -3.9149   19-A"
  98   1.0000      -0.134132        -3.6499   80-A'
  99   1.0000      -0.131624        -3.5817   20-A"
 100   1.0000      -0.131516        -3.5787   81-A'
 101   1.0000      -0.123980        -3.3737   82-A'
 102   1.0000      -0.096704        -2.6315   21-A"
 103   1.0000      -0.095221        -2.5911   83-A'
 104   1.0000      -0.091907        -2.5009   84-A'
 105   1.0000      -0.085678        -2.3314   85-A'
 106   1.0000      -0.047348        -1.2884   22-A"
 107   1.0000      -0.039011        -1.0616   86-A'
 108   1.0000      -0.035567        -0.9678   87-A'
 109   1.0000      -0.031900        -0.8680   23-A"
 110   1.0000      -0.022042        -0.5998   88-A'
 111   1.0000      -0.018650        -0.5075   24-A"
 112   1.0000      -0.003536        -0.0962   89-A'
 113   1.0000      -0.002451        -0.0667   25-A"
 114   1.0000      -0.000470        -0.0128   90-A'
 115   1.0000       0.003628         0.0987   26-A"
 116   1.0000       0.016908         0.4601   91-A'
 117   1.0000       0.023547         0.6407   92-A'
 118   1.0000       0.039897         1.0856   93-A'
 119   1.0000       0.052891         1.4392   27-A"
 120   1.0000       0.066997         1.8231   28-A"
 121   1.0000       0.067527         1.8375   29-A"
 122   1.0000       0.096169         2.6169   30-A"
 123   1.0000       0.115009         3.1295   94-A'
 124   0.0000       0.156723         4.2647   31-A"
 125   0.0000       0.180138         4.9018   95-A'
 126   0.0000       0.183019         4.9802   96-A'
 127   0.0000       0.192208         5.2302   32-A"
 128   0.0000       0.195501         5.3198   97-A'

                 SPIN DOWN ORBITALS
  NO   OCC          E(Eh)            E(eV)    Irrep
   0   1.0000    -443.569011    -12070.1264    1-A'
   1   1.0000    -443.567377    -12070.0820    2-A'
   2   1.0000    -443.551247    -12069.6431    3-A'
   3   1.0000    -443.549344    -12069.5913    4-A'
   4   1.0000    -318.188786     -8658.3570    5-A'
   5   1.0000     -56.376546     -1534.0838    6-A'
   6   1.0000     -56.375305     -1534.0500    7-A'
   7   1.0000     -56.361227     -1533.6669    8-A'
   8   1.0000     -56.359478     -1533.6194    9-A'
   9   1.0000     -51.292252     -1395.7331   10-A'
  10   1.0000     -51.291300     -1395.7072   11-A'
  11   1.0000     -51.290791     -1395.6934    1-A"
  12   1.0000     -51.290539     -1395.6865   12-A'
  13   1.0000     -51.289790     -1395.6661   13-A'
  14   1.0000     -51.289788     -1395.6661    2-A"
  15   1.0000     -51.287681     -1395.6087   14-A'
  16   1.0000     -51.287067     -1395.5921   15-A'
  17   1.0000     -51.286012     -1395.5633    3-A"
  18   1.0000     -51.285864     -1395.5593   16-A'
  19   1.0000     -51.285500     -1395.5494   17-A'
  20   1.0000     -51.285417     -1395.5471    4-A"
  21   1.0000     -38.015577     -1034.4565   18-A'
  22   1.0000     -33.518152      -912.0753   19-A'
  23   1.0000     -33.517534      -912.0585   20-A'
  24   1.0000     -33.515739      -912.0096    5-A"
  25   1.0000      -9.824002      -267.3247   21-A'
  26   1.0000      -9.823685      -267.3161   22-A'
  27   1.0000      -9.822839      -267.2930   23-A'
  28   1.0000      -9.821995      -267.2701   24-A'
  29   1.0000      -9.813796      -267.0470   25-A'
  30   1.0000      -9.811043      -266.9720   26-A'
  31   1.0000      -9.808515      -266.9033   27-A'
  32   1.0000      -9.807962      -266.8882   28-A'
  33   1.0000      -9.806995      -266.8619   29-A'
  34   1.0000      -9.803939      -266.7787   30-A'
  35   1.0000      -9.803298      -266.7613   31-A'
  36   1.0000      -9.798936      -266.6426   32-A'
  37   1.0000      -7.346023      -199.8954   33-A'
  38   1.0000      -7.345562      -199.8829   34-A'
  39   1.0000      -7.337078      -199.6521   35-A'
  40   1.0000      -7.336025      -199.6234   36-A'
  41   1.0000      -5.409167      -147.1909   37-A'
  42   1.0000      -5.408558      -147.1743   38-A'
  43   1.0000      -5.405471      -147.0903   39-A'
  44   1.0000      -5.405164      -147.0820   40-A'
  45   1.0000      -5.404146      -147.0543    6-A"
  46   1.0000      -5.403278      -147.0307   41-A'
  47   1.0000      -5.403230      -147.0294    7-A"
  48   1.0000      -5.403193      -147.0284   42-A'
  49   1.0000      -5.399998      -146.9414    8-A"
  50   1.0000      -5.399765      -146.9351   43-A'
  51   1.0000      -5.399537      -146.9289   44-A'
  52   1.0000      -5.399524      -146.9285    9-A"
  53   1.0000      -3.995828      -108.7320   45-A'
  54   1.0000      -2.508825       -68.2686   10-A"
  55   1.0000      -2.508150       -68.2502   46-A'
  56   1.0000      -2.507497       -68.2325   47-A'
  57   1.0000      -1.748708       -47.5848   48-A'
  58   1.0000      -1.748141       -47.5693   49-A'
  59   1.0000      -1.745201       -47.4893   11-A"
  60   1.0000      -1.744792       -47.4782   50-A'
  61   1.0000      -1.744586       -47.4726   51-A'
  62   1.0000      -1.744392       -47.4673   12-A"
  63   1.0000      -1.744386       -47.4672   52-A'
  64   1.0000      -1.744236       -47.4631   53-A'
  65   1.0000      -1.741215       -47.3809   13-A"
  66   1.0000      -1.741214       -47.3809   54-A'
  67   1.0000      -1.741061       -47.3767   55-A'
  68   1.0000      -1.740758       -47.3684   14-A"
  69   1.0000      -1.740223       -47.3539   15-A"
  70   1.0000      -1.740201       -47.3533   56-A'
  71   1.0000      -1.739814       -47.3427   57-A'
  72   1.0000      -1.739755       -47.3411   16-A"
  73   1.0000      -1.736256       -47.2459   58-A'
  74   1.0000      -1.736197       -47.2443   17-A"
  75   1.0000      -1.736196       -47.2443   18-A"
  76   1.0000      -1.736182       -47.2439   59-A'
  77   1.0000      -0.611433       -16.6379   60-A'
  78   1.0000      -0.601235       -16.3604   61-A'
  79   1.0000      -0.563983       -15.3468   62-A'
  80   1.0000      -0.515213       -14.0196   63-A'
  81   1.0000      -0.499524       -13.5927   64-A'
  82   1.0000      -0.474811       -12.9203   65-A'
  83   1.0000      -0.413100       -11.2410   66-A'
  84   1.0000      -0.400880       -10.9085   67-A'
  85   1.0000      -0.387578       -10.5465   68-A'
  86   1.0000      -0.378151       -10.2900   69-A'
  87   1.0000      -0.338482        -9.2106   70-A'
  88   1.0000      -0.303439        -8.2570   71-A'
  89   1.0000      -0.294974        -8.0266   72-A'
  90   1.0000      -0.265495        -7.2245   73-A'
  91   1.0000      -0.250126        -6.8063   74-A'
  92   1.0000      -0.224196        -6.1007   75-A'
  93   1.0000      -0.211769        -5.7625   76-A'
  94   1.0000      -0.188019        -5.1163   77-A'
  95   1.0000      -0.179456        -4.8833   78-A'
  96   1.0000      -0.154909        -4.2153   79-A'
  97   1.0000      -0.143809        -3.9132   19-A"
  98   1.0000      -0.132686        -3.6106   80-A'
  99   1.0000      -0.131102        -3.5675   20-A"
 100   1.0000      -0.129261        -3.5174   81-A'
 101   1.0000      -0.122464        -3.3324   82-A'
 102   1.0000      -0.095984        -2.6118   21-A"
 103   1.0000      -0.093197        -2.5360   83-A'
 104   1.0000      -0.088885        -2.4187   84-A'
 105   1.0000      -0.078347        -2.1319   85-A'
 106   1.0000      -0.046026        -1.2524   22-A"
 107   1.0000      -0.035587        -0.9684   86-A'
 108   1.0000      -0.030229        -0.8226   23-A"
 109   1.0000      -0.017569        -0.4781   87-A'
 110   1.0000      -0.013938        -0.3793   24-A"
 111   1.0000      -0.006172        -0.1680   88-A'
 112   1.0000       0.000472         0.0128   89-A'
 113   1.0000       0.008201         0.2231   25-A"
 114   1.0000       0.009419         0.2563   90-A'
 115   1.0000       0.011174         0.3041   26-A"
 116   1.0000       0.028729         0.7818   91-A'
 117   1.0000       0.031520         0.8577   92-A'
 118   1.0000       0.050460         1.3731   93-A'
 119   1.0000       0.055712         1.5160   27-A"
 120   1.0000       0.068499         1.8640   28-A"
 121   1.0000       0.069344         1.8869   29-A"
 122   1.0000       0.099223         2.7000   30-A"
 123   0.0000       0.143736         3.9113   94-A'
 124   0.0000       0.156707         4.2642   31-A"
 125   0.0000       0.182132         4.9561   95-A'
 126   0.0000       0.184459         5.0194   96-A'
 127   0.0000       0.192788         5.2460   32-A"

MULLIKEN ATOMIC CHARGES AND SPIN POPULATIONS
--------------------------------------------
   0 Cu:    0.617046    0.304390
   1 Se:   -0.659983    0.176886
   2 C :    0.243921   -0.004120
   3 Se:   -0.694466    0.161233
   4 C :    0.153453   -0.001131
   5 Se:   -0.696815    0.183647
   6 C :    0.270166   -0.002978
   7 Se:   -0.749042    0.165353
   8 C :    0.180096    0.000585
   9 C :   -0.025865   -0.002563
  10 C :   -0.039919   -0.002099
  11 C :   -0.159778   -0.000489
  12 H :    0.083197    0.003004
  13 C :   -0.166765   -0.000853
  14 H :    0.084987    0.003595
  15 H :    0.010090    0.001457
  16 H :    0.006348    0.001256
  17 C :   -0.246075   -0.003221
  18 C :   -0.247793   -0.005098
  19 C :   -0.039995    0.001193
  20 H :    0.093286    0.003400
  21 C :   -0.029569    0.001046
  22 H :    0.096178    0.003252
  23 H :   -0.044977    0.006246
  24 H :   -0.037724    0.006009
Sum of atomic charges         :   -2.0000000

LOEWDIN ATOMIC CHARGES AND SPIN POPULATIONS
-------------------------------------------
   0 Cu:   -0.599402    0.384325
   1 Se:   -0.186062    0.121896
   2 C :    0.033432    0.011480
   3 Se:   -0.187253    0.117676
   4 C :    0.022380    0.014181
   5 Se:   -0.199914    0.126049
   6 C :    0.050063    0.011531
   7 Se:   -0.193102    0.121197
   8 C :    0.034215    0.014103
   9 C :    0.309740    0.006382
  10 C :    0.327484    0.006530
  11 C :    0.357908    0.000510
  12 H :   -0.458709    0.007205
  13 C :    0.354787    0.000315
  14 H :   -0.456751    0.008036
  15 H :   -0.406497    0.000398
  16 H :   -0.405818    0.000251
  17 C :    0.464007    0.006559
  18 C :    0.466206    0.006138
  19 C :    0.179703    0.002392
  20 H :   -0.472421    0.012851
  21 C :    0.180937    0.002275
  22 H :   -0.468251    0.011908
  23 H :   -0.368597    0.002959
  24 H :   -0.378083    0.002853

  Mayer bond orders larger than 0.100000
B(  0-Cu,  1-Se) :   0.5437 B(  0-Cu,  3-Se) :   0.5494 B(  0-Cu,  5-Se) :   0.5564
B(  0-Cu,  7-Se) :   0.5536 B(  1-Se,  2-C ) :   1.0898 B(  1-Se, 17-C ) :   0.1252
B(  2-C ,  6-C ) :   1.1208 B(  2-C , 17-C ) :   1.2373 B(  3-Se,  4-C ) :   1.1113
B(  4-C ,  8-C ) :   1.0950 B(  4-C , 10-C ) :   1.2755 B(  5-Se,  6-C ) :   1.0417
B(  5-Se, 18-C ) :   0.1143 B(  6-C , 18-C ) :   1.2578 B(  7-Se,  8-C ) :   1.0582
B(  8-C ,  9-C ) :   1.2937 B(  9-C , 13-C ) :   1.3357 B(  9-C , 14-H ) :   0.9567
B( 10-C , 11-C ) :   1.3483 B( 10-C , 12-H ) :   0.9603 B( 11-C , 13-C ) :   1.2816
B( 11-C , 15-H ) :   0.9948 B( 13-C , 16-H ) :   0.9969 B( 17-C , 18-C ) :   0.1483
B( 17-C , 19-C ) :   1.1776 B( 17-C , 20-H ) :   0.9373 B( 18-C , 21-C ) :   1.1738
B( 18-C , 22-H ) :   0.9462 B( 19-C , 21-C ) :   1.6102 B( 19-C , 23-H ) :   0.9460
B( 21-C , 24-H ) :   0.9514

FINAL SINGLE POINT ENERGY    -11626.765735922108

DIPOLE MOMENT
-------------
                                X             Y             Z
Electronic contribution:      1.15459      -0.72088      -0.00000
Nuclear contribution   :     -1.04709       0.58678       0.00000
                        -----------------------------------------
Total Dipole Moment    :      0.10750      -0.13410      -0.00000
                        -----------------------------------------
Magnitude (a.u.)       :      0.17187
Magnitude (Debye)      :      0.43686

Rotational constants in cm-1:     0.017605     0.004097     0.003323
Rotational constants in MHz :   527.787979   122.819081    99.633770

                             ****ORCA TERMINATED NORMALLY****
TOTAL RUN TIME: 0 days 17 hours 15 minutes 6 seconds 367 msec
