                         Program Version 5.0.4 -  RELEASE  -
|  1> ! RIJCOSX nofrozencore ReducedPop printbasis
|  2> ! M06L ano-rcc-dzp autoaux
|  3>
|  4> %maxcore 7500
|  5> %basis
|  6> PCDTrimBas overlap
|  7> PCDTrimAuxJ Coulomb
|  8> PCDTrimAuxJK Coulomb
|  9> PCDTrimAuxC Coulomb
| 10> PCDThresh -1
| 11> end
| 12>
| 13> %basis
| 14> newgto Cu "ano-rcc-tzp" end
| 15> newgto Se "ano-rcc-tzp" end
| 16> end
| 17>
| 18> %pal
| 19> nprocs 8
| 20> end
| 21>
| 22> % sym SymThresh 1e-2 end
| 23> * xyz -2 2
| 24> Cu -1.374930346775234e-06 -4.8651974776780224e-06 1.69540384582763e-05
| 25> Se -2.326471412594916 0.4330921061802925 -0.08889242095327908
| 26> C -2.596517375680532 0.9418537414505682 -1.621787762023333
| 27> Se 0.02567756478559496 -0.6868867604370336 2.2661543574575846
| 28> C 1.5927966458081382 -1.052814584102344 2.5724246581637242
| 29> Se -0.025764432432794648 0.6869034954161772 -2.2661595490221895
| 30> C -1.5915952884262021 1.0523457359756265 -2.5715644652348173
| 31> Se 2.3264845580167357 -0.43312129408088584 0.08898172528880727
| 32> C 2.5953198176321526 -0.9413726903976484 1.6208848414259123
| 33> C 3.8796404964500186 -1.2880497881029294 2.0272479596840287
| 34> C 1.970479089858276 -1.498867966178669 3.8346467722072815
| 35> C 3.245120193687251 -1.8382152544932318 4.222282802402108
| 36> H 1.1983434682072345 -1.5806909102593436 4.554202974160631
| 37> C 4.26091531467088 -1.7319361844472212 3.2801902833929564
| 38> H 4.67562160472578 -1.1971526955487228 1.2637276252689702
| 39> H 3.452053612469176 -2.2077104707458943 5.32930033626624
| 40> H 5.177635759740082 -1.9487709051775244 3.468572657947837
| 41> C -3.88636275462545 1.2876244655737823 -2.021936653745839
| 42> C -1.976135862725216 1.4979081372258647 -3.8281784269696484
| 43> C -4.218339464477228 1.721623206635161 -3.2706362084018523
| 44> H -4.590637161122685 1.2062353519584528 -1.3431802816815483
| 45> C -3.2536210056902735 1.8520666394927987 -4.263350734549747
| 46> H -1.1149098127502237 1.590100957534296 -4.633843397309708
| 47> H -5.690641063774123 2.070100204412064 -3.5739485873681582
| 48> H -3.36013844151592 2.043355750473682 -4.836813439536107
| 49> *
| 50>
| 51> % eprnmr
| 52> gtensor true
| 53> Nuclei = all H {aiso,adip,aorb,fgrad,rho}
| 54> Nuclei = all Cu {aiso,adip,aorb,fgrad,rho}
| 55> end
| 56>
| 57>                          ****END OF INPUT****

CARTESIAN COORDINATES (ANGSTROEM)
---------------------------------
  Cu     0.000018   -0.000001    0.000000
  Se    -0.151404   -2.363264    0.000000
  C     -1.758600   -2.677034    0.000000
  Se     2.366588    0.084779    0.000000
  C      2.725816    1.683067    0.000000
  Se    -2.366596   -0.084868    0.000000
  C     -2.724888   -1.681825    0.000000
  Se     0.151498    2.363280    0.000000
  C      1.757628    2.675795    0.000000
  C      2.214233    3.989685    0.000000
  C      4.053132    2.099055    0.000000
  C      4.489942    3.402637    0.000000
  H      4.784925    1.334118    0.000000
  C      3.531950    4.409079    0.000000
  H      1.437140    4.777682    0.000000
  H      5.650917    3.641323    0.000000
  H      3.751718    5.344271    0.000000
  C     -2.208857   -3.996370    0.000000
  C     -4.046521   -2.104628    0.000000
  C     -3.520903   -4.365624    0.000000
  H     -1.517951   -4.693497    0.000000
  C     -4.533032   -3.412328    0.000000
  H     -4.865971   -1.251511    0.000000
  H     -3.874655   -5.867612    0.000000
  H     -5.134429   -3.535284    0.000000

 Total Charge           Charge          ....   -2
 Multiplicity           Mult            ....    2
 Number of Electrons    NEL             ....  247
 Basis Dimension        Dim             ....  575

ORBITAL ENERGIES
----------------
                 SPIN UP ORBITALS
  NO   OCC          E(Eh)            E(eV)    Irrep
   0   1.0000    -443.564811    -12070.0121    1-A'
   1   1.0000    -443.563331    -12069.9719    2-A'
   2   1.0000    -443.549984    -12069.6087    3-A'
   3   1.0000    -443.549241    -12069.5884    4-A'
   4   1.0000    -318.189818     -8658.3851    5-A'
   5   1.0000     -56.373437     -1533.9992    6-A'
   6   1.0000     -56.372417     -1533.9714    7-A'
   7   1.0000     -56.360105     -1533.6364    8-A'
   8   1.0000     -56.359332     -1533.6154    9-A'
   9   1.0000     -51.290838     -1395.6947   10-A'
  10   1.0000     -51.289434     -1395.6565   11-A'
  11   1.0000     -51.289068     -1395.6465    1-A"
  12   1.0000     -51.288810     -1395.6395   12-A'
  13   1.0000     -51.288209     -1395.6231   13-A'
  14   1.0000     -51.287871     -1395.6139   14-A'
  15   1.0000     -51.287469     -1395.6030   15-A'
  16   1.0000     -51.287028     -1395.5910    2-A"
  17   1.0000     -51.286892     -1395.5873   16-A'
  18   1.0000     -51.286528     -1395.5774   17-A'
  19   1.0000     -51.286416     -1395.5743    3-A"
  20   1.0000     -51.286034     -1395.5639    4-A"
  21   1.0000     -38.030365     -1034.8588   18-A'
  22   1.0000     -33.532451      -912.4644   19-A'
  23   1.0000     -33.531645      -912.4425   20-A'
  24   1.0000     -33.520405      -912.1366    5-A"
  25   1.0000      -9.854541      -268.1557   21-A'
  26   1.0000      -9.826799      -267.4008   22-A'
  27   1.0000      -9.823551      -267.3124   23-A'
  28   1.0000      -9.814786      -267.0739   24-A'
  29   1.0000      -9.811483      -266.9840   25-A'
  30   1.0000      -9.811072      -266.9728   26-A'
  31   1.0000      -9.810806      -266.9656   27-A'
  32   1.0000      -9.809862      -266.9399   28-A'
  33   1.0000      -9.806041      -266.8359   29-A'
  34   1.0000      -9.805681      -266.8262   30-A'
  35   1.0000      -9.801065      -266.7005   31-A'
  36   1.0000      -9.800997      -266.6987   32-A'
  37   1.0000      -7.344554      -199.8555   33-A'
  38   1.0000      -7.343489      -199.8265   34-A'
  39   1.0000      -7.336663      -199.6408   35-A'
  40   1.0000      -7.336076      -199.6248   36-A'
  41   1.0000      -5.408565      -147.1745   37-A'
  42   1.0000      -5.406586      -147.1207   38-A'
  43   1.0000      -5.406000      -147.1047   39-A'
  44   1.0000      -5.405775      -147.0986   40-A'
  45   1.0000      -5.403105      -147.0260   41-A'
  46   1.0000      -5.402955      -147.0219    6-A"
  47   1.0000      -5.401285      -146.9764   42-A'
  48   1.0000      -5.400904      -146.9661    7-A"
  49   1.0000      -5.400761      -146.9622   43-A'
  50   1.0000      -5.400425      -146.9530   44-A'
  51   1.0000      -5.400270      -146.9488    8-A"
  52   1.0000      -5.399872      -146.9380    9-A"
  53   1.0000      -4.024655      -109.5164   45-A'
  54   1.0000      -2.544271       -69.2331   46-A'
  55   1.0000      -2.543292       -69.2065   47-A'
  56   1.0000      -2.519651       -68.5632   10-A"
  57   1.0000      -1.747585       -47.5542   48-A'
  58   1.0000      -1.745610       -47.5005   49-A'
  59   1.0000      -1.745059       -47.4855   50-A'
  60   1.0000      -1.744808       -47.4786   51-A'
  61   1.0000      -1.744728       -47.4765   52-A'
  62   1.0000      -1.744192       -47.4619   11-A"
  63   1.0000      -1.742862       -47.4257   53-A'
  64   1.0000      -1.742321       -47.4110   54-A'
  65   1.0000      -1.742153       -47.4064   12-A"
  66   1.0000      -1.742064       -47.4040   55-A'
  67   1.0000      -1.741531       -47.3895   13-A"
  68   1.0000      -1.741232       -47.3813   14-A"
  69   1.0000      -1.739708       -47.3399   56-A'
  70   1.0000      -1.739701       -47.3397   15-A"
  71   1.0000      -1.737782       -47.2874   57-A'
  72   1.0000      -1.737766       -47.2870   16-A"
  73   1.0000      -1.737200       -47.2716   58-A'
  74   1.0000      -1.737197       -47.2715   17-A"
  75   1.0000      -1.736808       -47.2609   59-A'
  76   1.0000      -1.736796       -47.2606   18-A"
  77   1.0000      -0.609370       -16.5818   60-A'
  78   1.0000      -0.604740       -16.4558   61-A'
  79   1.0000      -0.539989       -14.6939   62-A'
  80   1.0000      -0.524371       -14.2689   63-A'
  81   1.0000      -0.505570       -13.7573   64-A'
  82   1.0000      -0.501427       -13.6445   65-A'
  83   1.0000      -0.438351       -11.9281   66-A'
  84   1.0000      -0.416448       -11.3321   67-A'
  85   1.0000      -0.387137       -10.5345   68-A'
  86   1.0000      -0.382740       -10.4149   69-A'
  87   1.0000      -0.326712        -8.8903   70-A'
  88   1.0000      -0.322152        -8.7662   71-A'
  89   1.0000      -0.317587        -8.6420   72-A'
  90   1.0000      -0.291655        -7.9363   73-A'
  91   1.0000      -0.235277        -6.4022   74-A'
  92   1.0000      -0.228833        -6.2269   75-A'
  93   1.0000      -0.204913        -5.5760   76-A'
  94   1.0000      -0.201912        -5.4943   77-A'
  95   1.0000      -0.170210        -4.6317   78-A'
  96   1.0000      -0.159427        -4.3382   79-A'
  97   1.0000      -0.158522        -4.3136   80-A'
  98   1.0000      -0.141465        -3.8495   81-A'
  99   1.0000      -0.134613        -3.6630   19-A"
 100   1.0000      -0.132421        -3.6034   20-A"
 101   1.0000      -0.128479        -3.4961   82-A'
 102   1.0000      -0.103458        -2.8152   83-A'
 103   1.0000      -0.084600        -2.3021   84-A'
 104   1.0000      -0.071106        -1.9349   85-A'
 105   1.0000      -0.068654        -1.8682   86-A'
 106   1.0000      -0.060749        -1.6531   87-A'
 107   1.0000      -0.052300        -1.4232   21-A"
 108   1.0000      -0.050110        -1.3636   22-A"
 109   1.0000      -0.036376        -0.9898   23-A"
 110   1.0000      -0.032771        -0.8917   88-A'
 111   1.0000      -0.031955        -0.8695   89-A'
 112   1.0000      -0.029962        -0.8153   24-A"
 113   1.0000      -0.004733        -0.1288   25-A"
 114   1.0000      -0.003790        -0.1031   26-A"
 115   1.0000      -0.002128        -0.0579   90-A'
 116   1.0000       0.016564         0.4507   91-A'
 117   1.0000       0.018389         0.5004   92-A'
 118   1.0000       0.038240         1.0406   93-A'
 119   1.0000       0.051749         1.4082   27-A"
 120   1.0000       0.053555         1.4573   28-A"
 121   1.0000       0.067835         1.8459   29-A"
 122   1.0000       0.096714         2.6317   30-A"
 123   1.0000       0.113197         3.0802   94-A'
 124   0.0000       0.167797         4.5660   95-A'
 125   0.0000       0.180494         4.9115   96-A'
 126   0.0000       0.195967         5.3325   97-A'
 127   0.0000       0.198392         5.3985   31-A"
 128   0.0000       0.199237         5.4215   98-A'

                 SPIN DOWN ORBITALS
  NO   OCC          E(Eh)            E(eV)    Irrep
   0   1.0000    -443.564367    -12070.0001    1-A'
   1   1.0000    -443.562878    -12069.9595    2-A'
   2   1.0000    -443.549539    -12069.5966    3-A'
   3   1.0000    -443.548785    -12069.5761    4-A'
   4   1.0000    -318.189695     -8658.3818    5-A'
   5   1.0000     -56.373257     -1533.9943    6-A'
   6   1.0000     -56.372232     -1533.9664    7-A'
   7   1.0000     -56.359926     -1533.6316    8-A'
   8   1.0000     -56.359150     -1533.6104    9-A'
   9   1.0000     -51.290524     -1395.6861   10-A'
  10   1.0000     -51.288826     -1395.6399    1-A"
  11   1.0000     -51.288729     -1395.6373   11-A'
  12   1.0000     -51.288487     -1395.6307   12-A'
  13   1.0000     -51.287876     -1395.6140   13-A'
  14   1.0000     -51.287548     -1395.6051   14-A'
  15   1.0000     -51.286780     -1395.5842    2-A"
  16   1.0000     -51.286744     -1395.5832   15-A'
  17   1.0000     -51.286161     -1395.5674    3-A"
  18   1.0000     -51.286145     -1395.5670   16-A'
  19   1.0000     -51.285796     -1395.5575   17-A'
  20   1.0000     -51.285786     -1395.5572    4-A"
  21   1.0000     -38.016485     -1034.4811   18-A'
  22   1.0000     -33.519262      -912.1055   19-A'
  23   1.0000     -33.518457      -912.0836   20-A'
  24   1.0000     -33.516529      -912.0311    5-A"
  25   1.0000      -9.854453      -268.1533   21-A'
  26   1.0000      -9.826750      -267.3995   22-A'
  27   1.0000      -9.823426      -267.3090   23-A'
  28   1.0000      -9.814819      -267.0748   24-A'
  29   1.0000      -9.811360      -266.9807   25-A'
  30   1.0000      -9.811088      -266.9733   26-A'
  31   1.0000      -9.810826      -266.9662   27-A'
  32   1.0000      -9.809879      -266.9404   28-A'
  33   1.0000      -9.805925      -266.8328   29-A'
  34   1.0000      -9.805629      -266.8247   30-A'
  35   1.0000      -9.800967      -266.6979   31-A'
  36   1.0000      -9.800951      -266.6974   32-A'
  37   1.0000      -7.344165      -199.8449   33-A'
  38   1.0000      -7.343089      -199.8156   34-A'
  39   1.0000      -7.336263      -199.6299   35-A'
  40   1.0000      -7.335667      -199.6137   36-A'
  41   1.0000      -5.408215      -147.1650   37-A'
  42   1.0000      -5.406225      -147.1109   38-A'
  43   1.0000      -5.405629      -147.0946   39-A'
  44   1.0000      -5.405414      -147.0888   40-A'
  45   1.0000      -5.402650      -147.0136    6-A"
  46   1.0000      -5.402312      -147.0044   41-A'
  47   1.0000      -5.400596      -146.9577    7-A"
  48   1.0000      -5.400470      -146.9543   42-A'
  49   1.0000      -5.399953      -146.9402    8-A"
  50   1.0000      -5.399919      -146.9393   43-A'
  51   1.0000      -5.399602      -146.9306   44-A'
  52   1.0000      -5.399563      -146.9296    9-A"
  53   1.0000      -3.996406      -108.7477   45-A'
  54   1.0000      -2.509334       -68.2825   10-A"
  55   1.0000      -2.509012       -68.2737   46-A'
  56   1.0000      -2.507956       -68.2449   47-A'
  57   1.0000      -1.747161       -47.5427   48-A'
  58   1.0000      -1.745166       -47.4884   49-A'
  59   1.0000      -1.744599       -47.4730   50-A'
  60   1.0000      -1.744356       -47.4663   51-A'
  61   1.0000      -1.743891       -47.4537   11-A"
  62   1.0000      -1.743868       -47.4531   52-A'
  63   1.0000      -1.741975       -47.4016   53-A'
  64   1.0000      -1.741848       -47.3981   12-A"
  65   1.0000      -1.741406       -47.3861   54-A'
  66   1.0000      -1.741218       -47.3809   13-A"
  67   1.0000      -1.741170       -47.3796   55-A'
  68   1.0000      -1.740926       -47.3730   14-A"
  69   1.0000      -1.738959       -47.3195   15-A"
  70   1.0000      -1.738930       -47.3187   56-A'
  71   1.0000      -1.737008       -47.2664   16-A"
  72   1.0000      -1.736991       -47.2659   57-A'
  73   1.0000      -1.736415       -47.2503   17-A"
  74   1.0000      -1.736386       -47.2495   58-A'
  75   1.0000      -1.736032       -47.2398   18-A"
  76   1.0000      -1.736015       -47.2394   59-A'
  77   1.0000      -0.608657       -16.5624   60-A'
  78   1.0000      -0.603934       -16.4339   61-A'
  79   1.0000      -0.539087       -14.6693   62-A'
  80   1.0000      -0.523252       -14.2384   63-A'
  81   1.0000      -0.503996       -13.7144   64-A'
  82   1.0000      -0.499730       -13.5983   65-A'
  83   1.0000      -0.436081       -11.8664   66-A'
  84   1.0000      -0.413800       -11.2601   67-A'
  85   1.0000      -0.384358       -10.4589   68-A'
  86   1.0000      -0.380237       -10.3468   69-A'
  87   1.0000      -0.325731        -8.8636   70-A'
  88   1.0000      -0.320285        -8.7154   71-A'
  89   1.0000      -0.314920        -8.5694   72-A'
  90   1.0000      -0.289205        -7.8697   73-A'
  91   1.0000      -0.233184        -6.3453   74-A'
  92   1.0000      -0.227217        -6.1829   75-A'
  93   1.0000      -0.203660        -5.5419   76-A'
  94   1.0000      -0.200649        -5.4599   77-A'
  95   1.0000      -0.168523        -4.5858   78-A'
  96   1.0000      -0.157991        -4.2991   79-A'
  97   1.0000      -0.157324        -4.2810   80-A'
  98   1.0000      -0.140116        -3.8128   81-A'
  99   1.0000      -0.134210        -3.6520   19-A"
 100   1.0000      -0.132029        -3.5927   20-A"
 101   1.0000      -0.126625        -3.4456   82-A'
 102   1.0000      -0.100881        -2.7451   83-A'
 103   1.0000      -0.082809        -2.2533   84-A'
 104   1.0000      -0.068891        -1.8746   85-A'
 105   1.0000      -0.062764        -1.7079   86-A'
 106   1.0000      -0.054746        -1.4897   87-A'
 107   1.0000      -0.051339        -1.3970   21-A"
 108   1.0000      -0.049309        -1.3418   22-A"
 109   1.0000      -0.034044        -0.9264   23-A"
 110   1.0000      -0.028938        -0.7874   24-A"
 111   1.0000      -0.025717        -0.6998   88-A'
 112   1.0000      -0.004838        -0.1316   89-A'
 113   1.0000       0.004905         0.1335   25-A"
 114   1.0000       0.007395         0.2012   26-A"
 115   1.0000       0.008209         0.2234   90-A'
 116   1.0000       0.026489         0.7208   91-A'
 117   1.0000       0.029430         0.8008   92-A'
 118   1.0000       0.049460         1.3459   93-A'
 119   1.0000       0.053828         1.4647   27-A"
 120   1.0000       0.056973         1.5503   28-A"
 121   1.0000       0.069561         1.8929   29-A"
 122   1.0000       0.099961         2.7201   30-A"
 123   0.0000       0.142705         3.8832   94-A'
 124   0.0000       0.169676         4.6171   95-A'
 125   0.0000       0.182673         4.9708   96-A'
 126   0.0000       0.198524         5.4021   31-A"
 127   0.0000       0.198577         5.4036   97-A'

MULLIKEN ATOMIC CHARGES AND SPIN POPULATIONS
--------------------------------------------
   0 Cu:    0.639033    0.309577
   1 Se:   -0.726515    0.164865
   2 C :    0.211120   -0.002756
   3 Se:   -0.733268    0.172331
   4 C :    0.219447   -0.003149
   5 Se:   -0.724180    0.173027
   6 C :    0.215560   -0.003085
   7 Se:   -0.727711    0.177446
   8 C :    0.221609   -0.003277
   9 C :   -0.109292   -0.001325
  10 C :   -0.103961   -0.001680
  11 C :   -0.139823   -0.001131
  12 H :    0.120305    0.002939
  13 C :   -0.248731   -0.000201
  14 H :    0.056673    0.002521
  15 H :   -0.068872    0.002432
  16 H :    0.202972    0.000877
  17 C :   -0.152877   -0.002639
  18 C :   -0.106879   -0.000896
  19 C :   -0.172207    0.000570
  20 H :    0.229178    0.004134
  21 C :   -1.357877    0.000238
  22 H :   -0.008175    0.002006
  23 H :   -0.186708    0.007492
  24 H :    1.451179   -0.000314
Sum of atomic charges         :   -2.0000000

LOEWDIN ATOMIC CHARGES AND SPIN POPULATIONS
-------------------------------------------
   0 Cu:   -0.613371    0.389488
   1 Se:   -0.182024    0.118788
   2 C :    0.053615    0.011463
   3 Se:   -0.197344    0.122232
   4 C :    0.041497    0.011631
   5 Se:   -0.214561    0.122290
   6 C :    0.031278    0.011983
   7 Se:   -0.204099    0.125979
   8 C :    0.035696    0.012047
   9 C :    0.381270    0.007048
  10 C :    0.368464    0.006795
  11 C :    0.297939    0.000420
  12 H :   -0.485962    0.009314
  13 C :    0.381346    0.000519
  14 H :   -0.427631    0.009573
  15 H :   -0.321949    0.000813
  16 H :   -0.552607    0.000088
  17 C :    0.386170    0.006457
  18 C :    0.434092    0.006671
  19 C :    0.315505    0.002080
  20 H :   -0.585328    0.008943
  21 C :    0.677102    0.000387
  22 H :   -0.345706    0.009472
  23 H :   -0.159605    0.005824
  24 H :   -1.113785   -0.000304

  Mayer bond orders larger than 0.100000
B(  0-Cu,  1-Se) :   0.5403 B(  0-Cu,  3-Se) :   0.5506 B(  0-Cu,  5-Se) :   0.5540
B(  0-Cu,  7-Se) :   0.5538 B(  1-Se,  2-C ) :   1.0561 B(  2-C ,  6-C ) :   1.1335
B(  2-C , 17-C ) :   1.2573 B(  3-Se,  4-C ) :   1.0409 B(  4-C ,  8-C ) :   1.1343
B(  4-C , 10-C ) :   1.2571 B(  5-Se,  6-C ) :   1.0372 B(  6-C , 18-C ) :   1.2633
B(  7-Se,  8-C ) :   1.0394 B(  8-C ,  9-C ) :   1.2561 B(  9-C , 13-C ) :   1.3954
B(  9-C , 14-H ) :   0.9784 B( 10-C , 11-C ) :   1.3821 B( 10-C , 12-H ) :   0.9443
B( 11-C , 13-C ) :   1.3305 B( 11-C , 15-H ) :   1.0201 B( 13-C , 16-H ) :   0.8802
B( 17-C , 19-C ) :   1.4246 B( 17-C , 20-H ) :   0.8688 B( 18-C , 21-C ) :   1.4735
B( 18-C , 22-H ) :   0.9989 B( 19-C , 21-C ) :   1.4577 B( 19-C , 23-H ) :   0.9455
B( 21-C , 24-H ) :  -1.5346

FINAL SINGLE POINT ENERGY    -11626.643336929012

DIPOLE MOMENT
-------------
                                X             Y             Z
Electronic contribution:     -0.03586       0.71184       0.00000
Nuclear contribution   :      0.21640      -0.23427       0.00000
                        -----------------------------------------
Total Dipole Moment    :      0.18054       0.47758       0.00000
                        -----------------------------------------
Magnitude (a.u.)       :      0.51056
Magnitude (Debye)      :      1.29774

Rotational constants in cm-1:     0.017613     0.004098     0.003324
Rotational constants in MHz :   528.024491   122.845412    99.659526

                             ****ORCA TERMINATED NORMALLY****
TOTAL RUN TIME: 0 days 17 hours 2 minutes 26 seconds 418 msec
