                         Program Version 5.0.4 -  RELEASE  -
|  1> ! RIJCOSX nofrozencore ReducedPop printbasis
|  2> ! M06L ano-rcc-dzp autoaux
|  3>
|  4> %maxcore 7500
|  5> %basis
|  6> PCDTrimBas overlap
|  7> PCDTrimAuxJ Coulomb
|  8> PCDTrimAuxJK Coulomb
|  9> PCDTrimAuxC Coulomb
| 10> PCDThresh -1
| 11> end
| 12>
| 13> %basis
| 14> newgto Cu "ano-rcc-tzp" end
| 15> newgto Se "ano-rcc-tzp" end
| 16> end
| 17>
| 18> %pal
| 19> nprocs 8
| 20> end
| 21>
| 22> % sym SymThresh 1e-2 end
| 23> * xyz -2 2
| 24> Cu -3.291278018732115e-06 4.218857107165822e-06 -2.714541160624985e-06
| 25> Se -0.09930388169021209 1.0581163925624542 -2.116247687592564
| 26> C -1.3379407244756336 2.1209903837243695 -1.9907680262680951
| 27> Se 1.8271091476354353 -1.4112200847464373 -0.5273959667699138
| 28> C 2.0910224553745125 -2.274160541457232 0.8369051188984898
| 29> Se -1.827092225144986 1.4112083518828047 0.5273881584904634
| 30> C -2.0920993730770636 2.2755556117046476 -0.8378253342356294
| 31> Se 0.09924695896507382 -1.058058658569672 2.116234027818032
| 32> C 1.3382766941055164 -2.1217836599987523 1.9918376402920768
| 33> C 1.6637542539505563 -2.9218836609948586 3.0971048322453836
| 34> C 3.129802190071328 -3.221289630548269 0.853520377722709
| 35> C 3.4628443707880097 -4.025938028659888 1.9537751911240788
| 36> H 3.5066161646765512 -3.2944067287516337 0.26846970167615136
| 37> C 2.6958182222381613 -3.8679021502102287 3.1245679341479797
| 38> H 1.2655351298045439 -2.836397187531734 3.697433569092306
| 39> H 4.115099873637364 -4.589741895141269 1.896667142616171
| 40> H 2.8469021204738576 -4.340585725423101 3.858982447710234
| 41> C -1.668154860741922 2.922840298455639 -3.0904968878118693
| 42> C -3.1209389881373166 3.2196278835400496 -0.8674085203759803
| 43> C -2.6953353479349724 3.865210568394189 -3.1196399089111444
| 44> H -1.2142479566945767 2.825750076985779 -3.7755436329855745
| 45> C -3.455441452029912 4.01946219019993 -1.9542554567813284
| 46> H -3.608322900398338 3.315141832070629 -0.11274261682843079
| 47> H -2.8566617327363666 4.372495202284676 -3.9094296029908455
| 48> H -4.189853170673407 4.654305454048517 -1.8900073383794629
| 49> *
| 50>
| 51> % eprnmr
| 52> gtensor true
| 53> Nuclei = all H {aiso,adip,aorb,fgrad,rho}
| 54> Nuclei = all Cu {aiso,adip,aorb,fgrad,rho}
| 55> end
| 56>
| 57>                          ****END OF INPUT****

CARTESIAN COORDINATES (ANGSTROEM)
---------------------------------
  Cu    -0.000004   -0.000005    0.000000
  Se    -2.322892   -0.460596    0.000000
  C     -2.421688   -2.094581    0.000000
  Se    -0.226939    2.357226    0.000000
  C      1.308572    2.920998    0.000000
  Se     0.226934   -2.357205    0.000000
  C     -1.309779   -2.922578    0.000000
  Se     2.322866    0.460518    0.000000
  C      2.422917    2.095195    0.000000
  C      3.688111    2.700996    0.000000
  C      1.524087    4.310223    0.000000
  C      2.785262    4.925345    0.000000
  H      0.958741    4.722538    0.000000
  C      3.914160    4.082937    0.000000
  H      4.266022    2.262476    0.000000
  H      2.847052    5.787177    0.000000
  H      4.742452    4.398457    0.000000
  C     -3.681753   -2.705846    0.000000
  C     -1.537523   -4.300545    0.000000
  C     -3.908703   -4.081529    0.000000
  H     -4.341315   -2.206121    0.000000
  C     -2.784378   -4.915537    0.000000
  H     -0.808527   -4.834165    0.000000
  H     -4.799230   -4.419305    0.000000
  H     -2.854008   -5.885932    0.000000

 Total Charge           Charge          ....   -2
 Multiplicity           Mult            ....    2
 Number of Electrons    NEL             ....  247
 Basis Dimension        Dim             ....  575

ORBITAL ENERGIES
----------------
                 SPIN UP ORBITALS
  NO   OCC          E(Eh)            E(eV)    Irrep
   0   1.0000    -443.558376    -12069.8370    1-A'
   1   1.0000    -443.557277    -12069.8071    2-A'
   2   1.0000    -443.543599    -12069.4349    3-A'
   3   1.0000    -443.543435    -12069.4305    4-A'
   4   1.0000    -318.183120     -8658.2029    5-A'
   5   1.0000     -56.366457     -1533.8093    6-A'
   6   1.0000     -56.366025     -1533.7975    7-A'
   7   1.0000     -56.353377     -1533.4533    8-A'
   8   1.0000     -56.352926     -1533.4411    9-A'
   9   1.0000     -51.282261     -1395.4613   10-A'
  10   1.0000     -51.282121     -1395.4574   11-A'
  11   1.0000     -51.281945     -1395.4527   12-A'
  12   1.0000     -51.281629     -1395.4441   13-A'
  13   1.0000     -51.280939     -1395.4253   14-A'
  14   1.0000     -51.280794     -1395.4214   15-A'
  15   1.0000     -51.280645     -1395.4173   16-A'
  16   1.0000     -51.280507     -1395.4135    1-A"
  17   1.0000     -51.280362     -1395.4096    2-A"
  18   1.0000     -51.280316     -1395.4083   17-A'
  19   1.0000     -51.280216     -1395.4056    3-A"
  20   1.0000     -51.279884     -1395.3966    4-A"
  21   1.0000     -38.023640     -1034.6759   18-A'
  22   1.0000     -33.525738      -912.2817   19-A'
  23   1.0000     -33.524962      -912.2606   20-A'
  24   1.0000     -33.513686      -911.9538    5-A"
  25   1.0000      -9.802267      -266.7333   21-A'
  26   1.0000      -9.801775      -266.7198   22-A'
  27   1.0000      -9.801039      -266.6998   23-A'
  28   1.0000      -9.800517      -266.6856   24-A'
  29   1.0000      -9.799106      -266.6472   25-A'
  30   1.0000      -9.797298      -266.5980   26-A'
  31   1.0000      -9.789981      -266.3989   27-A'
  32   1.0000      -9.788248      -266.3518   28-A'
  33   1.0000      -9.784357      -266.2459   29-A'
  34   1.0000      -9.778328      -266.0818   30-A'
  35   1.0000      -9.772551      -265.9246   31-A'
  36   1.0000      -9.772255      -265.9166   32-A'
  37   1.0000      -7.337135      -199.6536   33-A'
  38   1.0000      -7.336683      -199.6413   34-A'
  39   1.0000      -7.329694      -199.4511   35-A'
  40   1.0000      -7.329177      -199.4370   36-A'
  41   1.0000      -5.399730      -146.9341   37-A'
  42   1.0000      -5.399644      -146.9318   38-A'
  43   1.0000      -5.399272      -146.9216   39-A'
  44   1.0000      -5.399018      -146.9147   40-A'
  45   1.0000      -5.394564      -146.7935   41-A'
  46   1.0000      -5.394469      -146.7910   42-A'
  47   1.0000      -5.394199      -146.7836    6-A"
  48   1.0000      -5.394199      -146.7836   43-A'
  49   1.0000      -5.394100      -146.7809    7-A"
  50   1.0000      -5.393921      -146.7761   44-A'
  51   1.0000      -5.393844      -146.7739    8-A"
  52   1.0000      -5.393539      -146.7656    9-A"
  53   1.0000      -4.017930      -109.3334   45-A'
  54   1.0000      -2.537526       -69.0496   46-A'
  55   1.0000      -2.536632       -69.0253   47-A'
  56   1.0000      -2.512906       -68.3796   10-A"
  57   1.0000      -1.738782       -47.3147   48-A'
  58   1.0000      -1.738701       -47.3125   49-A'
  59   1.0000      -1.738366       -47.3033   50-A'
  60   1.0000      -1.738061       -47.2950   51-A'
  61   1.0000      -1.736059       -47.2406   52-A'
  62   1.0000      -1.735941       -47.2374   53-A'
  63   1.0000      -1.735625       -47.2287   54-A'
  64   1.0000      -1.735375       -47.2220   11-A"
  65   1.0000      -1.735353       -47.2213   55-A'
  66   1.0000      -1.735261       -47.2188   12-A"
  67   1.0000      -1.734932       -47.2099   13-A"
  68   1.0000      -1.734677       -47.2030   14-A"
  69   1.0000      -1.731123       -47.1063   56-A'
  70   1.0000      -1.731038       -47.1039   15-A"
  71   1.0000      -1.730984       -47.1025   16-A"
  72   1.0000      -1.730976       -47.1022   57-A'
  73   1.0000      -1.730736       -47.0957   58-A'
  74   1.0000      -1.730734       -47.0957   17-A"
  75   1.0000      -1.730468       -47.0884   59-A'
  76   1.0000      -1.730392       -47.0864   18-A"
  77   1.0000      -0.595939       -16.2163   60-A'
  78   1.0000      -0.595595       -16.2070   61-A'
  79   1.0000      -0.518820       -14.1178   62-A'
  80   1.0000      -0.517934       -14.0937   63-A'
  81   1.0000      -0.516920       -14.0661   64-A'
  82   1.0000      -0.505961       -13.7679   65-A'
  83   1.0000      -0.420787       -11.4502   66-A'
  84   1.0000      -0.415298       -11.3008   67-A'
  85   1.0000      -0.405219       -11.0266   68-A'
  86   1.0000      -0.387858       -10.5541   69-A'
  87   1.0000      -0.348379        -9.4799   70-A'
  88   1.0000      -0.336662        -9.1610   71-A'
  89   1.0000      -0.318507        -8.6670   72-A'
  90   1.0000      -0.299094        -8.1388   73-A'
  91   1.0000      -0.242005        -6.5853   74-A'
  92   1.0000      -0.233004        -6.3404   75-A'
  93   1.0000      -0.207730        -5.6526   76-A'
  94   1.0000      -0.194230        -5.2853   77-A'
  95   1.0000      -0.191588        -5.2134   78-A'
  96   1.0000      -0.190875        -5.1940   79-A'
  97   1.0000      -0.147698        -4.0191   80-A'
  98   1.0000      -0.142397        -3.8748   81-A'
  99   1.0000      -0.134608        -3.6629   82-A'
 100   1.0000      -0.122369        -3.3298   19-A"
 101   1.0000      -0.119101        -3.2409   20-A"
 102   1.0000      -0.117697        -3.2027   83-A'
 103   1.0000      -0.093913        -2.5555   84-A'
 104   1.0000      -0.065460        -1.7812   85-A'
 105   1.0000      -0.064886        -1.7656   86-A'
 106   1.0000      -0.059532        -1.6200   87-A'
 107   1.0000      -0.040998        -1.1156   21-A"
 108   1.0000      -0.037913        -1.0317   22-A"
 109   1.0000      -0.027524        -0.7490   23-A"
 110   1.0000      -0.026069        -0.7094   88-A'
 111   1.0000      -0.024612        -0.6697   89-A'
 112   1.0000      -0.020241        -0.5508   24-A"
 113   1.0000       0.003194         0.0869   25-A"
 114   1.0000       0.003575         0.0973   26-A"
 115   1.0000       0.004992         0.1358   90-A'
 116   1.0000       0.023859         0.6492   91-A'
 117   1.0000       0.027027         0.7354   92-A'
 118   1.0000       0.043808         1.1921   93-A'
 119   1.0000       0.060186         1.6377   27-A"
 120   1.0000       0.061497         1.6734   28-A"
 121   1.0000       0.075986         2.0677   29-A"
 122   1.0000       0.104697         2.8489   30-A"
 123   1.0000       0.119676         3.2565   94-A'
 124   0.0000       0.186799         5.0830   95-A'
 125   0.0000       0.187668         5.1067   96-A'
 126   0.0000       0.200689         5.4610   97-A'
 127   0.0000       0.201926         5.4947   98-A'
 128   0.0000       0.203771         5.5449   31-A"

                 SPIN DOWN ORBITALS
  NO   OCC          E(Eh)            E(eV)    Irrep
   0   1.0000    -443.557927    -12069.8248    1-A'
   1   1.0000    -443.556828    -12069.7949    2-A'
   2   1.0000    -443.543149    -12069.4227    3-A'
   3   1.0000    -443.542987    -12069.4183    4-A'
   4   1.0000    -318.182997     -8658.1995    5-A'
   5   1.0000     -56.366274     -1533.8043    6-A'
   6   1.0000     -56.365842     -1533.7925    7-A'
   7   1.0000     -56.353196     -1533.4484    8-A'
   8   1.0000     -56.352746     -1533.4362    9-A'
   9   1.0000     -51.281929     -1395.4522   10-A'
  10   1.0000     -51.281787     -1395.4484   11-A'
  11   1.0000     -51.281609     -1395.4435   12-A'
  12   1.0000     -51.281290     -1395.4348   13-A'
  13   1.0000     -51.280258     -1395.4067    1-A"
  14   1.0000     -51.280222     -1395.4058   14-A'
  15   1.0000     -51.280113     -1395.4028    2-A"
  16   1.0000     -51.280077     -1395.4018   15-A'
  17   1.0000     -51.279968     -1395.3989    3-A"
  18   1.0000     -51.279935     -1395.3980   16-A'
  19   1.0000     -51.279635     -1395.3898    4-A"
  20   1.0000     -51.279609     -1395.3891   17-A'
  21   1.0000     -38.009664     -1034.2955   18-A'
  22   1.0000     -33.512458      -911.9203   19-A'
  23   1.0000     -33.511682      -911.8992   20-A'
  24   1.0000     -33.509784      -911.8476    5-A"
  25   1.0000      -9.802279      -266.7336   21-A'
  26   1.0000      -9.801785      -266.7201   22-A'
  27   1.0000      -9.801047      -266.7000   23-A'
  28   1.0000      -9.800523      -266.6858   24-A'
  29   1.0000      -9.799060      -266.6460   25-A'
  30   1.0000      -9.797254      -266.5968   26-A'
  31   1.0000      -9.789941      -266.3978   27-A'
  32   1.0000      -9.788208      -266.3507   28-A'
  33   1.0000      -9.784235      -266.2426   29-A'
  34   1.0000      -9.778208      -266.0786   30-A'
  35   1.0000      -9.772430      -265.9213   31-A'
  36   1.0000      -9.772134      -265.9133   32-A'
  37   1.0000      -7.336739      -199.6428   33-A'
  38   1.0000      -7.336288      -199.6306   34-A'
  39   1.0000      -7.329290      -199.4401   35-A'
  40   1.0000      -7.328774      -199.4261   36-A'
  41   1.0000      -5.399358      -146.9240   37-A'
  42   1.0000      -5.399273      -146.9217   38-A'
  43   1.0000      -5.398897      -146.9115   39-A'
  44   1.0000      -5.398642      -146.9045   40-A'
  45   1.0000      -5.393886      -146.7751    6-A"
  46   1.0000      -5.393788      -146.7724    7-A"
  47   1.0000      -5.393757      -146.7716   41-A'
  48   1.0000      -5.393659      -146.7689   42-A'
  49   1.0000      -5.393532      -146.7655    8-A"
  50   1.0000      -5.393398      -146.7618   43-A'
  51   1.0000      -5.393227      -146.7572    9-A"
  52   1.0000      -5.393122      -146.7543   44-A'
  53   1.0000      -3.989450      -108.5585   45-A'
  54   1.0000      -2.502515       -68.0969   10-A"
  55   1.0000      -2.501982       -68.0824   46-A'
  56   1.0000      -2.501017       -68.0561   47-A'
  57   1.0000      -1.738325       -47.3022   48-A'
  58   1.0000      -1.738247       -47.3001   49-A'
  59   1.0000      -1.737911       -47.2909   50-A'
  60   1.0000      -1.737601       -47.2825   51-A'
  61   1.0000      -1.735174       -47.2165   52-A'
  62   1.0000      -1.735055       -47.2133   11-A"
  63   1.0000      -1.735051       -47.2131   53-A'
  64   1.0000      -1.734944       -47.2102   12-A"
  65   1.0000      -1.734741       -47.2047   54-A'
  66   1.0000      -1.734613       -47.2012   13-A"
  67   1.0000      -1.734469       -47.1973   55-A'
  68   1.0000      -1.734355       -47.1942   14-A"
  69   1.0000      -1.730336       -47.0848   56-A'
  70   1.0000      -1.730285       -47.0834   15-A"
  71   1.0000      -1.730227       -47.0819   16-A"
  72   1.0000      -1.730188       -47.0808   57-A'
  73   1.0000      -1.729986       -47.0753   17-A"
  74   1.0000      -1.729955       -47.0745   58-A'
  75   1.0000      -1.729691       -47.0673   59-A'
  76   1.0000      -1.729646       -47.0661   18-A"
  77   1.0000      -0.595080       -16.1930   60-A'
  78   1.0000      -0.594738       -16.1836   61-A'
  79   1.0000      -0.517736       -14.0883   62-A'
  80   1.0000      -0.516825       -14.0635   63-A'
  81   1.0000      -0.515862       -14.0373   64-A'
  82   1.0000      -0.504569       -13.7300   65-A'
  83   1.0000      -0.417784       -11.3685   66-A'
  84   1.0000      -0.412435       -11.2229   67-A'
  85   1.0000      -0.404242       -11.0000   68-A'
  86   1.0000      -0.386246       -10.5103   69-A'
  87   1.0000      -0.345642        -9.4054   70-A'
  88   1.0000      -0.334317        -9.0972   71-A'
  89   1.0000      -0.316928        -8.6241   72-A'
  90   1.0000      -0.297091        -8.0843   73-A'
  91   1.0000      -0.240665        -6.5488   74-A'
  92   1.0000      -0.231707        -6.3051   75-A'
  93   1.0000      -0.205530        -5.5928   76-A'
  94   1.0000      -0.192624        -5.2416   77-A'
  95   1.0000      -0.189956        -5.1690   78-A'
  96   1.0000      -0.188976        -5.1423   79-A'
  97   1.0000      -0.146328        -3.9818   80-A'
  98   1.0000      -0.140448        -3.8218   81-A'
  99   1.0000      -0.132951        -3.6178   82-A'
 100   1.0000      -0.121948        -3.3184   19-A"
 101   1.0000      -0.118647        -3.2285   20-A"
 102   1.0000      -0.116531        -3.1710   83-A'
 103   1.0000      -0.092283        -2.5111   84-A'
 104   1.0000      -0.063700        -1.7334   85-A'
 105   1.0000      -0.062271        -1.6945   86-A'
 106   1.0000      -0.047348        -1.2884   87-A'
 107   1.0000      -0.040039        -1.0895   21-A"
 108   1.0000      -0.037100        -1.0095   22-A"
 109   1.0000      -0.024886        -0.6772   23-A"
 110   1.0000      -0.019208        -0.5227   24-A"
 111   1.0000      -0.018120        -0.4931   88-A'
 112   1.0000       0.001359         0.0370   89-A'
 113   1.0000       0.012717         0.3460   25-A"
 114   1.0000       0.014742         0.4011   26-A"
 115   1.0000       0.015545         0.4230   90-A'
 116   1.0000       0.034868         0.9488   91-A'
 117   1.0000       0.036550         0.9946   92-A'
 118   1.0000       0.055009         1.4969   93-A'
 119   1.0000       0.062119         1.6903   27-A"
 120   1.0000       0.064795         1.7632   28-A"
 121   1.0000       0.077685         2.1139   29-A"
 122   1.0000       0.107867         2.9352   30-A"
 123   0.0000       0.149592         4.0706   94-A'
 124   0.0000       0.187665         5.1066   95-A'
 125   0.0000       0.187998         5.1157   96-A'
 126   0.0000       0.201837         5.4923   97-A'
 127   0.0000       0.202365         5.5066   98-A'

MULLIKEN ATOMIC CHARGES AND SPIN POPULATIONS
--------------------------------------------
   0 Cu:    0.648879    0.311561
   1 Se:   -0.764642    0.173166
   2 C :    0.174967   -0.002857
   3 Se:   -0.771696    0.173195
   4 C :    0.156446   -0.002341
   5 Se:   -0.760374    0.173160
   6 C :    0.182895   -0.002600
   7 Se:   -0.774124    0.173304
   8 C :    0.158098   -0.002534
   9 C :   -0.713616   -0.003614
  10 C :   -0.826118   -0.003936
  11 C :   -0.484766   -0.000186
  12 H :    0.924531    0.004697
  13 C :   -0.453888   -0.000261
  14 H :    0.816033    0.004446
  15 H :    0.346021    0.000769
  16 H :    0.297488    0.000846
  17 C :   -0.420990   -0.003122
  18 C :   -0.297186   -0.002725
  19 C :   -0.337163   -0.000322
  20 H :    0.511632    0.003952
  21 C :   -0.306051   -0.000317
  22 H :    0.354353    0.003612
  23 H :    0.187084    0.001008
  24 H :    0.152187    0.001099
Sum of atomic charges         :   -2.0000000

LOEWDIN ATOMIC CHARGES AND SPIN POPULATIONS
-------------------------------------------
   0 Cu:   -0.615023    0.392916
   1 Se:   -0.177659    0.122930
   2 C :    0.087367    0.012246
   3 Se:   -0.165336    0.122986
   4 C :    0.119998    0.012562
   5 Se:   -0.185818    0.122973
   6 C :    0.073261    0.012157
   7 Se:   -0.168075    0.122734
   8 C :    0.115165    0.012606
   9 C :    0.679435    0.007418
  10 C :    0.709774    0.007378
  11 C :    0.596618    0.000331
  12 H :   -0.966979    0.008337
  13 C :    0.576631    0.000322
  14 H :   -0.925523    0.008417
  15 H :   -0.646702    0.000166
  16 H :   -0.616155    0.000169
  17 C :    0.569875    0.007261
  18 C :    0.504711    0.007203
  19 C :    0.476137    0.000369
  20 H :   -0.769062    0.008732
  21 C :    0.449988    0.000394
  22 H :   -0.661165    0.008926
  23 H :   -0.541573    0.000243
  24 H :   -0.519892    0.000224

  Mayer bond orders larger than 0.100000
B(  0-Cu,  1-Se) :   0.5465 B(  0-Cu,  3-Se) :   0.5430 B(  0-Cu,  5-Se) :   0.5476
B(  0-Cu,  7-Se) :   0.5453 B(  1-Se,  2-C ) :   1.0519 B(  2-C ,  6-C ) :   1.1401
B(  2-C , 17-C ) :   1.3183 B(  3-Se,  4-C ) :   1.0579 B(  4-C ,  8-C ) :   1.1429
B(  4-C , 10-C ) :   1.3495 B(  5-Se,  6-C ) :   1.0494 B(  6-C , 18-C ) :   1.2956
B(  7-Se,  8-C ) :   1.0530 B(  8-C ,  9-C ) :   1.3469 B(  9-C , 13-C ) :   1.5234
B( 10-C , 11-C ) :   1.5387 B( 10-C , 12-H ) :  -0.1398 B( 11-C , 13-C ) :   1.3965
B( 11-C , 15-H ) :   0.7393 B( 13-C , 16-H ) :   0.7915 B( 17-C , 19-C ) :   1.4671
B( 17-C , 20-H ) :   0.5564 B( 18-C , 21-C ) :   1.4331 B( 18-C , 22-H ) :   0.7451
B( 19-C , 21-C ) :   1.3488 B( 19-C , 23-H ) :   0.8943 B( 21-C , 24-H ) :   0.9218

FINAL SINGLE POINT ENERGY    -11626.539494716557

DIPOLE MOMENT
-------------
                                X             Y             Z
Electronic contribution:      0.02010       0.25622      -0.00000
Nuclear contribution   :      0.01083      -0.16345       0.00000
                        -----------------------------------------
Total Dipole Moment    :      0.03094       0.09277      -0.00000
                        -----------------------------------------
Magnitude (a.u.)       :      0.09779
Magnitude (Debye)      :      0.24856

Rotational constants in cm-1:     0.017655     0.004098     0.003326
Rotational constants in MHz :   529.272718   122.868163    99.718893

                             ****ORCA TERMINATED NORMALLY****
TOTAL RUN TIME: 0 days 17 hours 4 minutes 0 seconds 686 msec
