                         Program Version 5.0.4 -  RELEASE  -
|  1> ! RIJCOSX nofrozencore ReducedPop printbasis
|  2> ! M06L ano-rcc-dzp autoaux
|  3>
|  4> %maxcore 7500
|  5> %basis
|  6> PCDTrimBas overlap
|  7> PCDTrimAuxJ Coulomb
|  8> PCDTrimAuxJK Coulomb
|  9> PCDTrimAuxC Coulomb
| 10> PCDThresh -1
| 11> end
| 12>
| 13> %basis
| 14> newgto Cu "ano-rcc-tzp" end
| 15> newgto Se "ano-rcc-tzp" end
| 16> end
| 17>
| 18> %pal
| 19> nprocs 8
| 20> end
| 21>
| 22> % sym SymThresh 1e-2 end
| 23> * xyz -2 2
| 24> Cu -0.00013810632396865692 0.0001733133085959242 0.00022042944527308133
| 25> Se -2.1547407616396894 -0.25286612488997773 -0.9449843631412844
| 26> C -3.168976480647065 0.6273799440820174 0.09180482958640915
| 27> Se 1.1104901857182383 -1.2993908641083778 -1.6327793792855654
| 28> C 2.806046582169818 -1.2922050021821867 -1.173542541101267
| 29> Se -1.118382331937955 1.300231538722794 1.6319378519602326
| 30> C -2.7154189291574293 1.2509198012558713 1.1363067751907898
| 31> Se 2.1581630362042046 0.2508386686310139 0.9428837132601617
| 32> C 3.133765195023896 -0.604428812062781 -0.06709137922432534
| 33> C 4.464558876326868 -0.6610106730239119 0.20109568962176785
| 34> C 3.7486350460936584 -1.937202015270262 -1.8804890366857325
| 35> C 4.8292512048714 -2.0533703722451726 -1.7668372621673034
| 36> H 3.3422513526597046 -2.4417225041941886 -2.7360434232491704
| 37> C 5.491024964410565 -1.2861185479183823 -0.4541707049835639
| 38> H 5.074877070707192 -0.21569737840387396 1.0228186840262012
| 39> H 5.8692367041009 -2.4889903457133298 -2.1375778895241795
| 40> H 6.568863703547555 -1.3483107877836593 -0.2612246813678246
| 41> C -4.527370959407115 0.68350793069619 -0.18435735441938744
| 42> C -3.686814454154756 1.9546866315837546 1.9227685242736123
| 43> C -5.4155969808825475 1.2875960496736594 0.4763168606648607
| 44> H -4.883851019216325 0.16048618735412087 -1.054140407153714
| 45> C -4.969907362095287 2.028640239870346 1.6929580046403567
| 46> H -3.321484686465103 2.4785021364917283 2.796069778396054
| 47> H -6.494849986827742 1.3809538378341792 0.3292050608218886
| 48> H -5.667436556345785 2.5759475781059815 2.319896204033786
| 49> *
| 50>
| 51> % eprnmr
| 52> gtensor true
| 53> Nuclei = all H {aiso,adip,aorb,fgrad,rho}
| 54> Nuclei = all Cu {aiso,adip,aorb,fgrad,rho}
| 55> end
| 56>
| 57>                          ****END OF INPUT****

CARTESIAN COORDINATES (ANGSTROEM)
---------------------------------
  Cu     0.000272   -0.000153    0.000000
  Se    -1.030826   -2.130081    0.000000
  C      0.268884   -3.220582    0.000000
  Se    -2.022525    1.223506    0.000000
  C     -1.553958    2.916523    0.000000
  Se     2.021905   -1.231463    0.000000
  C      1.504572   -2.822367    0.000000
  Se     1.028124    2.133677    0.000000
  C     -0.237352    3.183392    0.000000
  C      0.019270    4.517664    0.000000
  C     -2.452718    3.914771    0.000000
  C     -2.369773    5.004387    0.000000
  H     -3.463132    3.553210    0.000000
  C     -0.821419    5.597946    0.000000
  H      0.978740    5.088136    0.000000
  H     -2.868361    6.081510    0.000000
  H     -0.642807    6.680041    0.000000
  C      0.004032   -4.582384    0.000000
  C      2.500566   -3.854557    0.000000
  C      0.844331   -5.522733    0.000000
  H     -1.026016   -4.892470    0.000000
  C      2.287794   -5.142710    0.000000
  H      3.534410   -3.535701    0.000000
  H      0.721008   -6.608981    0.000000
  H      3.077925   -5.887583    0.000000

 Total Charge           Charge          ....   -2
 Multiplicity           Mult            ....    2
 Number of Electrons    NEL             ....  247
 Basis Dimension        Dim             ....  575

ORBITAL ENERGIES
----------------
                 SPIN UP ORBITALS
  NO   OCC          E(Eh)            E(eV)    Irrep
   0   1.0000    -443.554300    -12069.7261    1-A'
   1   1.0000    -443.551038    -12069.6374    2-A'
   2   1.0000    -443.537736    -12069.2754    3-A'
   3   1.0000    -443.534543    -12069.1885    4-A'
   4   1.0000    -318.184030     -8658.2276    5-A'
   5   1.0000     -56.363968     -1533.7415    6-A'
   6   1.0000     -56.362256     -1533.6950    7-A'
   7   1.0000     -56.350309     -1533.3699    8-A'
   8   1.0000     -56.349716     -1533.3537    9-A'
   9   1.0000     -51.285102     -1395.5386   10-A'
  10   1.0000     -51.283678     -1395.4998   11-A'
  11   1.0000     -51.283142     -1395.4852    1-A"
  12   1.0000     -51.282758     -1395.4748   12-A'
  13   1.0000     -51.281310     -1395.4354   13-A'
  14   1.0000     -51.280743     -1395.4200    2-A"
  15   1.0000     -51.280650     -1395.4174   14-A'
  16   1.0000     -51.280003     -1395.3998   15-A'
  17   1.0000     -51.278974     -1395.3718   16-A'
  18   1.0000     -51.278512     -1395.3592   17-A'
  19   1.0000     -51.278495     -1395.3588    3-A"
  20   1.0000     -51.277893     -1395.3424    4-A"
  21   1.0000     -38.024502     -1034.6993   18-A'
  22   1.0000     -33.526626      -912.3059   19-A'
  23   1.0000     -33.525735      -912.2816   20-A'
  24   1.0000     -33.514599      -911.9786    5-A"
  25   1.0000      -9.821164      -267.2474   21-A'
  26   1.0000      -9.817169      -267.1387   22-A'
  27   1.0000      -9.815679      -267.0982   23-A'
  28   1.0000      -9.815544      -267.0945   24-A'
  29   1.0000      -9.812223      -267.0042   25-A'
  30   1.0000      -9.809455      -266.9288   26-A'
  31   1.0000      -9.803928      -266.7784   27-A'
  32   1.0000      -9.803800      -266.7750   28-A'
  33   1.0000      -9.803082      -266.7554   29-A'
  34   1.0000      -9.803015      -266.7536   30-A'
  35   1.0000      -9.799974      -266.6708   31-A'
  36   1.0000      -9.783903      -266.2335   32-A'
  37   1.0000      -7.337260      -199.6570   33-A'
  38   1.0000      -7.335753      -199.6160   34-A'
  39   1.0000      -7.329073      -199.4342   35-A'
  40   1.0000      -7.328304      -199.4133   36-A'
  41   1.0000      -5.402771      -147.0169   37-A'
  42   1.0000      -5.401247      -146.9754   38-A'
  43   1.0000      -5.401047      -146.9700   39-A'
  44   1.0000      -5.399127      -146.9177   40-A'
  45   1.0000      -5.397121      -146.8631   41-A'
  46   1.0000      -5.396483      -146.8458    6-A"
  47   1.0000      -5.395703      -146.8245   42-A'
  48   1.0000      -5.395041      -146.8065   43-A'
  49   1.0000      -5.394919      -146.8032    7-A"
  50   1.0000      -5.394554      -146.7933    8-A"
  51   1.0000      -5.393449      -146.7632   44-A'
  52   1.0000      -5.392548      -146.7387    9-A"
  53   1.0000      -4.018772      -109.3563   45-A'
  54   1.0000      -2.538436       -69.0744   46-A'
  55   1.0000      -2.537302       -69.0435   47-A'
  56   1.0000      -2.513866       -68.4058   10-A"
  57   1.0000      -1.741638       -47.3924   48-A'
  58   1.0000      -1.739718       -47.3401   49-A'
  59   1.0000      -1.738897       -47.3178   50-A'
  60   1.0000      -1.738657       -47.3113   51-A'
  61   1.0000      -1.737985       -47.2930   11-A"
  62   1.0000      -1.737371       -47.2763   52-A'
  63   1.0000      -1.737333       -47.2752   53-A'
  64   1.0000      -1.736767       -47.2598   54-A'
  65   1.0000      -1.736453       -47.2513   12-A"
  66   1.0000      -1.736106       -47.2418   13-A"
  67   1.0000      -1.735211       -47.2175   55-A'
  68   1.0000      -1.734111       -47.1876   14-A"
  69   1.0000      -1.733422       -47.1688   15-A"
  70   1.0000      -1.733363       -47.1672   56-A'
  71   1.0000      -1.731944       -47.1286   57-A'
  72   1.0000      -1.731838       -47.1257   16-A"
  73   1.0000      -1.731404       -47.1139   58-A'
  74   1.0000      -1.731287       -47.1107   17-A"
  75   1.0000      -1.729595       -47.0647   18-A"
  76   1.0000      -1.729526       -47.0628   59-A'
  77   1.0000      -0.621316       -16.9069   60-A'
  78   1.0000      -0.614016       -16.7082   61-A'
  79   1.0000      -0.538286       -14.6475   62-A'
  80   1.0000      -0.523386       -14.2421   63-A'
  81   1.0000      -0.504336       -13.7237   64-A'
  82   1.0000      -0.492166       -13.3925   65-A'
  83   1.0000      -0.422968       -11.5095   66-A'
  84   1.0000      -0.416582       -11.3358   67-A'
  85   1.0000      -0.375658       -10.2222   68-A'
  86   1.0000      -0.368188       -10.0189   69-A'
  87   1.0000      -0.330315        -8.9883   70-A'
  88   1.0000      -0.320014        -8.7080   71-A'
  89   1.0000      -0.291260        -7.9256   72-A'
  90   1.0000      -0.282767        -7.6945   73-A'
  91   1.0000      -0.237988        -6.4760   74-A'
  92   1.0000      -0.232648        -6.3307   75-A'
  93   1.0000      -0.214848        -5.8463   76-A'
  94   1.0000      -0.210428        -5.7260   77-A'
  95   1.0000      -0.181859        -4.9486   78-A'
  96   1.0000      -0.169430        -4.6104   79-A'
  97   1.0000      -0.158058        -4.3010   80-A'
  98   1.0000      -0.146745        -3.9931   81-A'
  99   1.0000      -0.146260        -3.9799   19-A"
 100   1.0000      -0.138176        -3.7600   20-A"
 101   1.0000      -0.126105        -3.4315   82-A'
 102   1.0000      -0.092988        -2.5303   83-A'
 103   1.0000      -0.075620        -2.0577   84-A'
 104   1.0000      -0.064678        -1.7600   21-A"
 105   1.0000      -0.063147        -1.7183   85-A'
 106   1.0000      -0.059208        -1.6111   86-A'
 107   1.0000      -0.049542        -1.3481   22-A"
 108   1.0000      -0.031349        -0.8530   23-A"
 109   1.0000      -0.030846        -0.8394   87-A'
 110   1.0000      -0.024636        -0.6704   88-A'
 111   1.0000      -0.023459        -0.6384   24-A"
 112   1.0000      -0.004690        -0.1276   25-A"
 113   1.0000      -0.001888        -0.0514   89-A'
 114   1.0000       0.003031         0.0825   26-A"
 115   1.0000       0.005430         0.1478   90-A'
 116   1.0000       0.019622         0.5340   91-A'
 117   1.0000       0.021349         0.5809   92-A'
 118   1.0000       0.044718         1.2168   93-A'
 119   1.0000       0.045667         1.2427   27-A"
 120   1.0000       0.050349         1.3701   28-A"
 121   1.0000       0.071653         1.9498   29-A"
 122   1.0000       0.101528         2.7627   30-A"
 123   1.0000       0.120405         3.2764   94-A'
 124   0.0000       0.178018         4.8441   95-A'
 125   0.0000       0.178468         4.8564   96-A'
 126   0.0000       0.195041         5.3073   97-A'
 127   0.0000       0.196342         5.3427   98-A'
 128   0.0000       0.196349         5.3429   31-A"

                 SPIN DOWN ORBITALS
  NO   OCC          E(Eh)            E(eV)    Irrep
   0   1.0000    -443.553836    -12069.7135    1-A'
   1   1.0000    -443.550581    -12069.6249    2-A'
   2   1.0000    -443.537283    -12069.2631    3-A'
   3   1.0000    -443.534096    -12069.1763    4-A'
   4   1.0000    -318.183910     -8658.2244    5-A'
   5   1.0000     -56.363782     -1533.7365    6-A'
   6   1.0000     -56.362072     -1533.6899    7-A'
   7   1.0000     -56.350128     -1533.3649    8-A'
   8   1.0000     -56.349536     -1533.3488    9-A'
   9   1.0000     -51.284783     -1395.5299   10-A'
  10   1.0000     -51.282910     -1395.4789   11-A'
  11   1.0000     -51.282887     -1395.4783    1-A"
  12   1.0000     -51.282439     -1395.4661   12-A'
  13   1.0000     -51.280552     -1395.4148   13-A'
  14   1.0000     -51.280489     -1395.4131    2-A"
  15   1.0000     -51.280352     -1395.4093   14-A'
  16   1.0000     -51.279694     -1395.3914   15-A'
  17   1.0000     -51.278263     -1395.3525    3-A"
  18   1.0000     -51.278235     -1395.3517   16-A'
  19   1.0000     -51.277752     -1395.3386   17-A'
  20   1.0000     -51.277646     -1395.3357    4-A"
  21   1.0000     -38.010697     -1034.3236   18-A'
  22   1.0000     -33.513504      -911.9488   19-A'
  23   1.0000     -33.512620      -911.9247   20-A'
  24   1.0000     -33.510743      -911.8737    5-A"
  25   1.0000      -9.821118      -267.2462   21-A'
  26   1.0000      -9.817131      -267.1377   22-A'
  27   1.0000      -9.815553      -267.0948   23-A'
  28   1.0000      -9.815513      -267.0937   24-A'
  29   1.0000      -9.812194      -267.0034   25-A'
  30   1.0000      -9.809316      -266.9250   26-A'
  31   1.0000      -9.803968      -266.7795   27-A'
  32   1.0000      -9.803682      -266.7717   28-A'
  33   1.0000      -9.803130      -266.7567   29-A'
  34   1.0000      -9.803066      -266.7550   30-A'
  35   1.0000      -9.800017      -266.6720   31-A'
  36   1.0000      -9.783799      -266.2307   32-A'
  37   1.0000      -7.336849      -199.6458   33-A'
  38   1.0000      -7.335348      -199.6050   34-A'
  39   1.0000      -7.328667      -199.4232   35-A'
  40   1.0000      -7.327897      -199.4022   36-A'
  41   1.0000      -5.402408      -147.0070   37-A'
  42   1.0000      -5.400883      -146.9655   38-A'
  43   1.0000      -5.400705      -146.9607   39-A'
  44   1.0000      -5.398775      -146.9081   40-A'
  45   1.0000      -5.396258      -146.8397   41-A'
  46   1.0000      -5.396166      -146.8371    6-A"
  47   1.0000      -5.394856      -146.8015   42-A'
  48   1.0000      -5.394604      -146.7946    7-A"
  49   1.0000      -5.394242      -146.7848    8-A"
  50   1.0000      -5.394216      -146.7841   43-A'
  51   1.0000      -5.392617      -146.7406   44-A'
  52   1.0000      -5.392242      -146.7304    9-A"
  53   1.0000      -3.990833      -108.5961   45-A'
  54   1.0000      -2.503605       -68.1266   10-A"
  55   1.0000      -2.503542       -68.1248   46-A'
  56   1.0000      -2.502342       -68.0922   47-A'
  57   1.0000      -1.741173       -47.3797   48-A'
  58   1.0000      -1.739247       -47.3273   49-A'
  59   1.0000      -1.738210       -47.2991   50-A'
  60   1.0000      -1.737983       -47.2929   51-A'
  61   1.0000      -1.737681       -47.2847   11-A"
  62   1.0000      -1.736871       -47.2627   52-A'
  63   1.0000      -1.736467       -47.2517   53-A'
  64   1.0000      -1.736145       -47.2429   12-A"
  65   1.0000      -1.735903       -47.2363   54-A'
  66   1.0000      -1.735807       -47.2337   13-A"
  67   1.0000      -1.734330       -47.1935   55-A'
  68   1.0000      -1.733816       -47.1795   14-A"
  69   1.0000      -1.732624       -47.1471   15-A"
  70   1.0000      -1.732535       -47.1447   56-A'
  71   1.0000      -1.731142       -47.1068   57-A'
  72   1.0000      -1.731060       -47.1045   16-A"
  73   1.0000      -1.730614       -47.0924   58-A'
  74   1.0000      -1.730523       -47.0899   17-A"
  75   1.0000      -1.728832       -47.0439   18-A"
  76   1.0000      -1.728742       -47.0415   59-A'
  77   1.0000      -0.620855       -16.8943   60-A'
  78   1.0000      -0.613494       -16.6940   61-A'
  79   1.0000      -0.537274       -14.6200   62-A'
  80   1.0000      -0.522371       -14.2144   63-A'
  81   1.0000      -0.503404       -13.6983   64-A'
  82   1.0000      -0.491186       -13.3658   65-A'
  83   1.0000      -0.419919       -11.4266   66-A'
  84   1.0000      -0.413384       -11.2488   67-A'
  85   1.0000      -0.372822       -10.1450   68-A'
  86   1.0000      -0.365190        -9.9373   69-A'
  87   1.0000      -0.328665        -8.9434   70-A'
  88   1.0000      -0.319011        -8.6807   71-A'
  89   1.0000      -0.288104        -7.8397   72-A'
  90   1.0000      -0.279842        -7.6149   73-A'
  91   1.0000      -0.236868        -6.4455   74-A'
  92   1.0000      -0.231618        -6.3027   75-A'
  93   1.0000      -0.213662        -5.8140   76-A'
  94   1.0000      -0.209385        -5.6977   77-A'
  95   1.0000      -0.180800        -4.9198   78-A'
  96   1.0000      -0.167546        -4.5592   79-A'
  97   1.0000      -0.157488        -4.2855   80-A'
  98   1.0000      -0.146108        -3.9758   19-A"
  99   1.0000      -0.145836        -3.9684   81-A'
 100   1.0000      -0.137948        -3.7538   20-A"
 101   1.0000      -0.124053        -3.3756   82-A'
 102   1.0000      -0.090308        -2.4574   83-A'
 103   1.0000      -0.072514        -1.9732   84-A'
 104   1.0000      -0.064017        -1.7420   21-A"
 105   1.0000      -0.058453        -1.5906   85-A'
 106   1.0000      -0.050164        -1.3650   86-A'
 107   1.0000      -0.048710        -1.3255   22-A"
 108   1.0000      -0.030295        -0.8244   23-A"
 109   1.0000      -0.024329        -0.6620   87-A'
 110   1.0000      -0.021933        -0.5968   24-A"
 111   1.0000       0.000628         0.0171   88-A'
 112   1.0000       0.001629         0.0443   89-A'
 113   1.0000       0.004874         0.1326   25-A"
 114   1.0000       0.013589         0.3698   26-A"
 115   1.0000       0.013794         0.3753   90-A'
 116   1.0000       0.028299         0.7701   91-A'
 117   1.0000       0.034424         0.9367   92-A'
 118   1.0000       0.048318         1.3148   27-A"
 119   1.0000       0.054848         1.4925   28-A"
 120   1.0000       0.056226         1.5300   93-A'
 121   1.0000       0.073387         1.9970   29-A"
 122   1.0000       0.104911         2.8548   30-A"
 123   0.0000       0.150235         4.0881   94-A'
 124   0.0000       0.178791         4.8651   95-A'
 125   0.0000       0.179829         4.8934   96-A'
 126   0.0000       0.196800         5.3552   31-A"
 127   0.0000       0.197224         5.3667   97-A'

MULLIKEN ATOMIC CHARGES AND SPIN POPULATIONS
--------------------------------------------
   0 Cu:    0.658725    0.305712
   1 Se:   -0.839289    0.175829
   2 C :    0.258377   -0.004226
   3 Se:   -0.865206    0.172888
   4 C :    0.205849   -0.004365
   5 Se:   -0.798832    0.178106
   6 C :    0.247566   -0.005152
   7 Se:   -0.783079    0.179105
   8 C :    0.234123   -0.005521
   9 C :    0.011859   -0.000548
  10 C :    0.015966    0.000878
  11 C :   -0.062242   -0.001084
  12 H :    0.070329    0.002294
  13 C :   -0.200719   -0.001356
  14 H :    0.064578    0.002364
  15 H :   -0.049731   -0.000223
  16 H :    0.024723    0.001218
  17 C :   -0.058371   -0.000724
  18 C :   -0.051383    0.000143
  19 C :   -0.128548   -0.001510
  20 H :    0.085907    0.003056
  21 C :   -0.164590   -0.001400
  22 H :    0.089543    0.002675
  23 H :    0.016390    0.000653
  24 H :    0.018057    0.001191
Sum of atomic charges         :   -2.0000000

LOEWDIN ATOMIC CHARGES AND SPIN POPULATIONS
-------------------------------------------
   0 Cu:   -0.645672    0.387534
   1 Se:   -0.203487    0.125393
   2 C :    0.034162    0.009081
   3 Se:   -0.176967    0.125798
   4 C :    0.092158    0.008210
   5 Se:   -0.201638    0.127833
   6 C :    0.033511    0.009437
   7 Se:   -0.210090    0.129521
   8 C :   -0.010754    0.010383
   9 C :    0.349835    0.007906
  10 C :    0.208107    0.006149
  11 C :    0.298229   -0.000348
  12 H :   -0.450392    0.011195
  13 C :    0.396244    0.000125
  14 H :   -0.443140    0.006756
  15 H :   -0.328221   -0.000161
  16 H :   -0.404628    0.000126
  17 C :    0.333676    0.007039
  18 C :    0.362761    0.007802
  19 C :    0.326070   -0.000190
  20 H :   -0.449045    0.010016
  21 C :    0.340455    0.000091
  22 H :   -0.454073    0.010104
  23 H :   -0.396271    0.000023
  24 H :   -0.400832    0.000176

  Mayer bond orders larger than 0.100000
B(  0-Cu,  1-Se) :   0.5531 B(  0-Cu,  3-Se) :   0.5307 B(  0-Cu,  5-Se) :   0.5502
B(  0-Cu,  7-Se) :   0.5661 B(  1-Se,  2-C ) :   0.9631 B(  2-C ,  6-C ) :   1.2140
B(  2-C , 17-C ) :   1.1705 B(  3-Se,  4-C ) :   0.9629 B(  4-C ,  8-C ) :   1.2212
B(  4-C , 10-C ) :   1.1059 B(  5-Se,  6-C ) :   0.9878 B(  6-C , 18-C ) :   1.1696
B(  7-Se,  8-C ) :   1.0118 B(  8-C ,  9-C ) :   1.1688 B(  9-C , 13-C ) :   1.5061
B(  9-C , 14-H ) :   0.9585 B( 10-C , 11-C ) :   1.5904 B( 10-C , 12-H ) :   0.9403
B( 11-C , 13-C ) :   1.0601 B( 11-C , 15-H ) :   0.9525 B( 13-C , 16-H ) :   0.9865
B( 17-C , 19-C ) :   1.5041 B( 17-C , 20-H ) :   0.9624 B( 18-C , 21-C ) :   1.5063
B( 18-C , 22-H ) :   0.9593 B( 19-C , 21-C ) :   1.1879 B( 19-C , 23-H ) :   0.9836
B( 21-C , 24-H ) :   0.9944

FINAL SINGLE POINT ENERGY    -11626.896881491783

DIPOLE MOMENT
-------------
                                X             Y             Z
Electronic contribution:     -0.19347      -0.69605       0.00000
Nuclear contribution   :      0.32525       0.49425       0.00000
                        -----------------------------------------
Total Dipole Moment    :      0.13178      -0.20180       0.00000
                        -----------------------------------------
Magnitude (a.u.)       :      0.24102
Magnitude (Debye)      :      0.61261

Rotational constants in cm-1:     0.017591     0.004102     0.003326
Rotational constants in MHz :   527.364255   122.960665    99.711786

                             ****ORCA TERMINATED NORMALLY****
TOTAL RUN TIME: 0 days 16 hours 55 minutes 58 seconds 165 msec
