                         Program Version 5.0.4 -  RELEASE  -
|  1> ! RIJCOSX nofrozencore ReducedPop printbasis
|  2> ! M06L ano-rcc-dzp autoaux
|  3>
|  4> %maxcore 7500
|  5> %basis
|  6> PCDTrimBas overlap
|  7> PCDTrimAuxJ Coulomb
|  8> PCDTrimAuxJK Coulomb
|  9> PCDTrimAuxC Coulomb
| 10> PCDThresh -1
| 11> end
| 12>
| 13> %basis
| 14> newgto Cu "ano-rcc-tzp" end
| 15> newgto Se "ano-rcc-tzp" end
| 16> end
| 17>
| 18> %pal
| 19> nprocs 8
| 20> end
| 21>
| 22> % sym SymThresh 1e-2 end
| 23> * xyz -2 2
| 24> Cu -6.942865393374622e-05 0.000146061561251029 -9.586283084626704e-05
| 25> Se 1.850077708391386 1.320860198171132 0.6637300944597859
| 26> C 1.4076174276770654 1.960520136467552 2.106364551898615
| 27> Se 0.9981702572930397 -0.8248960114713006 -1.982720674821415
| 28> C -0.12852743044329504 -1.8196497902040034 -2.632437625410367
| 29> Se -1.000397883040531 0.8295824122025038 1.979644905695539
| 30> C 0.16350042675874915 1.7460768717853956 2.6807245429873685
| 31> Se -1.8523023797280715 -1.3161800128255141 -0.6668017843162641
| 32> C -1.3726699131548101 -2.0340394471854877 -2.058112818020169
| 33> C -2.246516650347048 -2.865443423915203 -2.751192331500762
| 34> C 0.11956304484961086 -2.457706050529334 -3.8434424359051866
| 35> C -0.7431673710618085 -3.296142044805702 -4.516835306517957
| 36> H 1.0832955188595588 -2.2709258428042234 -4.294267925723397
| 37> C -1.9886308255700773 -3.510741719645112 -3.9419149632249506
| 38> H -3.2203400936668674 -3.012697078090158 -2.3074686918523284
| 39> H -0.3843901057911537 -3.88305757870978 -5.369782596645548
| 40> H -2.677655219426146 -4.279229944133238 -4.310352879850485
| 41> C 2.237314272881929 2.884804183408867 2.7384866712338596
| 42> C -0.12873021227832035 2.476991615076857 3.830784972872756
| 43> C 1.963548859325718 3.5635093997357608 3.907283739854013
| 44> H 3.184642433688216 3.0877988027537673 2.2581803877163567
| 45> C 0.7181099051146882 3.3488570607229553 4.482237493029925
| 46> H -1.1190046172571562 2.346048267283219 4.244962572240958
| 47> H 2.881784082330518 3.849789697579337 4.592201086348402
| 48> H 0.5880086787190185 3.4546899418892267 5.650928297271744
| 49> *
| 50>
| 51> % eprnmr
| 52> gtensor true
| 53> Nuclei = all H {aiso,adip,aorb,fgrad,rho}
| 54> Nuclei = all Cu {aiso,adip,aorb,fgrad,rho}
| 55> end
| 56>
| 57>                          ****END OF INPUT****

CARTESIAN COORDINATES (ANGSTROEM)
---------------------------------
  Cu     0.000152   -0.000111    0.000000
  Se     1.038500    1.415968    1.588883
  C      1.785472    2.567676    0.693488
  Se    -1.033630   -1.419521    1.588883
  C     -1.861951   -2.511889    0.693488
  Se     1.038500    1.415968   -1.588883
  C      1.785472    2.567676   -0.693488
  Se    -1.033630   -1.419521   -1.588883
  C     -1.861951   -2.511889   -0.693488
  C     -2.569668   -3.533280   -1.318862
  C     -2.569668   -3.533280    1.318862
  C     -3.285408   -4.532417    0.694220
  H     -2.549487   -3.537903    2.398899
  C     -3.285408   -4.532417   -0.694220
  H     -2.549487   -3.537903   -2.398899
  H     -3.948693   -5.180139    1.278516
  H     -3.948693   -5.180139   -1.278516
  C      2.589762    3.518623    1.318862
  C      2.589762    3.518623   -1.318862
  C      3.340252    4.492411    0.694220
  H      2.627593    3.480928    2.398899
  C      3.340252    4.492411   -0.694220
  H      2.627593    3.480928   -2.398899
  H      3.502691    5.505479    1.278516
  H      3.502691    5.505479   -1.278516

 Total Charge           Charge          ....   -2
 Multiplicity           Mult            ....    2
 Number of Electrons    NEL             ....  247
 Basis Dimension        Dim             ....  575

ORBITAL ENERGIES
----------------
                 SPIN UP ORBITALS
  NO   OCC          E(Eh)            E(eV)    Irrep
   0   1.0000    -443.563540    -12069.9776    1-A"
   1   1.0000    -443.562404    -12069.9466    2-A"
   2   1.0000    -443.549031    -12069.5827    1-A'
   3   1.0000    -443.548915    -12069.5796    2-A'
   4   1.0000    -318.189442     -8658.3749    3-A'
   5   1.0000     -56.372329     -1533.9690    3-A"
   6   1.0000     -56.372033     -1533.9610    4-A"
   7   1.0000     -56.359692     -1533.6252    4-A'
   8   1.0000     -56.359085     -1533.6087    5-A'
   9   1.0000     -51.289050     -1395.6460    5-A"
  10   1.0000     -51.289001     -1395.6447    6-A'
  11   1.0000     -51.288310     -1395.6259    6-A"
  12   1.0000     -51.288264     -1395.6246    7-A'
  13   1.0000     -51.287697     -1395.6092    7-A"
  14   1.0000     -51.287639     -1395.6076    8-A'
  15   1.0000     -51.287299     -1395.5984    8-A"
  16   1.0000     -51.287250     -1395.5970    9-A'
  17   1.0000     -51.286982     -1395.5897    9-A"
  18   1.0000     -51.286923     -1395.5881   10-A'
  19   1.0000     -51.286537     -1395.5776   10-A"
  20   1.0000     -51.286488     -1395.5763   11-A'
  21   1.0000     -38.030008     -1034.8491   12-A'
  22   1.0000     -33.532060      -912.4537   11-A"
  23   1.0000     -33.531271      -912.4323   13-A'
  24   1.0000     -33.520110      -912.1286   14-A'
  25   1.0000      -9.822809      -267.2922   15-A'
  26   1.0000      -9.822364      -267.2801   12-A"
  27   1.0000      -9.818166      -267.1659   16-A'
  28   1.0000      -9.817718      -267.1537   13-A"
  29   1.0000      -9.812846      -267.0211   17-A'
  30   1.0000      -9.812388      -267.0086   14-A"
  31   1.0000      -9.810573      -266.9593   18-A'
  32   1.0000      -9.810120      -266.9469   15-A"
  33   1.0000      -9.808087      -266.8916   16-A"
  34   1.0000      -9.808082      -266.8915   19-A'
  35   1.0000      -9.808073      -266.8912   17-A"
  36   1.0000      -9.808072      -266.8912   20-A'
  37   1.0000      -7.343927      -199.8384   18-A"
  38   1.0000      -7.343273      -199.8206   19-A"
  39   1.0000      -7.336757      -199.6433   21-A'
  40   1.0000      -7.335909      -199.6202   22-A'
  41   1.0000      -5.407122      -147.1353   20-A"
  42   1.0000      -5.407104      -147.1348   23-A'
  43   1.0000      -5.406134      -147.1084   21-A"
  44   1.0000      -5.406117      -147.1079   24-A'
  45   1.0000      -5.401748      -146.9890   22-A"
  46   1.0000      -5.401724      -146.9884   25-A'
  47   1.0000      -5.401508      -146.9825   23-A"
  48   1.0000      -5.401481      -146.9818   26-A'
  49   1.0000      -5.400845      -146.9645   24-A"
  50   1.0000      -5.400819      -146.9638   27-A'
  51   1.0000      -5.400477      -146.9544   25-A"
  52   1.0000      -5.400451      -146.9537   28-A'
  53   1.0000      -4.024307      -109.5070   29-A'
  54   1.0000      -2.543854       -69.2218   26-A"
  55   1.0000      -2.542906       -69.1960   30-A'
  56   1.0000      -2.519428       -68.5571   31-A'
  57   1.0000      -1.746140       -47.5149   32-A'
  58   1.0000      -1.746111       -47.5141   27-A"
  59   1.0000      -1.745172       -47.4886   33-A'
  60   1.0000      -1.745143       -47.4878   28-A"
  61   1.0000      -1.743372       -47.4396   34-A'
  62   1.0000      -1.743291       -47.4374   29-A"
  63   1.0000      -1.742773       -47.4233   35-A'
  64   1.0000      -1.742766       -47.4231   30-A"
  65   1.0000      -1.742445       -47.4143   36-A'
  66   1.0000      -1.742364       -47.4121   31-A"
  67   1.0000      -1.741736       -47.3950   37-A'
  68   1.0000      -1.741728       -47.3948   32-A"
  69   1.0000      -1.738355       -47.3030   38-A'
  70   1.0000      -1.738323       -47.3022   33-A"
  71   1.0000      -1.738312       -47.3019   39-A'
  72   1.0000      -1.738253       -47.3003   34-A"
  73   1.0000      -1.737384       -47.2766   40-A'
  74   1.0000      -1.737346       -47.2756   35-A"
  75   1.0000      -1.737326       -47.2750   41-A'
  76   1.0000      -1.737273       -47.2736   36-A"
  77   1.0000      -0.604470       -16.4485   42-A'
  78   1.0000      -0.604256       -16.4426   43-A'
  79   1.0000      -0.522852       -14.2275   44-A'
  80   1.0000      -0.520709       -14.1692   45-A'
  81   1.0000      -0.500997       -13.6328   37-A"
  82   1.0000      -0.500218       -13.6116   38-A"
  83   1.0000      -0.414162       -11.2699   39-A"
  84   1.0000      -0.411300       -11.1920   40-A"
  85   1.0000      -0.383714       -10.4414   46-A'
  86   1.0000      -0.377690       -10.2775   47-A'
  87   1.0000      -0.322755        -8.7826   48-A'
  88   1.0000      -0.320494        -8.7211   49-A'
  89   1.0000      -0.286927        -7.8077   41-A"
  90   1.0000      -0.277712        -7.5569   42-A"
  91   1.0000      -0.228086        -6.2065   50-A'
  92   1.0000      -0.214851        -5.8464   51-A'
  93   1.0000      -0.201920        -5.4945   52-A'
  94   1.0000      -0.200705        -5.4615   53-A'
  95   1.0000      -0.170059        -4.6275   43-A"
  96   1.0000      -0.163904        -4.4601   44-A"
  97   1.0000      -0.143980        -3.9179   54-A'
  98   1.0000      -0.138836        -3.7779   45-A"
  99   1.0000      -0.133459        -3.6316   55-A'
 100   1.0000      -0.129852        -3.5334   46-A"
 101   1.0000      -0.128012        -3.4834   56-A'
 102   1.0000      -0.109875        -2.9898   57-A'
 103   1.0000      -0.085081        -2.3152   58-A'
 104   1.0000      -0.073074        -1.9884   47-A"
 105   1.0000      -0.067587        -1.8391   48-A"
 106   1.0000      -0.065860        -1.7921   59-A'
 107   1.0000      -0.049014        -1.3337   60-A'
 108   1.0000      -0.042680        -1.1614   61-A'
 109   1.0000      -0.034732        -0.9451   49-A"
 110   1.0000      -0.032473        -0.8836   50-A"
 111   1.0000      -0.029828        -0.8117   62-A'
 112   1.0000      -0.027663        -0.7527   51-A"
 113   1.0000      -0.003535        -0.0962   52-A"
 114   1.0000      -0.003489        -0.0949   63-A'
 115   1.0000      -0.001812        -0.0493   64-A'
 116   1.0000       0.016794         0.4570   65-A'
 117   1.0000       0.019046         0.5183   66-A'
 118   1.0000       0.038461         1.0466   53-A"
 119   1.0000       0.053708         1.4615   54-A"
 120   1.0000       0.055155         1.5008   55-A"
 121   1.0000       0.067295         1.8312   67-A'
 122   1.0000       0.096025         2.6130   68-A'
 123   1.0000       0.113921         3.1000   56-A"
 124   0.0000       0.180550         4.9130   69-A'
 125   0.0000       0.181236         4.9317   70-A'
 126   0.0000       0.195502         5.3199   71-A'
 127   0.0000       0.195634         5.3235   57-A"
 128   0.0000       0.197887         5.3848   58-A"

                 SPIN DOWN ORBITALS
  NO   OCC          E(Eh)            E(eV)    Irrep
   0   1.0000    -443.563087    -12069.9652    1-A"
   1   1.0000    -443.561951    -12069.9343    2-A"
   2   1.0000    -443.548580    -12069.5705    1-A'
   3   1.0000    -443.548460    -12069.5672    2-A'
   4   1.0000    -318.189321     -8658.3716    3-A'
   5   1.0000     -56.372145     -1533.9640    3-A"
   6   1.0000     -56.371849     -1533.9560    4-A"
   7   1.0000     -56.359512     -1533.6203    4-A'
   8   1.0000     -56.358903     -1533.6037    5-A'
   9   1.0000     -51.288729     -1395.6373    5-A"
  10   1.0000     -51.288673     -1395.6357    6-A'
  11   1.0000     -51.287986     -1395.6170    6-A"
  12   1.0000     -51.287931     -1395.6156    7-A'
  13   1.0000     -51.287049     -1395.5916    7-A"
  14   1.0000     -51.287000     -1395.5902    8-A'
  15   1.0000     -51.286963     -1395.5892    8-A"
  16   1.0000     -51.286914     -1395.5879    9-A'
  17   1.0000     -51.286285     -1395.5708    9-A"
  18   1.0000     -51.286243     -1395.5696   10-A"
  19   1.0000     -51.286237     -1395.5694   10-A'
  20   1.0000     -51.286192     -1395.5682   11-A'
  21   1.0000     -38.016152     -1034.4721   12-A'
  22   1.0000     -33.518890      -912.0954   11-A"
  23   1.0000     -33.518101      -912.0739   13-A'
  24   1.0000     -33.516250      -912.0235   14-A'
  25   1.0000      -9.822760      -267.2909   15-A'
  26   1.0000      -9.822315      -267.2788   12-A"
  27   1.0000      -9.818115      -267.1645   16-A'
  28   1.0000      -9.817667      -267.1523   13-A"
  29   1.0000      -9.812866      -267.0217   17-A'
  30   1.0000      -9.812407      -267.0092   14-A"
  31   1.0000      -9.810593      -266.9598   18-A'
  32   1.0000      -9.810138      -266.9474   15-A"
  33   1.0000      -9.807964      -266.8883   16-A"
  34   1.0000      -9.807960      -266.8882   19-A'
  35   1.0000      -9.807953      -266.8880   17-A"
  36   1.0000      -9.807951      -266.8879   20-A'
  37   1.0000      -7.343528      -199.8276   18-A"
  38   1.0000      -7.342872      -199.8097   19-A"
  39   1.0000      -7.336352      -199.6323   21-A'
  40   1.0000      -7.335500      -199.6091   22-A'
  41   1.0000      -5.406760      -147.1254   20-A"
  42   1.0000      -5.406740      -147.1249   23-A'
  43   1.0000      -5.405768      -147.0984   21-A"
  44   1.0000      -5.405749      -147.0979   24-A'
  45   1.0000      -5.401203      -146.9742   22-A"
  46   1.0000      -5.401177      -146.9735   25-A'
  47   1.0000      -5.400919      -146.9665   23-A"
  48   1.0000      -5.400894      -146.9658   26-A'
  49   1.0000      -5.400165      -146.9460   24-A"
  50   1.0000      -5.400138      -146.9452   27-A'
  51   1.0000      -5.400015      -146.9419   25-A"
  52   1.0000      -5.399990      -146.9412   28-A'
  53   1.0000      -3.996139      -108.7405   29-A'
  54   1.0000      -2.509139       -68.2771   30-A'
  55   1.0000      -2.508681       -68.2647   26-A"
  56   1.0000      -2.507658       -68.2368   31-A'
  57   1.0000      -1.745696       -47.5028   32-A'
  58   1.0000      -1.745667       -47.5020   27-A"
  59   1.0000      -1.744722       -47.4763   33-A'
  60   1.0000      -1.744692       -47.4755   28-A"
  61   1.0000      -1.742509       -47.4161   34-A'
  62   1.0000      -1.742467       -47.4150   29-A"
  63   1.0000      -1.742434       -47.4140   35-A'
  64   1.0000      -1.742385       -47.4127   30-A"
  65   1.0000      -1.741547       -47.3899   36-A'
  66   1.0000      -1.741468       -47.3878   31-A"
  67   1.0000      -1.741422       -47.3865   37-A'
  68   1.0000      -1.741409       -47.3862   32-A"
  69   1.0000      -1.737581       -47.2820   38-A'
  70   1.0000      -1.737556       -47.2813   33-A"
  71   1.0000      -1.737517       -47.2803   39-A'
  72   1.0000      -1.737458       -47.2786   34-A"
  73   1.0000      -1.736606       -47.2555   40-A'
  74   1.0000      -1.736576       -47.2546   35-A"
  75   1.0000      -1.736527       -47.2533   41-A'
  76   1.0000      -1.736473       -47.2518   36-A"
  77   1.0000      -0.603643       -16.4260   42-A'
  78   1.0000      -0.603440       -16.4204   43-A'
  79   1.0000      -0.521708       -14.1964   44-A'
  80   1.0000      -0.519580       -14.1385   45-A'
  81   1.0000      -0.499278       -13.5861   37-A"
  82   1.0000      -0.498464       -13.5639   38-A"
  83   1.0000      -0.411452       -11.1962   39-A"
  84   1.0000      -0.408555       -11.1173   40-A"
  85   1.0000      -0.381199       -10.3730   46-A'
  86   1.0000      -0.375294       -10.2123   47-A'
  87   1.0000      -0.321025        -8.7355   48-A'
  88   1.0000      -0.318588        -8.6692   49-A'
  89   1.0000      -0.284426        -7.7396   41-A"
  90   1.0000      -0.274998        -7.4831   42-A"
  91   1.0000      -0.226950        -6.1756   50-A'
  92   1.0000      -0.213798        -5.8177   51-A'
  93   1.0000      -0.200629        -5.4594   52-A'
  94   1.0000      -0.199474        -5.4280   53-A'
  95   1.0000      -0.168584        -4.5874   43-A"
  96   1.0000      -0.162312        -4.4167   44-A"
  97   1.0000      -0.142685        -3.8827   54-A'
  98   1.0000      -0.137654        -3.7457   45-A"
  99   1.0000      -0.132914        -3.6168   55-A'
 100   1.0000      -0.127969        -3.4822   46-A"
 101   1.0000      -0.126910        -3.4534   56-A'
 102   1.0000      -0.108332        -2.9479   57-A'
 103   1.0000      -0.083790        -2.2800   58-A'
 104   1.0000      -0.071673        -1.9503   47-A"
 105   1.0000      -0.063666        -1.7324   59-A'
 106   1.0000      -0.056504        -1.5375   48-A"
 107   1.0000      -0.048086        -1.3085   60-A'
 108   1.0000      -0.041097        -1.1183   61-A'
 109   1.0000      -0.032130        -0.8743   49-A"
 110   1.0000      -0.026548        -0.7224   50-A"
 111   1.0000      -0.024082        -0.6553   62-A'
 112   1.0000      -0.004595        -0.1250   51-A"
 113   1.0000       0.006018         0.1638   52-A"
 114   1.0000       0.007552         0.2055   63-A'
 115   1.0000       0.008545         0.2325   64-A'
 116   1.0000       0.027198         0.7401   65-A'
 117   1.0000       0.029617         0.8059   66-A'
 118   1.0000       0.049678         1.3518   53-A"
 119   1.0000       0.055769         1.5176   54-A"
 120   1.0000       0.058464         1.5909   55-A"
 121   1.0000       0.069045         1.8788   67-A'
 122   1.0000       0.099272         2.7013   68-A'
 123   0.0000       0.143679         3.9097   56-A"
 124   0.0000       0.181854         4.9485   69-A'
 125   0.0000       0.183054         4.9812   70-A'
 126   0.0000       0.195767         5.3271   71-A'
 127   0.0000       0.198729         5.4077   57-A"

MULLIKEN ATOMIC CHARGES AND SPIN POPULATIONS
--------------------------------------------
   0 Cu:    0.638036    0.309622
   1 Se:   -0.720965    0.172658
   2 C :    0.225040   -0.003091
   3 Se:   -0.730316    0.174311
   4 C :    0.222340   -0.003233
   5 Se:   -0.720965    0.172658
   6 C :    0.225040   -0.003091
   7 Se:   -0.730316    0.174311
   8 C :    0.222340   -0.003233
   9 C :   -0.099717   -0.001354
  10 C :   -0.099717   -0.001354
  11 C :   -0.153785   -0.000663
  12 H :    0.092576    0.002675
  13 C :   -0.153785   -0.000663
  14 H :    0.092576    0.002675
  15 H :    0.012567    0.001608
  16 H :    0.012567    0.001608
  17 C :   -0.079334   -0.001218
  18 C :   -0.079334   -0.001218
  19 C :   -0.141636   -0.000974
  20 H :    0.095409    0.002582
  21 C :   -0.141636   -0.000974
  22 H :    0.095409    0.002582
  23 H :   -0.041196    0.001889
  24 H :   -0.041196    0.001889
Sum of atomic charges         :   -2.0000000

LOEWDIN ATOMIC CHARGES AND SPIN POPULATIONS
-------------------------------------------
   0 Cu:   -0.614647    0.390090
   1 Se:   -0.197953    0.123062
   2 C :    0.041955    0.011722
   3 Se:   -0.200648    0.124031
   4 C :    0.039037    0.011810
   5 Se:   -0.197953    0.123062
   6 C :    0.041955    0.011722
   7 Se:   -0.200648    0.124031
   8 C :    0.039037    0.011810
   9 C :    0.369719    0.006965
  10 C :    0.369719    0.006965
  11 C :    0.312545    0.000437
  12 H :   -0.460379    0.009418
  13 C :    0.312545    0.000437
  14 H :   -0.460379    0.009418
  15 H :   -0.403230    0.000411
  16 H :   -0.403230    0.000411
  17 C :    0.356449    0.006991
  18 C :    0.356449    0.006991
  19 C :    0.259325    0.000201
  20 H :   -0.466264    0.009252
  21 C :    0.259325    0.000201
  22 H :   -0.466264    0.009252
  23 H :   -0.343233    0.000653
  24 H :   -0.343233    0.000653

  Mayer bond orders larger than 0.100000
B(  0-Cu,  1-Se) :   0.5474 B(  0-Cu,  3-Se) :   0.5526 B(  0-Cu,  5-Se) :   0.5474
B(  0-Cu,  7-Se) :   0.5526 B(  1-Se,  2-C ) :   1.0425 B(  2-C ,  6-C ) :   1.1253
B(  2-C , 17-C ) :   1.2665 B(  3-Se,  4-C ) :   1.0394 B(  4-C ,  8-C ) :   1.1329
B(  4-C , 10-C ) :   1.2584 B(  5-Se,  6-C ) :   1.0425 B(  6-C , 18-C ) :   1.2665
B(  7-Se,  8-C ) :   1.0394 B(  8-C ,  9-C ) :   1.2584 B(  9-C , 13-C ) :   1.3775
B(  9-C , 14-H ) :   0.9593 B( 10-C , 11-C ) :   1.3775 B( 10-C , 12-H ) :   0.9593
B( 11-C , 13-C ) :   1.3120 B( 11-C , 15-H ) :   1.0007 B( 13-C , 16-H ) :   1.0007
B( 17-C , 19-C ) :   1.3630 B( 17-C , 20-H ) :   0.9553 B( 18-C , 21-C ) :   1.3630
B( 18-C , 22-H ) :   0.9553 B( 19-C , 21-C ) :   1.3141 B( 19-C , 23-H ) :   1.0204
B( 21-C , 24-H ) :   1.0204

FINAL SINGLE POINT ENERGY    -11627.114791999249

DIPOLE MOMENT
-------------
                                X             Y             Z
Electronic contribution:      0.41536      -0.73950       0.00000
Nuclear contribution   :     -0.79129       0.57721      -0.00000
                        -----------------------------------------
Total Dipole Moment    :     -0.37593      -0.16229       0.00000
                        -----------------------------------------
Magnitude (a.u.)       :      0.40946
Magnitude (Debye)      :      1.04077

Rotational constants in cm-1:     0.017604     0.004097     0.003325
Rotational constants in MHz :   527.763196   122.832874    99.666039

                             ****ORCA TERMINATED NORMALLY****
TOTAL RUN TIME: 0 days 17 hours 4 minutes 22 seconds 783 msec
