                         Program Version 5.0.4 -  RELEASE  -
|  1> ! RIJCOSX nofrozencore ReducedPop printbasis
|  2> ! M06L ano-rcc-dzp autoaux
|  3>
|  4> %maxcore 7500
|  5> %basis
|  6> PCDTrimBas overlap
|  7> PCDTrimAuxJ Coulomb
|  8> PCDTrimAuxJK Coulomb
|  9> PCDTrimAuxC Coulomb
| 10> PCDThresh -1
| 11> end
| 12>
| 13> %basis
| 14> newgto Cu "ano-rcc-tzp" end
| 15> newgto Se "ano-rcc-tzp" end
| 16> end
| 17>
| 18> %pal
| 19> nprocs 8
| 20> end
| 21>
| 22> % sym SymThresh 1e-2 end
| 23> * xyz -2 2
| 24> Cu 2.133174754323081e-05 -5.689291977625976e-05 5.399280144976488e-06
| 25> Se -1.0712030282322582 -0.7065778995834153 -1.9932153735151976
| 26> C -0.0016536546896535208 -0.35472632941090015 -3.18328699305024
| 27> Se -1.8392344351250545 -0.4381228183225993 1.4300006816856012
| 28> C -1.268652816206785 -0.14486770627327566 2.93746247245794
| 29> Se 1.763749773388266 0.6394444773111985 -1.4491066098117307
| 30> C 1.2347024657397847 0.23541511977423307 -2.9460556480906432
| 31> Se 1.1466929354807376 0.5052422505325761 2.012322629333166
| 32> C 0.03557113328339051 0.2642665869666471 3.1918718484807527
| 33> C 0.37973405763307516 0.469631816690932 4.524482813344979
| 34> C -2.102706363467073 -0.3028705869998378 4.040122332705713
| 35> C -1.7576273045698605 -0.09528457498647072 5.359355410086659
| 36> H -3.1189914859986074 -0.6154954883585677 3.833435563856062
| 37> C -0.4500284574914672 0.3089526526237064 5.614538069684239
| 38> H 1.3992438737792183 0.7819266014190649 4.715176774495475
| 39> H -2.4884096240378697 -0.2473026385085276 6.147968399432485
| 40> H -0.07976617817963891 0.4958450031609436 6.618054444712807
| 41> C -0.3131179601754492 -0.6473000302019422 -4.507622638247364
| 42> C 2.0360471002999323 0.48065443260493756 -4.056994463569239
| 43> C 0.48596180856478055 -0.40478832873850285 -5.605444006716466
| 44> H -1.2751873251009216 -1.1127915924836704 -4.683777842684857
| 45> C 1.721630657655476 0.19128906451896394 -5.36846549386929
| 46> H 2.9948963177209285 0.9464639867966549 -3.8648453007663326
| 47> H 0.1464883874870709 -0.6737967295129241 -6.601166381547213
| 48> H 2.4216153956559654 0.42544873970064007 -6.16487371584229
| 49> *
| 50>
| 51> % eprnmr
| 52> gtensor true
| 53> Nuclei = all H {aiso,adip,aorb,fgrad,rho}
| 54> Nuclei = all Cu {aiso,adip,aorb,fgrad,rho}
| 55> end
| 56>
| 57>                          ****END OF INPUT****

CARTESIAN COORDINATES (ANGSTROEM)
---------------------------------
  Cu     0.000000    0.000000    0.000000
  Se    -1.588883   -0.107931   -1.755969
  C     -0.693488   -0.048518   -3.126639
  Se    -1.588883    0.107931    1.755969
  C     -0.693488    0.048518    3.126639
  Se     1.588883    0.107931   -1.755969
  C      0.693488    0.048518   -3.126639
  Se     1.588883   -0.107931    1.755969
  C      0.693488   -0.048518    3.126639
  C      1.318862   -0.095278    4.368893
  C     -1.318862    0.095278    4.368893
  C     -0.694220    0.051422    5.597896
  H     -2.398899    0.177403    4.360734
  C      0.694220   -0.051422    5.597896
  H      2.398899   -0.177403    4.360734
  H     -1.278516    0.095451    6.512078
  H      1.278516   -0.095451    6.512078
  C     -1.318862   -0.095278   -4.368893
  C      1.318862    0.095278   -4.368893
  C     -0.694220   -0.051422   -5.597896
  H     -2.398899   -0.177403   -4.360734
  C      0.694220    0.051422   -5.597896
  H      2.398899    0.177403   -4.360734
  H     -1.278516   -0.095451   -6.512078
  H      1.278516    0.095451   -6.512078

 Total Charge           Charge          ....   -2
 Multiplicity           Mult            ....    2
 Number of Electrons    NEL             ....  247
 Basis Dimension        Dim             ....  575

ORBITAL ENERGIES
----------------
                 SPIN UP ORBITALS
  NO   OCC          E(Eh)            E(eV)    Irrep
   0   1.0000    -443.561288    -12069.9163    1-B2
   1   1.0000    -443.560210    -12069.8869    1-B3
   2   1.0000    -443.546600    -12069.5166    1-A
   3   1.0000    -443.546538    -12069.5149    1-B1
   4   1.0000    -318.186606     -8658.2977    2-A
   5   1.0000     -56.369905     -1533.9031    2-B2
   6   1.0000     -56.369604     -1533.8949    2-B3
   7   1.0000     -56.356930     -1533.5500    3-A
   8   1.0000     -56.356670     -1533.5429    2-B1
   9   1.0000     -51.286081     -1395.5652    3-B3
  10   1.0000     -51.286017     -1395.5635    3-B1
  11   1.0000     -51.286015     -1395.5634    3-B2
  12   1.0000     -51.285984     -1395.5626    4-A
  13   1.0000     -51.284719     -1395.5282    4-B3
  14   1.0000     -51.284712     -1395.5280    4-B2
  15   1.0000     -51.284675     -1395.5270    4-B1
  16   1.0000     -51.284644     -1395.5261    5-A
  17   1.0000     -51.284278     -1395.5161    6-A
  18   1.0000     -51.284251     -1395.5154    5-B1
  19   1.0000     -51.284234     -1395.5150    5-B2
  20   1.0000     -51.284200     -1395.5140    5-B3
  21   1.0000     -38.027177     -1034.7721    7-A
  22   1.0000     -33.529282      -912.3781    6-B2
  23   1.0000     -33.528494      -912.3567    6-B1
  24   1.0000     -33.517223      -912.0500    6-B3
  25   1.0000      -9.816391      -267.1176    7-B1
  26   1.0000      -9.816391      -267.1176    8-A
  27   1.0000      -9.815958      -267.1058    7-B3
  28   1.0000      -9.815958      -267.1058    7-B2
  29   1.0000      -9.808869      -266.9129    8-B1
  30   1.0000      -9.808863      -266.9127    9-A
  31   1.0000      -9.808431      -266.9010    8-B3
  32   1.0000      -9.808429      -266.9009    8-B2
  33   1.0000      -9.806977      -266.8614    9-B1
  34   1.0000      -9.806976      -266.8614   10-A
  35   1.0000      -9.806974      -266.8613    9-B3
  36   1.0000      -9.806973      -266.8613    9-B2
  37   1.0000      -7.340972      -199.7580   10-B2
  38   1.0000      -7.340920      -199.7566   10-B3
  39   1.0000      -7.333664      -199.5591   11-A
  40   1.0000      -7.333554      -199.5561   10-B1
  41   1.0000      -5.403899      -147.0476   11-B3
  42   1.0000      -5.403872      -147.0468   11-B1
  43   1.0000      -5.403860      -147.0465   11-B2
  44   1.0000      -5.403851      -147.0463   12-A
  45   1.0000      -5.398592      -146.9032   12-B3
  46   1.0000      -5.398590      -146.9031   12-B2
  47   1.0000      -5.398576      -146.9027   12-B1
  48   1.0000      -5.398562      -146.9023   13-A
  49   1.0000      -5.398175      -146.8918   14-A
  50   1.0000      -5.398162      -146.8915   13-B1
  51   1.0000      -5.398155      -146.8913   13-B2
  52   1.0000      -5.398137      -146.8908   13-B3
  53   1.0000      -4.021510      -109.4308   15-A
  54   1.0000      -2.541114       -69.1472   14-B2
  55   1.0000      -2.540175       -69.1217   14-B1
  56   1.0000      -2.516522       -68.4780   14-B3
  57   1.0000      -1.742906       -47.4269   16-A
  58   1.0000      -1.742892       -47.4265   15-B1
  59   1.0000      -1.742876       -47.4261   15-B2
  60   1.0000      -1.742865       -47.4258   15-B3
  61   1.0000      -1.740204       -47.3534   17-A
  62   1.0000      -1.740185       -47.3529   16-B1
  63   1.0000      -1.740121       -47.3511   16-B2
  64   1.0000      -1.740110       -47.3508   16-B3
  65   1.0000      -1.739444       -47.3327   17-B3
  66   1.0000      -1.739442       -47.3326   17-B2
  67   1.0000      -1.739438       -47.3325   17-B1
  68   1.0000      -1.739435       -47.3324   18-A
  69   1.0000      -1.735093       -47.2143   19-A
  70   1.0000      -1.735085       -47.2141   18-B1
  71   1.0000      -1.735057       -47.2133   18-B3
  72   1.0000      -1.735055       -47.2132   18-B2
  73   1.0000      -1.735024       -47.2124   20-A
  74   1.0000      -1.735021       -47.2123   19-B1
  75   1.0000      -1.735015       -47.2122   19-B3
  76   1.0000      -1.735012       -47.2121   19-B2
  77   1.0000      -0.601721       -16.3737   21-A
  78   1.0000      -0.601519       -16.3682   20-B1
  79   1.0000      -0.520623       -14.1669   22-A
  80   1.0000      -0.519885       -14.1468   21-B1
  81   1.0000      -0.499266       -13.5857   20-B2
  82   1.0000      -0.499030       -13.5793   20-B3
  83   1.0000      -0.413072       -11.2403   21-B2
  84   1.0000      -0.411945       -11.2096   21-B3
  85   1.0000      -0.382624       -10.4117   23-A
  86   1.0000      -0.378114       -10.2890   22-B1
  87   1.0000      -0.320161        -8.7120   24-A
  88   1.0000      -0.317911        -8.6508   23-B1
  89   1.0000      -0.287560        -7.8249   22-B2
  90   1.0000      -0.284381        -7.7384   22-B3
  91   1.0000      -0.229399        -6.2423   25-A
  92   1.0000      -0.222795        -6.0626   24-B1
  93   1.0000      -0.199988        -5.4419   26-A
  94   1.0000      -0.198962        -5.4140   25-B1
  95   1.0000      -0.170480        -4.6390   23-B2
  96   1.0000      -0.165707        -4.5091   23-B3
  97   1.0000      -0.138973        -3.7817   24-B2
  98   1.0000      -0.137301        -3.7361   24-B3
  99   1.0000      -0.136082        -3.7030   27-A
 100   1.0000      -0.129849        -3.5334   25-B3
 101   1.0000      -0.129645        -3.5278   25-B2
 102   1.0000      -0.110405        -3.0043   26-B1
 103   1.0000      -0.082081        -2.2335   28-A
 104   1.0000      -0.071496        -1.9455   26-B2
 105   1.0000      -0.065511        -1.7827   26-B3
 106   1.0000      -0.062723        -1.7068   27-B1
 107   1.0000      -0.048009        -1.3064   27-B2
 108   1.0000      -0.047218        -1.2849   27-B3
 109   1.0000      -0.033122        -0.9013   28-B1
 110   1.0000      -0.030052        -0.8178   28-B3
 111   1.0000      -0.029005        -0.7893   29-A
 112   1.0000      -0.027235        -0.7411   30-A
 113   1.0000      -0.001553        -0.0423   29-B1
 114   1.0000      -0.000755        -0.0206   28-B2
 115   1.0000       0.000841         0.0229   31-A
 116   1.0000       0.019413         0.5283   32-A
 117   1.0000       0.021542         0.5862   30-B1
 118   1.0000       0.040916         1.1134   29-B2
 119   1.0000       0.054907         1.4941   33-A
 120   1.0000       0.056004         1.5239   31-B1
 121   1.0000       0.070977         1.9314   29-B3
 122   1.0000       0.099503         2.7076   30-B2
 123   1.0000       0.115729         3.1491   30-B3
 124   0.0000       0.182275         4.9600   32-B1
 125   0.0000       0.182408         4.9636   34-A
 126   0.0000       0.196210         5.3392   31-B3
 127   0.0000       0.196640         5.3508   31-B2
 128   0.0000       0.202060         5.4983   32-B3

                 SPIN DOWN ORBITALS
  NO   OCC          E(Eh)            E(eV)    Irrep
   0   1.0000    -443.560836    -12069.9040    1-B2
   1   1.0000    -443.559758    -12069.8746    1-B3
   2   1.0000    -443.546149    -12069.5043    1-A
   3   1.0000    -443.546087    -12069.5026    1-B1
   4   1.0000    -318.186482     -8658.2944    2-A
   5   1.0000     -56.369722     -1533.8981    2-B2
   6   1.0000     -56.369421     -1533.8899    2-B3
   7   1.0000     -56.356750     -1533.5451    3-A
   8   1.0000     -56.356489     -1533.5380    2-B1
   9   1.0000     -51.285761     -1395.5565    3-B3
  10   1.0000     -51.285693     -1395.5547    3-B2
  11   1.0000     -51.285689     -1395.5545    3-B1
  12   1.0000     -51.285656     -1395.5536    4-A
  13   1.0000     -51.284033     -1395.5095    5-A
  14   1.0000     -51.284004     -1395.5087    4-B1
  15   1.0000     -51.283992     -1395.5084    4-B2
  16   1.0000     -51.283986     -1395.5082    4-B3
  17   1.0000     -51.283971     -1395.5078    5-B2
  18   1.0000     -51.283948     -1395.5072    5-B3
  19   1.0000     -51.283946     -1395.5071    5-B1
  20   1.0000     -51.283912     -1395.5062    6-A
  21   1.0000     -38.013262     -1034.3935    7-A
  22   1.0000     -33.516059      -912.0183    6-B2
  23   1.0000     -33.515271      -911.9969    6-B1
  24   1.0000     -33.513336      -911.9442    6-B3
  25   1.0000      -9.816341      -267.1162    7-B1
  26   1.0000      -9.816340      -267.1162    8-A
  27   1.0000      -9.815907      -267.1044    7-B3
  28   1.0000      -9.815907      -267.1044    7-B2
  29   1.0000      -9.808888      -266.9134    8-B1
  30   1.0000      -9.808881      -266.9132    9-A
  31   1.0000      -9.808447      -266.9014    8-B3
  32   1.0000      -9.808445      -266.9014    8-B2
  33   1.0000      -9.806857      -266.8582    9-B1
  34   1.0000      -9.806857      -266.8581   10-A
  35   1.0000      -9.806856      -266.8581    9-B3
  36   1.0000      -9.806855      -266.8581    9-B2
  37   1.0000      -7.340573      -199.7472   10-B2
  38   1.0000      -7.340523      -199.7458   10-B3
  39   1.0000      -7.333259      -199.5481   11-A
  40   1.0000      -7.333148      -199.5451   10-B1
  41   1.0000      -5.403538      -147.0377   11-B3
  42   1.0000      -5.403509      -147.0370   11-B1
  43   1.0000      -5.403498      -147.0366   11-B2
  44   1.0000      -5.403488      -147.0364   12-A
  45   1.0000      -5.397916      -146.8848   13-A
  46   1.0000      -5.397902      -146.8844   12-B1
  47   1.0000      -5.397898      -146.8843   12-B2
  48   1.0000      -5.397884      -146.8839   12-B3
  49   1.0000      -5.397713      -146.8792   13-B2
  50   1.0000      -5.397711      -146.8792   13-B3
  51   1.0000      -5.397703      -146.8790   13-B1
  52   1.0000      -5.397687      -146.8785   14-A
  53   1.0000      -3.993182      -108.6600   15-A
  54   1.0000      -2.506179       -68.1966   14-B3
  55   1.0000      -2.505749       -68.1849   14-B2
  56   1.0000      -2.504741       -68.1575   14-B1
  57   1.0000      -1.742458       -47.4147   16-A
  58   1.0000      -1.742445       -47.4143   15-B1
  59   1.0000      -1.742429       -47.4139   15-B2
  60   1.0000      -1.742418       -47.4136   15-B3
  61   1.0000      -1.739317       -47.3292   17-A
  62   1.0000      -1.739299       -47.3287   16-B1
  63   1.0000      -1.739236       -47.3270   16-B2
  64   1.0000      -1.739225       -47.3267   16-B3
  65   1.0000      -1.739129       -47.3241   17-B3
  66   1.0000      -1.739128       -47.3241   17-B2
  67   1.0000      -1.739126       -47.3240   17-B1
  68   1.0000      -1.739124       -47.3240   18-A
  69   1.0000      -1.734297       -47.1926   19-A
  70   1.0000      -1.734292       -47.1925   18-B3
  71   1.0000      -1.734290       -47.1924   18-B1
  72   1.0000      -1.734289       -47.1924   18-B2
  73   1.0000      -1.734256       -47.1915   20-A
  74   1.0000      -1.734252       -47.1914   19-B1
  75   1.0000      -1.734221       -47.1906   19-B3
  76   1.0000      -1.734218       -47.1905   19-B2
  77   1.0000      -0.600911       -16.3516   21-A
  78   1.0000      -0.600722       -16.3465   20-B1
  79   1.0000      -0.519478       -14.1357   22-A
  80   1.0000      -0.518776       -14.1166   21-B1
  81   1.0000      -0.497574       -13.5397   20-B2
  82   1.0000      -0.497354       -13.5337   20-B3
  83   1.0000      -0.410402       -11.1676   21-B2
  84   1.0000      -0.409255       -11.1364   21-B3
  85   1.0000      -0.380128       -10.3438   23-A
  86   1.0000      -0.375803       -10.2261   22-B1
  87   1.0000      -0.318417        -8.6646   24-A
  88   1.0000      -0.316012        -8.5991   23-B1
  89   1.0000      -0.285169        -7.7598   22-B2
  90   1.0000      -0.281742        -7.6666   22-B3
  91   1.0000      -0.228262        -6.2113   25-A
  92   1.0000      -0.221720        -6.0333   24-B1
  93   1.0000      -0.198695        -5.4068   26-A
  94   1.0000      -0.197746        -5.3809   25-B1
  95   1.0000      -0.169054        -4.6002   23-B2
  96   1.0000      -0.163674        -4.4538   23-B3
  97   1.0000      -0.138083        -3.7574   24-B2
  98   1.0000      -0.135619        -3.6904   24-B3
  99   1.0000      -0.134114        -3.6494   27-A
 100   1.0000      -0.129468        -3.5230   25-B3
 101   1.0000      -0.129236        -3.5167   25-B2
 102   1.0000      -0.108672        -2.9571   26-B1
 103   1.0000      -0.080718        -2.1964   28-A
 104   1.0000      -0.070029        -1.9056   26-B2
 105   1.0000      -0.060536        -1.6473   27-B1
 106   1.0000      -0.054205        -1.4750   26-B3
 107   1.0000      -0.046835        -1.2745   27-B2
 108   1.0000      -0.046581        -1.2675   27-B3
 109   1.0000      -0.030785        -0.8377   28-B1
 110   1.0000      -0.026298        -0.7156   29-A
 111   1.0000      -0.022501        -0.6123   30-A
 112   1.0000      -0.001948        -0.0530   28-B3
 113   1.0000       0.008161         0.2221   29-B1
 114   1.0000       0.010456         0.2845   28-B2
 115   1.0000       0.011189         0.3045   31-A
 116   1.0000       0.029739         0.8092   30-B1
 117   1.0000       0.032251         0.8776   32-A
 118   1.0000       0.052148         1.4190   29-B2
 119   1.0000       0.056885         1.5479   33-A
 120   1.0000       0.059629         1.6226   31-B1
 121   1.0000       0.072722         1.9789   29-B3
 122   1.0000       0.102750         2.7960   30-B2
 123   0.0000       0.145539         3.9603   30-B3
 124   0.0000       0.184187         5.0120   32-B1
 125   0.0000       0.184339         5.0161   34-A
 126   0.0000       0.199474         5.4280   31-B3
 127   0.0000       0.199997         5.4422   31-B2

MULLIKEN ATOMIC CHARGES AND SPIN POPULATIONS
--------------------------------------------
   0 Cu:    0.634421    0.311461
   1 Se:   -0.731028    0.172991
   2 C :    0.219930   -0.003273
   3 Se:   -0.731028    0.172991
   4 C :    0.219930   -0.003273
   5 Se:   -0.731028    0.172991
   6 C :    0.219930   -0.003273
   7 Se:   -0.731028    0.172991
   8 C :    0.219930   -0.003273
   9 C :   -0.099751   -0.001293
  10 C :   -0.099751   -0.001293
  11 C :   -0.157325   -0.000636
  12 H :    0.088508    0.002748
  13 C :   -0.157325   -0.000636
  14 H :    0.088508    0.002748
  15 H :    0.021060    0.001598
  16 H :    0.021060    0.001598
  17 C :   -0.099751   -0.001293
  18 C :   -0.099751   -0.001293
  19 C :   -0.157325   -0.000636
  20 H :    0.088508    0.002748
  21 C :   -0.157325   -0.000636
  22 H :    0.088508    0.002748
  23 H :    0.021060    0.001598
  24 H :    0.021060    0.001598
Sum of atomic charges         :   -2.0000000

LOEWDIN ATOMIC CHARGES AND SPIN POPULATIONS
-------------------------------------------
   0 Cu:   -0.617367    0.391528
   1 Se:   -0.203020    0.123181
   2 C :    0.038975    0.011697
   3 Se:   -0.203020    0.123181
   4 C :    0.038975    0.011697
   5 Se:   -0.203020    0.123181
   6 C :    0.038975    0.011697
   7 Se:   -0.203020    0.123181
   8 C :    0.038975    0.011697
   9 C :    0.368888    0.006972
  10 C :    0.368888    0.006972
  11 C :    0.319429    0.000494
  12 H :   -0.457215    0.009375
  13 C :    0.319429    0.000494
  14 H :   -0.457215    0.009375
  15 H :   -0.412716    0.000399
  16 H :   -0.412716    0.000399
  17 C :    0.368888    0.006972
  18 C :    0.368888    0.006972
  19 C :    0.319429    0.000494
  20 H :   -0.457215    0.009375
  21 C :    0.319429    0.000494
  22 H :   -0.457215    0.009375
  23 H :   -0.412716    0.000399
  24 H :   -0.412716    0.000399

  Mayer bond orders larger than 0.100000
B(  0-Cu,  1-Se) :   0.5515 B(  0-Cu,  3-Se) :   0.5515 B(  0-Cu,  5-Se) :   0.5515
B(  0-Cu,  7-Se) :   0.5515 B(  1-Se,  2-C ) :   1.0378 B(  2-C ,  6-C ) :   1.1354
B(  2-C , 17-C ) :   1.2577 B(  3-Se,  4-C ) :   1.0378 B(  4-C ,  8-C ) :   1.1354
B(  4-C , 10-C ) :   1.2577 B(  5-Se,  6-C ) :   1.0378 B(  6-C , 18-C ) :   1.2577
B(  7-Se,  8-C ) :   1.0378 B(  8-C ,  9-C ) :   1.2577 B(  9-C , 13-C ) :   1.3793
B(  9-C , 14-H ) :   0.9619 B( 10-C , 11-C ) :   1.3793 B( 10-C , 12-H ) :   0.9619
B( 11-C , 13-C ) :   1.3118 B( 11-C , 15-H ) :   0.9955 B( 13-C , 16-H ) :   0.9955
B( 17-C , 19-C ) :   1.3793 B( 17-C , 20-H ) :   0.9619 B( 18-C , 21-C ) :   1.3793
B( 18-C , 22-H ) :   0.9619 B( 19-C , 21-C ) :   1.3118 B( 19-C , 23-H ) :   0.9955
B( 21-C , 24-H ) :   0.9955

FINAL SINGLE POINT ENERGY    -11627.147132617194

DIPOLE MOMENT
-------------
                                X             Y             Z
Electronic contribution:      0.00000       0.00000      -0.00000
Nuclear contribution   :     -0.00000       0.00000      -0.00000
                        -----------------------------------------
Total Dipole Moment    :      0.00000       0.00000      -0.00000
                        -----------------------------------------
Magnitude (a.u.)       :      0.00000
Magnitude (Debye)      :      0.00000

Rotational constants in cm-1:     0.017533     0.004093     0.003325
Rotational constants in MHz :   525.618912   122.716351    99.666038

                             ****ORCA TERMINATED NORMALLY****
TOTAL RUN TIME: 0 days 17 hours 9 minutes 14 seconds 912 msec
