                         Program Version 5.0.4 -  RELEASE  -
|  1> ! RIJCOSX nofrozencore ReducedPop printbasis
|  2> ! M06L ano-rcc-dzp autoaux
|  3>
|  4> %maxcore 7500
|  5> %basis
|  6> PCDTrimBas overlap
|  7> PCDTrimAuxJ Coulomb
|  8> PCDTrimAuxJK Coulomb
|  9> PCDTrimAuxC Coulomb
| 10> PCDThresh -1
| 11> end
| 12>
| 13> %basis
| 14> newgto Cu "ano-rcc-tzp" end
| 15> newgto Se "ano-rcc-tzp" end
| 16> end
| 17>
| 18> %pal
| 19> nprocs 8
| 20> end
| 21>
| 22> % sym SymThresh 1e-2 end
| 23> * xyz -2 2
| 24> Cu -0.0012090425923444443 -0.0006056608203282124 -0.0005568078489177233
| 25> Se -2.06155703376891 0.6051914569073807 0.9926345456552762
| 26> C -1.603529226509985 1.6693144503222666 2.193242649013455
| 27> Se -0.9225629490184751 -1.4701744113478725 -1.6200763302252985
| 28> C 0.22929038965458806 -2.087860407501737 -2.5061473409214647
| 29> Se 0.934274676336285 1.4645437884489396 1.6118375105280798
| 30> C -0.3022708669139248 2.037548243782254 2.456231794136286
| 31> Se 2.0683017965914186 -0.5926903620809316 -0.9787120567036471
| 32> C 1.5506409682681925 -1.6976100608452873 -2.219734226850175
| 33> C 2.6512133773637445 -2.2333431710102705 -3.001792354124335
| 34> C -0.006480537875646228 -2.9431121774716664 -3.4887523438065693
| 35> C 1.1191184210169012 -3.369272635768702 -4.144230529226247
| 36> H -0.9731586217298718 -3.3173272498814232 -3.8034751555271096
| 37> C 2.5168113597161526 -3.159150181324636 -4.081579214174981
| 38> H 3.6145094566162688 -1.8250296302944613 -2.6461881012225548
| 39> H 0.8254425284459063 -4.064469090464349 -4.9293336044547384
| 40> H 3.2323460805879005 -3.6470130613423586 -4.755502497486074
| 41> C -2.6062059162244795 2.218932365820524 2.9787004465249023
| 42> C -0.09697656261866186 2.932704035139615 3.4902153925092487
| 43> C -2.443759833979747 3.1222551724862777 4.028084658036989
| 44> H -3.6038929585613864 1.887426710145548 2.7187535853118088
| 45> C -1.112718750634435 3.472603334502376 4.265893207477248
| 46> H 0.9150248286889773 3.234148138711496 3.7126055681963677
| 47> H -3.28420197737992 3.5045502375340707 4.593512544299267
| 48> H -0.8459593071259709 4.168548384291753 5.055483023755749
| 49> *
| 50>
| 51> % eprnmr
| 52> gtensor true
| 53> Nuclei = all H {aiso,adip,aorb,fgrad,rho}
| 54> Nuclei = all Cu {aiso,adip,aorb,fgrad,rho}
| 55> end
| 56>
| 57>                          ****END OF INPUT****

CARTESIAN COORDINATES (ANGSTROEM)
---------------------------------
  Cu    -0.000772   -0.001242    0.000000
  Se     1.222871   -2.026372    0.000000
  C      2.809070   -1.509091    0.000000
  Se    -2.151438   -1.004241    0.000000
  C     -3.268011    0.112310    0.000000
  Se     2.141091    1.015630    0.000000
  C      3.200106   -0.188060    0.000000
  Se    -1.204425    2.033812    0.000000
  C     -2.845623    1.454653    0.000000
  C     -3.828080    2.524542    0.000000
  C     -4.561145   -0.171168    0.000000
  C     -5.377214    0.929863    0.000000
  H     -5.007671   -1.158168    0.000000
  C     -5.244583    2.338420    0.000000
  H     -3.328232    3.510070    0.000000
  H     -6.414251    0.597473    0.000000
  H     -6.099648    3.026196    0.000000
  C      3.799525   -2.480370    0.000000
  C      4.559303    0.067195    0.000000
  C      5.177300   -2.267480    0.000000
  H      3.423484   -3.495969    0.000000
  C      5.536498   -0.917686    0.000000
  H      4.886766    1.095417    0.000000
  H      5.885989   -3.085992    0.000000
  H      6.578421   -0.612153    0.000000

 Total Charge           Charge          ....   -2
 Multiplicity           Mult            ....    2
 Number of Electrons    NEL             ....  247
 Basis Dimension        Dim             ....  575

ORBITAL ENERGIES
----------------
                 SPIN UP ORBITALS
  NO   OCC          E(Eh)            E(eV)    Irrep
   0   1.0000    -443.562478    -12069.9487    1-A'
   1   1.0000    -443.561483    -12069.9216    2-A'
   2   1.0000    -443.544120    -12069.4491    3-A'
   3   1.0000    -443.536942    -12069.2538    4-A'
   4   1.0000    -318.185237     -8658.2605    5-A'
   5   1.0000     -56.370053     -1533.9071    6-A'
   6   1.0000     -56.369031     -1533.8793    7-A'
   7   1.0000     -56.355026     -1533.4982    8-A'
   8   1.0000     -56.351649     -1533.4063    9-A'
   9   1.0000     -51.287072     -1395.5922   10-A'
  10   1.0000     -51.286539     -1395.5777   11-A'
  11   1.0000     -51.285925     -1395.5610   12-A'
  12   1.0000     -51.285703     -1395.5549    1-A"
  13   1.0000     -51.285284     -1395.5435   13-A'
  14   1.0000     -51.284939     -1395.5341    2-A"
  15   1.0000     -51.283461     -1395.4939   14-A'
  16   1.0000     -51.282467     -1395.4669   15-A'
  17   1.0000     -51.282032     -1395.4550   16-A'
  18   1.0000     -51.281508     -1395.4408    3-A"
  19   1.0000     -51.280862     -1395.4232   17-A'
  20   1.0000     -51.280129     -1395.4033    4-A"
  21   1.0000     -38.025685     -1034.7315   18-A'
  22   1.0000     -33.527708      -912.3353   19-A'
  23   1.0000     -33.526934      -912.3142   20-A'
  24   1.0000     -33.515836      -912.0123    5-A"
  25   1.0000      -9.830675      -267.5063   21-A'
  26   1.0000      -9.823337      -267.3066   22-A'
  27   1.0000      -9.818508      -267.1752   23-A'
  28   1.0000      -9.817657      -267.1520   24-A'
  29   1.0000      -9.817204      -267.1397   25-A'
  30   1.0000      -9.816232      -267.1132   26-A'
  31   1.0000      -9.808016      -266.8897   27-A'
  32   1.0000      -9.807401      -266.8729   28-A'
  33   1.0000      -9.806955      -266.8608   29-A'
  34   1.0000      -9.806783      -266.8561   30-A'
  35   1.0000      -9.805885      -266.8317   31-A'
  36   1.0000      -9.805665      -266.8257   32-A'
  37   1.0000      -7.340670      -199.7498   33-A'
  38   1.0000      -7.340636      -199.7489   34-A'
  39   1.0000      -7.332056      -199.5154   35-A'
  40   1.0000      -7.330864      -199.4829   36-A'
  41   1.0000      -5.404155      -147.0545   37-A'
  42   1.0000      -5.403637      -147.0404   38-A'
  43   1.0000      -5.403009      -147.0234   39-A'
  44   1.0000      -5.402023      -146.9965   40-A'
  45   1.0000      -5.399381      -146.9246    6-A"
  46   1.0000      -5.399116      -146.9174   41-A'
  47   1.0000      -5.398422      -146.8985   42-A'
  48   1.0000      -5.398348      -146.8965    7-A"
  49   1.0000      -5.396969      -146.8590   43-A'
  50   1.0000      -5.396513      -146.8466   44-A'
  51   1.0000      -5.395867      -146.8290    8-A"
  52   1.0000      -5.395693      -146.8243    9-A"
  53   1.0000      -4.019992      -109.3895   45-A'
  54   1.0000      -2.539492       -69.1031   46-A'
  55   1.0000      -2.538561       -69.0778   47-A'
  56   1.0000      -2.515198       -68.4420   10-A"
  57   1.0000      -1.744368       -47.4667   48-A'
  58   1.0000      -1.743298       -47.4375   49-A'
  59   1.0000      -1.740689       -47.3666   50-A'
  60   1.0000      -1.740652       -47.3656   51-A'
  61   1.0000      -1.740580       -47.3636   52-A'
  62   1.0000      -1.740408       -47.3589   11-A"
  63   1.0000      -1.740016       -47.3482   53-A'
  64   1.0000      -1.739488       -47.3339   12-A"
  65   1.0000      -1.738856       -47.3167   54-A'
  66   1.0000      -1.738144       -47.2973   55-A'
  67   1.0000      -1.737608       -47.2827   13-A"
  68   1.0000      -1.737335       -47.2753   14-A"
  69   1.0000      -1.736134       -47.2426   15-A"
  70   1.0000      -1.736103       -47.2418   56-A'
  71   1.0000      -1.735171       -47.2164   16-A"
  72   1.0000      -1.735126       -47.2152   57-A'
  73   1.0000      -1.732839       -47.1529   58-A'
  74   1.0000      -1.732799       -47.1519   59-A'
  75   1.0000      -1.732735       -47.1501   17-A"
  76   1.0000      -1.732733       -47.1501   18-A"
  77   1.0000      -0.605773       -16.4839   60-A'
  78   1.0000      -0.603081       -16.4107   61-A'
  79   1.0000      -0.520825       -14.1724   62-A'
  80   1.0000      -0.519891       -14.1470   63-A'
  81   1.0000      -0.499415       -13.5898   64-A'
  82   1.0000      -0.494494       -13.4559   65-A'
  83   1.0000      -0.415654       -11.3105   66-A'
  84   1.0000      -0.410857       -11.1800   67-A'
  85   1.0000      -0.379985       -10.3399   68-A'
  86   1.0000      -0.369785       -10.0624   69-A'
  87   1.0000      -0.321837        -8.7576   70-A'
  88   1.0000      -0.319281        -8.6881   71-A'
  89   1.0000      -0.287781        -7.8309   72-A'
  90   1.0000      -0.284481        -7.7411   73-A'
  91   1.0000      -0.229964        -6.2576   74-A'
  92   1.0000      -0.222854        -6.0642   75-A'
  93   1.0000      -0.199743        -5.4353   76-A'
  94   1.0000      -0.195450        -5.3185   77-A'
  95   1.0000      -0.176076        -4.7913   78-A'
  96   1.0000      -0.168791        -4.5930   79-A'
  97   1.0000      -0.158871        -4.3231   80-A'
  98   1.0000      -0.140228        -3.8158   81-A'
  99   1.0000      -0.132427        -3.6035   19-A"
 100   1.0000      -0.130870        -3.5611   20-A"
 101   1.0000      -0.123623        -3.3640   82-A'
 102   1.0000      -0.093158        -2.5350   83-A'
 103   1.0000      -0.080104        -2.1798   84-A'
 104   1.0000      -0.067080        -1.8254   85-A'
 105   1.0000      -0.062791        -1.7086   86-A'
 106   1.0000      -0.056871        -1.5475   87-A'
 107   1.0000      -0.047147        -1.2829   21-A"
 108   1.0000      -0.046241        -1.2583   22-A"
 109   1.0000      -0.033747        -0.9183   88-A'
 110   1.0000      -0.031690        -0.8623   23-A"
 111   1.0000      -0.026114        -0.7106   24-A"
 112   1.0000      -0.023120        -0.6291   89-A'
 113   1.0000      -0.001570        -0.0427   25-A"
 114   1.0000       0.001795         0.0488   26-A"
 115   1.0000       0.002131         0.0580   90-A'
 116   1.0000       0.020246         0.5509   91-A'
 117   1.0000       0.021193         0.5767   92-A'
 118   1.0000       0.044159         1.2016   93-A'
 119   1.0000       0.055274         1.5041   27-A"
 120   1.0000       0.057389         1.5616   28-A"
 121   1.0000       0.071630         1.9492   29-A"
 122   1.0000       0.100230         2.7274   30-A"
 123   1.0000       0.118531         3.2254   94-A'
 124   0.0000       0.180556         4.9132   95-A'
 125   0.0000       0.182843         4.9754   96-A'
 126   0.0000       0.196504         5.3472   97-A'
 127   0.0000       0.197245         5.3673   98-A'
 128   0.0000       0.197658         5.3786   31-A"

                 SPIN DOWN ORBITALS
  NO   OCC          E(Eh)            E(eV)    Irrep
   0   1.0000    -443.562021    -12069.9362    1-A'
   1   1.0000    -443.561024    -12069.9091    2-A'
   2   1.0000    -443.543679    -12069.4371    3-A'
   3   1.0000    -443.536481    -12069.2412    4-A'
   4   1.0000    -318.185115     -8658.2572    5-A'
   5   1.0000     -56.369869     -1533.9021    6-A'
   6   1.0000     -56.368847     -1533.8743    7-A'
   7   1.0000     -56.354849     -1533.4934    8-A'
   8   1.0000     -56.351464     -1533.4013    9-A'
   9   1.0000     -51.286722     -1395.5826   10-A'
  10   1.0000     -51.286194     -1395.5683   11-A'
  11   1.0000     -51.285450     -1395.5480    1-A"
  12   1.0000     -51.285215     -1395.5416   12-A'
  13   1.0000     -51.284684     -1395.5272    2-A"
  14   1.0000     -51.284554     -1395.5237   13-A'
  15   1.0000     -51.283157     -1395.4856   14-A'
  16   1.0000     -51.282163     -1395.4586   15-A'
  17   1.0000     -51.281313     -1395.4355   16-A'
  18   1.0000     -51.281268     -1395.4342    3-A"
  19   1.0000     -51.280079     -1395.4019   17-A'
  20   1.0000     -51.279873     -1395.3963    4-A"
  21   1.0000     -38.011852     -1034.3551   18-A'
  22   1.0000     -33.514566      -911.9777   19-A'
  23   1.0000     -33.513790      -911.9566   20-A'
  24   1.0000     -33.511967      -911.9070    5-A"
  25   1.0000      -9.830619      -267.5047   21-A'
  26   1.0000      -9.823251      -267.3042   22-A'
  27   1.0000      -9.818492      -267.1748   23-A'
  28   1.0000      -9.817607      -267.1507   24-A'
  29   1.0000      -9.817148      -267.1382   25-A'
  30   1.0000      -9.816168      -267.1115   26-A'
  31   1.0000      -9.807871      -266.8857   27-A'
  32   1.0000      -9.807350      -266.8715   28-A'
  33   1.0000      -9.806904      -266.8594   29-A'
  34   1.0000      -9.806652      -266.8526   30-A'
  35   1.0000      -9.805895      -266.8320   31-A'
  36   1.0000      -9.805687      -266.8263   32-A'
  37   1.0000      -7.340265      -199.7388   33-A'
  38   1.0000      -7.340235      -199.7380   34-A'
  39   1.0000      -7.331659      -199.5046   35-A'
  40   1.0000      -7.330449      -199.4717   36-A'
  41   1.0000      -5.403783      -147.0444   37-A'
  42   1.0000      -5.403260      -147.0302   38-A'
  43   1.0000      -5.402658      -147.0138   39-A'
  44   1.0000      -5.401676      -146.9871   40-A'
  45   1.0000      -5.399054      -146.9157    6-A"
  46   1.0000      -5.398293      -146.8950   41-A'
  47   1.0000      -5.398022      -146.8876    7-A"
  48   1.0000      -5.397588      -146.8758   42-A'
  49   1.0000      -5.396107      -146.8355   43-A'
  50   1.0000      -5.395714      -146.8248   44-A'
  51   1.0000      -5.395572      -146.8210    8-A"
  52   1.0000      -5.395384      -146.8159    9-A"
  53   1.0000      -3.991918      -108.6256   45-A'
  54   1.0000      -2.504908       -68.1620   10-A"
  55   1.0000      -2.504473       -68.1502   46-A'
  56   1.0000      -2.503408       -68.1212   47-A'
  57   1.0000      -1.743924       -47.4546   48-A'
  58   1.0000      -1.742843       -47.4252   49-A'
  59   1.0000      -1.740200       -47.3533   50-A'
  60   1.0000      -1.740136       -47.3515   51-A'
  61   1.0000      -1.740079       -47.3500   11-A"
  62   1.0000      -1.739750       -47.3410   52-A'
  63   1.0000      -1.739161       -47.3250   12-A"
  64   1.0000      -1.739098       -47.3233   53-A'
  65   1.0000      -1.737968       -47.2925   54-A'
  66   1.0000      -1.737316       -47.2748   13-A"
  67   1.0000      -1.737289       -47.2740   55-A'
  68   1.0000      -1.737045       -47.2674   14-A"
  69   1.0000      -1.735344       -47.2211   15-A"
  70   1.0000      -1.735263       -47.2189   56-A'
  71   1.0000      -1.734382       -47.1949   16-A"
  72   1.0000      -1.734292       -47.1925   57-A'
  73   1.0000      -1.732083       -47.1324   58-A'
  74   1.0000      -1.732014       -47.1305   59-A'
  75   1.0000      -1.732003       -47.1302   17-A"
  76   1.0000      -1.731959       -47.1290   18-A"
  77   1.0000      -0.604876       -16.4595   60-A'
  78   1.0000      -0.602234       -16.3876   61-A'
  79   1.0000      -0.519676       -14.1411   62-A'
  80   1.0000      -0.518785       -14.1169   63-A'
  81   1.0000      -0.497762       -13.5448   64-A'
  82   1.0000      -0.493033       -13.4161   65-A'
  83   1.0000      -0.412909       -11.2358   66-A'
  84   1.0000      -0.408285       -11.1100   67-A'
  85   1.0000      -0.377539       -10.2734   68-A'
  86   1.0000      -0.367312        -9.9951   69-A'
  87   1.0000      -0.320033        -8.7086   70-A'
  88   1.0000      -0.317287        -8.6338   71-A'
  89   1.0000      -0.285336        -7.7644   72-A'
  90   1.0000      -0.281817        -7.6686   73-A'
  91   1.0000      -0.228677        -6.2226   74-A'
  92   1.0000      -0.221699        -6.0327   75-A'
  93   1.0000      -0.198470        -5.4006   76-A'
  94   1.0000      -0.194129        -5.2825   77-A'
  95   1.0000      -0.175460        -4.7745   78-A'
  96   1.0000      -0.167232        -4.5506   79-A'
  97   1.0000      -0.156301        -4.2532   80-A'
  98   1.0000      -0.138866        -3.7787   81-A'
  99   1.0000      -0.132055        -3.5934   19-A"
 100   1.0000      -0.130472        -3.5503   20-A"
 101   1.0000      -0.121559        -3.3078   82-A'
 102   1.0000      -0.091367        -2.4862   83-A'
 103   1.0000      -0.077741        -2.1154   84-A'
 104   1.0000      -0.064207        -1.7472   85-A'
 105   1.0000      -0.060034        -1.6336   86-A'
 106   1.0000      -0.049204        -1.3389   87-A'
 107   1.0000      -0.046081        -1.2539   21-A"
 108   1.0000      -0.045699        -1.2435   22-A"
 109   1.0000      -0.029414        -0.8004   23-A"
 110   1.0000      -0.025055        -0.6818   24-A"
 111   1.0000      -0.022430        -0.6104   88-A'
 112   1.0000       0.000102         0.0028   89-A'
 113   1.0000       0.008465         0.2303   25-A"
 114   1.0000       0.012398         0.3374   26-A"
 115   1.0000       0.012518         0.3406   90-A'
 116   1.0000       0.029580         0.8049   91-A'
 117   1.0000       0.033433         0.9098   92-A'
 118   1.0000       0.055184         1.5016   93-A'
 119   1.0000       0.057507         1.5649   27-A"
 120   1.0000       0.060835         1.6554   28-A"
 121   1.0000       0.073351         1.9960   29-A"
 122   1.0000       0.103473         2.8156   30-A"
 123   0.0000       0.148142         4.0312   94-A'
 124   0.0000       0.183007         4.9799   95-A'
 125   0.0000       0.184978         5.0335   96-A'
 126   0.0000       0.197753         5.3811   31-A"
 127   0.0000       0.199460         5.4276   97-A'

MULLIKEN ATOMIC CHARGES AND SPIN POPULATIONS
--------------------------------------------
   0 Cu:    0.642757    0.308281
   1 Se:   -0.767669    0.169454
   2 C :    0.247270   -0.002601
   3 Se:   -0.672975    0.172040
   4 C :    0.229407   -0.004614
   5 Se:   -0.700442    0.173689
   6 C :    0.210108   -0.003928
   7 Se:   -0.754294    0.179262
   8 C :    0.217866   -0.001002
   9 C :   -0.086723   -0.002389
  10 C :   -0.123368   -0.001473
  11 C :   -0.051076    0.000321
  12 H :    0.045700    0.002909
  13 C :   -0.254921   -0.000711
  14 H :    0.086460    0.002316
  15 H :    0.052659    0.002122
  16 H :   -0.009672    0.001570
  17 C :   -0.089630   -0.001621
  18 C :   -0.123527   -0.001243
  19 C :   -0.196368   -0.000879
  20 H :    0.098263    0.002623
  21 C :   -0.134522   -0.000329
  22 H :    0.086212    0.002798
  23 H :    0.017581    0.001345
  24 H :    0.030902    0.002058
Sum of atomic charges         :   -2.0000000

LOEWDIN ATOMIC CHARGES AND SPIN POPULATIONS
-------------------------------------------
   0 Cu:   -0.620753    0.388848
   1 Se:   -0.194533    0.118633
   2 C :    0.060196    0.009795
   3 Se:   -0.225954    0.123011
   4 C :   -0.037417    0.014285
   5 Se:   -0.210214    0.124359
   6 C :    0.008712    0.012845
   7 Se:   -0.202284    0.127202
   8 C :    0.136059    0.008096
   9 C :    0.371862    0.006287
  10 C :    0.361396    0.007991
  11 C :    0.320264    0.000868
  12 H :   -0.396223    0.006829
  13 C :    0.334035    0.000652
  14 H :   -0.488565    0.013363
  15 H :   -0.463309    0.000868
  16 H :   -0.392726    0.000348
  17 C :    0.372264    0.006566
  18 C :    0.376051    0.007600
  19 C :    0.326475    0.000291
  20 H :   -0.472975    0.010828
  21 C :    0.323228    0.000785
  22 H :   -0.450172    0.008759
  23 H :   -0.413944    0.000206
  24 H :   -0.421471    0.000685

  Mayer bond orders larger than 0.100000
B(  0-Cu,  1-Se) :   0.5553 B(  0-Cu,  3-Se) :   0.5462 B(  0-Cu,  5-Se) :   0.5462
B(  0-Cu,  7-Se) :   0.5452 B(  1-Se,  2-C ) :   0.9993 B(  2-C ,  6-C ) :   1.1287
B(  2-C , 17-C ) :   1.2776 B(  3-Se,  4-C ) :   1.0979 B(  4-C ,  8-C ) :   1.1482
B(  4-C , 10-C ) :   1.2219 B(  5-Se,  6-C ) :   1.0777 B(  6-C , 18-C ) :   1.2439
B(  7-Se,  8-C ) :   0.9528 B(  8-C ,  9-C ) :   1.3253 B(  9-C , 13-C ) :   1.3300
B(  9-C , 14-H ) :   0.9599 B( 10-C , 11-C ) :   1.3729 B( 10-C , 12-H ) :   0.9947
B( 11-C , 13-C ) :   1.3073 B( 11-C , 15-H ) :   0.9735 B( 13-C , 16-H ) :   1.0233
B( 17-C , 19-C ) :   1.3643 B( 17-C , 20-H ) :   0.9543 B( 18-C , 21-C ) :   1.3843
B( 18-C , 22-H ) :   0.9651 B( 19-C , 21-C ) :   1.3176 B( 19-C , 23-H ) :   1.0020
B( 21-C , 24-H ) :   0.9884

FINAL SINGLE POINT ENERGY    -11627.078652662000

DIPOLE MOMENT
-------------
                                X             Y             Z
Electronic contribution:      0.10514       0.27947       0.00000
Nuclear contribution   :     -0.14981      -0.30276       0.00000
                        -----------------------------------------
Total Dipole Moment    :     -0.04467      -0.02329       0.00000
                        -----------------------------------------
Magnitude (a.u.)       :      0.05038
Magnitude (Debye)      :      0.12805

Rotational constants in cm-1:     0.017467     0.004116     0.003331
Rotational constants in MHz :   523.651449   123.390254    99.859847

                             ****ORCA TERMINATED NORMALLY****
TOTAL RUN TIME: 0 days 17 hours 8 minutes 47 seconds 512 msec
