                         Program Version 5.0.4 -  RELEASE  -
|  1> ! RIJCOSX nofrozencore ReducedPop printbasis
|  2> ! M06L ano-rcc-dzp autoaux
|  3>
|  4> %maxcore 7500
|  5> %basis
|  6> PCDTrimBas overlap
|  7> PCDTrimAuxJ Coulomb
|  8> PCDTrimAuxJK Coulomb
|  9> PCDTrimAuxC Coulomb
| 10> PCDThresh -1
| 11> end
| 12>
| 13> %basis
| 14> newgto Cu "ano-rcc-tzp" end
| 15> newgto Se "ano-rcc-tzp" end
| 16> end
| 17>
| 18> %pal
| 19> nprocs 8
| 20> end
| 21>
| 22> % sym SymThresh 1e-2 end
| 23> * xyz -2 2
| 24> Cu 3.416711462428436e-06 7.251967805878869e-06 -1.4026227066642211e-05
| 25> Se -1.0126387329918511 -0.9324604723339261 -1.9269079677320993
| 26> C -0.4863232681468762 0.00016893430907314314 -3.165208004092328
| 27> Se -0.9465116180943651 -1.5381563814298576 1.5316685837556347
| 28> C -0.36889765899821875 -1.0789282412567465 2.9940241285173803
| 29> Se 0.9465325041741683 1.5381835049961048 -1.5316682942310567
| 30> C 0.3685699652142938 1.0782163540286698 -2.992597103164249
| 31> Se 1.0126157478553937 0.9324140231670457 1.9269906427488706
| 32> C 0.48658207188901287 0.00031303499990072885 3.164482255369792
| 33> C 0.8962630798760205 0.2729811446573838 4.466894091571984
| 34> C -0.7319657483337739 -1.7803864989076466 4.138737337535513
| 35> C -0.32146316008687753 -1.5031003586462452 5.423406120893906
| 36> H -1.3828921160746832 -2.5994935971129736 3.998651491336565
| 37> C 0.5330155535695985 -0.426119592103943 5.598652824814203
| 38> H 1.5494917168814366 1.0983953515460427 4.59042638705544
| 39> H -0.6793959074976039 -2.1416941910093836 6.287229307859716
| 40> H 0.9146615624119967 -0.12610406448210293 6.581919827055944
| 41> C -0.906703465456287 -0.28571252040726886 -4.471173382921097
| 42> C 0.7413203211889362 1.7925083520421108 -4.1384756730863606
| 43> C -0.5203965324421992 0.43641977454770875 -5.568042515743379
| 44> H -1.4219058110944685 -0.9380430580837613 -4.561977903037743
| 45> C 0.31084875572673376 1.4847529422942176 -5.400739100836459
| 46> H 1.2683242343566146 2.454519091582118 -4.019280049544023
| 47> H -1.049606711218176 0.019258005301795465 -6.925768660756621
| 48> H 0.791126960315433 2.340116625060408 -6.552283560137408
| 49> *
| 50>
| 51> % eprnmr
| 52> gtensor true
| 53> Nuclei = all H {aiso,adip,aorb,fgrad,rho}
| 54> Nuclei = all Cu {aiso,adip,aorb,fgrad,rho}
| 55> end
| 56>
| 57>                          ****END OF INPUT****

CARTESIAN COORDINATES (ANGSTROEM)
---------------------------------
  Cu     0.000008   -0.000013    0.000000
  Se    -1.265000   -2.001916    0.000000
  C     -0.148143   -3.198922    0.000000
  Se    -1.865930    1.458123    0.000000
  C     -1.218867    2.962890    0.000000
  Se     1.865964   -1.458121    0.000000
  C      1.218037   -2.961489    0.000000
  Se     1.264945    2.001998    0.000000
  C      0.148716    3.198218    0.000000
  C      0.553260    4.530437    0.000000
  C     -2.048889    4.078818    0.000000
  C     -1.639359    5.393375    0.000000
  H     -3.087340    3.889384    0.000000
  C     -0.274399    5.633410    0.000000
  H      1.598880    4.703509    0.000000
  H     -2.403351    6.229092    0.000000
  H      0.149638    6.644681    0.000000
  C     -0.569499   -4.535505    0.000000
  C      2.064171   -4.077845    0.000000
  C      0.288809   -5.601871    0.000000
  H     -1.395540   -4.665388    0.000000
  C      1.617308   -5.371537    0.000000
  H      2.903738   -3.918702    0.000000
  H     -0.300355   -6.998435    0.000000
  H      2.640894   -6.485378    0.000000

 Total Charge           Charge          ....   -2
 Multiplicity           Mult            ....    2
 Number of Electrons    NEL             ....  247
 Basis Dimension        Dim             ....  575

ORBITAL ENERGIES
----------------
                 SPIN UP ORBITALS
  NO   OCC          E(Eh)            E(eV)    Irrep
   0   1.0000    -443.567038    -12070.0727    1-A'
   1   1.0000    -443.565321    -12070.0260    2-A'
   2   1.0000    -443.552531    -12069.6780    3-A'
   3   1.0000    -443.551168    -12069.6409    4-A'
   4   1.0000    -318.191900     -8658.4418    5-A'
   5   1.0000     -56.375392     -1534.0524    6-A'
   6   1.0000     -56.374293     -1534.0225    7-A'
   7   1.0000     -56.362307     -1533.6964    8-A'
   8   1.0000     -56.361200     -1533.6662    9-A'
   9   1.0000     -51.291256     -1395.7060   10-A'
  10   1.0000     -51.291192     -1395.7043   11-A'
  11   1.0000     -51.290411     -1395.6830   12-A'
  12   1.0000     -51.290259     -1395.6789   13-A'
  13   1.0000     -51.289875     -1395.6685   14-A'
  14   1.0000     -51.289799     -1395.6664   15-A'
  15   1.0000     -51.289450     -1395.6569    1-A"
  16   1.0000     -51.289381     -1395.6550    2-A"
  17   1.0000     -51.289103     -1395.6474   16-A'
  18   1.0000     -51.288941     -1395.6430   17-A'
  19   1.0000     -51.288623     -1395.6344    3-A"
  20   1.0000     -51.288466     -1395.6301    4-A"
  21   1.0000     -38.032437     -1034.9152   18-A'
  22   1.0000     -33.534556      -912.5216   19-A'
  23   1.0000     -33.533753      -912.4998   20-A'
  24   1.0000     -33.522445      -912.1921    5-A"
  25   1.0000      -9.855027      -268.1689   21-A'
  26   1.0000      -9.854365      -268.1509   22-A'
  27   1.0000      -9.823203      -267.3029   23-A'
  28   1.0000      -9.819948      -267.2144   24-A'
  29   1.0000      -9.814955      -267.0785   25-A'
  30   1.0000      -9.814488      -267.0658   26-A'
  31   1.0000      -9.811891      -266.9951   27-A'
  32   1.0000      -9.811435      -266.9827   28-A'
  33   1.0000      -9.807992      -266.8890   29-A'
  34   1.0000      -9.807351      -266.8716   30-A'
  35   1.0000      -9.795219      -266.5414   31-A'
  36   1.0000      -9.793836      -266.5038   32-A'
  37   1.0000      -7.346105      -199.8977   33-A'
  38   1.0000      -7.345298      -199.8757   34-A'
  39   1.0000      -7.338686      -199.6958   35-A'
  40   1.0000      -7.337898      -199.6743   36-A'
  41   1.0000      -5.408857      -147.1825   37-A'
  42   1.0000      -5.408816      -147.1814   38-A'
  43   1.0000      -5.408128      -147.1626   39-A'
  44   1.0000      -5.408032      -147.1600   40-A'
  45   1.0000      -5.403475      -147.0360   41-A'
  46   1.0000      -5.403424      -147.0346   42-A'
  47   1.0000      -5.403115      -147.0262    6-A"
  48   1.0000      -5.403063      -147.0248    7-A"
  49   1.0000      -5.402911      -147.0207   43-A'
  50   1.0000      -5.402803      -147.0177   44-A'
  51   1.0000      -5.402393      -147.0066    8-A"
  52   1.0000      -5.402288      -147.0037    9-A"
  53   1.0000      -4.026727      -109.5728   45-A'
  54   1.0000      -2.546374       -69.2904   46-A'
  55   1.0000      -2.545429       -69.2647   47-A'
  56   1.0000      -2.521637       -68.6172   10-A"
  57   1.0000      -1.747820       -47.5606   48-A'
  58   1.0000      -1.747776       -47.5594   49-A'
  59   1.0000      -1.747133       -47.5419   50-A'
  60   1.0000      -1.747010       -47.5385   51-A'
  61   1.0000      -1.745165       -47.4883   52-A'
  62   1.0000      -1.745077       -47.4859   53-A'
  63   1.0000      -1.744534       -47.4712   54-A'
  64   1.0000      -1.744406       -47.4677   55-A'
  65   1.0000      -1.744390       -47.4673   11-A"
  66   1.0000      -1.744342       -47.4660   12-A"
  67   1.0000      -1.743652       -47.4472   13-A"
  68   1.0000      -1.743545       -47.4443   14-A"
  69   1.0000      -1.740003       -47.3479   56-A'
  70   1.0000      -1.739916       -47.3455   57-A'
  71   1.0000      -1.739906       -47.3453   15-A"
  72   1.0000      -1.739867       -47.3442   16-A"
  73   1.0000      -1.739378       -47.3309   58-A'
  74   1.0000      -1.739287       -47.3284   17-A"
  75   1.0000      -1.739247       -47.3273   59-A'
  76   1.0000      -1.739194       -47.3259   18-A"
  77   1.0000      -0.614325       -16.7166   60-A'
  78   1.0000      -0.606160       -16.4945   61-A'
  79   1.0000      -0.527707       -14.3596   62-A'
  80   1.0000      -0.524177       -14.2636   63-A'
  81   1.0000      -0.519929       -14.1480   64-A'
  82   1.0000      -0.503704       -13.7065   65-A'
  83   1.0000      -0.419775       -11.4227   66-A'
  84   1.0000      -0.415756       -11.3133   67-A'
  85   1.0000      -0.394660       -10.7392   68-A'
  86   1.0000      -0.383963       -10.4482   69-A'
  87   1.0000      -0.348859        -9.4929   70-A'
  88   1.0000      -0.325413        -8.8549   71-A'
  89   1.0000      -0.287385        -7.8201   72-A'
  90   1.0000      -0.270836        -7.3698   73-A'
  91   1.0000      -0.228681        -6.2227   74-A'
  92   1.0000      -0.211845        -5.7646   75-A'
  93   1.0000      -0.208867        -5.6836   76-A'
  94   1.0000      -0.204127        -5.5546   77-A'
  95   1.0000      -0.203587        -5.5399   78-A'
  96   1.0000      -0.172383        -4.6908   79-A'
  97   1.0000      -0.141446        -3.8489   80-A'
  98   1.0000      -0.138360        -3.7650   19-A"
  99   1.0000      -0.134479        -3.6594   81-A'
 100   1.0000      -0.133859        -3.6425   20-A"
 101   1.0000      -0.114638        -3.1194   82-A'
 102   1.0000      -0.109943        -2.9917   83-A'
 103   1.0000      -0.096632        -2.6295   84-A'
 104   1.0000      -0.072226        -1.9654   85-A'
 105   1.0000      -0.071049        -1.9333   86-A'
 106   1.0000      -0.061672        -1.6782   87-A'
 107   1.0000      -0.058917        -1.6032   21-A"
 108   1.0000      -0.051862        -1.4112   22-A"
 109   1.0000      -0.038538        -1.0487   23-A"
 110   1.0000      -0.034405        -0.9362   88-A'
 111   1.0000      -0.033801        -0.9198   89-A'
 112   1.0000      -0.031915        -0.8685   24-A"
 113   1.0000      -0.006854        -0.1865   25-A"
 114   1.0000      -0.005834        -0.1587   26-A"
 115   1.0000      -0.003995        -0.1087   90-A'
 116   1.0000       0.014885         0.4050   91-A'
 117   1.0000       0.017128         0.4661   92-A'
 118   1.0000       0.035666         0.9705   93-A'
 119   1.0000       0.049347         1.3428   27-A"
 120   1.0000       0.051961         1.4139   28-A"
 121   1.0000       0.066343         1.8053   29-A"
 122   1.0000       0.095293         2.5930   30-A"
 123   1.0000       0.110661         3.0112   94-A'
 124   0.0000       0.151265         4.1161   95-A'
 125   0.0000       0.179620         4.8877   96-A'
 126   0.0000       0.186877         5.0852   97-A'
 127   0.0000       0.194275         5.2865   98-A'
 128   0.0000       0.194765         5.2998   31-A"

                 SPIN DOWN ORBITALS
  NO   OCC          E(Eh)            E(eV)    Irrep
   0   1.0000    -443.566600    -12070.0608    1-A'
   1   1.0000    -443.564864    -12070.0136    2-A'
   2   1.0000    -443.552097    -12069.6662    3-A'
   3   1.0000    -443.550708    -12069.6284    4-A'
   4   1.0000    -318.191777     -8658.4384    5-A'
   5   1.0000     -56.375214     -1534.0476    6-A'
   6   1.0000     -56.374106     -1534.0174    7-A'
   7   1.0000     -56.362132     -1533.6916    8-A'
   8   1.0000     -56.361016     -1533.6612    9-A'
   9   1.0000     -51.290940     -1395.6974   10-A'
  10   1.0000     -51.290869     -1395.6955   11-A'
  11   1.0000     -51.290078     -1395.6740   12-A'
  12   1.0000     -51.289924     -1395.6698   13-A'
  13   1.0000     -51.289209     -1395.6503    1-A"
  14   1.0000     -51.289177     -1395.6495   14-A'
  15   1.0000     -51.289140     -1395.6485    2-A"
  16   1.0000     -51.289106     -1395.6475   15-A'
  17   1.0000     -51.288368     -1395.6275    3-A"
  18   1.0000     -51.288357     -1395.6271   16-A'
  19   1.0000     -51.288211     -1395.6232    4-A"
  20   1.0000     -51.288199     -1395.6228   17-A'
  21   1.0000     -38.018519     -1034.5365   18-A'
  22   1.0000     -33.521329      -912.1617   19-A'
  23   1.0000     -33.520526      -912.1399   20-A'
  24   1.0000     -33.518562      -912.0864    5-A"
  25   1.0000      -9.854972      -268.1674   21-A'
  26   1.0000      -9.854311      -268.1494   22-A'
  27   1.0000      -9.823153      -267.3016   23-A'
  28   1.0000      -9.819898      -267.2130   24-A'
  29   1.0000      -9.814973      -267.0790   25-A'
  30   1.0000      -9.814504      -267.0662   26-A'
  31   1.0000      -9.811910      -266.9957   27-A'
  32   1.0000      -9.811453      -266.9832   28-A'
  33   1.0000      -9.807871      -266.8857   29-A'
  34   1.0000      -9.807232      -266.8683   30-A'
  35   1.0000      -9.795115      -266.5386   31-A'
  36   1.0000      -9.793733      -266.5010   32-A'
  37   1.0000      -7.345721      -199.8872   33-A'
  38   1.0000      -7.344893      -199.8647   34-A'
  39   1.0000      -7.338295      -199.6852   35-A'
  40   1.0000      -7.337485      -199.6631   36-A'
  41   1.0000      -5.408500      -147.1728   37-A'
  42   1.0000      -5.408459      -147.1716   38-A'
  43   1.0000      -5.407754      -147.1525   39-A'
  44   1.0000      -5.407659      -147.1499   40-A'
  45   1.0000      -5.402812      -147.0180    6-A"
  46   1.0000      -5.402759      -147.0166    7-A"
  47   1.0000      -5.402695      -147.0148   41-A'
  48   1.0000      -5.402642      -147.0134   42-A'
  49   1.0000      -5.402077      -146.9980    8-A"
  50   1.0000      -5.402074      -146.9979   43-A'
  51   1.0000      -5.401972      -146.9951    9-A"
  52   1.0000      -5.401966      -146.9950   44-A'
  53   1.0000      -3.998376      -108.8014   45-A'
  54   1.0000      -2.511293       -68.3358   10-A"
  55   1.0000      -2.510991       -68.3275   46-A'
  56   1.0000      -2.509967       -68.2997   47-A'
  57   1.0000      -1.747388       -47.5488   48-A'
  58   1.0000      -1.747342       -47.5476   49-A'
  59   1.0000      -1.746675       -47.5295   50-A'
  60   1.0000      -1.746552       -47.5261   51-A'
  61   1.0000      -1.744307       -47.4650   52-A'
  62   1.0000      -1.744216       -47.4625   53-A'
  63   1.0000      -1.744088       -47.4590   11-A"
  64   1.0000      -1.744040       -47.4577   12-A"
  65   1.0000      -1.743619       -47.4463   54-A'
  66   1.0000      -1.743491       -47.4428   55-A'
  67   1.0000      -1.743341       -47.4387   13-A"
  68   1.0000      -1.743235       -47.4358   14-A"
  69   1.0000      -1.739243       -47.3272   56-A'
  70   1.0000      -1.739172       -47.3253   15-A"
  71   1.0000      -1.739158       -47.3249   57-A'
  72   1.0000      -1.739132       -47.3242   16-A"
  73   1.0000      -1.738570       -47.3089   58-A'
  74   1.0000      -1.738505       -47.3071   17-A"
  75   1.0000      -1.738442       -47.3054   59-A'
  76   1.0000      -1.738413       -47.3046   18-A"
  77   1.0000      -0.613599       -16.6969   60-A'
  78   1.0000      -0.605338       -16.4721   61-A'
  79   1.0000      -0.526457       -14.3256   62-A'
  80   1.0000      -0.523011       -14.2319   63-A'
  81   1.0000      -0.518603       -14.1119   64-A'
  82   1.0000      -0.501996       -13.6600   65-A'
  83   1.0000      -0.416635       -11.3372   66-A'
  84   1.0000      -0.412948       -11.2369   67-A'
  85   1.0000      -0.393513       -10.7080   68-A'
  86   1.0000      -0.381598       -10.3838   69-A'
  87   1.0000      -0.346035        -9.4161   70-A'
  88   1.0000      -0.323507        -8.8031   71-A'
  89   1.0000      -0.284841        -7.7509   72-A'
  90   1.0000      -0.268403        -7.3036   73-A'
  91   1.0000      -0.227508        -6.1908   74-A'
  92   1.0000      -0.210485        -5.7276   75-A'
  93   1.0000      -0.207587        -5.6487   76-A'
  94   1.0000      -0.202977        -5.5233   77-A'
  95   1.0000      -0.202311        -5.5052   78-A'
  96   1.0000      -0.170737        -4.6460   79-A'
  97   1.0000      -0.140091        -3.8121   80-A'
  98   1.0000      -0.137995        -3.7550   19-A"
  99   1.0000      -0.133465        -3.6318   20-A"
 100   1.0000      -0.132556        -3.6070   81-A'
 101   1.0000      -0.111619        -3.0373   82-A'
 102   1.0000      -0.108877        -2.9627   83-A'
 103   1.0000      -0.095007        -2.5853   84-A'
 104   1.0000      -0.068658        -1.8683   85-A'
 105   1.0000      -0.068375        -1.8606   86-A'
 106   1.0000      -0.058028        -1.5790   21-A"
 107   1.0000      -0.053429        -1.4539   87-A'
 108   1.0000      -0.050988        -1.3875   22-A"
 109   1.0000      -0.036306        -0.9879   23-A"
 110   1.0000      -0.030827        -0.8388   24-A"
 111   1.0000      -0.027356        -0.7444   88-A'
 112   1.0000      -0.007034        -0.1914   89-A'
 113   1.0000       0.002813         0.0766   25-A"
 114   1.0000       0.005443         0.1481   26-A"
 115   1.0000       0.006439         0.1752   90-A'
 116   1.0000       0.025149         0.6843   91-A'
 117   1.0000       0.027626         0.7517   92-A'
 118   1.0000       0.046897         1.2761   93-A'
 119   1.0000       0.051586         1.4037   27-A"
 120   1.0000       0.055257         1.5036   28-A"
 121   1.0000       0.068078         1.8525   29-A"
 122   1.0000       0.098521         2.6809   30-A"
 123   0.0000       0.140372         3.8197   94-A'
 124   0.0000       0.151847         4.1320   95-A'
 125   0.0000       0.181354         4.9349   96-A'
 126   0.0000       0.188822         5.1381   97-A'
 127   0.0000       0.194825         5.3015   31-A"

MULLIKEN ATOMIC CHARGES AND SPIN POPULATIONS
--------------------------------------------
   0 Cu:    0.645027    0.311046
   1 Se:   -0.748014    0.166174
   2 C :    0.182502   -0.002297
   3 Se:   -0.731414    0.177345
   4 C :    0.218763   -0.003214
   5 Se:   -0.746267    0.166516
   6 C :    0.184913   -0.002340
   7 Se:   -0.729986    0.177461
   8 C :    0.217652   -0.003239
   9 C :   -0.114415   -0.001674
  10 C :   -0.112602   -0.001733
  11 C :   -0.134177   -0.000777
  12 H :    0.123312    0.003002
  13 C :   -0.146100   -0.000625
  14 H :    0.116725    0.002917
  15 H :   -0.023357    0.001813
  16 H :    0.011047    0.001555
  17 C :   -0.349860   -0.003292
  18 C :   -0.317608   -0.003217
  19 C :   -0.111342   -0.000503
  20 H :    0.513095    0.004214
  21 C :   -0.109323   -0.000497
  22 H :    0.472399    0.004128
  23 H :   -0.156093    0.003729
  24 H :   -0.154877    0.003508
Sum of atomic charges         :   -2.0000000

LOEWDIN ATOMIC CHARGES AND SPIN POPULATIONS
-------------------------------------------
   0 Cu:   -0.611452    0.390983
   1 Se:   -0.171823    0.118449
   2 C :    0.082544    0.012331
   3 Se:   -0.196321    0.125978
   4 C :    0.042736    0.012012
   5 Se:   -0.173902    0.118593
   6 C :    0.079076    0.012332
   7 Se:   -0.196746    0.126033
   8 C :    0.041596    0.012059
   9 C :    0.380187    0.006983
  10 C :    0.376340    0.006957
  11 C :    0.298624    0.000416
  12 H :   -0.485859    0.009498
  13 C :    0.310819    0.000426
  14 H :   -0.479981    0.009482
  15 H :   -0.367921    0.000519
  16 H :   -0.400979    0.000393
  17 C :    0.491953    0.006562
  18 C :    0.476659    0.006562
  19 C :    0.193999    0.000539
  20 H :   -0.782209    0.008426
  21 C :    0.190122    0.000502
  22 H :   -0.754569    0.008505
  23 H :   -0.170951    0.002824
  24 H :   -0.171943    0.002635

  Mayer bond orders larger than 0.100000
B(  0-Cu,  1-Se) :   0.5393 B(  0-Cu,  3-Se) :   0.5546 B(  0-Cu,  5-Se) :   0.5401
B(  0-Cu,  7-Se) :   0.5546 B(  1-Se,  2-C ) :   1.0593 B(  2-C ,  6-C ) :   1.1374
B(  2-C , 17-C ) :   1.3146 B(  3-Se,  4-C ) :   1.0399 B(  4-C ,  8-C ) :   1.1342
B(  4-C , 10-C ) :   1.2602 B(  5-Se,  6-C ) :   1.0583 B(  6-C , 18-C ) :   1.3088
B(  7-Se,  8-C ) :   1.0416 B(  8-C ,  9-C ) :   1.2596 B(  9-C , 13-C ) :   1.3795
B(  9-C , 14-H ) :   0.9455 B( 10-C , 11-C ) :   1.3794 B( 10-C , 12-H ) :   0.9414
B( 11-C , 13-C ) :   1.3101 B( 11-C , 15-H ) :   1.0112 B( 13-C , 16-H ) :   0.9996
B( 17-C , 19-C ) :   1.4468 B( 17-C , 20-H ) :   0.5640 B( 18-C , 21-C ) :   1.4390
B( 18-C , 22-H ) :   0.6153 B( 19-C , 21-C ) :   1.3603 B( 19-C , 23-H ) :   0.9554
B( 21-C , 24-H ) :   0.9562

FINAL SINGLE POINT ENERGY    -11626.918769154916

DIPOLE MOMENT
-------------
                                X             Y             Z
Electronic contribution:     -0.22478       1.34611       0.00000
Nuclear contribution   :      0.10014      -0.56486       0.00000
                        -----------------------------------------
Total Dipole Moment    :     -0.12464       0.78125       0.00000
                        -----------------------------------------
Magnitude (a.u.)       :      0.79113
Magnitude (Debye)      :      2.01089

Rotational constants in cm-1:     0.017622     0.004096     0.003324
Rotational constants in MHz :   528.307132   122.805973    99.643627

                             ****ORCA TERMINATED NORMALLY****
TOTAL RUN TIME: 0 days 16 hours 49 minutes 26 seconds 622 msec
