                         Program Version 5.0.4 -  RELEASE  -
|  1> ! RIJCOSX nofrozencore ReducedPop printbasis
|  2> ! M06L ano-rcc-dzp autoaux
|  3>
|  4> %maxcore 7500
|  5> %basis
|  6> PCDTrimBas overlap
|  7> PCDTrimAuxJ Coulomb
|  8> PCDTrimAuxJK Coulomb
|  9> PCDTrimAuxC Coulomb
| 10> PCDThresh -1
| 11> end
| 12>
| 13> %basis
| 14> newgto Cu "ano-rcc-tzp" end
| 15> newgto Se "ano-rcc-tzp" end
| 16> end
| 17>
| 18> %pal
| 19> nprocs 8
| 20> end
| 21>
| 22> % sym SymThresh 1e-2 end
| 23> * xyz -2 2
| 24> Cu -0.02192882677768504 -0.03266125251504974 0.06769777621386422
| 25> Se 1.8805066996875996 -0.6616201650380621 -0.7994771456990247
| 26> C 2.710984258126124 -1.8089717583168177 0.08381832895919482
| 27> Se -0.6020123285123352 1.4004749859841759 -1.4625946543789157
| 28> C -2.0526570224023875 2.1991981133441603 -1.2627456641064545
| 29> Se 0.5854236071541005 -1.3804514834470873 1.4491359929355898
| 30> C 2.0453271895386145 -2.194024683071103 1.2621107315124214
| 31> Se -1.8297838479866333 0.668766055398528 0.7417805978016161
| 32> C -2.7371877382020635 1.8284945566621893 -0.08757477750479935
| 33> C -3.9544359662755704 2.399134645946069 0.22409000279447397
| 34> C -2.6753552900098847 3.150577611809603 -2.056742735742908
| 35> C -3.893997660705826 3.718132879293479 -1.7393181583282384
| 36> H -2.1913051437079454 3.4682241771824285 -2.967995834234167
| 37> C -4.558112714397313 3.3442019937221246 -0.5785395900917396
| 38> H -4.447860362540197 2.089469913100215 1.1325589545316224
| 39> H -4.324058413076099 4.458466335145753 -2.408075996852426
| 40> H -5.516241611293295 3.775331706204404 -0.3071444467511905
| 41> C 3.9343341755188583 -2.4001088925211667 -0.2039123037684627
| 42> C 2.658359367349445 -3.154374795202777 2.0781034550940665
| 43> C 4.534828510654763 -3.3487482137373434 0.6068552707059971
| 44> H 4.442432581658626 -2.102561495485711 -1.1085631017577489
| 45> C 3.885780124511023 -3.737834822598133 1.7754741426725662
| 46> H 2.1532727100113656 -3.454116654193152 2.9831145444708986
| 47> H 5.493730929496087 -3.7750364457113723 0.3277361708476845
| 48> H 4.315586831983197 -4.477336678954364 2.443268902037012
| 49> *
| 50>
| 51> % eprnmr
| 52> gtensor true
| 53> Nuclei = all H {aiso,adip,aorb,fgrad,rho}
| 54> Nuclei = all Cu {aiso,adip,aorb,fgrad,rho}
| 55> end
| 56>
| 57>                          ****END OF INPUT****

CARTESIAN COORDINATES (ANGSTROEM)
---------------------------------
  Cu     0.077224   -0.012924    0.000000
  Se    -0.610386    2.059282    0.000000
  C      0.604888    3.203584    0.000000
  Se    -1.868501   -0.985716    0.000000
  C     -1.898298   -2.653463    0.000000
  Se     1.849252    0.963654    0.000000
  C      1.896172    2.644724    0.000000
  Se     0.550528   -2.010600    0.000000
  C     -0.614273   -3.235108    0.000000
  C     -0.466375   -4.607181    0.000000
  C     -2.967679   -3.536486    0.000000
  C     -2.813123   -4.909103    0.000000
  H     -3.972035   -3.140435    0.000000
  C     -1.542588   -5.469480    0.000000
  H      0.532892   -5.014784    0.000000
  H     -3.696267   -5.541826    0.000000
  H     -1.394857   -6.544521    0.000000
  C      0.486870    4.587379    0.000000
  C      2.990172    3.520560    0.000000
  C      1.572263    5.447481    0.000000
  H     -0.505084    5.012961    0.000000
  C      2.855017    4.906311    0.000000
  H      3.983118    3.098588    0.000000
  H      1.415401    6.521965    0.000000
  H      3.736957    5.538551    0.000000

 Total Charge           Charge          ....   -2
 Multiplicity           Mult            ....    2
 Number of Electrons    NEL             ....  247
 Basis Dimension        Dim             ....  575

ORBITAL ENERGIES
----------------
                 SPIN UP ORBITALS
  NO   OCC          E(Eh)            E(eV)    Irrep
   0   1.0000    -443.558399    -12069.8377    1-A'
   1   1.0000    -443.554564    -12069.7333    2-A'
   2   1.0000    -443.547246    -12069.5342    3-A'
   3   1.0000    -443.545189    -12069.4782    4-A'
   4   1.0000    -318.214454     -8659.0555    5-A'
   5   1.0000     -56.369751     -1533.8989    6-A'
   6   1.0000     -56.366780     -1533.8181    7-A'
   7   1.0000     -56.360383     -1533.6440    8-A'
   8   1.0000     -56.358070     -1533.5810    9-A'
   9   1.0000     -51.290095     -1395.6744   10-A'
  10   1.0000     -51.289022     -1395.6452   11-A'
  11   1.0000     -51.288394     -1395.6282    1-A"
  12   1.0000     -51.286029     -1395.5638   12-A'
  13   1.0000     -51.285509     -1395.5497   13-A'
  14   1.0000     -51.285391     -1395.5464   14-A'
  15   1.0000     -51.284772     -1395.5296   15-A'
  16   1.0000     -51.284310     -1395.5170    2-A"
  17   1.0000     -51.284310     -1395.5170   16-A'
  18   1.0000     -51.283932     -1395.5067   17-A'
  19   1.0000     -51.283813     -1395.5035    3-A"
  20   1.0000     -51.283709     -1395.5007    4-A"
  21   1.0000     -38.055012     -1035.5295   18-A'
  22   1.0000     -33.554831      -913.0734   19-A'
  23   1.0000     -33.553304      -913.0318   20-A'
  24   1.0000     -33.546131      -912.8366    5-A"
  25   1.0000      -9.820060      -267.2174   21-A'
  26   1.0000      -9.819771      -267.2096   22-A'
  27   1.0000      -9.819007      -267.1888   23-A'
  28   1.0000      -9.818943      -267.1870   24-A'
  29   1.0000      -9.814299      -267.0606   25-A'
  30   1.0000      -9.813045      -267.0265   26-A'
  31   1.0000      -9.812998      -267.0252   27-A'
  32   1.0000      -9.812570      -267.0136   28-A'
  33   1.0000      -9.812224      -267.0042   29-A'
  34   1.0000      -9.811733      -266.9908   30-A'
  35   1.0000      -9.811476      -266.9838   31-A'
  36   1.0000      -9.810699      -266.9627   32-A'
  37   1.0000      -7.343912      -199.8380   33-A'
  38   1.0000      -7.341214      -199.7646   34-A'
  39   1.0000      -7.338621      -199.6940   35-A'
  40   1.0000      -7.336259      -199.6298   36-A'
  41   1.0000      -5.409118      -147.1896   37-A'
  42   1.0000      -5.406537      -147.1194   38-A'
  43   1.0000      -5.405948      -147.1033   39-A'
  44   1.0000      -5.404987      -147.0772   40-A'
  45   1.0000      -5.404793      -147.0719   41-A'
  46   1.0000      -5.403830      -147.0457    6-A"
  47   1.0000      -5.401889      -146.9929   42-A'
  48   1.0000      -5.401088      -146.9711    7-A"
  49   1.0000      -5.400745      -146.9617   43-A'
  50   1.0000      -5.400648      -146.9591    8-A"
  51   1.0000      -5.400292      -146.9494   44-A'
  52   1.0000      -5.399494      -146.9277    9-A"
  53   1.0000      -4.048997      -110.1788   45-A'
  54   1.0000      -2.567853       -69.8748   46-A'
  55   1.0000      -2.566743       -69.8446   47-A'
  56   1.0000      -2.545022       -69.2536   10-A"
  57   1.0000      -1.748084       -47.5678   48-A'
  58   1.0000      -1.746199       -47.5165   49-A'
  59   1.0000      -1.745190       -47.4890   50-A'
  60   1.0000      -1.744781       -47.4779   11-A"
  61   1.0000      -1.744656       -47.4745   51-A'
  62   1.0000      -1.743670       -47.4477   52-A'
  63   1.0000      -1.743560       -47.4447   53-A'
  64   1.0000      -1.742600       -47.4185   54-A'
  65   1.0000      -1.742171       -47.4069   12-A"
  66   1.0000      -1.741850       -47.3981   13-A"
  67   1.0000      -1.741567       -47.3905   55-A'
  68   1.0000      -1.741402       -47.3860   56-A'
  69   1.0000      -1.741399       -47.3859   14-A"
  70   1.0000      -1.740553       -47.3628   15-A"
  71   1.0000      -1.738508       -47.3072   57-A'
  72   1.0000      -1.738437       -47.3053   16-A"
  73   1.0000      -1.737866       -47.2897   58-A'
  74   1.0000      -1.737568       -47.2816   17-A"
  75   1.0000      -1.736818       -47.2612   59-A'
  76   1.0000      -1.736757       -47.2596   18-A"
  77   1.0000      -0.605436       -16.4747   60-A'
  78   1.0000      -0.600520       -16.3410   61-A'
  79   1.0000      -0.531224       -14.4553   62-A'
  80   1.0000      -0.526676       -14.3316   63-A'
  81   1.0000      -0.491680       -13.3793   64-A'
  82   1.0000      -0.488223       -13.2852   65-A'
  83   1.0000      -0.406773       -11.0689   66-A'
  84   1.0000      -0.403069       -10.9681   67-A'
  85   1.0000      -0.400997       -10.9117   68-A'
  86   1.0000      -0.395935       -10.7739   69-A'
  87   1.0000      -0.320754        -8.7282   70-A'
  88   1.0000      -0.311942        -8.4884   71-A'
  89   1.0000      -0.293297        -7.9810   72-A'
  90   1.0000      -0.290402        -7.9022   73-A'
  91   1.0000      -0.243737        -6.6324   74-A'
  92   1.0000      -0.228148        -6.2082   75-A'
  93   1.0000      -0.199393        -5.4258   76-A'
  94   1.0000      -0.196098        -5.3361   77-A'
  95   1.0000      -0.177460        -4.8289   78-A'
  96   1.0000      -0.176633        -4.8064   79-A'
  97   1.0000      -0.159388        -4.3372   80-A'
  98   1.0000      -0.148918        -4.0523   81-A'
  99   1.0000      -0.145834        -3.9683   82-A'
 100   1.0000      -0.132916        -3.6168   19-A"
 101   1.0000      -0.129303        -3.5185   20-A"
 102   1.0000      -0.120350        -3.2749   83-A'
 103   1.0000      -0.100763        -2.7419   84-A'
 104   1.0000      -0.098238        -2.6732   85-A'
 105   1.0000      -0.083221        -2.2645   86-A'
 106   1.0000      -0.078541        -2.1372   87-A'
 107   1.0000      -0.071175        -1.9368   88-A'
 108   1.0000      -0.067582        -1.8390   21-A"
 109   1.0000      -0.054922        -1.4945   22-A"
 110   1.0000      -0.048803        -1.3280   23-A"
 111   1.0000      -0.027088        -0.7371   24-A"
 112   1.0000      -0.020402        -0.5552   25-A"
 113   1.0000      -0.019199        -0.5224   89-A'
 114   1.0000      -0.015035        -0.4091   26-A"
 115   1.0000      -0.007793        -0.2121   90-A'
 116   1.0000       0.007235         0.1969   91-A'
 117   1.0000       0.020459         0.5567   92-A'
 118   1.0000       0.047892         1.3032   27-A"
 119   1.0000       0.059850         1.6286   28-A"
 120   1.0000       0.061688         1.6786   29-A"
 121   1.0000       0.082861         2.2548   93-A'
 122   1.0000       0.094151         2.5620   30-A"
 123   1.0000       0.162916         4.4332   94-A'
 124   0.0000       0.177758         4.8370   95-A'
 125   0.0000       0.178906         4.8683   96-A'
 126   0.0000       0.191317         5.2060   97-A'
 127   0.0000       0.192011         5.2249   98-A'
 128   0.0000       0.196796         5.3551   31-A"

                 SPIN DOWN ORBITALS
  NO   OCC          E(Eh)            E(eV)    Irrep
   0   1.0000    -443.557845    -12069.8226    1-A'
   1   1.0000    -443.554079    -12069.7201    2-A'
   2   1.0000    -443.546709    -12069.5196    3-A'
   3   1.0000    -443.544707    -12069.4651    4-A'
   4   1.0000    -318.214362     -8659.0530    5-A'
   5   1.0000     -56.369521     -1533.8927    6-A'
   6   1.0000     -56.366581     -1533.8126    7-A'
   7   1.0000     -56.360162     -1533.6380    8-A'
   8   1.0000     -56.357868     -1533.5756    9-A'
   9   1.0000     -51.289740     -1395.6648   10-A'
  10   1.0000     -51.288069     -1395.6193    1-A"
  11   1.0000     -51.288059     -1395.6190   11-A'
  12   1.0000     -51.285714     -1395.5552   12-A'
  13   1.0000     -51.285197     -1395.5412   13-A'
  14   1.0000     -51.285116     -1395.5389   14-A'
  15   1.0000     -51.284020     -1395.5091    2-A"
  16   1.0000     -51.283922     -1395.5065   15-A'
  17   1.0000     -51.283531     -1395.4958    3-A"
  18   1.0000     -51.283458     -1395.4938    4-A"
  19   1.0000     -51.283447     -1395.4935   16-A'
  20   1.0000     -51.283217     -1395.4873   17-A'
  21   1.0000     -38.044768     -1035.2508   18-A'
  22   1.0000     -33.545152      -912.8100   19-A'
  23   1.0000     -33.543573      -912.7670   20-A'
  24   1.0000     -33.543158      -912.7557    5-A"
  25   1.0000      -9.820028      -267.2165   21-A'
  26   1.0000      -9.819735      -267.2086   22-A'
  27   1.0000      -9.818978      -267.1880   23-A'
  28   1.0000      -9.818916      -267.1863   24-A'
  29   1.0000      -9.814250      -267.0593   25-A'
  30   1.0000      -9.813029      -267.0261   26-A'
  31   1.0000      -9.812951      -267.0240   27-A'
  32   1.0000      -9.812527      -267.0124   28-A'
  33   1.0000      -9.812218      -267.0040   29-A'
  34   1.0000      -9.811654      -266.9887   30-A'
  35   1.0000      -9.811470      -266.9837   31-A'
  36   1.0000      -9.810718      -266.9632   32-A'
  37   1.0000      -7.343394      -199.8239   33-A'
  38   1.0000      -7.340794      -199.7532   34-A'
  39   1.0000      -7.338130      -199.6807   35-A'
  40   1.0000      -7.335805      -199.6174   36-A'
  41   1.0000      -5.408650      -147.1769   37-A'
  42   1.0000      -5.406145      -147.1087   38-A'
  43   1.0000      -5.405624      -147.0945   39-A'
  44   1.0000      -5.404370      -147.0604   40-A'
  45   1.0000      -5.403926      -147.0483   41-A'
  46   1.0000      -5.403359      -147.0329    6-A"
  47   1.0000      -5.400949      -146.9673   42-A'
  48   1.0000      -5.400651      -146.9592    7-A"
  49   1.0000      -5.400286      -146.9492    8-A"
  50   1.0000      -5.399974      -146.9408   43-A'
  51   1.0000      -5.399339      -146.9235   44-A'
  52   1.0000      -5.399078      -146.9164    9-A"
  53   1.0000      -4.030400      -109.6727   45-A'
  54   1.0000      -2.544569       -69.2412   46-A'
  55   1.0000      -2.543530       -69.2130   47-A'
  56   1.0000      -2.537398       -69.0461   10-A"
  57   1.0000      -1.747392       -47.5489   48-A'
  58   1.0000      -1.745044       -47.4851   49-A'
  59   1.0000      -1.744608       -47.4732   50-A'
  60   1.0000      -1.744292       -47.4646   11-A"
  61   1.0000      -1.744197       -47.4620   51-A'
  62   1.0000      -1.743070       -47.4313   52-A'
  63   1.0000      -1.742542       -47.4170   53-A'
  64   1.0000      -1.741767       -47.3959   54-A'
  65   1.0000      -1.741740       -47.3952   12-A"
  66   1.0000      -1.741495       -47.3885   13-A"
  67   1.0000      -1.740530       -47.3622   55-A'
  68   1.0000      -1.740313       -47.3563   14-A"
  69   1.0000      -1.740312       -47.3563   56-A'
  70   1.0000      -1.740125       -47.3512   15-A"
  71   1.0000      -1.737510       -47.2801   57-A'
  72   1.0000      -1.737444       -47.2782   16-A"
  73   1.0000      -1.737038       -47.2672   58-A'
  74   1.0000      -1.736758       -47.2596   17-A"
  75   1.0000      -1.735857       -47.2351   59-A'
  76   1.0000      -1.735795       -47.2334   18-A"
  77   1.0000      -0.604430       -16.4474   60-A'
  78   1.0000      -0.599610       -16.3162   61-A'
  79   1.0000      -0.529617       -14.4116   62-A'
  80   1.0000      -0.525324       -14.2948   63-A'
  81   1.0000      -0.490569       -13.3491   64-A'
  82   1.0000      -0.487123       -13.2553   65-A'
  83   1.0000      -0.404166       -10.9979   66-A'
  84   1.0000      -0.399613       -10.8740   67-A'
  85   1.0000      -0.397321       -10.8117   68-A'
  86   1.0000      -0.393673       -10.7124   69-A'
  87   1.0000      -0.319097        -8.6831   70-A'
  88   1.0000      -0.309983        -8.4351   71-A'
  89   1.0000      -0.290833        -7.9140   72-A'
  90   1.0000      -0.287445        -7.8218   73-A'
  91   1.0000      -0.242540        -6.5998   74-A'
  92   1.0000      -0.226950        -6.1756   75-A'
  93   1.0000      -0.197879        -5.3845   76-A'
  94   1.0000      -0.194655        -5.2968   77-A'
  95   1.0000      -0.176234        -4.7956   78-A'
  96   1.0000      -0.173258        -4.7146   79-A'
  97   1.0000      -0.157532        -4.2867   80-A'
  98   1.0000      -0.146239        -3.9794   81-A'
  99   1.0000      -0.143725        -3.9110   82-A'
 100   1.0000      -0.132193        -3.5971   19-A"
 101   1.0000      -0.128655        -3.5009   20-A"
 102   1.0000      -0.118187        -3.2160   83-A'
 103   1.0000      -0.097549        -2.6544   84-A'
 104   1.0000      -0.087721        -2.3870   85-A'
 105   1.0000      -0.081900        -2.2286   86-A'
 106   1.0000      -0.075316        -2.0495   87-A'
 107   1.0000      -0.067794        -1.8448   88-A'
 108   1.0000      -0.063470        -1.7271   21-A"
 109   1.0000      -0.053649        -1.4599   22-A"
 110   1.0000      -0.042192        -1.1481   23-A"
 111   1.0000      -0.023595        -0.6421   24-A"
 112   1.0000      -0.018411        -0.5010   25-A"
 113   1.0000      -0.013006        -0.3539   26-A"
 114   1.0000      -0.009265        -0.2521   89-A'
 115   1.0000       0.002850         0.0776   90-A'
 116   1.0000       0.015286         0.4160   91-A'
 117   1.0000       0.027421         0.7462   92-A'
 118   1.0000       0.050015         1.3610   27-A"
 119   1.0000       0.062608         1.7037   28-A"
 120   1.0000       0.065073         1.7707   29-A"
 121   1.0000       0.095156         2.5893   93-A'
 122   1.0000       0.097889         2.6637   30-A"
 123   0.0000       0.185810         5.0561   94-A'
 124   0.0000       0.187772         5.1095   95-A'
 125   0.0000       0.187980         5.1152   96-A'
 126   0.0000       0.196573         5.3490   31-A"
 127   0.0000       0.204888         5.5753   97-A'

MULLIKEN ATOMIC CHARGES AND SPIN POPULATIONS
--------------------------------------------
   0 Cu:    1.397973    0.208024
   1 Se:   -0.826568    0.196408
   2 C :    0.242398   -0.001151
   3 Se:   -0.818234    0.219435
   4 C :    0.241046   -0.001388
   5 Se:   -0.934425    0.166812
   6 C :    0.182338    0.004176
   7 Se:   -0.920660    0.195241
   8 C :    0.212482    0.004091
   9 C :   -0.149446   -0.005672
  10 C :   -0.143892   -0.005261
  11 C :   -0.140588   -0.002486
  12 H :    0.074836    0.008065
  13 C :   -0.153728   -0.003404
  14 H :    0.073305    0.005802
  15 H :    0.030660    0.000879
  16 H :    0.021288    0.006260
  17 C :   -0.142190   -0.004620
  18 C :   -0.157508   -0.004947
  19 C :   -0.147961   -0.002318
  20 H :    0.080088    0.007440
  21 C :   -0.151891   -0.002884
  22 H :    0.076913    0.005179
  23 H :    0.027976    0.001352
  24 H :    0.025788    0.004967
Sum of atomic charges         :   -2.0000000

LOEWDIN ATOMIC CHARGES AND SPIN POPULATIONS
-------------------------------------------
   0 Cu:   -0.714065    0.276633
   1 Se:   -0.245702    0.157009
   2 C :    0.103703    0.014491
   3 Se:   -0.251868    0.176647
   4 C :    0.109115    0.015851
   5 Se:   -0.280728    0.118162
   6 C :    0.123832    0.013413
   7 Se:   -0.293483    0.143932
   8 C :    0.127846    0.014473
   9 C :    0.364809    0.005169
  10 C :    0.368802    0.006015
  11 C :    0.316344   -0.000494
  12 H :   -0.437497    0.012881
  13 C :    0.317110    0.000057
  14 H :   -0.434974    0.009661
  15 H :   -0.417239    0.000640
  16 H :   -0.413888    0.002198
  17 C :    0.369310    0.006082
  18 C :    0.373680    0.004486
  19 C :    0.316941   -0.000289
  20 H :   -0.443072    0.012605
  21 C :    0.318042    0.000002
  22 H :   -0.441062    0.007994
  23 H :   -0.416732    0.000679
  24 H :   -0.419225    0.001704

  Mayer bond orders larger than 0.100000
B(  0-Cu,  1-Se) :   0.3193 B(  0-Cu,  3-Se) :   0.3102 B(  0-Cu,  5-Se) :   0.2911
B(  0-Cu,  6-C ) :   0.1061 B(  0-Cu,  7-Se) :   0.2906 B(  0-Cu,  8-C ) :   0.1021
B(  1-Se,  2-C ) :   1.0437 B(  1-Se,  5-Se) :   0.2183 B(  2-C ,  6-C ) :   1.1230
B(  2-C , 17-C ) :   1.2740 B(  3-Se,  4-C ) :   1.0528 B(  3-Se,  7-Se) :   0.2559
B(  4-C ,  8-C ) :   1.1142 B(  4-C , 10-C ) :   1.2709 B(  5-Se,  6-C ) :   1.0340
B(  5-Se,  7-Se) :   0.1167 B(  6-C , 18-C ) :   1.2803 B(  7-Se,  8-C ) :   1.0219
B(  8-C ,  9-C ) :   1.2863 B(  9-C , 13-C ) :   1.3705 B(  9-C , 14-H ) :   0.9655
B( 10-C , 11-C ) :   1.3740 B( 10-C , 12-H ) :   0.9660 B( 11-C , 13-C ) :   1.3256
B( 11-C , 15-H ) :   0.9887 B( 13-C , 16-H ) :   0.9911 B( 17-C , 19-C ) :   1.3728
B( 17-C , 20-H ) :   0.9636 B( 18-C , 21-C ) :   1.3770 B( 18-C , 22-H ) :   0.9652
B( 19-C , 21-C ) :   1.3235 B( 19-C , 23-H ) :   0.9907 B( 21-C , 24-H ) :   0.9899

FINAL SINGLE POINT ENERGY    -11627.043753890453

DIPOLE MOMENT
-------------
                                X             Y             Z
Electronic contribution:     -0.56969       0.21299       0.00000
Nuclear contribution   :      0.50701      -0.27199       0.00000
                        -----------------------------------------
Total Dipole Moment    :     -0.06268      -0.05900       0.00000
                        -----------------------------------------
Magnitude (a.u.)       :      0.08608
Magnitude (Debye)      :      0.21880

Rotational constants in cm-1:     0.023236     0.004168     0.003534
Rotational constants in MHz :   696.583380   124.957066   105.950980

                             ****ORCA TERMINATED NORMALLY****
TOTAL RUN TIME: 0 days 17 hours 7 minutes 8 seconds 617 msec
