                         Program Version 5.0.4 -  RELEASE  -
|  1> ! RIJCOSX nofrozencore ReducedPop printbasis
|  2> ! M06L ano-rcc-dzp autoaux
|  3>
|  4> %maxcore 7500
|  5> %basis
|  6> PCDTrimBas overlap
|  7> PCDTrimAuxJ Coulomb
|  8> PCDTrimAuxJK Coulomb
|  9> PCDTrimAuxC Coulomb
| 10> PCDThresh -1
| 11> end
| 12>
| 13> %basis
| 14> newgto Cu "ano-rcc-tzp" end
| 15> newgto Se "ano-rcc-tzp" end
| 16> end
| 17>
| 18> %pal
| 19> nprocs 8
| 20> end
| 21>
| 22> % sym SymThresh 1e-2 end
| 23> * xyz -2 2
| 24> Cu -0.0002755065901973115 -0.0004952640691434401 -0.00026143760359468644
| 25> Se -1.080285245467879 -1.6585094039654757 1.300018512512221
| 26> C -0.8894931438754408 -1.1496982577328179 2.8413352336128357
| 27> Se -0.44381494154858186 -1.0025959499127803 -2.100816146426602
| 28> C 0.1524674124540682 -0.1289652249433269 -3.1613554265871273
| 29> Se 0.4499399008908918 1.0119631127007034 2.0931485049144025
| 30> C -0.2393303897783901 -0.01482712259001524 3.180285686733383
| 31> Se 1.0824581222936094 1.6635698197231887 -1.2884879676569554
| 32> C 0.8237927032164353 1.0287201538050876 -2.92723673853134
| 33> C 1.4851834286920516 2.011662781367887 -3.9893991023499695
| 34> C 0.1867944940557439 -0.22904270364525808 -4.4558410599416955
| 35> C 0.6524300853029118 0.40854991499780036 -5.650043754929772
| 36> H -0.37650673687312247 -1.1789323913715852 -4.475828447219802
| 37> C 1.3300369085459562 1.6034231992676122 -5.19755079244445
| 38> H 1.9919685514640413 2.908188779427424 -3.627395069000436
| 39> H 0.698904227095175 0.3489395910671219 -6.780180164850076
| 40> H 1.8514674041670625 2.41112510689599 -5.766188055241927
| 41> C -1.4125664706105165 -1.897781626762279 3.9216639705373115
| 42> C -0.1482929066783986 0.3090488104336483 4.580913430903428
| 43> C -1.356500609589129 -1.643409435813891 5.234664964723549
| 44> H -1.9148179865431083 -2.786839733930444 3.558368345665537
| 45> C -0.6650987758049224 -0.43893757885841017 5.575569073573899
| 46> H 0.39421040675009705 1.2401072948296175 4.733389455033072
| 47> H -1.7786849166250607 -2.2562895501114966 6.0321012604357165
| 48> H -0.5390520100883573 -0.10207065674335225 6.599753204257011
| 49> *
| 50>
| 51> % eprnmr
| 52> gtensor true
| 53> Nuclei = all H {aiso,adip,aorb,fgrad,rho}
| 54> Nuclei = all Cu {aiso,adip,aorb,fgrad,rho}
| 55> end
| 56>
| 57>                          ****END OF INPUT****

CARTESIAN COORDINATES (ANGSTROEM)
---------------------------------
  Cu    -0.000571   -0.000252    0.000000
  Se    -1.953250    1.338854    0.000000
  C     -1.389955    2.873014    0.000000
  Se    -1.127298   -2.084418    0.000000
  C     -0.091450   -3.166336    0.000000
  Se     1.138336    2.076530    0.000000
  C     -0.076159    3.188403    0.000000
  Se     1.958923   -1.327405    0.000000
  C      1.250826   -2.956527    0.000000
  C      2.413854   -4.042422    0.000000
  C     -0.183881   -4.461845    0.000000
  C      0.579885   -5.672681    0.000000
  H     -1.288416   -4.461465    0.000000
  C      1.961372   -5.244761    0.000000
  H      3.449982   -3.698800    0.000000
  H      0.531481   -6.804308    0.000000
  H      2.911420   -5.832154    0.000000
  C     -2.280134    3.972072    0.000000
  C      0.274626    4.585504    0.000000
  C     -2.008572    5.282825    0.000000
  H     -3.307551    3.626995    0.000000
  C     -0.613852    5.598676    0.000000
  H      1.354804    4.718342    0.000000
  H     -2.736242    6.095390    0.000000
  H     -0.240983    6.618131    0.000000

 Total Charge           Charge          ....   -2
 Multiplicity           Mult            ....    2
 Number of Electrons    NEL             ....  247
 Basis Dimension        Dim             ....  575

ORBITAL ENERGIES
----------------
                 SPIN UP ORBITALS
  NO   OCC          E(Eh)            E(eV)    Irrep
   0   1.0000    -443.579381    -12070.4086    1-A'
   1   1.0000    -443.562015    -12069.9360    2-A'
   2   1.0000    -443.547424    -12069.5390    3-A'
   3   1.0000    -443.533096    -12069.1491    4-A'
   4   1.0000    -318.188780     -8658.3569    5-A'
   5   1.0000     -56.380222     -1534.1838    6-A'
   6   1.0000     -56.370978     -1533.9323    7-A'
   7   1.0000     -56.357772     -1533.5729    8-A'
   8   1.0000     -56.350044     -1533.3627    9-A'
   9   1.0000     -51.293793     -1395.7751   10-A'
  10   1.0000     -51.292770     -1395.7472   11-A'
  11   1.0000     -51.292326     -1395.7351    1-A"
  12   1.0000     -51.287164     -1395.5947   12-A'
  13   1.0000     -51.287097     -1395.5929   13-A'
  14   1.0000     -51.285883     -1395.5598   14-A'
  15   1.0000     -51.285746     -1395.5561   15-A'
  16   1.0000     -51.285377     -1395.5461    2-A"
  17   1.0000     -51.285294     -1395.5438    3-A"
  18   1.0000     -51.281893     -1395.4513   16-A'
  19   1.0000     -51.280517     -1395.4138   17-A'
  20   1.0000     -51.280148     -1395.4038    4-A"
  21   1.0000     -38.029180     -1034.8266   18-A'
  22   1.0000     -33.531235      -912.4313   19-A'
  23   1.0000     -33.530439      -912.4096   20-A'
  24   1.0000     -33.519278      -912.1059    5-A"
  25   1.0000      -9.837544      -267.6932   21-A'
  26   1.0000      -9.824781      -267.3459   22-A'
  27   1.0000      -9.821093      -267.2455   23-A'
  28   1.0000      -9.819217      -267.1945   24-A'
  29   1.0000      -9.818087      -267.1637   25-A'
  30   1.0000      -9.813927      -267.0505   26-A'
  31   1.0000      -9.812759      -267.0188   27-A'
  32   1.0000      -9.811592      -266.9870   28-A'
  33   1.0000      -9.810071      -266.9456   29-A'
  34   1.0000      -9.807291      -266.8700   30-A'
  35   1.0000      -9.805773      -266.8286   31-A'
  36   1.0000      -9.798804      -266.6390   32-A'
  37   1.0000      -7.347841      -199.9449   33-A'
  38   1.0000      -7.342121      -199.7893   34-A'
  39   1.0000      -7.334631      -199.5855   35-A'
  40   1.0000      -7.330632      -199.4766   36-A'
  41   1.0000      -5.409681      -147.2049   37-A'
  42   1.0000      -5.405213      -147.0833   38-A'
  43   1.0000      -5.404725      -147.0701   39-A'
  44   1.0000      -5.403868      -147.0467   40-A'
  45   1.0000      -5.403329      -147.0321    6-A"
  46   1.0000      -5.402695      -147.0148   41-A'
  47   1.0000      -5.400098      -146.9441   42-A'
  48   1.0000      -5.399548      -146.9292    7-A"
  49   1.0000      -5.399397      -146.9251   43-A'
  50   1.0000      -5.398935      -146.9125    8-A"
  51   1.0000      -5.397628      -146.8769   44-A'
  52   1.0000      -5.397493      -146.8732    9-A"
  53   1.0000      -4.023442      -109.4834   45-A'
  54   1.0000      -2.542972       -69.1978   46-A'
  55   1.0000      -2.542071       -69.1733   47-A'
  56   1.0000      -2.518522       -68.5325   10-A"
  57   1.0000      -1.751497       -47.6607   48-A'
  58   1.0000      -1.746181       -47.5160   49-A'
  59   1.0000      -1.745297       -47.4920   11-A"
  60   1.0000      -1.744120       -47.4599   50-A'
  61   1.0000      -1.743776       -47.4506   51-A'
  62   1.0000      -1.741643       -47.3925   52-A'
  63   1.0000      -1.740977       -47.3744   53-A'
  64   1.0000      -1.740722       -47.3675   12-A"
  65   1.0000      -1.740398       -47.3586   54-A'
  66   1.0000      -1.740255       -47.3547   13-A"
  67   1.0000      -1.740238       -47.3543   14-A"
  68   1.0000      -1.740238       -47.3543   55-A'
  69   1.0000      -1.738751       -47.3138   56-A'
  70   1.0000      -1.738374       -47.3036   15-A"
  71   1.0000      -1.736550       -47.2539   16-A"
  72   1.0000      -1.736538       -47.2536   57-A'
  73   1.0000      -1.735879       -47.2357   58-A'
  74   1.0000      -1.735744       -47.2320   17-A"
  75   1.0000      -1.734430       -47.1962   59-A'
  76   1.0000      -1.734270       -47.1919   18-A"
  77   1.0000      -0.619398       -16.8547   60-A'
  78   1.0000      -0.604141       -16.4395   61-A'
  79   1.0000      -0.540803       -14.7160   62-A'
  80   1.0000      -0.524611       -14.2754   63-A'
  81   1.0000      -0.498373       -13.5614   64-A'
  82   1.0000      -0.476411       -12.9638   65-A'
  83   1.0000      -0.424130       -11.5412   66-A'
  84   1.0000      -0.417625       -11.3642   67-A'
  85   1.0000      -0.391208       -10.6453   68-A'
  86   1.0000      -0.378664       -10.3040   69-A'
  87   1.0000      -0.325345        -8.8531   70-A'
  88   1.0000      -0.322848        -8.7852   71-A'
  89   1.0000      -0.286469        -7.7952   72-A'
  90   1.0000      -0.276185        -7.5154   73-A'
  91   1.0000      -0.236233        -6.4282   74-A'
  92   1.0000      -0.230473        -6.2715   75-A'
  93   1.0000      -0.200429        -5.4540   76-A'
  94   1.0000      -0.197074        -5.3627   77-A'
  95   1.0000      -0.165121        -4.4932   78-A'
  96   1.0000      -0.156214        -4.2508   79-A'
  97   1.0000      -0.148220        -4.0333   80-A'
  98   1.0000      -0.141884        -3.8609   19-A"
  99   1.0000      -0.141351        -3.8464   81-A'
 100   1.0000      -0.137649        -3.7456   82-A'
 101   1.0000      -0.131899        -3.5892   20-A"
 102   1.0000      -0.110285        -3.0010   83-A'
 103   1.0000      -0.076122        -2.0714   84-A'
 104   1.0000      -0.066706        -1.8152   85-A'
 105   1.0000      -0.060925        -1.6579   21-A"
 106   1.0000      -0.059409        -1.6166   86-A'
 107   1.0000      -0.051596        -1.4040   22-A"
 108   1.0000      -0.038891        -1.0583   87-A'
 109   1.0000      -0.030301        -0.8245   23-A"
 110   1.0000      -0.025846        -0.7033   88-A'
 111   1.0000      -0.019747        -0.5373   89-A'
 112   1.0000      -0.018640        -0.5072   24-A"
 113   1.0000      -0.004846        -0.1319   25-A"
 114   1.0000       0.000784         0.0213   90-A'
 115   1.0000       0.001795         0.0488   26-A"
 116   1.0000       0.017941         0.4882   91-A'
 117   1.0000       0.023069         0.6277   92-A'
 118   1.0000       0.038893         1.0583   93-A'
 119   1.0000       0.047947         1.3047   27-A"
 120   1.0000       0.050101         1.3633   28-A"
 121   1.0000       0.070753         1.9253   29-A"
 122   1.0000       0.099436         2.7058   30-A"
 123   1.0000       0.114402         3.1130   94-A'
 124   0.0000       0.180567         4.9135   95-A'
 125   0.0000       0.182081         4.9547   96-A'
 126   0.0000       0.187415         5.0998   31-A"
 127   0.0000       0.196107         5.3363   97-A'
 128   0.0000       0.198291         5.3958   98-A'

                 SPIN DOWN ORBITALS
  NO   OCC          E(Eh)            E(eV)    Irrep
   0   1.0000    -443.578971    -12070.3975    1-A'
   1   1.0000    -443.561562    -12069.9237    2-A'
   2   1.0000    -443.546960    -12069.5264    3-A'
   3   1.0000    -443.532618    -12069.1361    4-A'
   4   1.0000    -318.188657     -8658.3536    5-A'
   5   1.0000     -56.380054     -1534.1793    6-A'
   6   1.0000     -56.370793     -1533.9273    7-A'
   7   1.0000     -56.357587     -1533.5679    8-A'
   8   1.0000     -56.349852     -1533.3574    9-A'
   9   1.0000     -51.293485     -1395.7667   10-A'
  10   1.0000     -51.292124     -1395.7297   11-A'
  11   1.0000     -51.292105     -1395.7291    1-A"
  12   1.0000     -51.286828     -1395.5855   12-A'
  13   1.0000     -51.286770     -1395.5840   13-A'
  14   1.0000     -51.285111     -1395.5388    2-A"
  15   1.0000     -51.285104     -1395.5386   14-A'
  16   1.0000     -51.285054     -1395.5373    3-A"
  17   1.0000     -51.285045     -1395.5370   15-A'
  18   1.0000     -51.281537     -1395.4416   16-A'
  19   1.0000     -51.279876     -1395.3964    4-A"
  20   1.0000     -51.279748     -1395.3929   17-A'
  21   1.0000     -38.015312     -1034.4492   18-A'
  22   1.0000     -33.518060      -912.0728   19-A'
  23   1.0000     -33.517261      -912.0511   20-A'
  24   1.0000     -33.515403      -912.0005    5-A"
  25   1.0000      -9.837532      -267.6929   21-A'
  26   1.0000      -9.824716      -267.3441   22-A'
  27   1.0000      -9.821059      -267.2446   23-A'
  28   1.0000      -9.819163      -267.1930   24-A'
  29   1.0000      -9.817821      -267.1565   25-A'
  30   1.0000      -9.813868      -267.0489   26-A'
  31   1.0000      -9.812708      -267.0173   27-A'
  32   1.0000      -9.811432      -266.9826   28-A'
  33   1.0000      -9.809933      -266.9419   29-A'
  34   1.0000      -9.807326      -266.8709   30-A'
  35   1.0000      -9.805812      -266.8297   31-A'
  36   1.0000      -9.798873      -266.6409   32-A'
  37   1.0000      -7.347479      -199.9351   33-A'
  38   1.0000      -7.341717      -199.7783   34-A'
  39   1.0000      -7.334219      -199.5742   35-A'
  40   1.0000      -7.330201      -199.4649   36-A'
  41   1.0000      -5.409369      -147.1964   37-A'
  42   1.0000      -5.404810      -147.0724   38-A'
  43   1.0000      -5.404388      -147.0609   39-A'
  44   1.0000      -5.403107      -147.0260   40-A'
  45   1.0000      -5.403036      -147.0241    6-A"
  46   1.0000      -5.402287      -147.0037   41-A'
  47   1.0000      -5.399211      -146.9200   42-A'
  48   1.0000      -5.399207      -146.9199    7-A"
  49   1.0000      -5.398645      -146.9046    8-A"
  50   1.0000      -5.398619      -146.9039   43-A'
  51   1.0000      -5.397167      -146.8644    9-A"
  52   1.0000      -5.396780      -146.8539   44-A'
  53   1.0000      -3.995242      -108.7161   45-A'
  54   1.0000      -2.508208       -68.2518   10-A"
  55   1.0000      -2.507792       -68.2405   46-A'
  56   1.0000      -2.506779       -68.2129   47-A'
  57   1.0000      -1.751084       -47.6494   48-A'
  58   1.0000      -1.745369       -47.4939   49-A'
  59   1.0000      -1.745019       -47.4844   11-A"
  60   1.0000      -1.743619       -47.4463   50-A'
  61   1.0000      -1.743361       -47.4393   51-A'
  62   1.0000      -1.740672       -47.3661   52-A'
  63   1.0000      -1.740383       -47.3582   12-A"
  64   1.0000      -1.740134       -47.3514   53-A'
  65   1.0000      -1.739974       -47.3471   13-A"
  66   1.0000      -1.739910       -47.3454   54-A'
  67   1.0000      -1.739509       -47.3344   14-A"
  68   1.0000      -1.739487       -47.3338   55-A'
  69   1.0000      -1.738037       -47.2944   15-A"
  70   1.0000      -1.737820       -47.2885   56-A'
  71   1.0000      -1.735717       -47.2313   16-A"
  72   1.0000      -1.735675       -47.2301   57-A'
  73   1.0000      -1.735136       -47.2154   58-A'
  74   1.0000      -1.735023       -47.2124   17-A"
  75   1.0000      -1.733621       -47.1742   59-A'
  76   1.0000      -1.733500       -47.1709   18-A"
  77   1.0000      -0.618282       -16.8243   60-A'
  78   1.0000      -0.603384       -16.4189   61-A'
  79   1.0000      -0.539941       -14.6925   62-A'
  80   1.0000      -0.523494       -14.2450   63-A'
  81   1.0000      -0.496783       -13.5181   64-A'
  82   1.0000      -0.474987       -12.9250   65-A'
  83   1.0000      -0.421019       -11.4565   66-A'
  84   1.0000      -0.414744       -11.2858   67-A'
  85   1.0000      -0.389168       -10.5898   68-A'
  86   1.0000      -0.376269       -10.2388   69-A'
  87   1.0000      -0.322975        -8.7886   70-A'
  88   1.0000      -0.320364        -8.7175   71-A'
  89   1.0000      -0.283976        -7.7274   72-A'
  90   1.0000      -0.274039        -7.4570   73-A'
  91   1.0000      -0.235334        -6.4038   74-A'
  92   1.0000      -0.229519        -6.2455   75-A'
  93   1.0000      -0.199279        -5.4227   76-A'
  94   1.0000      -0.196176        -5.3382   77-A'
  95   1.0000      -0.163043        -4.4366   78-A'
  96   1.0000      -0.154619        -4.2074   79-A'
  97   1.0000      -0.147525        -4.0144   80-A'
  98   1.0000      -0.141408        -3.8479   19-A"
  99   1.0000      -0.139860        -3.8058   81-A'
 100   1.0000      -0.134363        -3.6562   82-A'
 101   1.0000      -0.131537        -3.5793   20-A"
 102   1.0000      -0.107644        -2.9291   83-A'
 103   1.0000      -0.074170        -2.0183   84-A'
 104   1.0000      -0.061692        -1.6787   85-A'
 105   1.0000      -0.060491        -1.6460   21-A"
 106   1.0000      -0.054858        -1.4928   86-A'
 107   1.0000      -0.050758        -1.3812   22-A"
 108   1.0000      -0.028104        -0.7648   23-A"
 109   1.0000      -0.022183        -0.6036   87-A'
 110   1.0000      -0.019922        -0.5421   88-A'
 111   1.0000      -0.015555        -0.4233   24-A"
 112   1.0000      -0.003388        -0.0922   89-A'
 113   1.0000       0.005066         0.1378   25-A"
 114   1.0000       0.010842         0.2950   26-A"
 115   1.0000       0.010885         0.2962   90-A'
 116   1.0000       0.029498         0.8027   91-A'
 117   1.0000       0.031564         0.8589   92-A'
 118   1.0000       0.049922         1.3584   27-A"
 119   1.0000       0.050116         1.3637   93-A'
 120   1.0000       0.053956         1.4682   28-A"
 121   1.0000       0.072432         1.9710   29-A"
 122   1.0000       0.102637         2.7929   30-A"
 123   0.0000       0.144245         3.9251   94-A'
 124   0.0000       0.182009         4.9527   95-A'
 125   0.0000       0.183026         4.9804   96-A'
 126   0.0000       0.187930         5.1138   31-A"
 127   0.0000       0.198599         5.4042   97-A'

MULLIKEN ATOMIC CHARGES AND SPIN POPULATIONS
--------------------------------------------
   0 Cu:    0.652716    0.309296
   1 Se:   -0.746221    0.165393
   2 C :    0.232549   -0.004516
   3 Se:   -0.681118    0.148745
   4 C :    0.257392   -0.007260
   5 Se:   -0.726231    0.187043
   6 C :    0.242922   -0.004916
   7 Se:   -0.732528    0.191921
   8 C :    0.185948    0.001169
   9 C :   -0.076027   -0.004611
  10 C :   -0.077254    0.007148
  11 C :   -0.339363   -0.002337
  12 H :    0.067524   -0.000764
  13 C :   -0.008991   -0.000342
  14 H :    0.058094    0.004188
  15 H :   -0.008594    0.000640
  16 H :    0.013620    0.002687
  17 C :   -0.090445    0.000953
  18 C :   -0.105089    0.001043
  19 C :   -0.187132   -0.001427
  20 H :    0.096511    0.001923
  21 C :   -0.154103   -0.000739
  22 H :    0.085756    0.002132
  23 H :    0.010516    0.001123
  24 H :    0.029549    0.001510
Sum of atomic charges         :   -2.0000000

LOEWDIN ATOMIC CHARGES AND SPIN POPULATIONS
-------------------------------------------
   0 Cu:   -0.606038    0.389941
   1 Se:   -0.188068    0.115112
   2 C :    0.028663    0.010414
   3 Se:   -0.140631    0.100108
   4 C :   -0.140991    0.015698
   5 Se:   -0.199655    0.133855
   6 C :    0.048487    0.011268
   7 Se:   -0.201243    0.137700
   8 C :    0.196426    0.009425
   9 C :    0.369546    0.006287
  10 C :    0.379060    0.007950
  11 C :    0.341020   -0.001146
  12 H :   -0.528632    0.012563
  13 C :    0.260356    0.000982
  14 H :   -0.432352    0.011084
  15 H :   -0.388885   -0.000255
  16 H :   -0.422929    0.000881
  17 C :    0.366343    0.006792
  18 C :    0.375502    0.008344
  19 C :    0.320189   -0.000132
  20 H :   -0.471711    0.010266
  21 C :    0.318582    0.000513
  22 H :   -0.463125    0.011873
  23 H :   -0.401698    0.000126
  24 H :   -0.418213    0.000351

  Mayer bond orders larger than 0.100000
B(  0-Cu,  1-Se) :   0.5529 B(  0-Cu,  3-Se) :   0.5305 B(  0-Cu,  5-Se) :   0.5510
B(  0-Cu,  7-Se) :   0.5478 B(  1-Se,  2-C ) :   1.0333 B(  2-C ,  6-C ) :   1.1601
B(  2-C , 17-C ) :   1.2076 B(  3-Se,  4-C ) :   1.1601 B(  4-C ,  8-C ) :   1.1402
B(  4-C , 10-C ) :   1.1485 B(  5-Se,  6-C ) :   1.0266 B(  6-C , 18-C ) :   1.2103
B(  7-Se,  8-C ) :   0.9937 B(  8-C ,  9-C ) :   1.1825 B(  9-C , 13-C ) :   1.4918
B(  9-C , 14-H ) :   0.9744 B( 10-C , 11-C ) :   1.3754 B( 10-C , 12-H ) :   0.9512
B( 11-C , 13-C ) :   1.2399 B( 11-C , 15-H ) :   1.0231 B( 13-C , 16-H ) :   0.9769
B( 17-C , 19-C ) :   1.4407 B( 17-C , 20-H ) :   0.9532 B( 18-C , 21-C ) :   1.4530
B( 18-C , 22-H ) :   0.9583 B( 19-C , 21-C ) :   1.2544 B( 19-C , 23-H ) :   1.0027
B( 21-C , 24-H ) :   0.9899

FINAL SINGLE POINT ENERGY    -11626.969821119183

DIPOLE MOMENT
-------------
                                X             Y             Z
Electronic contribution:     -0.32670       0.13487       0.00000
Nuclear contribution   :      0.46385       0.21060       0.00000
                        -----------------------------------------
Total Dipole Moment    :      0.13716       0.34547       0.00000
                        -----------------------------------------
Magnitude (a.u.)       :      0.37170
Magnitude (Debye)      :      0.94478

Rotational constants in cm-1:     0.017604     0.004091     0.003320
Rotational constants in MHz :   527.766284   122.651595    99.522751

                             ****ORCA TERMINATED NORMALLY****
TOTAL RUN TIME: 0 days 17 hours 16 minutes 5 seconds 480 msec
