                         Program Version 5.0.4 -  RELEASE  -
|  1> ! RIJCOSX nofrozencore ReducedPop printbasis
|  2> ! M06L ano-rcc-dzp autoaux
|  3>
|  4> %maxcore 7500
|  5> %basis
|  6> PCDTrimBas overlap
|  7> PCDTrimAuxJ Coulomb
|  8> PCDTrimAuxJK Coulomb
|  9> PCDTrimAuxC Coulomb
| 10> PCDThresh -1
| 11> end
| 12>
| 13> %basis
| 14> newgto Cu "ano-rcc-tzp" end
| 15> newgto Se "ano-rcc-tzp" end
| 16> end
| 17>
| 18> %pal
| 19> nprocs 8
| 20> end
| 21>
| 22> % sym SymThresh 1e-2 end
| 23> * xyz -2 2
| 24> Cu -0.0657208431988813 0.3087267348662963 -0.05644557582329769
| 25> Se 0.3325874915178221 -1.5601360967610358 1.7656877840340637
| 26> C 0.1563564657468176 -0.7299519538352492 3.1725173764066708
| 27> Se 0.3595702513164362 -1.6922543043379015 -1.805671441646591
| 28> C 0.15547276900869655 -0.7351936602477455 -3.1177407890800173
| 29> Se -0.3159056325877256 1.4870129625572341 1.7563777598876915
| 30> C -0.13150685988266392 0.6226004618877481 3.130138128626429
| 31> Se -0.3278656487465465 1.5380089526905325 -1.7255001637869458
| 32> C -0.1299482294300168 0.6060467201525006 -3.0534397005196285
| 33> C -0.26869816119009265 1.2561831759021935 -4.2765656867956965
| 34> C 0.27222878604789974 -1.2856971182197081 -4.381873522954927
| 35> C 0.1343513145729453 -0.6396675874451951 -5.6099460224776285
| 36> H 0.49703281871936783 -2.3420782541453526 -4.425740362140027
| 37> C -0.15601780902506848 0.724793101565591 -5.565799684360725
| 38> H -0.49362971286730967 2.3131998876914013 -4.205103923562416
| 39> H 0.25139825977657854 -1.1910313665187808 -6.537836666104447
| 40> H -0.2892343191541802 1.3494441256450753 -6.443791662837449
| 41> C 0.27913061678166734 -1.304952076094786 4.438567458839506
| 42> C -0.2693573539046091 1.2721328735631443 4.340157132023504
| 43> C 0.14046897065049624 -0.6515817644803905 5.663078006747568
| 44> H 0.504006078398228 -2.361540270103314 4.477619641090119
| 45> C -0.1488375694063171 0.7077155145072724 5.5994279608474224
| 46> H -0.4941506000948412 2.328318057478169 4.28992099790031
| 47> H 0.2559111910080071 -1.192627961551204 6.595790077639833
| 48> H -0.27897126270609623 1.3205122438125476 6.487498327289134
| 49> *
| 50>
| 51> % eprnmr
| 52> gtensor true
| 53> Nuclei = all H {aiso,adip,aorb,fgrad,rho}
| 54> Nuclei = all Cu {aiso,adip,aorb,fgrad,rho}
| 55> end
| 56>
| 57>                          ****END OF INPUT****

CARTESIAN COORDINATES (ANGSTROEM)
---------------------------------
  Cu     0.315643   -0.056456    0.000000
  Se    -1.595134    1.765740    0.000000
  C     -0.746404    3.172542    0.000000
  Se    -1.730093   -1.805615    0.000000
  C     -0.751555   -3.117716    0.000000
  Se     1.520257    1.756327    0.000000
  C      0.636440    3.130117    0.000000
  Se     1.572510   -1.725552    0.000000
  C      0.619720   -3.053461    0.000000
  C      1.284457   -4.276609    0.000000
  C     -1.314346   -4.381830    0.000000
  C     -0.653807   -5.609925    0.000000
  H     -2.394383   -4.425662    0.000000
  C      0.741209   -5.565825    0.000000
  H      2.365144   -4.205183    0.000000
  H     -1.217489   -6.537797    0.000000
  H      1.379878   -6.443838    0.000000
  C     -1.334324    4.438612    0.000000
  C      1.300480    4.340114    0.000000
  C     -0.666361    5.663100    0.000000
  H     -2.414576    4.477699    0.000000
  C      0.723380    5.599404    0.000000
  H      2.380320    4.289842    0.000000
  H     -1.219555    6.595831    0.000000
  H      1.349871    6.487454    0.000000

 Total Charge           Charge          ....   -2
 Multiplicity           Mult            ....    2
 Number of Electrons    NEL             ....  247
 Basis Dimension        Dim             ....  575

ORBITAL ENERGIES
----------------
                 SPIN UP ORBITALS
  NO   OCC          E(Eh)            E(eV)    Irrep
   0   1.0000    -443.564257    -12069.9971    1-A'
   1   1.0000    -443.563013    -12069.9632    2-A'
   2   1.0000    -443.548215    -12069.5605    3-A'
   3   1.0000    -443.546575    -12069.5159    4-A'
   4   1.0000    -318.189156     -8658.3671    5-A'
   5   1.0000     -56.373366     -1533.9973    6-A'
   6   1.0000     -56.372619     -1533.9770    7-A'
   7   1.0000     -56.358113     -1533.5822    8-A'
   8   1.0000     -56.356196     -1533.5301    9-A'
   9   1.0000     -51.290287     -1395.6797   10-A'
  10   1.0000     -51.290156     -1395.6761   11-A'
  11   1.0000     -51.288905     -1395.6421   12-A'
  12   1.0000     -51.288559     -1395.6326   13-A'
  13   1.0000     -51.288554     -1395.6325    1-A"
  14   1.0000     -51.288382     -1395.6278    2-A"
  15   1.0000     -51.285191     -1395.5410   14-A'
  16   1.0000     -51.284082     -1395.5108   15-A'
  17   1.0000     -51.283322     -1395.4901    3-A"
  18   1.0000     -51.282295     -1395.4622   16-A'
  19   1.0000     -51.281160     -1395.4313   17-A'
  20   1.0000     -51.280479     -1395.4128    4-A"
  21   1.0000     -38.030697     -1034.8679   18-A'
  22   1.0000     -33.532227      -912.4583   19-A'
  23   1.0000     -33.531671      -912.4432   20-A'
  24   1.0000     -33.521639      -912.1702    5-A"
  25   1.0000      -9.819315      -267.1971   21-A'
  26   1.0000      -9.818667      -267.1795   22-A'
  27   1.0000      -9.818157      -267.1656   23-A'
  28   1.0000      -9.817040      -267.1352   24-A'
  29   1.0000      -9.810253      -266.9506   25-A'
  30   1.0000      -9.809563      -266.9318   26-A'
  31   1.0000      -9.808186      -266.8943   27-A'
  32   1.0000      -9.807699      -266.8811   28-A'
  33   1.0000      -9.807570      -266.8775   29-A'
  34   1.0000      -9.807199      -266.8675   30-A'
  35   1.0000      -9.806519      -266.8489   31-A'
  36   1.0000      -9.805816      -266.8298   32-A'
  37   1.0000      -7.345194      -199.8729   33-A'
  38   1.0000      -7.344519      -199.8545   34-A'
  39   1.0000      -7.334082      -199.5705   35-A'
  40   1.0000      -7.331655      -199.5045   36-A'
  41   1.0000      -5.409710      -147.2057   37-A'
  42   1.0000      -5.409093      -147.1889   38-A'
  43   1.0000      -5.403835      -147.0458    6-A"
  44   1.0000      -5.403779      -147.0443   39-A'
  45   1.0000      -5.403679      -147.0416   40-A'
  46   1.0000      -5.403413      -147.0343    7-A"
  47   1.0000      -5.402126      -146.9993   41-A'
  48   1.0000      -5.399186      -146.9193   42-A'
  49   1.0000      -5.397597      -146.8761   43-A'
  50   1.0000      -5.396324      -146.8415    8-A"
  51   1.0000      -5.394349      -146.7877   44-A'
  52   1.0000      -5.393377      -146.7613    9-A"
  53   1.0000      -4.025285      -109.5336   45-A'
  54   1.0000      -2.544970       -69.2522   46-A'
  55   1.0000      -2.543077       -69.2006   47-A'
  56   1.0000      -2.521195       -68.6052   10-A"
  57   1.0000      -1.748810       -47.5875   48-A'
  58   1.0000      -1.748198       -47.5709   49-A'
  59   1.0000      -1.745817       -47.5061   50-A'
  60   1.0000      -1.745537       -47.4985   51-A'
  61   1.0000      -1.745391       -47.4945   11-A"
  62   1.0000      -1.744708       -47.4759   12-A"
  63   1.0000      -1.741146       -47.3790   52-A'
  64   1.0000      -1.740712       -47.3672   53-A'
  65   1.0000      -1.740385       -47.3583   13-A"
  66   1.0000      -1.740371       -47.3579   54-A'
  67   1.0000      -1.740240       -47.3543   14-A"
  68   1.0000      -1.738852       -47.3166   55-A'
  69   1.0000      -1.738255       -47.3003   56-A'
  70   1.0000      -1.737450       -47.2784   15-A"
  71   1.0000      -1.735742       -47.2320   57-A'
  72   1.0000      -1.734589       -47.2006   16-A"
  73   1.0000      -1.733731       -47.1772   17-A"
  74   1.0000      -1.733647       -47.1749   58-A'
  75   1.0000      -1.730555       -47.0908   18-A"
  76   1.0000      -1.730520       -47.0898   59-A'
  77   1.0000      -0.603454       -16.4208   60-A'
  78   1.0000      -0.602664       -16.3993   61-A'
  79   1.0000      -0.522252       -14.2112   62-A'
  80   1.0000      -0.519250       -14.1295   63-A'
  81   1.0000      -0.500836       -13.6285   64-A'
  82   1.0000      -0.498157       -13.5555   65-A'
  83   1.0000      -0.412518       -11.2252   66-A'
  84   1.0000      -0.410943       -11.1823   67-A'
  85   1.0000      -0.385197       -10.4817   68-A'
  86   1.0000      -0.378995       -10.3130   69-A'
  87   1.0000      -0.323522        -8.8035   70-A'
  88   1.0000      -0.319438        -8.6924   71-A'
  89   1.0000      -0.289555        -7.8792   72-A'
  90   1.0000      -0.285899        -7.7797   73-A'
  91   1.0000      -0.229912        -6.2562   74-A'
  92   1.0000      -0.223777        -6.0893   75-A'
  93   1.0000      -0.200181        -5.4472   76-A'
  94   1.0000      -0.198622        -5.4048   77-A'
  95   1.0000      -0.173129        -4.7111   78-A'
  96   1.0000      -0.167733        -4.5643   79-A'
  97   1.0000      -0.141174        -3.8415   80-A'
  98   1.0000      -0.135288        -3.6814   81-A'
  99   1.0000      -0.132568        -3.6074   82-A'
 100   1.0000      -0.131283        -3.5724   19-A"
 101   1.0000      -0.130852        -3.5607   20-A"
 102   1.0000      -0.115342        -3.1386   83-A'
 103   1.0000      -0.082204        -2.2369   84-A'
 104   1.0000      -0.075772        -2.0619   85-A'
 105   1.0000      -0.071228        -1.9382   86-A'
 106   1.0000      -0.054863        -1.4929   87-A'
 107   1.0000      -0.050485        -1.3738   21-A"
 108   1.0000      -0.048373        -1.3163   22-A"
 109   1.0000      -0.041892        -1.1399   88-A'
 110   1.0000      -0.034002        -0.9252   23-A"
 111   1.0000      -0.028432        -0.7737   24-A"
 112   1.0000      -0.025506        -0.6941   89-A'
 113   1.0000      -0.007141        -0.1943   25-A"
 114   1.0000      -0.004796        -0.1305   26-A"
 115   1.0000      -0.002375        -0.0646   90-A'
 116   1.0000       0.016399         0.4462   91-A'
 117   1.0000       0.024701         0.6722   92-A'
 118   1.0000       0.049051         1.3347   93-A'
 119   1.0000       0.054923         1.4945   27-A"
 120   1.0000       0.058324         1.5871   28-A"
 121   1.0000       0.070656         1.9227   29-A"
 122   1.0000       0.099020         2.6945   30-A"
 123   1.0000       0.107429         2.9233   94-A'
 124   0.0000       0.182099         4.9552   95-A'
 125   0.0000       0.182793         4.9740   96-A'
 126   0.0000       0.196117         5.3366   97-A'
 127   0.0000       0.196957         5.3595   98-A'
 128   0.0000       0.200266         5.4495   31-A"

                 SPIN DOWN ORBITALS
  NO   OCC          E(Eh)            E(eV)    Irrep
   0   1.0000    -443.563860    -12069.9862    1-A'
   1   1.0000    -443.562560    -12069.9509    2-A'
   2   1.0000    -443.547652    -12069.5452    3-A'
   3   1.0000    -443.546097    -12069.5029    4-A'
   4   1.0000    -318.188999     -8658.3629    5-A'
   5   1.0000     -56.373216     -1533.9932    6-A'
   6   1.0000     -56.372427     -1533.9717    7-A'
   7   1.0000     -56.357884     -1533.5760    8-A'
   8   1.0000     -56.355998     -1533.5247    9-A'
   9   1.0000     -51.289977     -1395.6712   10-A'
  10   1.0000     -51.289917     -1395.6696   11-A'
  11   1.0000     -51.288312     -1395.6259    1-A"
  12   1.0000     -51.288214     -1395.6233    2-A"
  13   1.0000     -51.288192     -1395.6226   12-A'
  14   1.0000     -51.288070     -1395.6193   13-A'
  15   1.0000     -51.284752     -1395.5291   14-A'
  16   1.0000     -51.283081     -1395.4836   15-A'
  17   1.0000     -51.282982     -1395.4809    3-A"
  18   1.0000     -51.281924     -1395.4521   16-A'
  19   1.0000     -51.280260     -1395.4068   17-A'
  20   1.0000     -51.280182     -1395.4047    4-A"
  21   1.0000     -38.019090     -1034.5520   18-A'
  22   1.0000     -33.521207      -912.1584   19-A'
  23   1.0000     -33.520517      -912.1396   20-A'
  24   1.0000     -33.518360      -912.0809    5-A"
  25   1.0000      -9.819271      -267.1959   21-A'
  26   1.0000      -9.818616      -267.1781   22-A'
  27   1.0000      -9.818099      -267.1641   23-A'
  28   1.0000      -9.816974      -267.1335   24-A'
  29   1.0000      -9.810311      -266.9521   25-A'
  30   1.0000      -9.809422      -266.9279   26-A'
  31   1.0000      -9.808207      -266.8949   27-A'
  32   1.0000      -9.807691      -266.8808   28-A'
  33   1.0000      -9.807507      -266.8758   29-A'
  34   1.0000      -9.807103      -266.8648   30-A'
  35   1.0000      -9.806413      -266.8461   31-A'
  36   1.0000      -9.805658      -266.8255   32-A'
  37   1.0000      -7.344912      -199.8652   33-A'
  38   1.0000      -7.344114      -199.8435   34-A'
  39   1.0000      -7.333558      -199.5563   35-A'
  40   1.0000      -7.331200      -199.4921   36-A'
  41   1.0000      -5.409452      -147.1987   37-A'
  42   1.0000      -5.408740      -147.1793   38-A'
  43   1.0000      -5.403621      -147.0400    6-A"
  44   1.0000      -5.403261      -147.0302   39-A'
  45   1.0000      -5.403099      -147.0258    7-A"
  46   1.0000      -5.402887      -147.0200   40-A'
  47   1.0000      -5.401662      -146.9867   41-A'
  48   1.0000      -5.398789      -146.9085   42-A'
  49   1.0000      -5.396452      -146.8449   43-A'
  50   1.0000      -5.395922      -146.8305    8-A"
  51   1.0000      -5.393340      -146.7603   44-A'
  52   1.0000      -5.393039      -146.7520    9-A"
  53   1.0000      -4.002167      -108.9045   45-A'
  54   1.0000      -2.515831       -68.4592   46-A'
  55   1.0000      -2.514296       -68.4175   47-A'
  56   1.0000      -2.512514       -68.3690   10-A"
  57   1.0000      -1.748505       -47.5793   48-A'
  58   1.0000      -1.747762       -47.5590   49-A'
  59   1.0000      -1.745214       -47.4897   50-A'
  60   1.0000      -1.745166       -47.4884   11-A"
  61   1.0000      -1.744643       -47.4741   51-A'
  62   1.0000      -1.744398       -47.4675   12-A"
  63   1.0000      -1.740548       -47.3627   52-A'
  64   1.0000      -1.740239       -47.3543   53-A'
  65   1.0000      -1.739898       -47.3450   13-A"
  66   1.0000      -1.739598       -47.3369   54-A'
  67   1.0000      -1.739473       -47.3335   14-A"
  68   1.0000      -1.737761       -47.2869   55-A'
  69   1.0000      -1.737681       -47.2847   56-A'
  70   1.0000      -1.737088       -47.2686   15-A"
  71   1.0000      -1.734733       -47.2045   57-A'
  72   1.0000      -1.734297       -47.1926   16-A"
  73   1.0000      -1.732699       -47.1491   17-A"
  74   1.0000      -1.732577       -47.1458   58-A'
  75   1.0000      -1.729673       -47.0668   18-A"
  76   1.0000      -1.729595       -47.0647   59-A'
  77   1.0000      -0.602460       -16.3938   60-A'
  78   1.0000      -0.601838       -16.3768   61-A'
  79   1.0000      -0.520960       -14.1760   62-A'
  80   1.0000      -0.518268       -14.1028   63-A'
  81   1.0000      -0.498991       -13.5782   64-A'
  82   1.0000      -0.496204       -13.5024   65-A'
  83   1.0000      -0.409823       -11.1519   66-A'
  84   1.0000      -0.408265       -11.1094   67-A'
  85   1.0000      -0.382190       -10.3999   68-A'
  86   1.0000      -0.376398       -10.2423   69-A'
  87   1.0000      -0.321882        -8.7589   70-A'
  88   1.0000      -0.317310        -8.6344   71-A'
  89   1.0000      -0.286889        -7.8066   72-A'
  90   1.0000      -0.283115        -7.7039   73-A'
  91   1.0000      -0.228657        -6.2221   74-A'
  92   1.0000      -0.222583        -6.0568   75-A'
  93   1.0000      -0.198681        -5.4064   76-A'
  94   1.0000      -0.197411        -5.3718   77-A'
  95   1.0000      -0.171722        -4.6728   78-A'
  96   1.0000      -0.165412        -4.5011   79-A'
  97   1.0000      -0.139746        -3.8027   80-A'
  98   1.0000      -0.133274        -3.6266   81-A'
  99   1.0000      -0.131119        -3.5679   82-A'
 100   1.0000      -0.130842        -3.5604   19-A"
 101   1.0000      -0.130468        -3.5502   20-A"
 102   1.0000      -0.112559        -3.0629   83-A'
 103   1.0000      -0.080787        -2.1983   84-A'
 104   1.0000      -0.069094        -1.8802   85-A'
 105   1.0000      -0.068934        -1.8758   86-A'
 106   1.0000      -0.050280        -1.3682   87-A'
 107   1.0000      -0.048862        -1.3296   21-A"
 108   1.0000      -0.047552        -1.2940   22-A"
 109   1.0000      -0.034542        -0.9399   88-A'
 110   1.0000      -0.031610        -0.8602   23-A"
 111   1.0000      -0.026892        -0.7318   24-A"
 112   1.0000      -0.004606        -0.1253   89-A'
 113   1.0000       0.000761         0.0207   25-A"
 114   1.0000       0.003259         0.0887   26-A"
 115   1.0000       0.007434         0.2023   90-A'
 116   1.0000       0.027118         0.7379   91-A'
 117   1.0000       0.036307         0.9880   92-A'
 118   1.0000       0.058077         1.5804   27-A"
 119   1.0000       0.060586         1.6486   28-A"
 120   1.0000       0.061157         1.6642   93-A'
 121   1.0000       0.072790         1.9807   29-A"
 122   1.0000       0.102188         2.7807   30-A"
 123   0.0000       0.134231         3.6526   94-A'
 124   0.0000       0.183715         4.9991   95-A'
 125   0.0000       0.184310         5.0153   96-A'
 126   0.0000       0.199049         5.4164   97-A'
 127   0.0000       0.199727         5.4349   98-A'

MULLIKEN ATOMIC CHARGES AND SPIN POPULATIONS
--------------------------------------------
   0 Cu:    0.803820    0.258606
   1 Se:   -0.704783    0.234203
   2 C :    0.237047   -0.008332
   3 Se:   -0.745223    0.205346
   4 C :    0.250216   -0.007785
   5 Se:   -0.778470    0.170070
   6 C :    0.213063    0.003136
   7 Se:   -0.835609    0.131738
   8 C :    0.165547    0.001966
   9 C :   -0.086486   -0.000834
  10 C :   -0.105209   -0.000533
  11 C :   -0.154897   -0.000345
  12 H :    0.101670    0.002985
  13 C :   -0.174677   -0.000303
  14 H :    0.089512    0.002185
  15 H :    0.022383    0.001302
  16 H :    0.018629    0.001737
  17 C :   -0.129027   -0.000889
  18 C :   -0.094962   -0.002094
  19 C :   -0.161232   -0.000830
  20 H :    0.093246    0.002893
  21 C :   -0.156270   -0.000296
  22 H :    0.088466    0.002627
  23 H :    0.021541    0.001815
  24 H :    0.021707    0.001631
Sum of atomic charges         :   -2.0000000

LOEWDIN ATOMIC CHARGES AND SPIN POPULATIONS
-------------------------------------------
   0 Cu:   -0.567143    0.339799
   1 Se:   -0.219259    0.191066
   2 C :    0.021676    0.014870
   3 Se:   -0.205772    0.168071
   4 C :    0.004535    0.011221
   5 Se:   -0.209210    0.111054
   6 C :    0.047764    0.012778
   7 Se:   -0.203095    0.070781
   8 C :    0.058548    0.010530
   9 C :    0.382864    0.005952
  10 C :    0.369245    0.008262
  11 C :    0.324749    0.000398
  12 H :   -0.470387    0.012259
  13 C :    0.325882    0.000829
  14 H :   -0.475459    0.006162
  15 H :   -0.414295    0.000328
  16 H :   -0.412672    0.000430
  17 C :    0.369863    0.007951
  18 C :    0.374679    0.006700
  19 C :    0.323153    0.000230
  20 H :   -0.457246    0.010851
  21 C :    0.320113    0.000764
  22 H :   -0.461555    0.007818
  23 H :   -0.413703    0.000503
  24 H :   -0.413272    0.000392

  Mayer bond orders larger than 0.100000
B(  0-Cu,  1-Se) :   0.4226 B(  0-Cu,  3-Se) :   0.4224 B(  0-Cu,  5-Se) :   0.5710
B(  0-Cu,  7-Se) :   0.6022 B(  1-Se,  2-C ) :   1.0341 B(  2-C ,  6-C ) :   1.1261
B(  2-C , 17-C ) :   1.2651 B(  3-Se,  4-C ) :   1.0269 B(  4-C ,  8-C ) :   1.1287
B(  4-C , 10-C ) :   1.2539 B(  5-Se,  6-C ) :   1.0310 B(  6-C , 18-C ) :   1.2619
B(  7-Se,  8-C ) :   1.0349 B(  8-C ,  9-C ) :   1.2603 B(  9-C , 13-C ) :   1.3711
B(  9-C , 14-H ) :   0.9525 B( 10-C , 11-C ) :   1.3779 B( 10-C , 12-H ) :   0.9599
B( 11-C , 13-C ) :   1.3140 B( 11-C , 15-H ) :   0.9953 B( 13-C , 16-H ) :   0.9988
B( 17-C , 19-C ) :   1.3735 B( 17-C , 20-H ) :   0.9640 B( 18-C , 21-C ) :   1.3686
B( 18-C , 22-H ) :   0.9558 B( 19-C , 21-C ) :   1.3200 B( 19-C , 23-H ) :   0.9964
B( 21-C , 24-H ) :   0.9952

FINAL SINGLE POINT ENERGY    -11627.122443495160

DIPOLE MOMENT
-------------
                                X             Y             Z
Electronic contribution:     -0.56829      -0.61430      -0.00000
Nuclear contribution   :      0.96857       0.61017       0.00000
                        -----------------------------------------
Total Dipole Moment    :      0.40028      -0.00413      -0.00000
                        -----------------------------------------
Magnitude (a.u.)       :      0.40030
Magnitude (Debye)      :      1.01749

Rotational constants in cm-1:     0.017210     0.004089     0.003304
Rotational constants in MHz :   515.931548   122.591107    99.054621

                             ****ORCA TERMINATED NORMALLY****
TOTAL RUN TIME: 0 days 17 hours 3 minutes 21 seconds 724 msec
