                         Program Version 5.0.4 -  RELEASE  -
|  1> ! RIJCOSX nofrozencore ReducedPop printbasis
|  2> ! M06L ano-rcc-dzp autoaux
|  3>
|  4> %maxcore 7500
|  5> %basis
|  6> PCDTrimBas overlap
|  7> PCDTrimAuxJ Coulomb
|  8> PCDTrimAuxJK Coulomb
|  9> PCDTrimAuxC Coulomb
| 10> PCDThresh -1
| 11> end
| 12>
| 13> %basis
| 14> newgto Cu "ano-rcc-tzp" end
| 15> newgto Se "ano-rcc-tzp" end
| 16> end
| 17>
| 18> %pal
| 19> nprocs 8
| 20> end
| 21>
| 22> % sym SymThresh 1e-2 end
| 23> * xyz -2 2
| 24> Cu -0.1395780038246906 0.4525849858466562 -0.18454746774609695
| 25> Se 0.9585509038425329 -0.667838678271393 -2.062768091940144
| 26> C 2.4960141109204015 -0.10515173338916356 -2.0045642460625928
| 27> Se -2.1314428888062626 -0.9498709441831987 -0.41774386914080697
| 28> C -3.0058870657455024 -0.6075669331577793 0.9246247468801302
| 29> Se 2.1912441999065186 0.7559625187157665 0.49681276115550294
| 30> C 3.0339909168031145 0.5164389393414441 -0.8874660237085583
| 31> Se -0.8987487689608943 0.47392758165598914 2.141838073153053
| 32> C -2.467841611414233 0.013801143908528643 2.0418137357519215
| 33> C -3.3342052082996165 0.24596132823655953 3.1063237517125963
| 34> C -4.357458113531292 -0.9357167857969833 0.9816641842641868
| 35> C -5.215385814572367 -0.6932902602177878 2.0354916475047196
| 36> H -4.769657973088278 -1.4176133843858953 0.10735541277173576
| 37> C -4.676834466794903 -0.07106223433608215 3.1537762174351247
| 38> H -2.908534158463451 0.7320421499242963 3.971817197770249
| 39> H -6.262220276141739 -0.9771616111553488 1.9721398698055277
| 40> H -5.270250337930327 0.16830093487918169 4.031828879715019
| 41> C 3.330516096737429 -0.23399628575095044 -3.1112031019971425
| 42> C 4.3535278525545404 0.948460832769471 -0.9868607489388201
| 43> C 4.635200611777644 0.2060648043067204 -3.208825852744768
| 44> H 2.9040805777781395 -0.7175982821210455 -3.9777073239965395
| 45> C 5.173661780664135 0.8285793727277034 -2.090657253245108
| 46> H 4.764870704879748 1.433136315631501 -0.11368510665404968
| 47> H 5.197186146568972 0.06861297293095717 -4.128433862960399
| 48> H 6.188828826227457 1.2151354420569034 -2.0691756277946194
| 49> *
| 50>
| 51> % eprnmr
| 52> gtensor true
| 53> Nuclei = all H {aiso,adip,aorb,fgrad,rho}
| 54> Nuclei = all Cu {aiso,adip,aorb,fgrad,rho}
| 55> end
| 56>
| 57>                          ****END OF INPUT****

CARTESIAN COORDINATES (ANGSTROEM)
---------------------------------
  Cu    -0.000000   -0.000000    0.508304
  Se    -1.588883    1.755969   -0.108891
  C     -0.693488    3.126639   -0.051236
  Se    -1.588883   -1.755969   -0.108891
  C     -0.693488   -3.126639   -0.051236
  Se     1.588883    1.755969   -0.108891
  C      0.693488    3.126639   -0.051236
  Se     1.588883   -1.755969   -0.108891
  C      0.693488   -3.126639   -0.051236
  C      1.318862   -4.368893    0.006938
  C     -1.318862   -4.368893    0.006938
  C     -0.694220   -5.597896    0.075892
  H     -2.398899   -4.360734    0.008414
  C      0.694220   -5.597896    0.075892
  H      2.398899   -4.360734    0.008414
  H     -1.278516   -6.512078    0.133338
  H      1.278516   -6.512078    0.133338
  C     -1.318862    4.368893    0.006938
  C      1.318862    4.368893    0.006938
  C     -0.694220    5.597896    0.075892
  H     -2.398899    4.360734    0.008414
  C      0.694220    5.597896    0.075892
  H      2.398899    4.360734    0.008414
  H     -1.278516    6.512078    0.133338
  H      1.278516    6.512078    0.133338

 Total Charge           Charge          ....   -2
 Multiplicity           Mult            ....    2
 Number of Electrons    NEL             ....  247
 Basis Dimension        Dim             ....  575

ORBITAL ENERGIES
----------------
                 SPIN UP ORBITALS
  NO   OCC          E(Eh)            E(eV)    Irrep
   0   1.0000    -443.561151    -12069.9125    1-A2
   1   1.0000    -443.561009    -12069.9087    1-B1
   2   1.0000    -443.547347    -12069.5369    1-A1
   3   1.0000    -443.547275    -12069.5350    1-B2
   4   1.0000    -318.174223     -8657.9608    2-A1
   5   1.0000     -56.369732     -1533.8984    2-A2
   6   1.0000     -56.369342     -1533.8878    2-B1
   7   1.0000     -56.356879     -1533.5486    3-A1
   8   1.0000     -56.356754     -1533.5452    2-B2
   9   1.0000     -51.286230     -1395.5693    3-A2
  10   1.0000     -51.286168     -1395.5676    3-B2
  11   1.0000     -51.286165     -1395.5675    3-B1
  12   1.0000     -51.286128     -1395.5665    4-A1
  13   1.0000     -51.285006     -1395.5360    4-A2
  14   1.0000     -51.284989     -1395.5355    4-B1
  15   1.0000     -51.284954     -1395.5345    4-B2
  16   1.0000     -51.284935     -1395.5340    5-A1
  17   1.0000     -51.284359     -1395.5184    5-A2
  18   1.0000     -51.284335     -1395.5177    5-B1
  19   1.0000     -51.284314     -1395.5171    5-B2
  20   1.0000     -51.284271     -1395.5160    6-A1
  21   1.0000     -38.014923     -1034.4386    7-A1
  22   1.0000     -33.517106      -912.0468    6-B1
  23   1.0000     -33.516732      -912.0366    6-B2
  24   1.0000     -33.505929      -911.7427    8-A1
  25   1.0000      -9.816761      -267.1276    7-B2
  26   1.0000      -9.816761      -267.1276    9-A1
  27   1.0000      -9.816312      -267.1154    6-A2
  28   1.0000      -9.816312      -267.1154    7-B1
  29   1.0000      -9.808409      -266.9004    8-B2
  30   1.0000      -9.808402      -266.9002   10-A1
  31   1.0000      -9.807965      -266.8883    7-A2
  32   1.0000      -9.807963      -266.8882    8-B1
  33   1.0000      -9.806973      -266.8613    9-B2
  34   1.0000      -9.806972      -266.8613   11-A1
  35   1.0000      -9.806961      -266.8610    8-A2
  36   1.0000      -9.806961      -266.8610    9-B1
  37   1.0000      -7.340529      -199.7460    9-A2
  38   1.0000      -7.340371      -199.7416   10-B1
  39   1.0000      -7.333181      -199.5460   12-A1
  40   1.0000      -7.333088      -199.5435   10-B2
  41   1.0000      -5.403421      -147.0346   10-A2
  42   1.0000      -5.403394      -147.0338   11-B2
  43   1.0000      -5.403382      -147.0335   11-B1
  44   1.0000      -5.403370      -147.0332   13-A1
  45   1.0000      -5.398850      -146.9102   11-A2
  46   1.0000      -5.398838      -146.9098   12-B1
  47   1.0000      -5.398826      -146.9095   12-B2
  48   1.0000      -5.398816      -146.9093   14-A1
  49   1.0000      -5.397135      -146.8635   12-A2
  50   1.0000      -5.397126      -146.8633   13-B1
  51   1.0000      -5.397115      -146.8630   13-B2
  52   1.0000      -5.397090      -146.8623   15-A1
  53   1.0000      -4.011955      -109.1708   16-A1
  54   1.0000      -2.530938       -68.8703   14-B1
  55   1.0000      -2.530480       -68.8579   14-B2
  56   1.0000      -2.508690       -68.2649   17-A1
  57   1.0000      -1.742487       -47.4155   18-A1
  58   1.0000      -1.742474       -47.4151   15-B2
  59   1.0000      -1.742457       -47.4147   15-B1
  60   1.0000      -1.742445       -47.4144   13-A2
  61   1.0000      -1.740072       -47.3498   19-A1
  62   1.0000      -1.740059       -47.3494   16-B2
  63   1.0000      -1.740011       -47.3481   16-B1
  64   1.0000      -1.740001       -47.3478   14-A2
  65   1.0000      -1.738638       -47.3107   20-A1
  66   1.0000      -1.738631       -47.3106   17-B2
  67   1.0000      -1.738609       -47.3100   17-B1
  68   1.0000      -1.738602       -47.3098   15-A2
  69   1.0000      -1.734685       -47.2032   21-A1
  70   1.0000      -1.734682       -47.2031   18-B2
  71   1.0000      -1.734618       -47.2014   16-A2
  72   1.0000      -1.734618       -47.2014   18-B1
  73   1.0000      -1.734584       -47.2004   22-A1
  74   1.0000      -1.734582       -47.2004   19-B2
  75   1.0000      -1.734561       -47.1998   17-A2
  76   1.0000      -1.734560       -47.1998   19-B1
  77   1.0000      -0.602131       -16.3848   23-A1
  78   1.0000      -0.601966       -16.3803   20-B2
  79   1.0000      -0.521236       -14.1836   24-A1
  80   1.0000      -0.520624       -14.1669   21-B2
  81   1.0000      -0.498710       -13.5706   20-B1
  82   1.0000      -0.498440       -13.5632   18-A2
  83   1.0000      -0.412455       -11.2235   21-B1
  84   1.0000      -0.411134       -11.1875   19-A2
  85   1.0000      -0.382156       -10.3990   25-A1
  86   1.0000      -0.378338       -10.2951   22-B2
  87   1.0000      -0.320313        -8.7162   26-A1
  88   1.0000      -0.318206        -8.6588   23-B2
  89   1.0000      -0.286847        -7.8055   22-B1
  90   1.0000      -0.283068        -7.7027   20-A2
  91   1.0000      -0.229101        -6.2342   27-A1
  92   1.0000      -0.223405        -6.0792   24-B2
  93   1.0000      -0.199792        -5.4366   28-A1
  94   1.0000      -0.199094        -5.4176   25-B2
  95   1.0000      -0.170037        -4.6269   23-B1
  96   1.0000      -0.164315        -4.4712   21-A2
  97   1.0000      -0.138407        -3.7662   24-B1
  98   1.0000      -0.135869        -3.6972   22-A2
  99   1.0000      -0.134617        -3.6631   29-A1
 100   1.0000      -0.129950        -3.5361   26-B2
 101   1.0000      -0.129555        -3.5254   30-A1
 102   1.0000      -0.110288        -3.0011   27-B2
 103   1.0000      -0.080487        -2.1902   31-A1
 104   1.0000      -0.071281        -1.9396   25-B1
 105   1.0000      -0.062495        -1.7006   28-B2
 106   1.0000      -0.058386        -1.5888   23-A2
 107   1.0000      -0.049753        -1.3538   32-A1
 108   1.0000      -0.046842        -1.2746   29-B2
 109   1.0000      -0.032697        -0.8897   24-A2
 110   1.0000      -0.029959        -0.8152   26-B1
 111   1.0000      -0.017204        -0.4681   25-A2
 112   1.0000      -0.016578        -0.4511   33-A1
 113   1.0000      -0.003974        -0.1081   30-B2
 114   1.0000       0.002258         0.0614   27-B1
 115   1.0000       0.007349         0.2000   34-A1
 116   1.0000       0.017712         0.4820   35-A1
 117   1.0000       0.039838         1.0841   31-B2
 118   1.0000       0.040991         1.1154   28-B1
 119   1.0000       0.057773         1.5721   26-A2
 120   1.0000       0.063220         1.7203   29-B1
 121   1.0000       0.073032         1.9873   36-A1
 122   1.0000       0.095630         2.6022   32-B2
 123   1.0000       0.108143         2.9427   27-A2
 124   0.0000       0.182150         4.9565   33-B2
 125   0.0000       0.182241         4.9590   37-A1
 126   0.0000       0.196528         5.3478   28-A2
 127   0.0000       0.197010         5.3609   30-B1
 128   0.0000       0.199894         5.4394   38-A1

                 SPIN DOWN ORBITALS
  NO   OCC          E(Eh)            E(eV)    Irrep
   0   1.0000    -443.560681    -12069.8997    1-A2
   1   1.0000    -443.560539    -12069.8959    1-B1
   2   1.0000    -443.546877    -12069.5241    1-A1
   3   1.0000    -443.546805    -12069.5222    1-B2
   4   1.0000    -318.174114     -8657.9578    2-A1
   5   1.0000     -56.369543     -1533.8932    2-A2
   6   1.0000     -56.369152     -1533.8826    2-B1
   7   1.0000     -56.356692     -1533.5435    3-A1
   8   1.0000     -56.356567     -1533.5402    2-B2
   9   1.0000     -51.285899     -1395.5603    3-A2
  10   1.0000     -51.285831     -1395.5584    3-B1
  11   1.0000     -51.285827     -1395.5583    3-B2
  12   1.0000     -51.285788     -1395.5572    4-A1
  13   1.0000     -51.284418     -1395.5199    4-A2
  14   1.0000     -51.284389     -1395.5192    4-B1
  15   1.0000     -51.284368     -1395.5186    4-B2
  16   1.0000     -51.284357     -1395.5183    5-A1
  17   1.0000     -51.283916     -1395.5063    5-A2
  18   1.0000     -51.283907     -1395.5061    5-B1
  19   1.0000     -51.283879     -1395.5053    5-B2
  20   1.0000     -51.283829     -1395.5039    6-A1
  21   1.0000     -38.002446     -1034.0991    7-A1
  22   1.0000     -33.505240      -911.7239    6-B1
  23   1.0000     -33.504851      -911.7133    6-B2
  24   1.0000     -33.502450      -911.6480    8-A1
  25   1.0000      -9.816699      -267.1260    7-B2
  26   1.0000      -9.816699      -267.1260    9-A1
  27   1.0000      -9.816251      -267.1138    6-A2
  28   1.0000      -9.816251      -267.1138    7-B1
  29   1.0000      -9.808421      -266.9007    8-B2
  30   1.0000      -9.808414      -266.9005   10-A1
  31   1.0000      -9.807973      -266.8885    7-A2
  32   1.0000      -9.807970      -266.8884    8-B1
  33   1.0000      -9.806852      -266.8580    9-B2
  34   1.0000      -9.806851      -266.8580   11-A1
  35   1.0000      -9.806844      -266.8578    8-A2
  36   1.0000      -9.806843      -266.8578    9-B1
  37   1.0000      -7.340122      -199.7349    9-A2
  38   1.0000      -7.339961      -199.7305   10-B1
  39   1.0000      -7.332765      -199.5347   12-A1
  40   1.0000      -7.332672      -199.5321   10-B2
  41   1.0000      -5.403058      -147.0247   10-A2
  42   1.0000      -5.403029      -147.0239   11-B2
  43   1.0000      -5.403017      -147.0236   11-B1
  44   1.0000      -5.403005      -147.0232   13-A1
  45   1.0000      -5.398253      -146.8939   11-A2
  46   1.0000      -5.398238      -146.8935   12-B1
  47   1.0000      -5.398228      -146.8933   12-B2
  48   1.0000      -5.398219      -146.8930   14-A1
  49   1.0000      -5.396557      -146.8478   12-A2
  50   1.0000      -5.396550      -146.8476   13-B1
  51   1.0000      -5.396538      -146.8473   13-B2
  52   1.0000      -5.396512      -146.8465   15-A1
  53   1.0000      -3.986504      -108.4783   16-A1
  54   1.0000      -2.499392       -68.0119   17-A1
  55   1.0000      -2.499088       -68.0036   14-B1
  56   1.0000      -2.498567       -67.9895   14-B2
  57   1.0000      -1.742038       -47.4033   18-A1
  58   1.0000      -1.742026       -47.4029   15-B2
  59   1.0000      -1.742008       -47.4024   15-B1
  60   1.0000      -1.741997       -47.4021   13-A2
  61   1.0000      -1.739360       -47.3304   19-A1
  62   1.0000      -1.739351       -47.3301   16-B2
  63   1.0000      -1.739315       -47.3292   16-B1
  64   1.0000      -1.739308       -47.3290   14-A2
  65   1.0000      -1.738142       -47.2972   20-A1
  66   1.0000      -1.738132       -47.2970   17-B2
  67   1.0000      -1.738095       -47.2960   17-B1
  68   1.0000      -1.738085       -47.2957   15-A2
  69   1.0000      -1.733850       -47.1805   21-A1
  70   1.0000      -1.733846       -47.1804   18-B2
  71   1.0000      -1.733800       -47.1791   22-A1
  72   1.0000      -1.733798       -47.1790   19-B2
  73   1.0000      -1.733789       -47.1788   16-A2
  74   1.0000      -1.733789       -47.1788   18-B1
  75   1.0000      -1.733778       -47.1785   17-A2
  76   1.0000      -1.733777       -47.1785   19-B1
  77   1.0000      -0.601286       -16.3618   23-A1
  78   1.0000      -0.601134       -16.3577   20-B2
  79   1.0000      -0.520015       -14.1503   24-A1
  80   1.0000      -0.519438       -14.1346   21-B2
  81   1.0000      -0.496982       -13.5236   20-B1
  82   1.0000      -0.496738       -13.5169   18-A2
  83   1.0000      -0.409651       -11.1472   21-B1
  84   1.0000      -0.408359       -11.1120   19-A2
  85   1.0000      -0.379544       -10.3279   25-A1
  86   1.0000      -0.375920       -10.2293   22-B2
  87   1.0000      -0.318482        -8.6663   26-A1
  88   1.0000      -0.316245        -8.6055   23-B2
  89   1.0000      -0.284318        -7.7367   22-B1
  90   1.0000      -0.280470        -7.6320   20-A2
  91   1.0000      -0.227894        -6.2013   27-A1
  92   1.0000      -0.222259        -6.0480   24-B2
  93   1.0000      -0.198480        -5.4009   28-A1
  94   1.0000      -0.197840        -5.3835   25-B2
  95   1.0000      -0.168496        -4.5850   23-B1
  96   1.0000      -0.162572        -4.4238   21-A2
  97   1.0000      -0.137495        -3.7414   24-B1
  98   1.0000      -0.134541        -3.6611   22-A2
  99   1.0000      -0.133060        -3.6207   29-A1
 100   1.0000      -0.129507        -3.5241   26-B2
 101   1.0000      -0.128566        -3.4984   30-A1
 102   1.0000      -0.108468        -2.9516   27-B2
 103   1.0000      -0.079066        -2.1515   31-A1
 104   1.0000      -0.069612        -1.8942   25-B1
 105   1.0000      -0.059954        -1.6314   28-B2
 106   1.0000      -0.050720        -1.3802   23-A2
 107   1.0000      -0.048885        -1.3302   32-A1
 108   1.0000      -0.046103        -1.2545   29-B2
 109   1.0000      -0.028547        -0.7768   26-B1
 110   1.0000      -0.027487        -0.7480   24-A2
 111   1.0000      -0.010609        -0.2887   33-A1
 112   1.0000       0.005906         0.1607   30-B2
 113   1.0000       0.008161         0.2221   25-A2
 114   1.0000       0.012910         0.3513   27-B1
 115   1.0000       0.016633         0.4526   34-A1
 116   1.0000       0.029528         0.8035   35-A1
 117   1.0000       0.045896         1.2489   28-B1
 118   1.0000       0.049481         1.3464   31-B2
 119   1.0000       0.061059         1.6615   26-A2
 120   1.0000       0.072916         1.9842   29-B1
 121   1.0000       0.075614         2.0576   36-A1
 122   1.0000       0.098727         2.6865   32-B2
 123   0.0000       0.135457         3.6860   27-A2
 124   0.0000       0.183565         4.9951   33-B2
 125   0.0000       0.183671         4.9979   37-A1
 126   0.0000       0.198950         5.4137   28-A2
 127   0.0000       0.199517         5.4291   30-B1

MULLIKEN ATOMIC CHARGES AND SPIN POPULATIONS
--------------------------------------------
   0 Cu:    0.466400    0.283066
   1 Se:   -0.709059    0.178047
   2 C :    0.234515   -0.002741
   3 Se:   -0.709059    0.178047
   4 C :    0.234515   -0.002741
   5 Se:   -0.709059    0.178047
   6 C :    0.234515   -0.002741
   7 Se:   -0.709059    0.178047
   8 C :    0.234515   -0.002741
   9 C :   -0.103413   -0.000836
  10 C :   -0.103413   -0.000836
  11 C :   -0.155154    0.000655
  12 H :    0.096613    0.002768
  13 C :   -0.155154    0.000655
  14 H :    0.096613    0.002768
  15 H :    0.019898    0.001340
  16 H :    0.019898    0.001340
  17 C :   -0.103413   -0.000836
  18 C :   -0.103413   -0.000836
  19 C :   -0.155154    0.000655
  20 H :    0.096613    0.002768
  21 C :   -0.155154    0.000655
  22 H :    0.096613    0.002768
  23 H :    0.019898    0.001340
  24 H :    0.019898    0.001340
Sum of atomic charges         :   -2.0000000

LOEWDIN ATOMIC CHARGES AND SPIN POPULATIONS
-------------------------------------------
   0 Cu:   -0.547536    0.349091
   1 Se:   -0.212004    0.132262
   2 C :    0.031681    0.012229
   3 Se:   -0.212004    0.132262
   4 C :    0.031681    0.012229
   5 Se:   -0.212004    0.132262
   6 C :    0.031681    0.012229
   7 Se:   -0.212004    0.132262
   8 C :    0.031681    0.012229
   9 C :    0.371324    0.007257
  10 C :    0.371324    0.007257
  11 C :    0.319136    0.001320
  12 H :   -0.462447    0.009123
  13 C :    0.319136    0.001320
  14 H :   -0.462447    0.009123
  15 H :   -0.410807    0.000535
  16 H :   -0.410807    0.000535
  17 C :    0.371324    0.007257
  18 C :    0.371324    0.007257
  19 C :    0.319136    0.001320
  20 H :   -0.462447    0.009123
  21 C :    0.319136    0.001320
  22 H :   -0.462447    0.009123
  23 H :   -0.410807    0.000535
  24 H :   -0.410807    0.000535

  Mayer bond orders larger than 0.100000
B(  0-Cu,  1-Se) :   0.5661 B(  0-Cu,  3-Se) :   0.5661 B(  0-Cu,  5-Se) :   0.5661
B(  0-Cu,  7-Se) :   0.5661 B(  1-Se,  2-C ) :   1.0306 B(  2-C ,  6-C ) :   1.1348
B(  2-C , 17-C ) :   1.2587 B(  3-Se,  4-C ) :   1.0306 B(  4-C ,  8-C ) :   1.1348
B(  4-C , 10-C ) :   1.2587 B(  5-Se,  6-C ) :   1.0306 B(  6-C , 18-C ) :   1.2587
B(  7-Se,  8-C ) :   1.0306 B(  8-C ,  9-C ) :   1.2587 B(  9-C , 13-C ) :   1.3789
B(  9-C , 14-H ) :   0.9584 B( 10-C , 11-C ) :   1.3789 B( 10-C , 12-H ) :   0.9584
B( 11-C , 13-C ) :   1.3125 B( 11-C , 15-H ) :   0.9959 B( 13-C , 16-H ) :   0.9959
B( 17-C , 19-C ) :   1.3789 B( 17-C , 20-H ) :   0.9584 B( 18-C , 21-C ) :   1.3789
B( 18-C , 22-H ) :   0.9584 B( 19-C , 21-C ) :   1.3125 B( 19-C , 23-H ) :   0.9959
B( 21-C , 24-H ) :   0.9959

FINAL SINGLE POINT ENERGY    -11627.123733848926

DIPOLE MOMENT
-------------
                                X             Y             Z
Electronic contribution:      0.00000       0.00000      -2.18140
Nuclear contribution   :     -0.00000      -0.00000       2.37518
                        -----------------------------------------
Total Dipole Moment    :      0.00000       0.00000       0.19378
                        -----------------------------------------
Magnitude (a.u.)       :      0.19378
Magnitude (Debye)      :      0.49255

Rotational constants in cm-1:     0.017244     0.004077     0.003325
Rotational constants in MHz :   516.950568   122.237804    99.666038

                             ****ORCA TERMINATED NORMALLY****
TOTAL RUN TIME: 0 days 16 hours 33 minutes 37 seconds 762 msec
