                         Program Version 5.0.4 -  RELEASE  -
|  1> ! RIJCOSX nofrozencore ReducedPop printbasis
|  2> ! M06L ano-rcc-dzp autoaux
|  3>
|  4> %maxcore 7500
|  5> %basis
|  6> PCDTrimBas overlap
|  7> PCDTrimAuxJ Coulomb
|  8> PCDTrimAuxJK Coulomb
|  9> PCDTrimAuxC Coulomb
| 10> PCDThresh -1
| 11> end
| 12>
| 13> %basis
| 14> newgto Cu "ano-rcc-tzp" end
| 15> newgto Se "ano-rcc-tzp" end
| 16> end
| 17>
| 18> %pal
| 19> nprocs 8
| 20> end
| 21>
| 22> % sym SymThresh 1e-2 end
| 23> * xyz -2 2
| 24> Cu 0.008341487612699604 -0.01614829869401629 0.05511790953670151
| 25> Se 1.2522135215398014 0.6476794193885975 -2.0476757102330287
| 26> C 2.8489204526282315 0.5779470487759513 -1.6494982129659075
| 27> Se -2.103448695624038 0.18830833213156334 -0.848606250814453
| 28> C -3.2227194439260387 -0.1865520214712509 0.29604605037060727
| 29> Se 2.137680795921066 -0.18106324034510282 0.8277797207083599
| 30> C 3.2324418972491817 0.20137153909655928 -0.3448417313652656
| 31> Se -1.2973513923663318 -0.6633187573105156 2.0955945806768477
| 32> C -2.855077769906101 -0.5613309367264298 1.5930326266827795
| 33> C -3.8905992785345975 -0.8607525370006266 2.4928065438742046
| 34> C -4.573975598600272 -0.14747254455413672 0.026050923918504006
| 35> C -5.538666987500025 -0.44263654601901103 0.918789067052263
| 36> H -4.871910958694452 0.13967438330080376 -0.9693378849547031
| 37> C -5.255099114659264 -0.8214486083494923 2.220697975428918
| 38> H -3.584170308259485 -1.14821687029235 3.490137095748697
| 39> H -6.57695816569932 -0.3763002415996888 0.5893361590357957
| 40> H -6.00382050652326 -1.0660634247537635 2.9657573195423557
| 41> C 3.8556394048935987 0.8818645314476896 -2.567334481095575
| 42> C 4.613956901313388 0.17019787236050507 -0.09830796260993765
| 43> C 5.2067779044344675 0.84470871642387 -2.30381843885267
| 44> H 3.540607828640862 1.1676244043675257 -3.5598209893870254
| 45> C 5.606089988135927 0.4748421336942788 -1.0200867546850112
| 46> H 4.918336681333383 -0.11706979120488788 0.8981514576343891
| 47> H 5.925948994819568 1.0969950911459048 -3.077687146591212
| 48> H 6.650463269789719 0.4212737236617674 -0.7329097089601168
| 49> *
| 50>
| 51> % eprnmr
| 52> gtensor true
| 53> Nuclei = all H {aiso,adip,aorb,fgrad,rho}
| 54> Nuclei = all Cu {aiso,adip,aorb,fgrad,rho}
| 55> end
| 56>
| 57>                          ****END OF INPUT****

CARTESIAN COORDINATES (ANGSTROEM)
---------------------------------
  Cu     0.057470    0.008095    0.000000
  Se    -2.141873    1.262095    0.000000
  C     -1.733391    2.857721    0.000000
  Se    -0.876225   -2.100552    0.000000
  C      0.322909   -3.225538    0.000000
  Se     0.854346    2.134894    0.000000
  C     -0.373862    3.235487    0.000000
  Se     2.192065   -1.307471    0.000000
  C      1.674506   -2.863625    0.000000
  C      2.617784   -3.903710    0.000000
  C      0.047097   -4.576184    0.000000
  C      0.982726   -5.545375    0.000000
  H     -0.990134   -4.869731    0.000000
  C      2.339824   -5.267596    0.000000
  H      3.657004   -3.601675    0.000000
  H      0.643516   -6.582643    0.000000
  H      3.120434   -6.020047    0.000000
  C     -2.695390    3.869072    0.000000
  C     -0.122659    4.616512    0.000000
  C     -2.426336    5.219630    0.000000
  H     -3.729518    3.558409    0.000000
  C     -1.088707    5.613289    0.000000
  H      0.915660    4.916501    0.000000
  H     -3.236875    5.942648    0.000000
  H     -0.793631    6.656834    0.000000

 Total Charge           Charge          ....   -2
 Multiplicity           Mult            ....    2
 Number of Electrons    NEL             ....  247
 Basis Dimension        Dim             ....  575

ORBITAL ENERGIES
----------------
                 SPIN UP ORBITALS
  NO   OCC          E(Eh)            E(eV)    Irrep
   0   1.0000    -443.562194    -12069.9409    1-A'
   1   1.0000    -443.560591    -12069.8973    2-A'
   2   1.0000    -443.548123    -12069.5580    3-A'
   3   1.0000    -443.547858    -12069.5508    4-A'
   4   1.0000    -318.187311     -8658.3169    5-A'
   5   1.0000     -56.371440     -1533.9449    6-A'
   6   1.0000     -56.370920     -1533.9307    7-A'
   7   1.0000     -56.358908     -1533.6039    8-A'
   8   1.0000     -56.358474     -1533.5920    9-A'
   9   1.0000     -51.290123     -1395.6752   10-A'
  10   1.0000     -51.289076     -1395.6467   11-A'
  11   1.0000     -51.288649     -1395.6351   12-A'
  12   1.0000     -51.288370     -1395.6275    1-A"
  13   1.0000     -51.287634     -1395.6075   13-A'
  14   1.0000     -51.287338     -1395.5994    2-A"
  15   1.0000     -51.287094     -1395.5928   14-A'
  16   1.0000     -51.286981     -1395.5897   15-A'
  17   1.0000     -51.285984     -1395.5626   16-A'
  18   1.0000     -51.285806     -1395.5577   17-A'
  19   1.0000     -51.285309     -1395.5442    3-A"
  20   1.0000     -51.285179     -1395.5407    4-A"
  21   1.0000     -38.027612     -1034.7839   18-A'
  22   1.0000     -33.530079      -912.3998   19-A'
  23   1.0000     -33.528679      -912.3617   20-A'
  24   1.0000     -33.518153      -912.0753    5-A"
  25   1.0000      -9.819037      -267.1896   21-A'
  26   1.0000      -9.818844      -267.1843   22-A'
  27   1.0000      -9.818610      -267.1780   23-A'
  28   1.0000      -9.814566      -267.0679   24-A'
  29   1.0000      -9.813683      -267.0439   25-A'
  30   1.0000      -9.813528      -267.0397   26-A'
  31   1.0000      -9.812268      -267.0054   27-A'
  32   1.0000      -9.811609      -266.9875   28-A'
  33   1.0000      -9.811067      -266.9727   29-A'
  34   1.0000      -9.810265      -266.9509   30-A'
  35   1.0000      -9.810029      -266.9445   31-A'
  36   1.0000      -9.804995      -266.8075   32-A'
  37   1.0000      -7.343649      -199.8309   33-A'
  38   1.0000      -7.342965      -199.8122   34-A'
  39   1.0000      -7.335824      -199.6179   35-A'
  40   1.0000      -7.335343      -199.6048   36-A'
  41   1.0000      -5.408741      -147.1793   37-A'
  42   1.0000      -5.407212      -147.1377   38-A'
  43   1.0000      -5.404726      -147.0701   39-A'
  44   1.0000      -5.404593      -147.0665   40-A'
  45   1.0000      -5.403173      -147.0278    6-A"
  46   1.0000      -5.403146      -147.0271   41-A'
  47   1.0000      -5.401705      -146.9879    7-A"
  48   1.0000      -5.401696      -146.9876   42-A'
  49   1.0000      -5.400146      -146.9454   43-A'
  50   1.0000      -5.399738      -146.9344   44-A'
  51   1.0000      -5.399135      -146.9179    8-A"
  52   1.0000      -5.398842      -146.9100    9-A"
  53   1.0000      -4.022454      -109.4565   45-A'
  54   1.0000      -2.543517       -69.2126   46-A'
  55   1.0000      -2.539325       -69.0985   47-A'
  56   1.0000      -2.518108       -68.5212   10-A"
  57   1.0000      -1.747573       -47.5539   48-A'
  58   1.0000      -1.746146       -47.5151   49-A'
  59   1.0000      -1.744786       -47.4780   50-A'
  60   1.0000      -1.744431       -47.4684   11-A"
  61   1.0000      -1.743728       -47.4493   51-A'
  62   1.0000      -1.743642       -47.4469   52-A'
  63   1.0000      -1.743306       -47.4378   53-A'
  64   1.0000      -1.742893       -47.4265   12-A"
  65   1.0000      -1.741370       -47.3851   54-A'
  66   1.0000      -1.741072       -47.3770   55-A'
  67   1.0000      -1.740231       -47.3541   13-A"
  68   1.0000      -1.740060       -47.3494   14-A"
  69   1.0000      -1.739864       -47.3441   56-A'
  70   1.0000      -1.739774       -47.3416   15-A"
  71   1.0000      -1.738371       -47.3035   16-A"
  72   1.0000      -1.738362       -47.3032   57-A'
  73   1.0000      -1.736400       -47.2499   58-A'
  74   1.0000      -1.736389       -47.2495   17-A"
  75   1.0000      -1.736008       -47.2392   59-A'
  76   1.0000      -1.735954       -47.2377   18-A"
  77   1.0000      -0.604133       -16.4393   60-A'
  78   1.0000      -0.599071       -16.3015   61-A'
  79   1.0000      -0.522574       -14.2200   62-A'
  80   1.0000      -0.520393       -14.1606   63-A'
  81   1.0000      -0.501485       -13.6461   64-A'
  82   1.0000      -0.497701       -13.5431   65-A'
  83   1.0000      -0.415564       -11.3081   66-A'
  84   1.0000      -0.413218       -11.2442   67-A'
  85   1.0000      -0.383846       -10.4450   68-A'
  86   1.0000      -0.380093       -10.3429   69-A'
  87   1.0000      -0.320557        -8.7228   70-A'
  88   1.0000      -0.316874        -8.6226   71-A'
  89   1.0000      -0.288866        -7.8604   72-A'
  90   1.0000      -0.286706        -7.8017   73-A'
  91   1.0000      -0.230729        -6.2785   74-A'
  92   1.0000      -0.224903        -6.1199   75-A'
  93   1.0000      -0.201852        -5.4927   76-A'
  94   1.0000      -0.198623        -5.4048   77-A'
  95   1.0000      -0.172066        -4.6822   78-A'
  96   1.0000      -0.168987        -4.5984   79-A'
  97   1.0000      -0.146873        -3.9966   80-A'
  98   1.0000      -0.141817        -3.8590   81-A'
  99   1.0000      -0.131705        -3.5839   19-A"
 100   1.0000      -0.131508        -3.5785   82-A'
 101   1.0000      -0.128232        -3.4894   20-A"
 102   1.0000      -0.111422        -3.0319   83-A'
 103   1.0000      -0.086794        -2.3618   84-A'
 104   1.0000      -0.073956        -2.0124   85-A'
 105   1.0000      -0.066836        -1.8187   86-A'
 106   1.0000      -0.065504        -1.7824   87-A'
 107   1.0000      -0.050107        -1.3635   21-A"
 108   1.0000      -0.048513        -1.3201   22-A"
 109   1.0000      -0.033880        -0.9219   23-A"
 110   1.0000      -0.033113        -0.9011   88-A'
 111   1.0000      -0.028420        -0.7733   24-A"
 112   1.0000      -0.025413        -0.6915   89-A'
 113   1.0000      -0.005529        -0.1504   25-A"
 114   1.0000       0.000123         0.0033   26-A"
 115   1.0000       0.000670         0.0182   90-A'
 116   1.0000       0.017291         0.4705   91-A'
 117   1.0000       0.019332         0.5261   92-A'
 118   1.0000       0.045065         1.2263   93-A'
 119   1.0000       0.051587         1.4037   27-A"
 120   1.0000       0.053972         1.4687   28-A"
 121   1.0000       0.070548         1.9197   29-A"
 122   1.0000       0.096565         2.6277   30-A"
 123   1.0000       0.108354         2.9485   94-A'
 124   0.0000       0.181209         4.9309   95-A'
 125   0.0000       0.181709         4.9446   96-A'
 126   0.0000       0.195863         5.3297   97-A'
 127   0.0000       0.196277         5.3410   98-A'
 128   0.0000       0.199696         5.4340   31-A"

                 SPIN DOWN ORBITALS
  NO   OCC          E(Eh)            E(eV)    Irrep
   0   1.0000    -443.561766    -12069.9293    1-A'
   1   1.0000    -443.560154    -12069.8854    2-A'
   2   1.0000    -443.547665    -12069.5456    3-A'
   3   1.0000    -443.547362    -12069.5373    4-A'
   4   1.0000    -318.187176     -8658.3132    5-A'
   5   1.0000     -56.371267     -1533.9402    6-A'
   6   1.0000     -56.370746     -1533.9260    7-A'
   7   1.0000     -56.358708     -1533.5984    8-A'
   8   1.0000     -56.358288     -1533.5870    9-A'
   9   1.0000     -51.289880     -1395.6686   10-A'
  10   1.0000     -51.288826     -1395.6399   11-A'
  11   1.0000     -51.288175     -1395.6222    1-A"
  12   1.0000     -51.288063     -1395.6191   12-A'
  13   1.0000     -51.287141     -1395.5941    2-A"
  14   1.0000     -51.287048     -1395.5915   13-A'
  15   1.0000     -51.286682     -1395.5816   14-A'
  16   1.0000     -51.286615     -1395.5797   15-A'
  17   1.0000     -51.285014     -1395.5362   16-A'
  18   1.0000     -51.284983     -1395.5353    3-A"
  19   1.0000     -51.284949     -1395.5344   17-A'
  20   1.0000     -51.284893     -1395.5329    4-A"
  21   1.0000     -38.014494     -1034.4270   18-A'
  22   1.0000     -33.517640      -912.0613   19-A'
  23   1.0000     -33.516157      -912.0210   20-A'
  24   1.0000     -33.514487      -911.9756    5-A"
  25   1.0000      -9.818995      -267.1884   21-A'
  26   1.0000      -9.818786      -267.1827   22-A'
  27   1.0000      -9.818565      -267.1767   23-A'
  28   1.0000      -9.814538      -267.0672   24-A'
  29   1.0000      -9.813648      -267.0429   25-A'
  30   1.0000      -9.813589      -267.0413   26-A'
  31   1.0000      -9.812314      -267.0066   27-A'
  32   1.0000      -9.811548      -266.9858   28-A'
  33   1.0000      -9.810924      -266.9688   29-A'
  34   1.0000      -9.810256      -266.9506   30-A'
  35   1.0000      -9.809872      -266.9402   31-A'
  36   1.0000      -9.804919      -266.8054   32-A'
  37   1.0000      -7.343290      -199.8211   33-A'
  38   1.0000      -7.342609      -199.8025   34-A'
  39   1.0000      -7.335348      -199.6050   35-A'
  40   1.0000      -7.334923      -199.5934   36-A'
  41   1.0000      -5.408471      -147.1720   37-A'
  42   1.0000      -5.406935      -147.1302   38-A'
  43   1.0000      -5.404284      -147.0580   39-A'
  44   1.0000      -5.404197      -147.0557   40-A'
  45   1.0000      -5.402926      -147.0211    6-A"
  46   1.0000      -5.402495      -147.0094   41-A'
  47   1.0000      -5.401459      -146.9812    7-A"
  48   1.0000      -5.401045      -146.9699   42-A'
  49   1.0000      -5.399038      -146.9153   43-A'
  50   1.0000      -5.398767      -146.9079   44-A'
  51   1.0000      -5.398742      -146.9072    8-A"
  52   1.0000      -5.398500      -146.9006    9-A"
  53   1.0000      -3.995823      -108.7319   45-A'
  54   1.0000      -2.509238       -68.2798   46-A'
  55   1.0000      -2.508330       -68.2551   10-A"
  56   1.0000      -2.506946       -68.2175   47-A'
  57   1.0000      -1.747244       -47.5449   48-A'
  58   1.0000      -1.745815       -47.5060   49-A'
  59   1.0000      -1.744199       -47.4621   11-A"
  60   1.0000      -1.744090       -47.4591   50-A'
  61   1.0000      -1.743153       -47.4336   51-A'
  62   1.0000      -1.743135       -47.4331   52-A'
  63   1.0000      -1.742658       -47.4201   12-A"
  64   1.0000      -1.742608       -47.4188   53-A'
  65   1.0000      -1.740232       -47.3541   54-A'
  66   1.0000      -1.740064       -47.3495   55-A'
  67   1.0000      -1.739872       -47.3443   13-A"
  68   1.0000      -1.739743       -47.3408   14-A"
  69   1.0000      -1.739229       -47.3268   56-A'
  70   1.0000      -1.739166       -47.3251   15-A"
  71   1.0000      -1.737768       -47.2871   16-A"
  72   1.0000      -1.737729       -47.2860   57-A'
  73   1.0000      -1.735380       -47.2221   17-A"
  74   1.0000      -1.735350       -47.2213   58-A'
  75   1.0000      -1.735094       -47.2143   59-A'
  76   1.0000      -1.735074       -47.2138   18-A"
  77   1.0000      -0.603408       -16.4196   60-A'
  78   1.0000      -0.598240       -16.2789   61-A'
  79   1.0000      -0.521411       -14.1883   62-A'
  80   1.0000      -0.519162       -14.1271   63-A'
  81   1.0000      -0.499949       -13.6043   64-A'
  82   1.0000      -0.496083       -13.4991   65-A'
  83   1.0000      -0.412949       -11.2369   66-A'
  84   1.0000      -0.410366       -11.1666   67-A'
  85   1.0000      -0.381308       -10.3759   68-A'
  86   1.0000      -0.377752       -10.2792   69-A'
  87   1.0000      -0.318828        -8.6758   70-A'
  88   1.0000      -0.314930        -8.5697   71-A'
  89   1.0000      -0.286481        -7.7956   72-A'
  90   1.0000      -0.284131        -7.7316   73-A'
  91   1.0000      -0.229524        -6.2457   74-A'
  92   1.0000      -0.223724        -6.0878   75-A'
  93   1.0000      -0.200601        -5.4586   76-A'
  94   1.0000      -0.197257        -5.3676   77-A'
  95   1.0000      -0.170675        -4.6443   78-A'
  96   1.0000      -0.167111        -4.5473   79-A'
  97   1.0000      -0.145600        -3.9620   80-A'
  98   1.0000      -0.140594        -3.8258   81-A'
  99   1.0000      -0.131367        -3.5747   19-A"
 100   1.0000      -0.129604        -3.5267   82-A'
 101   1.0000      -0.127836        -3.4786   20-A"
 102   1.0000      -0.109537        -2.9807   83-A'
 103   1.0000      -0.084651        -2.3035   84-A'
 104   1.0000      -0.072337        -1.9684   85-A'
 105   1.0000      -0.063428        -1.7260   86-A'
 106   1.0000      -0.057735        -1.5710   87-A'
 107   1.0000      -0.049001        -1.3334   21-A"
 108   1.0000      -0.047775        -1.3000   22-A"
 109   1.0000      -0.031810        -0.8656   23-A"
 110   1.0000      -0.027427        -0.7463   24-A"
 111   1.0000      -0.024879        -0.6770   88-A'
 112   1.0000       0.001286         0.0350   89-A'
 113   1.0000       0.003580         0.0974   25-A"
 114   1.0000       0.011123         0.3027   26-A"
 115   1.0000       0.011421         0.3108   90-A'
 116   1.0000       0.025428         0.6919   91-A'
 117   1.0000       0.030882         0.8403   92-A'
 118   1.0000       0.053356         1.4519   27-A"
 119   1.0000       0.057204         1.5566   93-A'
 120   1.0000       0.057363         1.5609   28-A"
 121   1.0000       0.072400         1.9701   29-A"
 122   1.0000       0.099712         2.7133   30-A"
 123   0.0000       0.137299         3.7361   94-A'
 124   0.0000       0.182681         4.9710   95-A'
 125   0.0000       0.183136         4.9834   96-A'
 126   0.0000       0.198250         5.3946   97-A'
 127   0.0000       0.198726         5.4076   98-A'

MULLIKEN ATOMIC CHARGES AND SPIN POPULATIONS
--------------------------------------------
   0 Cu:    0.629815    0.300349
   1 Se:   -0.703089    0.221261
   2 C :    0.232840   -0.007820
   3 Se:   -0.749628    0.145538
   4 C :    0.210827   -0.000498
   5 Se:   -0.747575    0.143597
   6 C :    0.202916    0.001404
   7 Se:   -0.715699    0.195687
   8 C :    0.227668   -0.006505
   9 C :   -0.100605   -0.000847
  10 C :   -0.097573   -0.001876
  11 C :   -0.109979   -0.001018
  12 H :    0.080565    0.002664
  13 C :   -0.188661   -0.000164
  14 H :    0.096684    0.002249
  15 H :    0.024099    0.001366
  16 H :    0.012910    0.001467
  17 C :   -0.114099   -0.001061
  18 C :   -0.109481   -0.002549
  19 C :   -0.149266   -0.000312
  20 H :    0.090546    0.002775
  21 C :   -0.160140   -0.001177
  22 H :    0.087874    0.002542
  23 H :    0.022942    0.001591
  24 H :    0.026110    0.001338
Sum of atomic charges         :   -2.0000000

LOEWDIN ATOMIC CHARGES AND SPIN POPULATIONS
-------------------------------------------
   0 Cu:   -0.605695    0.371596
   1 Se:   -0.216462    0.176808
   2 C :    0.037202    0.014925
   3 Se:   -0.205386    0.093999
   4 C :    0.043140    0.010102
   5 Se:   -0.209540    0.092753
   6 C :    0.056905    0.010417
   7 Se:   -0.203835    0.152300
   8 C :    0.035142    0.012711
   9 C :    0.374240    0.008117
  10 C :    0.358646    0.004872
  11 C :    0.304845    0.000049
  12 H :   -0.444853    0.006768
  13 C :    0.326780    0.000776
  14 H :   -0.466514    0.011133
  15 H :   -0.411820    0.000289
  16 H :   -0.405878    0.000405
  17 C :    0.364374    0.008434
  18 C :    0.373473    0.004329
  19 C :    0.317811    0.000630
  20 H :   -0.456688    0.011467
  21 C :    0.320603   -0.000077
  22 H :   -0.456537    0.006509
  23 H :   -0.412772    0.000477
  24 H :   -0.417183    0.000214

  Mayer bond orders larger than 0.100000
B(  0-Cu,  1-Se) :   0.4827 B(  0-Cu,  3-Se) :   0.5779 B(  0-Cu,  5-Se) :   0.5757
B(  0-Cu,  7-Se) :   0.5098 B(  1-Se,  2-C ) :   1.0301 B(  2-C ,  6-C ) :   1.1421
B(  2-C , 17-C ) :   1.2654 B(  3-Se,  4-C ) :   1.0395 B(  4-C ,  8-C ) :   1.1414
B(  4-C , 10-C ) :   1.2480 B(  5-Se,  6-C ) :   1.0346 B(  6-C , 18-C ) :   1.2668
B(  7-Se,  8-C ) :   1.0274 B(  8-C ,  9-C ) :   1.2702 B(  9-C , 13-C ) :   1.3727
B(  9-C , 14-H ) :   0.9595 B( 10-C , 11-C ) :   1.3850 B( 10-C , 12-H ) :   0.9650
B( 11-C , 13-C ) :   1.3087 B( 11-C , 15-H ) :   0.9902 B( 13-C , 16-H ) :   1.0036
B( 17-C , 19-C ) :   1.3775 B( 17-C , 20-H ) :   0.9640 B( 18-C , 21-C ) :   1.3759
B( 18-C , 22-H ) :   0.9607 B( 19-C , 21-C ) :   1.3157 B( 19-C , 23-H ) :   0.9944
B( 21-C , 24-H ) :   0.9938

FINAL SINGLE POINT ENERGY    -11627.138032468320

DIPOLE MOMENT
-------------
                                X             Y             Z
Electronic contribution:      1.01486      -0.11870       0.00000
Nuclear contribution   :     -0.97746       0.07179       0.00000
                        -----------------------------------------
Total Dipole Moment    :      0.03740      -0.04691       0.00000
                        -----------------------------------------
Magnitude (a.u.)       :      0.05999
Magnitude (Debye)      :      0.15249

Rotational constants in cm-1:     0.017890     0.003918     0.003214
Rotational constants in MHz :   536.321033   117.450365    96.350347

                             ****ORCA TERMINATED NORMALLY****
TOTAL RUN TIME: 0 days 17 hours 3 minutes 32 seconds 447 msec
