                         Program Version 5.0.4 -  RELEASE  -
|  1> ! RIJCOSX nofrozencore ReducedPop printbasis
|  2> ! M06L ano-rcc-dzp autoaux
|  3>
|  4> %maxcore 7500
|  5> %basis
|  6> PCDTrimBas overlap
|  7> PCDTrimAuxJ Coulomb
|  8> PCDTrimAuxJK Coulomb
|  9> PCDTrimAuxC Coulomb
| 10> PCDThresh -1
| 11> end
| 12>
| 13> %basis
| 14> newgto Cu "ano-rcc-tzp" end
| 15> newgto Se "ano-rcc-tzp" end
| 16> end
| 17>
| 18> %pal
| 19> nprocs 8
| 20> end
| 21>
| 22> % sym SymThresh 1e-2 end
| 23> * xyz -2 2
| 24> Cu -0.0002634060291426006 0.00023043436192943074 3.289785180682152e-05
| 25> Se 2.0241366580282496 1.208642872078022 -0.23950860198794435
| 26> C 1.6559831558168743 2.7359416022681726 -0.18815070450320037
| 27> Se 0.9817729766855504 -2.1536285364739687 -0.12839476817995973
| 28> C -0.18054917765234693 -3.207896233626313 0.00753118418161804
| 29> Se -0.9844942811591163 2.1503010238215237 0.1287091731894133
| 30> C 0.20529751697105644 3.2429385184205324 -0.010369143019737764
| 31> Se -2.025345916370377 -1.2020643386508973 0.23968426419274744
| 32> C -1.6940405182621128 -2.815808957055859 0.19239892165037642
| 33> C -2.4854901645228034 -3.7572634125934603 0.28395615089650444
| 34> C -0.004671620844482984 -4.415471967148582 -0.01913653003333123
| 35> C -0.948678588209 -5.631889417037929 0.08965182398007329
| 36> H 0.9090794428800707 -5.101528188956709 -0.13275300509573146
| 37> C -2.414097856975423 -5.092899589629199 0.2693587682059113
| 38> H -3.527152221759916 -3.510764246335642 0.41108736075366764
| 39> H -0.7906423147330927 -6.733077915434143 0.06561743547651461
| 40> H -3.060441995849099 -6.028321099693748 0.3433865114391446
| 41> C 2.5160089666484575 3.7355080586170297 -0.2877457115801948
| 42> C 0.0683969731944022 4.52116810873712 0.011897974502393783
| 43> C 2.374045972252829 5.15673862076515 -0.2642280174040199
| 44> H 3.572479025665382 3.5095423950826814 -0.41657693061214635
| 45> C 0.9179679065352004 5.540693847653102 -0.08634303255304666
| 46> H -0.9316699161253742 4.895011285429656 0.13456476588335153
| 47> H 3.171997648487146 5.907837981883093 -0.35742129209732343
| 48> H 0.859764207586379 6.651934138013443 -0.07434259795515484
| 49> *
| 50>
| 51> % eprnmr
| 52> gtensor true
| 53> Nuclei = all H {aiso,adip,aorb,fgrad,rho}
| 54> Nuclei = all Cu {aiso,adip,aorb,fgrad,rho}
| 55> end
| 56>
| 57>                          ****END OF INPUT****

CARTESIAN COORDINATES (ANGSTROEM)
---------------------------------
  Cu    -0.000266    0.000231    0.000000
  Se     2.038574    1.208109    0.000000
  C      1.667326    2.735522    0.000000
  Se     0.989510   -2.153915    0.000000
  C     -0.181006   -3.207879    0.000000
  Se    -0.992250    2.150588    0.000000
  C      0.205925    3.242915    0.000000
  Se    -2.039794   -1.201529    0.000000
  C     -1.705640   -2.815380    0.000000
  C     -2.502610   -3.756630    0.000000
  C     -0.003523   -4.415514    0.000000
  C     -0.954088   -5.631689    0.000000
  H      0.917076   -5.101824    0.000000
  C     -2.430339   -5.092298    0.000000
  H     -3.551934   -3.509847    0.000000
  H     -0.794604   -6.732931    0.000000
  H     -3.081146   -6.027555    0.000000
  C      2.533356    3.734866    0.000000
  C      0.067684    4.521195    0.000000
  C      2.389977    5.156149    0.000000
  H      3.597591    3.508613    0.000000
  C      0.923177    5.540501    0.000000
  H     -0.939776    4.895311    0.000000
  H      3.193547    5.907040    0.000000
  H      0.864251    6.651768    0.000000

 Total Charge           Charge          ....   -2
 Multiplicity           Mult            ....    2
 Number of Electrons    NEL             ....  247
 Basis Dimension        Dim             ....  575

ORBITAL ENERGIES
----------------
                 SPIN UP ORBITALS
  NO   OCC          E(Eh)            E(eV)    Irrep
   0   1.0000    -443.576538    -12070.3313    1-A'
   1   1.0000    -443.573900    -12070.2595    2-A'
   2   1.0000    -443.559465    -12069.8667    3-A'
   3   1.0000    -443.558668    -12069.8450    4-A'
   4   1.0000    -318.196387     -8658.5639    5-A'
   5   1.0000     -56.382393     -1534.2429    6-A'
   6   1.0000     -56.380717     -1534.1973    7-A'
   7   1.0000     -56.368490     -1533.8646    8-A'
   8   1.0000     -56.367971     -1533.8505    9-A'
   9   1.0000     -51.297246     -1395.8690   10-A'
  10   1.0000     -51.296146     -1395.8391   11-A'
  11   1.0000     -51.296072     -1395.8371   12-A'
  12   1.0000     -51.296022     -1395.8357   13-A'
  13   1.0000     -51.295857     -1395.8312    1-A"
  14   1.0000     -51.294891     -1395.8049   14-A'
  15   1.0000     -51.294606     -1395.7972   15-A'
  16   1.0000     -51.294423     -1395.7922    2-A"
  17   1.0000     -51.294313     -1395.7892   16-A'
  18   1.0000     -51.294282     -1395.7884    3-A"
  19   1.0000     -51.293006     -1395.7537   17-A'
  20   1.0000     -51.292708     -1395.7455    4-A"
  21   1.0000     -38.037114     -1035.0425   18-A'
  22   1.0000     -33.539383      -912.6530   19-A'
  23   1.0000     -33.538284      -912.6231   20-A'
  24   1.0000     -33.527085      -912.3184    5-A"
  25   1.0000      -9.833482      -267.5827   21-A'
  26   1.0000      -9.830869      -267.5116   22-A'
  27   1.0000      -9.823628      -267.3145   23-A'
  28   1.0000      -9.820701      -267.2349   24-A'
  29   1.0000      -9.814331      -267.0615   25-A'
  30   1.0000      -9.812127      -267.0016   26-A'
  31   1.0000      -9.811485      -266.9841   27-A'
  32   1.0000      -9.810909      -266.9684   28-A'
  33   1.0000      -9.808166      -266.8938   29-A'
  34   1.0000      -9.803577      -266.7689   30-A'
  35   1.0000      -9.795449      -266.5477   31-A'
  36   1.0000      -9.794473      -266.5212   32-A'
  37   1.0000      -7.351530      -200.0453   33-A'
  38   1.0000      -7.350806      -200.0256   34-A'
  39   1.0000      -7.344409      -199.8515   35-A'
  40   1.0000      -7.343663      -199.8312   36-A'
  41   1.0000      -5.413953      -147.3211   37-A'
  42   1.0000      -5.413746      -147.3155   38-A'
  43   1.0000      -5.412789      -147.2895   39-A'
  44   1.0000      -5.411674      -147.2591   40-A'
  45   1.0000      -5.408906      -147.1838    6-A"
  46   1.0000      -5.408823      -147.1816   41-A'
  47   1.0000      -5.408612      -147.1758    7-A"
  48   1.0000      -5.408536      -147.1738   42-A'
  49   1.0000      -5.407540      -147.1467   43-A'
  50   1.0000      -5.407042      -147.1331    8-A"
  51   1.0000      -5.406633      -147.1220    9-A"
  52   1.0000      -5.406558      -147.1199   44-A'
  53   1.0000      -4.031371      -109.6992   45-A'
  54   1.0000      -2.551383       -69.4267   46-A'
  55   1.0000      -2.549738       -69.3819   47-A'
  56   1.0000      -2.526219       -68.7419   10-A"
  57   1.0000      -1.754001       -47.7288   48-A'
  58   1.0000      -1.752886       -47.6984   49-A'
  59   1.0000      -1.752850       -47.6975   50-A'
  60   1.0000      -1.751047       -47.6484   51-A'
  61   1.0000      -1.750177       -47.6247   52-A'
  62   1.0000      -1.749986       -47.6195   53-A'
  63   1.0000      -1.749884       -47.6168   11-A"
  64   1.0000      -1.749735       -47.6127   12-A"
  65   1.0000      -1.749216       -47.5986   54-A'
  66   1.0000      -1.748432       -47.5773   13-A"
  67   1.0000      -1.747934       -47.5637   55-A'
  68   1.0000      -1.747578       -47.5540   14-A"
  69   1.0000      -1.745719       -47.5034   56-A'
  70   1.0000      -1.745620       -47.5007   15-A"
  71   1.0000      -1.745312       -47.4924   57-A'
  72   1.0000      -1.745207       -47.4895   16-A"
  73   1.0000      -1.744020       -47.4572   17-A"
  74   1.0000      -1.743981       -47.4561   58-A'
  75   1.0000      -1.743366       -47.4394   18-A"
  76   1.0000      -1.743325       -47.4383   59-A'
  77   1.0000      -0.608706       -16.5637   60-A'
  78   1.0000      -0.601473       -16.3669   61-A'
  79   1.0000      -0.536581       -14.6011   62-A'
  80   1.0000      -0.523459       -14.2440   63-A'
  81   1.0000      -0.503795       -13.7090   64-A'
  82   1.0000      -0.491470       -13.3736   65-A'
  83   1.0000      -0.421099       -11.4587   66-A'
  84   1.0000      -0.413552       -11.2533   67-A'
  85   1.0000      -0.389649       -10.6029   68-A'
  86   1.0000      -0.383237       -10.4284   69-A'
  87   1.0000      -0.310437        -8.4474   70-A'
  88   1.0000      -0.300973        -8.1899   71-A'
  89   1.0000      -0.300605        -8.1799   72-A'
  90   1.0000      -0.297836        -8.1045   73-A'
  91   1.0000      -0.232210        -6.3188   74-A'
  92   1.0000      -0.226454        -6.1621   75-A'
  93   1.0000      -0.191815        -5.2196   76-A'
  94   1.0000      -0.187726        -5.1083   77-A'
  95   1.0000      -0.183088        -4.9821   78-A'
  96   1.0000      -0.173700        -4.7266   79-A'
  97   1.0000      -0.138428        -3.7668   19-A"
  98   1.0000      -0.138195        -3.7605   80-A'
  99   1.0000      -0.136780        -3.7220   81-A'
 100   1.0000      -0.131848        -3.5878   20-A"
 101   1.0000      -0.126542        -3.4434   82-A'
 102   1.0000      -0.100959        -2.7472   83-A'
 103   1.0000      -0.098839        -2.6895   84-A'
 104   1.0000      -0.089573        -2.4374   85-A'
 105   1.0000      -0.064754        -1.7621   21-A"
 106   1.0000      -0.053245        -1.4489   22-A"
 107   1.0000      -0.046616        -1.2685   86-A'
 108   1.0000      -0.039348        -1.0707   87-A'
 109   1.0000      -0.035629        -0.9695   23-A"
 110   1.0000      -0.028688        -0.7807   88-A'
 111   1.0000      -0.027522        -0.7489   24-A"
 112   1.0000      -0.013592        -0.3699   89-A'
 113   1.0000      -0.012609        -0.3431   25-A"
 114   1.0000      -0.003508        -0.0955   26-A"
 115   1.0000      -0.001495        -0.0407   90-A'
 116   1.0000       0.019408         0.5281   91-A'
 117   1.0000       0.024800         0.6748   92-A'
 118   1.0000       0.034183         0.9302   93-A'
 119   1.0000       0.049280         1.3410   27-A"
 120   1.0000       0.053430         1.4539   28-A"
 121   1.0000       0.068462         1.8629   29-A"
 122   1.0000       0.095502         2.5987   30-A"
 123   1.0000       0.104253         2.8369   94-A'
 124   0.0000       0.177745         4.8367   31-A"
 125   0.0000       0.181952         4.9512   95-A'
 126   0.0000       0.183107         4.9826   96-A'
 127   0.0000       0.192629         5.2417   32-A"
 128   0.0000       0.196029         5.3342   97-A'

                 SPIN DOWN ORBITALS
  NO   OCC          E(Eh)            E(eV)    Irrep
   0   1.0000    -443.576092    -12070.3191    1-A'
   1   1.0000    -443.573445    -12070.2471    2-A'
   2   1.0000    -443.559030    -12069.8548    3-A'
   3   1.0000    -443.558228    -12069.8330    4-A'
   4   1.0000    -318.196263     -8658.5605    5-A'
   5   1.0000     -56.382210     -1534.2379    6-A'
   6   1.0000     -56.380532     -1534.1923    7-A'
   7   1.0000     -56.368311     -1533.8597    8-A'
   8   1.0000     -56.367794     -1533.8456    9-A'
   9   1.0000     -51.296912     -1395.8599   10-A'
  10   1.0000     -51.295752     -1395.8284   11-A'
  11   1.0000     -51.295701     -1395.8270   12-A'
  12   1.0000     -51.295608     -1395.8245    1-A"
  13   1.0000     -51.295423     -1395.8194   13-A'
  14   1.0000     -51.294169     -1395.7853    2-A"
  15   1.0000     -51.294149     -1395.7848   14-A'
  16   1.0000     -51.294069     -1395.7826    3-A"
  17   1.0000     -51.293976     -1395.7801   15-A'
  18   1.0000     -51.293890     -1395.7777   16-A'
  19   1.0000     -51.292469     -1395.7390    4-A"
  20   1.0000     -51.292304     -1395.7346   17-A'
  21   1.0000     -38.023204     -1034.6640   18-A'
  22   1.0000     -33.526155      -912.2931   19-A'
  23   1.0000     -33.525072      -912.2636   20-A'
  24   1.0000     -33.523207      -912.2128    5-A"
  25   1.0000      -9.833343      -267.5789   21-A'
  26   1.0000      -9.830804      -267.5098   22-A'
  27   1.0000      -9.823562      -267.3127   23-A'
  28   1.0000      -9.820649      -267.2335   24-A'
  29   1.0000      -9.814243      -267.0591   25-A'
  30   1.0000      -9.812104      -267.0009   26-A'
  31   1.0000      -9.811424      -266.9824   27-A'
  32   1.0000      -9.810846      -266.9667   28-A'
  33   1.0000      -9.808115      -266.8924   29-A'
  34   1.0000      -9.803469      -266.7660   30-A'
  35   1.0000      -9.795374      -266.5457   31-A'
  36   1.0000      -9.794418      -266.5197   32-A'
  37   1.0000      -7.351136      -200.0346   33-A'
  38   1.0000      -7.350408      -200.0148   34-A'
  39   1.0000      -7.344006      -199.8406   35-A'
  40   1.0000      -7.343270      -199.8205   36-A'
  41   1.0000      -5.413621      -147.3121   37-A'
  42   1.0000      -5.413391      -147.3059   38-A'
  43   1.0000      -5.412422      -147.2795   39-A'
  44   1.0000      -5.411340      -147.2500   40-A'
  45   1.0000      -5.408589      -147.1752    6-A"
  46   1.0000      -5.408302      -147.1674    7-A"
  47   1.0000      -5.407992      -147.1589   41-A'
  48   1.0000      -5.407726      -147.1517   42-A'
  49   1.0000      -5.406724      -147.1244    8-A"
  50   1.0000      -5.406688      -147.1235   43-A'
  51   1.0000      -5.406331      -147.1137    9-A"
  52   1.0000      -5.405759      -147.0982   44-A'
  53   1.0000      -4.002976      -108.9265   45-A'
  54   1.0000      -2.515955       -68.4626   46-A'
  55   1.0000      -2.515868       -68.4603   10-A"
  56   1.0000      -2.514209       -68.4151   47-A'
  57   1.0000      -1.753573       -47.7171   48-A'
  58   1.0000      -1.752447       -47.6865   49-A'
  59   1.0000      -1.752417       -47.6857   50-A'
  60   1.0000      -1.750640       -47.6373   51-A'
  61   1.0000      -1.749578       -47.6085   11-A"
  62   1.0000      -1.749442       -47.6047   12-A"
  63   1.0000      -1.749279       -47.6003   52-A'
  64   1.0000      -1.749132       -47.5963   53-A'
  65   1.0000      -1.748290       -47.5734   54-A'
  66   1.0000      -1.748122       -47.5688   13-A"
  67   1.0000      -1.747290       -47.5462   14-A"
  68   1.0000      -1.747079       -47.5404   55-A'
  69   1.0000      -1.744893       -47.4810   56-A'
  70   1.0000      -1.744836       -47.4794   15-A"
  71   1.0000      -1.744512       -47.4706   57-A'
  72   1.0000      -1.744446       -47.4688   16-A"
  73   1.0000      -1.743223       -47.4355   17-A"
  74   1.0000      -1.743151       -47.4336   58-A'
  75   1.0000      -1.742618       -47.4190   18-A"
  76   1.0000      -1.742535       -47.4168   59-A'
  77   1.0000      -0.607467       -16.5300   60-A'
  78   1.0000      -0.600301       -16.3350   61-A'
  79   1.0000      -0.534792       -14.5524   62-A'
  80   1.0000      -0.521498       -14.1907   63-A'
  81   1.0000      -0.502194       -13.6654   64-A'
  82   1.0000      -0.489706       -13.3256   65-A'
  83   1.0000      -0.418529       -11.3888   66-A'
  84   1.0000      -0.410831       -11.1793   67-A'
  85   1.0000      -0.387078       -10.5329   68-A'
  86   1.0000      -0.380847       -10.3634   69-A'
  87   1.0000      -0.307977        -8.3805   70-A'
  88   1.0000      -0.299503        -8.1499   71-A'
  89   1.0000      -0.298251        -8.1158   72-A'
  90   1.0000      -0.296358        -8.0643   73-A'
  91   1.0000      -0.230847        -6.2817   74-A'
  92   1.0000      -0.225292        -6.1305   75-A'
  93   1.0000      -0.190441        -5.1822   76-A'
  94   1.0000      -0.186554        -5.0764   77-A'
  95   1.0000      -0.181544        -4.9401   78-A'
  96   1.0000      -0.171990        -4.6801   79-A'
  97   1.0000      -0.137820        -3.7503   19-A"
  98   1.0000      -0.136644        -3.7183   80-A'
  99   1.0000      -0.134601        -3.6627   81-A'
 100   1.0000      -0.131252        -3.5716   20-A"
 101   1.0000      -0.123905        -3.3716   82-A'
 102   1.0000      -0.098531        -2.6812   83-A'
 103   1.0000      -0.096481        -2.6254   84-A'
 104   1.0000      -0.080506        -2.1907   85-A'
 105   1.0000      -0.063669        -1.7325   21-A"
 106   1.0000      -0.051904        -1.4124   22-A"
 107   1.0000      -0.043381        -1.1805   86-A'
 108   1.0000      -0.033548        -0.9129   23-A"
 109   1.0000      -0.024895        -0.6774   24-A"
 110   1.0000      -0.023617        -0.6427   87-A'
 111   1.0000      -0.010567        -0.2875   88-A'
 112   1.0000      -0.007881        -0.2145   89-A'
 113   1.0000      -0.002163        -0.0589   25-A"
 114   1.0000       0.005790         0.1575   26-A"
 115   1.0000       0.009509         0.2587   90-A'
 116   1.0000       0.027981         0.7614   91-A'
 117   1.0000       0.031125         0.8470   92-A'
 118   1.0000       0.044973         1.2238   93-A'
 119   1.0000       0.051601         1.4041   27-A"
 120   1.0000       0.056269         1.5311   28-A"
 121   1.0000       0.069948         1.9034   29-A"
 122   1.0000       0.098391         2.6773   30-A"
 123   0.0000       0.133506         3.6329   94-A'
 124   0.0000       0.178336         4.8528   31-A"
 125   0.0000       0.183201         4.9852   95-A'
 126   0.0000       0.184208         5.0125   96-A'
 127   0.0000       0.193241         5.2584   32-A"

MULLIKEN ATOMIC CHARGES AND SPIN POPULATIONS
--------------------------------------------
   0 Cu:    0.602618    0.314708
   1 Se:   -0.632003    0.168891
   2 C :    0.126979   -0.001059
   3 Se:   -0.668327    0.173368
   4 C :    0.140130    0.000280
   5 Se:   -0.716196    0.163723
   6 C :    0.158671    0.002351
   7 Se:   -0.748661    0.162812
   8 C :    0.181220    0.004387
   9 C :   -0.012196   -0.003227
  10 C :    0.020059   -0.005844
  11 C :   -0.195975    0.002578
  12 H :    0.035969    0.006562
  13 C :   -0.147770   -0.000540
  14 H :    0.087191    0.004358
  15 H :    0.019691    0.002009
  16 H :   -0.004987    0.001201
  17 C :   -0.056864   -0.002016
  18 C :   -0.041923   -0.002412
  19 C :   -0.188424   -0.000251
  20 H :    0.085699    0.002905
  21 C :   -0.152175   -0.000801
  22 H :    0.088803    0.003520
  23 H :    0.009499    0.001614
  24 H :    0.008973    0.000881
Sum of atomic charges         :   -2.0000000

LOEWDIN ATOMIC CHARGES AND SPIN POPULATIONS
-------------------------------------------
   0 Cu:   -0.604978    0.390700
   1 Se:   -0.184224    0.120460
   2 C :    0.017387    0.016664
   3 Se:   -0.194673    0.124514
   4 C :   -0.031101    0.016630
   5 Se:   -0.178718    0.116657
   6 C :    0.047980    0.015603
   7 Se:   -0.161552    0.119214
   8 C :    0.054978    0.015990
   9 C :    0.268453    0.005733
  10 C :    0.328632    0.006961
  11 C :    0.393486    0.002915
  12 H :   -0.425403    0.007121
  13 C :    0.348673    0.000491
  14 H :   -0.466585    0.009068
  15 H :   -0.419269    0.000720
  16 H :   -0.391761    0.000482
  17 C :    0.344690    0.006570
  18 C :    0.299447    0.005842
  19 C :    0.363642    0.000683
  20 H :   -0.465439    0.007686
  21 C :    0.337913    0.000119
  22 H :   -0.465566    0.008699
  23 H :   -0.410266    0.000351
  24 H :   -0.405745    0.000130

  Mayer bond orders larger than 0.100000
B(  0-Cu,  1-Se) :   0.5574 B(  0-Cu,  3-Se) :   0.5767 B(  0-Cu,  5-Se) :   0.5567
B(  0-Cu,  7-Se) :   0.5442 B(  1-Se,  2-C ) :   1.1482 B(  2-C ,  6-C ) :   1.0760
B(  2-C , 17-C ) :   1.2843 B(  3-Se,  4-C ) :   1.1328 B(  4-C ,  8-C ) :   1.0287
B(  4-C , 10-C ) :   1.3767 B(  5-Se,  6-C ) :   1.0899 B(  6-C , 18-C ) :   1.2791
B(  7-Se,  8-C ) :   1.0735 B(  8-C ,  9-C ) :   1.3217 B(  9-C , 13-C ) :   1.2955
B(  9-C , 14-H ) :   0.9478 B( 10-C , 11-C ) :   1.2134 B( 10-C , 12-H ) :   0.9550
B( 11-C , 13-C ) :   1.3276 B( 11-C , 15-H ) :   0.9952 B( 13-C , 16-H ) :   0.9914
B( 17-C , 19-C ) :   1.3294 B( 17-C , 20-H ) :   0.9578 B( 18-C , 21-C ) :   1.3480
B( 18-C , 22-H ) :   0.9538 B( 19-C , 21-C ) :   1.2924 B( 19-C , 23-H ) :   1.0051
B( 21-C , 24-H ) :   0.9919

FINAL SINGLE POINT ENERGY    -11626.931235731781

DIPOLE MOMENT
-------------
                                X             Y             Z
Electronic contribution:     -0.24925       0.49034       0.00000
Nuclear contribution   :      0.23446      -0.41877       0.00000
                        -----------------------------------------
Total Dipole Moment    :     -0.01480       0.07157       0.00000
                        -----------------------------------------
Magnitude (a.u.)       :      0.07309
Magnitude (Debye)      :      0.18577

Rotational constants in cm-1:     0.017515     0.004101     0.003323
Rotational constants in MHz :   525.078751   122.947417    99.621094

                             ****ORCA TERMINATED NORMALLY****
TOTAL RUN TIME: 0 days 16 hours 53 minutes 1 seconds 597 msec
