                         Program Version 5.0.4 -  RELEASE  -
|  1> ! RIJCOSX nofrozencore ReducedPop printbasis
|  2> ! M06L ano-rcc-dzp autoaux
|  3>
|  4> %maxcore 7500
|  5> %basis
|  6> PCDTrimBas overlap
|  7> PCDTrimAuxJ Coulomb
|  8> PCDTrimAuxJK Coulomb
|  9> PCDTrimAuxC Coulomb
| 10> PCDThresh -1
| 11> end
| 12>
| 13> %basis
| 14> newgto Cu "ano-rcc-tzp" end
| 15> newgto Se "ano-rcc-tzp" end
| 16> end
| 17>
| 18> %pal
| 19> nprocs 8
| 20> end
| 21>
| 22> % sym SymThresh 1e-2 end
| 23> * xyz -2 2
| 24> Cu -1.0329576352704164e-07 -9.938858369349228e-07 -3.8999081752437817e-08
| 25> Se -1.239189803019407 0.05118154640552374 2.017366543970446
| 26> C -0.12171006841490503 -0.15481610393859646 3.196835973505164
| 27> Se -1.869535930291949 0.2506586513981865 -1.431775817789105
| 28> C -1.2398438705893517 0.24122583724753216 -2.9430263154610494
| 29> Se 1.869395034870498 -0.25201431167976573 1.4317226230415945
| 30> C 1.2438322233148944 -0.20285091119763787 2.944532109006593
| 31> Se 1.239331111623912 -0.04982191058059676 -2.0173131932266086
| 32> C 0.11771572453507786 0.11638353251015993 -3.1983440289974494
| 33> C 0.5066460367346317 0.1286126642282084 -4.5335860918900845
| 34> C -2.0746104351337946 0.3710769469203596 -4.047829998690067
| 35> C -1.6835680457743094 0.3869507743119402 -5.369753287295336
| 36> H -3.1266147342198103 0.5030604544064992 -3.839618724386304
| 37> C -0.3254771487982808 0.2532994790763678 -5.625679998159403
| 38> H 1.561574101329431 -0.004346755688763525 -4.725773067046085
| 39> H -2.420299920356525 0.4842842666398146 -6.160312874829275
| 40> H 0.08316353547978521 0.2605382777292044 -6.630764969057296
| 41> C -0.510508189182218 -0.16577510674391183 4.532128859328465
| 42> C 2.078481547167734 -0.33383008129538644 4.049291528277822
| 43> C 0.32718201823022103 -0.23689743829630044 5.62632458210975
| 44> H -1.5298681136344605 0.3094120050623729 4.737744505301527
| 45> C 1.6818604906525174 -0.40337865612376783 5.369107689368864
| 46> H 3.0948723592710046 -0.8084775965532532 3.827634462560107
| 47> H -0.09538739821185269 -0.378143700478922 6.626150430969061
| 48> H 2.432536047801568 -0.36656855982428227 6.164930575454948
| 49> *
| 50>
| 51> % eprnmr
| 52> gtensor true
| 53> Nuclei = all H {aiso,adip,aorb,fgrad,rho}
| 54> Nuclei = all Cu {aiso,adip,aorb,fgrad,rho}
| 55> end
| 56>
| 57>                          ****END OF INPUT****

CARTESIAN COORDINATES (ANGSTROEM)
---------------------------------
  Cu     0.000000    0.000000   -0.000000
  Se    -1.580797    0.160106    1.755969
  C     -0.694191    0.027683    3.126639
  Se    -1.580933    0.158747   -1.755969
  C     -0.690335    0.066130   -3.126639
  Se     1.580797   -0.160106    1.755969
  C      0.694191   -0.027683    3.126639
  Se     1.580933   -0.158747   -1.755969
  C      0.690335   -0.066130   -3.126639
  C      1.312612   -0.128289   -4.368893
  C     -1.312612    0.128289   -4.368893
  C     -0.690628    0.070544   -5.597896
  H     -2.384198    0.266577   -4.360734
  C      0.690628   -0.070544   -5.597896
  H      2.384198   -0.266577   -4.360734
  H     -1.273023    0.118708   -6.512078
  H      1.273023   -0.118708   -6.512078
  C     -1.316348    0.091043    4.368893
  C      1.316348   -0.091043    4.368893
  C     -0.688979    0.086977    5.597895
  H     -2.353546    0.572163    4.360734
  C      0.688979   -0.086977    5.597895
  H      2.353546   -0.572163    4.360734
  H     -1.284840    0.000915    6.512077
  H      1.284840   -0.000915    6.512077

 Total Charge           Charge          ....   -2
 Multiplicity           Mult            ....    2
 Number of Electrons    NEL             ....  247
 Basis Dimension        Dim             ....  575

ORBITAL ENERGIES
----------------
                 SPIN UP ORBITALS
  NO   OCC          E(Eh)            E(eV)    Irrep
   0   1.0000    -443.561811    -12069.9305    1-B
   1   1.0000    -443.559318    -12069.8627    2-B
   2   1.0000    -443.547390    -12069.5381    1-A
   3   1.0000    -443.546282    -12069.5079    2-A
   4   1.0000    -318.187645     -8658.3260    3-A
   5   1.0000     -56.370618     -1533.9225    3-B
   6   1.0000     -56.369271     -1533.8859    4-B
   7   1.0000     -56.357590     -1533.5680    4-A
   8   1.0000     -56.357195     -1533.5572    5-A
   9   1.0000     -51.286762     -1395.5838    5-B
  10   1.0000     -51.286702     -1395.5821    6-A
  11   1.0000     -51.286691     -1395.5818    6-B
  12   1.0000     -51.286660     -1395.5810    7-A
  13   1.0000     -51.285436     -1395.5477    7-B
  14   1.0000     -51.285387     -1395.5463    8-B
  15   1.0000     -51.285384     -1395.5462    8-A
  16   1.0000     -51.285321     -1395.5445    9-A
  17   1.0000     -51.285007     -1395.5360   10-A
  18   1.0000     -51.284965     -1395.5349   11-A
  19   1.0000     -51.284936     -1395.5340    9-B
  20   1.0000     -51.284886     -1395.5327   10-B
  21   1.0000     -38.028223     -1034.8005   12-A
  22   1.0000     -33.530285      -912.4055   11-B
  23   1.0000     -33.529494      -912.3839   13-A
  24   1.0000     -33.518323      -912.0799   12-B
  25   1.0000      -9.817157      -267.1384   14-A
  26   1.0000      -9.816711      -267.1263   13-B
  27   1.0000      -9.816377      -267.1172   15-A
  28   1.0000      -9.815928      -267.1050   14-B
  29   1.0000      -9.811672      -266.9892   16-A
  30   1.0000      -9.811666      -266.9890   15-B
  31   1.0000      -9.810460      -266.9562   17-A
  32   1.0000      -9.810023      -266.9443   16-B
  33   1.0000      -9.808983      -266.9160   18-A
  34   1.0000      -9.808532      -266.9037   17-B
  35   1.0000      -9.806883      -266.8589   19-A
  36   1.0000      -9.806882      -266.8588   18-B
  37   1.0000      -7.341699      -199.7778   19-B
  38   1.0000      -7.341497      -199.7723   20-B
  39   1.0000      -7.334596      -199.5845   20-A
  40   1.0000      -7.334306      -199.5766   21-A
  41   1.0000      -5.405017      -147.0780   21-B
  42   1.0000      -5.404999      -147.0775   22-A
  43   1.0000      -5.404536      -147.0649   22-B
  44   1.0000      -5.404519      -147.0644   23-A
  45   1.0000      -5.399813      -146.9364   23-B
  46   1.0000      -5.399798      -146.9360   24-A
  47   1.0000      -5.399312      -146.9228   25-A
  48   1.0000      -5.399297      -146.9223   24-B
  49   1.0000      -5.399230      -146.9205   25-B
  50   1.0000      -5.399204      -146.9198   26-A
  51   1.0000      -5.398848      -146.9101   27-A
  52   1.0000      -5.398822      -146.9094   26-B
  53   1.0000      -4.022520      -109.4583   28-A
  54   1.0000      -2.542083       -69.1736   27-B
  55   1.0000      -2.541133       -69.1478   29-A
  56   1.0000      -2.517619       -68.5079   28-B
  57   1.0000      -1.744052       -47.4581   30-A
  58   1.0000      -1.744023       -47.4573   29-B
  59   1.0000      -1.743556       -47.4446   31-A
  60   1.0000      -1.743527       -47.4438   30-B
  61   1.0000      -1.741383       -47.3854   32-A
  62   1.0000      -1.741305       -47.3833   31-B
  63   1.0000      -1.740878       -47.3717   33-A
  64   1.0000      -1.740797       -47.3695   32-B
  65   1.0000      -1.740639       -47.3652   33-B
  66   1.0000      -1.740635       -47.3651   34-A
  67   1.0000      -1.740098       -47.3505   34-B
  68   1.0000      -1.740092       -47.3503   35-A
  69   1.0000      -1.736325       -47.2478   36-A
  70   1.0000      -1.736265       -47.2462   35-B
  71   1.0000      -1.736236       -47.2454   36-B
  72   1.0000      -1.736220       -47.2450   37-A
  73   1.0000      -1.735759       -47.2324   38-A
  74   1.0000      -1.735708       -47.2310   37-B
  75   1.0000      -1.735680       -47.2303   38-B
  76   1.0000      -1.735672       -47.2300   39-A
  77   1.0000      -0.603347       -16.4179   40-A
  78   1.0000      -0.603061       -16.4101   41-A
  79   1.0000      -0.522196       -14.2097   42-A
  80   1.0000      -0.521455       -14.1895   43-A
  81   1.0000      -0.499771       -13.5995   39-B
  82   1.0000      -0.497880       -13.5480   40-B
  83   1.0000      -0.413360       -11.2481   41-B
  84   1.0000      -0.411819       -11.2062   42-B
  85   1.0000      -0.383749       -10.4424   44-A
  86   1.0000      -0.379041       -10.3142   45-A
  87   1.0000      -0.320401        -8.7186   46-A
  88   1.0000      -0.313137        -8.5209   47-A
  89   1.0000      -0.287640        -7.8271   43-B
  90   1.0000      -0.284055        -7.7295   44-B
  91   1.0000      -0.229175        -6.2362   48-A
  92   1.0000      -0.221122        -6.0170   49-A
  93   1.0000      -0.200772        -5.4633   50-A
  94   1.0000      -0.199705        -5.4343   51-A
  95   1.0000      -0.170860        -4.6494   45-B
  96   1.0000      -0.166469        -4.5299   46-B
  97   1.0000      -0.139786        -3.8038   47-B
  98   1.0000      -0.137619        -3.7448   48-B
  99   1.0000      -0.137318        -3.7366   52-A
 100   1.0000      -0.130802        -3.5593   49-B
 101   1.0000      -0.115218        -3.1352   50-B
 102   1.0000      -0.110441        -3.0053   53-A
 103   1.0000      -0.083248        -2.2653   54-A
 104   1.0000      -0.072703        -1.9783   51-B
 105   1.0000      -0.066839        -1.8188   52-B
 106   1.0000      -0.065978        -1.7953   55-A
 107   1.0000      -0.048951        -1.3320   53-B
 108   1.0000      -0.047755        -1.2995   54-B
 109   1.0000      -0.034032        -0.9261   56-A
 110   1.0000      -0.030463        -0.8289   57-A
 111   1.0000      -0.030122        -0.8197   55-B
 112   1.0000      -0.020691        -0.5630   58-A
 113   1.0000      -0.002375        -0.0646   59-A
 114   1.0000      -0.001741        -0.0474   56-B
 115   1.0000       0.001251         0.0340   60-A
 116   1.0000       0.018840         0.5127   61-A
 117   1.0000       0.020769         0.5652   62-A
 118   1.0000       0.040394         1.0992   57-B
 119   1.0000       0.054461         1.4820   63-A
 120   1.0000       0.055462         1.5092   64-A
 121   1.0000       0.069482         1.8907   58-B
 122   1.0000       0.098298         2.6748   59-B
 123   1.0000       0.115708         3.1486   60-B
 124   0.0000       0.181865         4.9488   65-A
 125   0.0000       0.182234         4.9588   66-A
 126   0.0000       0.193094         5.2544   61-B
 127   0.0000       0.196028         5.3342   62-B
 128   0.0000       0.197401         5.3715   63-B

                 SPIN DOWN ORBITALS
  NO   OCC          E(Eh)            E(eV)    Irrep
   0   1.0000    -443.561359    -12069.9182    1-B
   1   1.0000    -443.558864    -12069.8503    2-B
   2   1.0000    -443.546937    -12069.5258    1-A
   3   1.0000    -443.545828    -12069.4956    2-A
   4   1.0000    -318.187524     -8658.3227    3-A
   5   1.0000     -56.370434     -1533.9175    3-B
   6   1.0000     -56.369087     -1533.8809    4-B
   7   1.0000     -56.357409     -1533.5631    4-A
   8   1.0000     -56.357014     -1533.5523    5-A
   9   1.0000     -51.286442     -1395.5750    5-B
  10   1.0000     -51.286372     -1395.5731    6-A
  11   1.0000     -51.286369     -1395.5730    6-B
  12   1.0000     -51.286330     -1395.5720    7-A
  13   1.0000     -51.284803     -1395.5304    8-A
  14   1.0000     -51.284783     -1395.5299    7-B
  15   1.0000     -51.284688     -1395.5273    9-A
  16   1.0000     -51.284650     -1395.5263    8-B
  17   1.0000     -51.284644     -1395.5261    9-B
  18   1.0000     -51.284620     -1395.5255   10-A
  19   1.0000     -51.284617     -1395.5254   10-B
  20   1.0000     -51.284585     -1395.5245   11-A
  21   1.0000     -38.014368     -1034.4236   12-A
  22   1.0000     -33.517117      -912.0471   11-B
  23   1.0000     -33.516325      -912.0256   13-A
  24   1.0000     -33.514464      -911.9749   12-B
  25   1.0000      -9.817105      -267.1370   14-A
  26   1.0000      -9.816660      -267.1249   13-B
  27   1.0000      -9.816326      -267.1158   15-A
  28   1.0000      -9.815877      -267.1036   14-B
  29   1.0000      -9.811567      -266.9863   16-A
  30   1.0000      -9.811558      -266.9861   15-B
  31   1.0000      -9.810469      -266.9564   17-A
  32   1.0000      -9.810034      -266.9446   16-B
  33   1.0000      -9.809002      -266.9165   18-A
  34   1.0000      -9.808549      -266.9042   17-B
  35   1.0000      -9.806764      -266.8556   19-A
  36   1.0000      -9.806764      -266.8556   18-B
  37   1.0000      -7.341300      -199.7669   19-B
  38   1.0000      -7.341096      -199.7614   20-B
  39   1.0000      -7.334188      -199.5734   20-A
  40   1.0000      -7.333899      -199.5656   21-A
  41   1.0000      -5.404653      -147.0681   21-B
  42   1.0000      -5.404634      -147.0676   22-A
  43   1.0000      -5.404172      -147.0550   22-B
  44   1.0000      -5.404154      -147.0545   23-A
  45   1.0000      -5.399214      -146.9201   24-A
  46   1.0000      -5.399202      -146.9198   23-B
  47   1.0000      -5.398765      -146.9079   24-B
  48   1.0000      -5.398755      -146.9076   25-A
  49   1.0000      -5.398537      -146.9017   26-A
  50   1.0000      -5.398511      -146.9010   25-B
  51   1.0000      -5.398405      -146.8981   26-B
  52   1.0000      -5.398381      -146.8974   27-A
  53   1.0000      -3.994353      -108.6919   28-A
  54   1.0000      -2.507335       -68.2281   27-B
  55   1.0000      -2.506911       -68.2165   28-B
  56   1.0000      -2.505885       -68.1886   29-A
  57   1.0000      -1.743605       -47.4459   30-A
  58   1.0000      -1.743576       -47.4451   29-B
  59   1.0000      -1.743108       -47.4324   31-A
  60   1.0000      -1.743079       -47.4316   30-B
  61   1.0000      -1.740528       -47.3622   32-A
  62   1.0000      -1.740476       -47.3607   31-B
  63   1.0000      -1.740283       -47.3555   33-A
  64   1.0000      -1.740260       -47.3549   32-B
  65   1.0000      -1.739989       -47.3475   34-A
  66   1.0000      -1.739909       -47.3453   33-B
  67   1.0000      -1.739782       -47.3419   34-B
  68   1.0000      -1.739779       -47.3418   35-A
  69   1.0000      -1.735515       -47.2258   36-A
  70   1.0000      -1.735478       -47.2248   35-B
  71   1.0000      -1.735449       -47.2240   37-A
  72   1.0000      -1.735446       -47.2239   36-B
  73   1.0000      -1.734960       -47.2107   38-A
  74   1.0000      -1.734937       -47.2100   37-B
  75   1.0000      -1.734904       -47.2091   39-A
  76   1.0000      -1.734887       -47.2087   38-B
  77   1.0000      -0.602526       -16.3956   40-A
  78   1.0000      -0.602260       -16.3883   41-A
  79   1.0000      -0.521042       -14.1783   42-A
  80   1.0000      -0.520337       -14.1591   43-A
  81   1.0000      -0.498080       -13.5535   39-B
  82   1.0000      -0.496129       -13.5004   40-B
  83   1.0000      -0.410689       -11.1754   41-B
  84   1.0000      -0.409156       -11.1337   42-B
  85   1.0000      -0.381206       -10.3731   44-A
  86   1.0000      -0.376651       -10.2492   45-A
  87   1.0000      -0.318602        -8.6696   46-A
  88   1.0000      -0.311292        -8.4707   47-A
  89   1.0000      -0.285221        -7.7613   43-B
  90   1.0000      -0.281368        -7.6564   44-B
  91   1.0000      -0.228038        -6.2052   48-A
  92   1.0000      -0.220072        -5.9885   49-A
  93   1.0000      -0.199494        -5.4285   50-A
  94   1.0000      -0.198508        -5.4017   51-A
  95   1.0000      -0.169511        -4.6126   45-B
  96   1.0000      -0.164595        -4.4789   46-B
  97   1.0000      -0.138866        -3.7787   47-B
  98   1.0000      -0.135805        -3.6954   48-B
  99   1.0000      -0.135322        -3.6823   52-A
 100   1.0000      -0.130407        -3.5485   49-B
 101   1.0000      -0.114635        -3.1194   50-B
 102   1.0000      -0.108659        -2.9568   53-A
 103   1.0000      -0.082012        -2.2317   54-A
 104   1.0000      -0.071240        -1.9385   51-B
 105   1.0000      -0.063892        -1.7386   55-A
 106   1.0000      -0.056243        -1.5304   52-B
 107   1.0000      -0.047909        -1.3037   53-B
 108   1.0000      -0.045863        -1.2480   54-B
 109   1.0000      -0.030553        -0.8314   56-A
 110   1.0000      -0.026458        -0.7199   57-A
 111   1.0000      -0.017445        -0.4747   58-A
 112   1.0000      -0.002693        -0.0733   55-B
 113   1.0000       0.007240         0.1970   59-A
 114   1.0000       0.009431         0.2566   56-B
 115   1.0000       0.011246         0.3060   60-A
 116   1.0000       0.028849         0.7850   61-A
 117   1.0000       0.031507         0.8573   62-A
 118   1.0000       0.051636         1.4051   57-B
 119   1.0000       0.056257         1.5308   63-A
 120   1.0000       0.058996         1.6054   64-A
 121   1.0000       0.071234         1.9384   58-B
 122   1.0000       0.101537         2.7630   59-B
 123   0.0000       0.145422         3.9571   60-B
 124   0.0000       0.183794         5.0013   65-A
 125   0.0000       0.184106         5.0098   66-A
 126   0.0000       0.193398         5.2626   61-B
 127   0.0000       0.199345         5.4245   62-B

MULLIKEN ATOMIC CHARGES AND SPIN POPULATIONS
--------------------------------------------
   0 Cu:    0.639192    0.309148
   1 Se:   -0.713154    0.174267
   2 C :    0.240167   -0.003175
   3 Se:   -0.732814    0.173210
   4 C :    0.221598   -0.003218
   5 Se:   -0.713154    0.174267
   6 C :    0.240167   -0.003175
   7 Se:   -0.732814    0.173210
   8 C :    0.221598   -0.003218
   9 C :   -0.103049   -0.001495
  10 C :   -0.103049   -0.001495
  11 C :   -0.156448   -0.000643
  12 H :    0.091482    0.002749
  13 C :   -0.156448   -0.000643
  14 H :    0.091482    0.002749
  15 H :    0.021178    0.001585
  16 H :    0.021178    0.001585
  17 C :   -0.102987   -0.001493
  18 C :   -0.102987   -0.001493
  19 C :   -0.139810   -0.000408
  20 H :    0.032820    0.002409
  21 C :   -0.139810   -0.000408
  22 H :    0.032820    0.002409
  23 H :    0.021422    0.001637
  24 H :    0.021422    0.001637
Sum of atomic charges         :   -2.0000000

LOEWDIN ATOMIC CHARGES AND SPIN POPULATIONS
-------------------------------------------
   0 Cu:   -0.616245    0.390055
   1 Se:   -0.207487    0.124026
   2 C :    0.031409    0.012190
   3 Se:   -0.202161    0.123204
   4 C :    0.038390    0.011765
   5 Se:   -0.207487    0.124026
   6 C :    0.031409    0.012190
   7 Se:   -0.202161    0.123204
   8 C :    0.038390    0.011765
   9 C :    0.371090    0.006905
  10 C :    0.371090    0.006905
  11 C :    0.319720    0.000460
  12 H :   -0.459563    0.009400
  13 C :    0.319720    0.000460
  14 H :   -0.459563    0.009400
  15 H :   -0.412115    0.000389
  16 H :   -0.412115    0.000389
  17 C :    0.341240    0.006545
  18 C :    0.341240    0.006545
  19 C :    0.304017    0.000540
  20 H :   -0.407985    0.009084
  21 C :    0.304017    0.000540
  22 H :   -0.407985    0.009084
  23 H :   -0.408433    0.000465
  24 H :   -0.408433    0.000465

  Mayer bond orders larger than 0.100000
B(  0-Cu,  1-Se) :   0.5472 B(  0-Cu,  3-Se) :   0.5509 B(  0-Cu,  5-Se) :   0.5472
B(  0-Cu,  7-Se) :   0.5509 B(  1-Se,  2-C ) :   1.0381 B(  2-C ,  6-C ) :   1.1332
B(  2-C , 17-C ) :   1.2578 B(  3-Se,  4-C ) :   1.0393 B(  4-C ,  8-C ) :   1.1335
B(  4-C , 10-C ) :   1.2573 B(  5-Se,  6-C ) :   1.0381 B(  6-C , 18-C ) :   1.2578
B(  7-Se,  8-C ) :   1.0393 B(  8-C ,  9-C ) :   1.2573 B(  9-C , 13-C ) :   1.3791
B(  9-C , 14-H ) :   0.9603 B( 10-C , 11-C ) :   1.3791 B( 10-C , 12-H ) :   0.9603
B( 11-C , 13-C ) :   1.3126 B( 11-C , 15-H ) :   0.9954 B( 13-C , 16-H ) :   0.9954
B( 17-C , 19-C ) :   1.3590 B( 17-C , 20-H ) :   0.9949 B( 18-C , 21-C ) :   1.3590
B( 18-C , 22-H ) :   0.9949 B( 19-C , 21-C ) :   1.3214 B( 19-C , 23-H ) :   0.9943
B( 21-C , 24-H ) :   0.9943

FINAL SINGLE POINT ENERGY    -11627.116610901316

DIPOLE MOMENT
-------------
                                X             Y             Z
Electronic contribution:     -0.00000       0.00000      -0.12418
Nuclear contribution   :      0.00000       0.00000       0.00000
                        -----------------------------------------
Total Dipole Moment    :     -0.00000       0.00000      -0.12418
                        -----------------------------------------
Magnitude (a.u.)       :      0.12418
Magnitude (Debye)      :      0.31565

Rotational constants in cm-1:     0.017609     0.004098     0.003325
Rotational constants in MHz :   527.907931   122.840706    99.666038

                             ****ORCA TERMINATED NORMALLY****
TOTAL RUN TIME: 0 days 17 hours 12 minutes 47 seconds 293 msec
