                         Program Version 5.0.4 -  RELEASE  -
|  1> ! RIJCOSX nofrozencore ReducedPop printbasis
|  2> ! M06L ano-rcc-dzp autoaux
|  3>
|  4> %maxcore 7500
|  5> %basis
|  6> PCDTrimBas overlap
|  7> PCDTrimAuxJ Coulomb
|  8> PCDTrimAuxJK Coulomb
|  9> PCDTrimAuxC Coulomb
| 10> PCDThresh -1
| 11> end
| 12>
| 13> %basis
| 14> newgto Cu "ano-rcc-tzp" end
| 15> newgto Se "ano-rcc-tzp" end
| 16> end
| 17>
| 18> %pal
| 19> nprocs 8
| 20> end
| 21>
| 22> % sym SymThresh 1e-2 end
| 23> * xyz -2 2
| 24> Cu 5.87789810616513e-05 -0.0003793652530108195 6.241022507082445e-05
| 25> Se 2.216917995964997 0.5945231027169795 0.5915930657363373
| 26> C 2.2878993846074884 2.1478648205030866 0.4290995014678074
| 27> Se 0.25819938948336524 -2.3329150184399094 0.3529621424571425
| 28> C -1.0865709320644308 -2.8784492356608906 0.015969845831050367
| 29> Se -0.2661143462070238 2.3271490362903826 -0.3546434404420199
| 30> C 1.1382970502914806 3.0002601037431913 -0.01493058878983141
| 31> Se -2.215544529328936 -0.5891002029249366 -0.5918242653148156
| 32> C -2.2994433547903896 -2.2073396741346474 -0.4255131034251084
| 33> C -3.503030079508388 -2.9311411204381796 -0.6992722428753123
| 34> C -1.2621915227823806 -4.313707918896943 0.13325809252009357
| 35> C -2.805607660376914 -5.044900688809045 -0.24108858238705985
| 36> H -0.44068604341435413 -4.957825156754608 0.4547001968373753
| 37> C -3.5436705333201433 -4.330210045705517 -0.545963011247617
| 38> H -4.1461395050889855 -2.0417582248415425 -0.996454539857376
| 39> H -2.275673780347221 -6.133846631066266 0.045902108352567327
| 40> H -4.561002883054737 -4.62094982710806 -0.8153234212534144
| 41> C 3.459610667476418 2.8574707789225373 0.6950203602609057
| 42> C 1.353971748895041 4.316558607454648 -0.10619271963413628
| 43> C 3.6310797268787 4.368593627455349 0.5675214957374108
| 44> H 4.294540282017427 2.242595333197708 1.017012548860405
| 45> C 2.6154125750814092 5.01195385813893 0.1881987965751431
| 46> H 0.5097706878308159 4.9044551406268715 -0.42776273072832544
| 47> H 4.6853795426747125 4.603779565489273 0.8544885105258663
| 48> H 2.6122557711415153 6.090624716528107 0.0597009877033967
| 49> *
| 50>
| 51> % eprnmr
| 52> gtensor true
| 53> Nuclei = all H {aiso,adip,aorb,fgrad,rho}
| 54> Nuclei = all Cu {aiso,adip,aorb,fgrad,rho}
| 55> end
| 56>
| 57>                          ****END OF INPUT****

CARTESIAN COORDINATES (ANGSTROEM)
---------------------------------
  Cu     0.000068   -0.000383    0.000000
  Se     2.303234    0.559711    0.000000
  C      2.351023    2.122410    0.000000
  Se     0.308891   -2.353365    0.000000
  C     -1.085110   -2.879044    0.000000
  Se    -0.317053    2.347699    0.000000
  C      1.137024    3.000780    0.000000
  Se    -2.301893   -0.554275    0.000000
  C     -2.362062   -2.182089    0.000000
  C     -3.605727   -2.889727    0.000000
  C     -1.244084   -4.321020    0.000000
  C     -2.842226   -5.030142    0.000000
  H     -0.375969   -4.983938    0.000000
  C     -3.624465   -4.297633    0.000000
  H     -4.291840   -1.982998    0.000000
  H     -2.270832   -6.135812    0.000000
  H     -4.681105   -4.572520    0.000000
  C      3.561666    2.816315    0.000000
  C      1.339806    4.322281    0.000000
  C      3.715025    4.334746    0.000000
  H      4.443294    2.182604    0.000000
  C      2.644320    5.000305    0.000000
  H      0.448960    4.928992    0.000000
  H      4.811179    4.553052    0.000000
  H      2.622778    6.086394    0.000000

 Total Charge           Charge          ....   -2
 Multiplicity           Mult            ....    2
 Number of Electrons    NEL             ....  247
 Basis Dimension        Dim             ....  575

ORBITAL ENERGIES
----------------
                 SPIN UP ORBITALS
  NO   OCC          E(Eh)            E(eV)    Irrep
   0   1.0000    -443.583361    -12070.5169    1-A'
   1   1.0000    -443.573851    -12070.2581    2-A'
   2   1.0000    -443.555851    -12069.7683    3-A'
   3   1.0000    -443.552045    -12069.6647    4-A'
   4   1.0000    -318.190850     -8658.4132    5-A'
   5   1.0000     -56.385695     -1534.3328    6-A'
   6   1.0000     -56.379581     -1534.1664    7-A'
   7   1.0000     -56.363793     -1533.7368    8-A'
   8   1.0000     -56.362760     -1533.7087    9-A'
   9   1.0000     -51.298383     -1395.9000   10-A'
  10   1.0000     -51.297472     -1395.8752   11-A'
  11   1.0000     -51.297251     -1395.8692    1-A"
  12   1.0000     -51.293631     -1395.7707   12-A'
  13   1.0000     -51.292542     -1395.7410   13-A'
  14   1.0000     -51.292282     -1395.7340    2-A"
  15   1.0000     -51.289397     -1395.6555   14-A'
  16   1.0000     -51.289268     -1395.6519   15-A'
  17   1.0000     -51.288166     -1395.6220   16-A'
  18   1.0000     -51.288042     -1395.6186   17-A'
  19   1.0000     -51.287857     -1395.6136    3-A"
  20   1.0000     -51.287754     -1395.6107    4-A"
  21   1.0000     -38.031193     -1034.8814   18-A'
  22   1.0000     -33.533041      -912.4804   19-A'
  23   1.0000     -33.532493      -912.4655   20-A'
  24   1.0000     -33.521530      -912.1672    5-A"
  25   1.0000      -9.819801      -267.2104   21-A'
  26   1.0000      -9.818965      -267.1876   22-A'
  27   1.0000      -9.817277      -267.1417   23-A'
  28   1.0000      -9.815788      -267.1012   24-A'
  29   1.0000      -9.814660      -267.0705   25-A'
  30   1.0000      -9.813218      -267.0312   26-A'
  31   1.0000      -9.811376      -266.9811   27-A'
  32   1.0000      -9.809630      -266.9336   28-A'
  33   1.0000      -9.805379      -266.8179   29-A'
  34   1.0000      -9.804543      -266.7952   30-A'
  35   1.0000      -9.801380      -266.7091   31-A'
  36   1.0000      -9.798685      -266.6358   32-A'
  37   1.0000      -7.353515      -200.0993   33-A'
  38   1.0000      -7.348227      -199.9554   34-A'
  39   1.0000      -7.339617      -199.7211   35-A'
  40   1.0000      -7.339236      -199.7108   36-A'
  41   1.0000      -5.415113      -147.3527   37-A'
  42   1.0000      -5.410547      -147.2285   38-A'
  43   1.0000      -5.409991      -147.2133    6-A"
  44   1.0000      -5.409990      -147.2133   39-A'
  45   1.0000      -5.407890      -147.1562   40-A'
  46   1.0000      -5.406793      -147.1263   41-A'
  47   1.0000      -5.405711      -147.0969    7-A"
  48   1.0000      -5.405572      -147.0931   42-A'
  49   1.0000      -5.402992      -147.0229    8-A"
  50   1.0000      -5.402958      -147.0220   43-A'
  51   1.0000      -5.401627      -146.9858   44-A'
  52   1.0000      -5.401592      -146.9848    9-A"
  53   1.0000      -4.025494      -109.5392   45-A'
  54   1.0000      -2.544637       -69.2431   46-A'
  55   1.0000      -2.544148       -69.2298   47-A'
  56   1.0000      -2.520995       -68.5998   10-A"
  57   1.0000      -1.757285       -47.8182   48-A'
  58   1.0000      -1.751891       -47.6714   49-A'
  59   1.0000      -1.751367       -47.6571   11-A"
  60   1.0000      -1.750997       -47.6471   50-A'
  61   1.0000      -1.747223       -47.5443   51-A'
  62   1.0000      -1.747043       -47.5395   52-A'
  63   1.0000      -1.746919       -47.5361   53-A'
  64   1.0000      -1.746918       -47.5360   12-A"
  65   1.0000      -1.746745       -47.5314   13-A"
  66   1.0000      -1.746625       -47.5281   54-A'
  67   1.0000      -1.744313       -47.4652   55-A'
  68   1.0000      -1.743940       -47.4550   14-A"
  69   1.0000      -1.743169       -47.4340   56-A'
  70   1.0000      -1.742721       -47.4218   15-A"
  71   1.0000      -1.742526       -47.4165   57-A'
  72   1.0000      -1.742435       -47.4141   16-A"
  73   1.0000      -1.739857       -47.3439   58-A'
  74   1.0000      -1.739759       -47.3412   17-A"
  75   1.0000      -1.738384       -47.3038   59-A'
  76   1.0000      -1.738369       -47.3034   18-A"
  77   1.0000      -0.599754       -16.3201   60-A'
  78   1.0000      -0.595016       -16.1912   61-A'
  79   1.0000      -0.559330       -15.2202   62-A'
  80   1.0000      -0.528581       -14.3834   63-A'
  81   1.0000      -0.506226       -13.7751   64-A'
  82   1.0000      -0.498463       -13.5639   65-A'
  83   1.0000      -0.401288       -10.9196   66-A'
  84   1.0000      -0.397124       -10.8063   67-A'
  85   1.0000      -0.391239       -10.6462   68-A'
  86   1.0000      -0.385148       -10.4804   69-A'
  87   1.0000      -0.308733        -8.4010   70-A'
  88   1.0000      -0.304095        -8.2749   71-A'
  89   1.0000      -0.286771        -7.8034   72-A'
  90   1.0000      -0.274887        -7.4801   73-A'
  91   1.0000      -0.224494        -6.1088   74-A'
  92   1.0000      -0.221453        -6.0260   75-A'
  93   1.0000      -0.215380        -5.8608   76-A'
  94   1.0000      -0.199401        -5.4260   77-A'
  95   1.0000      -0.167925        -4.5695   78-A'
  96   1.0000      -0.160479        -4.3669   79-A'
  97   1.0000      -0.140202        -3.8151   80-A'
  98   1.0000      -0.132507        -3.6057   19-A"
  99   1.0000      -0.126538        -3.4433   20-A"
 100   1.0000      -0.123644        -3.3645   81-A'
 101   1.0000      -0.115793        -3.1509   82-A'
 102   1.0000      -0.104554        -2.8451   83-A'
 103   1.0000      -0.089379        -2.4321   84-A'
 104   1.0000      -0.088475        -2.4075   21-A"
 105   1.0000      -0.070552        -1.9198   85-A'
 106   1.0000      -0.063431        -1.7260   86-A'
 107   1.0000      -0.055663        -1.5147   22-A"
 108   1.0000      -0.040020        -1.0890   23-A"
 109   1.0000      -0.036564        -0.9950   87-A'
 110   1.0000      -0.029285        -0.7969   24-A"
 111   1.0000      -0.027814        -0.7569   88-A'
 112   1.0000      -0.011400        -0.3102   89-A'
 113   1.0000      -0.006139        -0.1670   25-A"
 114   1.0000      -0.001857        -0.0505   90-A'
 115   1.0000      -0.001164        -0.0317   26-A"
 116   1.0000       0.018526         0.5041   91-A'
 117   1.0000       0.026448         0.7197   92-A'
 118   1.0000       0.039621         1.0781   93-A'
 119   1.0000       0.064870         1.7652   27-A"
 120   1.0000       0.067205         1.8287   28-A"
 121   1.0000       0.077239         2.1018   29-A"
 122   1.0000       0.093299         2.5388   30-A"
 123   1.0000       0.112196         3.0530   94-A'
 124   0.0000       0.180082         4.9003   31-A"
 125   0.0000       0.182962         4.9787   95-A'
 126   0.0000       0.183428         4.9913   96-A'
 127   0.0000       0.194867         5.3026   97-A'
 128   0.0000       0.195806         5.3282   98-A'

                 SPIN DOWN ORBITALS
  NO   OCC          E(Eh)            E(eV)    Irrep
   0   1.0000    -443.582895    -12070.5042    1-A'
   1   1.0000    -443.573406    -12070.2460    2-A'
   2   1.0000    -443.555418    -12069.7565    3-A'
   3   1.0000    -443.551614    -12069.6530    4-A'
   4   1.0000    -318.190728     -8658.4099    5-A'
   5   1.0000     -56.385509     -1534.3277    6-A'
   6   1.0000     -56.379400     -1534.1615    7-A'
   7   1.0000     -56.363618     -1533.7320    8-A'
   8   1.0000     -56.362586     -1533.7039    9-A'
   9   1.0000     -51.297917     -1395.8873   10-A'
  10   1.0000     -51.296990     -1395.8621    1-A"
  11   1.0000     -51.296836     -1395.8579   11-A'
  12   1.0000     -51.293272     -1395.7609   12-A'
  13   1.0000     -51.292030     -1395.7271    2-A"
  14   1.0000     -51.291846     -1395.7221   13-A'
  15   1.0000     -51.289071     -1395.6466   14-A'
  16   1.0000     -51.288923     -1395.6425   15-A'
  17   1.0000     -51.287621     -1395.6071    3-A"
  18   1.0000     -51.287514     -1395.6042    4-A"
  19   1.0000     -51.287497     -1395.6037   16-A'
  20   1.0000     -51.287388     -1395.6008   17-A'
  21   1.0000     -38.017526     -1034.5095   18-A'
  22   1.0000     -33.520067      -912.1274   19-A'
  23   1.0000     -33.519499      -912.1119   20-A'
  24   1.0000     -33.517704      -912.0631    5-A"
  25   1.0000      -9.819599      -267.2049   21-A'
  26   1.0000      -9.818868      -267.1850   22-A'
  27   1.0000      -9.817210      -267.1399   23-A'
  28   1.0000      -9.815765      -267.1006   24-A'
  29   1.0000      -9.814627      -267.0696   25-A'
  30   1.0000      -9.813140      -267.0291   26-A'
  31   1.0000      -9.811319      -266.9796   27-A'
  32   1.0000      -9.809498      -266.9300   28-A'
  33   1.0000      -9.805260      -266.8147   29-A'
  34   1.0000      -9.804387      -266.7909   30-A'
  35   1.0000      -9.801290      -266.7067   31-A'
  36   1.0000      -9.798609      -266.6337   32-A'
  37   1.0000      -7.353107      -200.0882   33-A'
  38   1.0000      -7.347834      -199.9447   34-A'
  39   1.0000      -7.339231      -199.7106   35-A'
  40   1.0000      -7.338848      -199.7002   36-A'
  41   1.0000      -5.414683      -147.3410   37-A'
  42   1.0000      -5.410166      -147.2181   38-A'
  43   1.0000      -5.409670      -147.2046    6-A"
  44   1.0000      -5.409184      -147.1914   39-A'
  45   1.0000      -5.407517      -147.1460   40-A'
  46   1.0000      -5.406441      -147.1167   41-A'
  47   1.0000      -5.405391      -147.0882    7-A"
  48   1.0000      -5.404767      -147.0712   42-A'
  49   1.0000      -5.402691      -147.0147    8-A"
  50   1.0000      -5.402211      -147.0016   43-A'
  51   1.0000      -5.401292      -146.9766    9-A"
  52   1.0000      -5.400861      -146.9649   44-A'
  53   1.0000      -3.997693      -108.7828   45-A'
  54   1.0000      -2.510814       -68.3227   10-A"
  55   1.0000      -2.509947       -68.2991   46-A'
  56   1.0000      -2.509361       -68.2832   47-A'
  57   1.0000      -1.756818       -47.8054   48-A'
  58   1.0000      -1.751017       -47.6476   11-A"
  59   1.0000      -1.750935       -47.6454   49-A'
  60   1.0000      -1.750550       -47.6349   50-A'
  61   1.0000      -1.746785       -47.5324   51-A'
  62   1.0000      -1.746417       -47.5224   12-A"
  63   1.0000      -1.746204       -47.5166   52-A'
  64   1.0000      -1.746152       -47.5152   13-A"
  65   1.0000      -1.746134       -47.5147   53-A'
  66   1.0000      -1.746107       -47.5140   54-A'
  67   1.0000      -1.743618       -47.4462   14-A"
  68   1.0000      -1.743461       -47.4420   55-A'
  69   1.0000      -1.742418       -47.4136   15-A"
  70   1.0000      -1.742319       -47.4109   56-A'
  71   1.0000      -1.741719       -47.3946   57-A'
  72   1.0000      -1.741668       -47.3932   16-A"
  73   1.0000      -1.739119       -47.3238   58-A'
  74   1.0000      -1.739057       -47.3221   17-A"
  75   1.0000      -1.737645       -47.2837   18-A"
  76   1.0000      -1.737624       -47.2831   59-A'
  77   1.0000      -0.598617       -16.2892   60-A'
  78   1.0000      -0.593773       -16.1574   61-A'
  79   1.0000      -0.557815       -15.1789   62-A'
  80   1.0000      -0.527354       -14.3500   63-A'
  81   1.0000      -0.503755       -13.7079   64-A'
  82   1.0000      -0.495644       -13.4872   65-A'
  83   1.0000      -0.399055       -10.8588   66-A'
  84   1.0000      -0.394946       -10.7470   67-A'
  85   1.0000      -0.389013       -10.5856   68-A'
  86   1.0000      -0.383144       -10.4259   69-A'
  87   1.0000      -0.306569        -8.3422   70-A'
  88   1.0000      -0.302194        -8.2231   71-A'
  89   1.0000      -0.284673        -7.7463   72-A'
  90   1.0000      -0.272552        -7.4165   73-A'
  91   1.0000      -0.223437        -6.0800   74-A'
  92   1.0000      -0.220074        -5.9885   75-A'
  93   1.0000      -0.213758        -5.8167   76-A'
  94   1.0000      -0.197780        -5.3819   77-A'
  95   1.0000      -0.166193        -4.5223   78-A'
  96   1.0000      -0.157920        -4.2972   79-A'
  97   1.0000      -0.138108        -3.7581   80-A'
  98   1.0000      -0.132087        -3.5943   19-A"
  99   1.0000      -0.125923        -3.4265   20-A"
 100   1.0000      -0.121744        -3.3128   81-A'
 101   1.0000      -0.112987        -3.0745   82-A'
 102   1.0000      -0.101794        -2.7700   83-A'
 103   1.0000      -0.087658        -2.3853   21-A"
 104   1.0000      -0.085746        -2.3333   84-A'
 105   1.0000      -0.066583        -1.8118   85-A'
 106   1.0000      -0.059075        -1.6075   86-A'
 107   1.0000      -0.054838        -1.4922   22-A"
 108   1.0000      -0.037508        -1.0206   23-A"
 109   1.0000      -0.027284        -0.7424   24-A"
 110   1.0000      -0.021748        -0.5918   87-A'
 111   1.0000      -0.013872        -0.3775   88-A'
 112   1.0000      -0.001892        -0.0515   89-A'
 113   1.0000       0.005196         0.1414   25-A"
 114   1.0000       0.008866         0.2413   26-A"
 115   1.0000       0.009119         0.2481   90-A'
 116   1.0000       0.029492         0.8025   91-A'
 117   1.0000       0.033666         0.9161   92-A'
 118   1.0000       0.049409         1.3445   93-A'
 119   1.0000       0.066752         1.8164   27-A"
 120   1.0000       0.069048         1.8789   28-A"
 121   1.0000       0.078652         2.1402   29-A"
 122   1.0000       0.096153         2.6164   30-A"
 123   0.0000       0.140492         3.8230   94-A'
 124   0.0000       0.180164         4.9025   31-A"
 125   0.0000       0.184837         5.0297   95-A'
 126   0.0000       0.186401         5.0722   96-A'
 127   0.0000       0.200073         5.4443   97-A'

MULLIKEN ATOMIC CHARGES AND SPIN POPULATIONS
--------------------------------------------
   0 Cu:    0.618875    0.306803
   1 Se:   -0.584002    0.167130
   2 C :    0.156049   -0.000768
   3 Se:   -0.464092    0.177650
   4 C :    0.133938   -0.001392
   5 Se:   -0.664770    0.160256
   6 C :    0.194879    0.001286
   7 Se:   -0.641427    0.162250
   8 C :    0.226076    0.000949
   9 C :   -0.305096    0.000749
  10 C :   -0.268033   -0.009997
  11 C :   -0.092137    0.011823
  12 H :    0.092296    0.003399
  13 C :    0.015719   -0.001014
  14 H :    0.068136    0.000574
  15 H :   -0.052905    0.004715
  16 H :   -0.017960    0.008584
  17 C :   -0.183569   -0.003487
  18 C :   -0.173318   -0.003661
  19 C :   -0.120570    0.001907
  20 H :    0.092636    0.002467
  21 C :   -0.139347    0.000807
  22 H :    0.092756    0.002835
  23 H :   -0.002597    0.003432
  24 H :    0.018465    0.002701
Sum of atomic charges         :   -2.0000000

LOEWDIN ATOMIC CHARGES AND SPIN POPULATIONS
-------------------------------------------
   0 Cu:   -0.573598    0.385262
   1 Se:   -0.196839    0.119425
   2 C :    0.033714    0.015824
   3 Se:   -0.209245    0.123130
   4 C :   -0.019703    0.016107
   5 Se:   -0.199314    0.112927
   6 C :    0.034035    0.015100
   7 Se:   -0.177548    0.112014
   8 C :    0.103159    0.013502
   9 C :    0.391078    0.006676
  10 C :    0.466647    0.005304
  11 C :    0.269472    0.008406
  12 H :   -0.481741    0.005617
  13 C :    0.140610    0.003765
  14 H :   -0.482857    0.013717
  15 H :   -0.308950    0.003889
  16 H :   -0.411244    0.003908
  17 C :    0.403211    0.006311
  18 C :    0.382278    0.005717
  19 C :    0.296352    0.002591
  20 H :   -0.476214    0.008252
  21 C :    0.287445    0.001653
  22 H :   -0.466845    0.008335
  23 H :   -0.388070    0.001488
  24 H :   -0.415834    0.001080

  Mayer bond orders larger than 0.100000
B(  0-Cu,  1-Se) :   0.5408 B(  0-Cu,  3-Se) :   0.5519 B(  0-Cu,  5-Se) :   0.5461
B(  0-Cu,  7-Se) :   0.5222 B(  1-Se,  2-C ) :   1.1536 B(  1-Se, 17-C ) :   0.1019
B(  2-C ,  6-C ) :   1.0490 B(  2-C , 17-C ) :   1.3588 B(  3-Se,  4-C ) :   1.2230
B(  3-Se, 10-C ) :   0.1592 B(  4-C ,  8-C ) :   1.0351 B(  4-C , 10-C ) :   1.3637
B(  5-Se,  6-C ) :   1.1025 B(  6-C , 18-C ) :   1.3620 B(  7-Se,  8-C ) :   1.0832
B(  7-Se,  9-C ) :   0.1309 B(  8-C ,  9-C ) :   1.3803 B(  9-C , 13-C ) :   1.1448
B(  9-C , 14-H ) :   0.9541 B( 10-C , 11-C ) :   1.0095 B( 10-C , 12-H ) :   0.9626
B( 11-C , 13-C ) :   1.6378 B( 11-C , 15-H ) :   0.9323 B( 13-C , 16-H ) :   0.9719
B( 17-C , 19-C ) :   1.2125 B( 17-C , 20-H ) :   0.9584 B( 18-C , 21-C ) :   1.2289
B( 18-C , 22-H ) :   0.9596 B( 19-C , 21-C ) :   1.4778 B( 19-C , 23-H ) :   0.9870
B( 21-C , 24-H ) :   0.9995

FINAL SINGLE POINT ENERGY    -11626.786694860815

DIPOLE MOMENT
-------------
                                X             Y             Z
Electronic contribution:     -0.48276      -0.02110      -0.00000
Nuclear contribution   :      0.73260       0.07545       0.00000
                        -----------------------------------------
Total Dipole Moment    :      0.24984       0.05435      -0.00000
                        -----------------------------------------
Magnitude (a.u.)       :      0.25568
Magnitude (Debye)      :      0.64988

Rotational constants in cm-1:     0.017608     0.004092     0.003320
Rotational constants in MHz :   527.885985   122.662708    99.534324

                             ****ORCA TERMINATED NORMALLY****
TOTAL RUN TIME: 0 days 17 hours 1 minutes 28 seconds 823 msec
