                         Program Version 5.0.4 -  RELEASE  -
|  1> ! RIJCOSX nofrozencore ReducedPop printbasis
|  2> ! M06L ano-rcc-dzp autoaux
|  3>
|  4> %maxcore 7500
|  5> %basis
|  6> PCDTrimBas overlap
|  7> PCDTrimAuxJ Coulomb
|  8> PCDTrimAuxJK Coulomb
|  9> PCDTrimAuxC Coulomb
| 10> PCDThresh -1
| 11> end
| 12>
| 13> %basis
| 14> newgto Cu "ano-rcc-tzp" end
| 15> newgto Se "ano-rcc-tzp" end
| 16> end
| 17>
| 18> %pal
| 19> nprocs 8
| 20> end
| 21>
| 22> % sym SymThresh 1e-2 end
| 23> * xyz -2 2
| 24> Cu -3.4415922594675154e-06 -8.620123972098431e-06 -5.9032961492057335e-06
| 25> Se 1.3749534861696293 0.6834098762859669 -1.8028958506346897
| 26> C 0.430941883076003 1.6858225138889096 -2.6887277738704203
| 27> Se 1.6313360567314708 -1.3695397175604114 1.0349564802823177
| 28> C 0.902934213434638 -1.9308326458033207 2.3908465744740544
| 29> Se -1.6330606073254876 1.365220251802756 -1.037914568316356
| 30> C -0.8909618525800213 1.9608197061593498 -2.3703106171608264
| 31> Se -1.3732348801440606 -0.6791052998333544 1.8058437420662885
| 32> C -0.44278315055273637 -1.715481225886365 2.6684166784741485
| 33> C -0.9620120907004892 -2.3524383663205115 3.7919874174505583
| 34> C 1.6040080887699337 -2.7450551685818936 3.2757070884193014
| 35> C 1.0211286091309884 -3.533160773655752 4.279686284849686
| 36> H 2.65257128586427 -2.90484908325679 3.0551144575764364
| 37> C -0.19793509887259403 -2.9967952588776265 4.777231709520994
| 38> H -2.013641293153739 -2.1878011931701957 3.9961784404917666
| 39> H 1.5825899046778695 -4.339095038201963 4.77763901341152
| 40> H -0.626913348866928 -3.262141341500565 5.755003314822794
| 41> C 0.9367094309065636 2.2890637981905657 -3.8353892596544985
| 42> C -1.5787752729395887 2.808255566602418 -3.232425731043184
| 43> C 0.23346696247308693 3.0857923530213944 -4.716285279001714
| 44> H 1.968066716335479 2.0736517439016886 -4.074352307004387
| 45> C -1.056536262538117 3.4444747876226134 -4.340419660044308
| 46> H -2.607708566401993 3.017216317471262 -2.978162308955108
| 47> H 0.70289056533098 3.452440765603878 -5.624681075706356
| 48> H -1.659376143023468 4.1467710825884225 -4.909346404779256
| 49> *
| 50>
| 51> % eprnmr
| 52> gtensor true
| 53> Nuclei = all H {aiso,adip,aorb,fgrad,rho}
| 54> Nuclei = all Cu {aiso,adip,aorb,fgrad,rho}
| 55> end
| 56>
| 57>                          ****END OF INPUT****

CARTESIAN COORDINATES (ANGSTROEM)
---------------------------------
  Cu    -0.000000    0.000000    0.000000
  Se     1.520779   -0.460201   -1.755969
  C      0.667921   -0.187062   -3.126639
  Se     1.519191   -0.465470    1.755969
  C      0.678901   -0.150624    3.126639
  Se    -1.520779    0.460201   -1.755969
  C     -0.667921    0.187062   -3.126639
  Se    -1.519191    0.465470    1.755969
  C     -0.678901    0.150624    3.126639
  C     -1.294238    0.276108    4.368893
  C      1.294238   -0.276108    4.368893
  C      0.620565   -0.346754    5.597895
  H      2.353575   -0.503995    4.360735
  C     -0.620565    0.346754    5.597895
  H     -2.353575    0.503995    4.360735
  H      1.126456   -0.693066    6.512078
  H     -1.126456    0.693066    6.512078
  C      1.270937   -0.353434   -4.368893
  C     -1.270937    0.353434   -4.368893
  C      0.653274   -0.238206   -5.597895
  H      2.311876   -0.642376   -4.360735
  C     -0.653274    0.238206   -5.597895
  H     -2.311876    0.642376   -4.360735
  H      1.196893   -0.459318   -6.512078
  H     -1.196893    0.459318   -6.512078

 Total Charge           Charge          ....   -2
 Multiplicity           Mult            ....    2
 Number of Electrons    NEL             ....  247
 Basis Dimension        Dim             ....  575

ORBITAL ENERGIES
----------------
                 SPIN UP ORBITALS
  NO   OCC          E(Eh)            E(eV)    Irrep
   0   1.0000    -443.561031    -12069.9093    1-B
   1   1.0000    -443.559336    -12069.8631    2-B
   2   1.0000    -443.546645    -12069.5178    1-A
   3   1.0000    -443.546457    -12069.5127    2-A
   4   1.0000    -318.186146     -8658.2852    3-A
   5   1.0000     -56.369842     -1533.9014    3-B
   6   1.0000     -56.369149     -1533.8825    4-B
   7   1.0000     -56.357285     -1533.5597    4-A
   8   1.0000     -56.356798     -1533.5464    5-A
   9   1.0000     -51.286457     -1395.5755    5-B
  10   1.0000     -51.286412     -1395.5742    6-A
  11   1.0000     -51.286006     -1395.5632    6-B
  12   1.0000     -51.285961     -1395.5619    7-A
  13   1.0000     -51.285157     -1395.5401    7-B
  14   1.0000     -51.285115     -1395.5389    8-A
  15   1.0000     -51.284678     -1395.5270    9-A
  16   1.0000     -51.284677     -1395.5270    8-B
  17   1.0000     -51.284645     -1395.5261    9-B
  18   1.0000     -51.284624     -1395.5256   10-A
  19   1.0000     -51.284229     -1395.5148   11-A
  20   1.0000     -51.284185     -1395.5136   10-B
  21   1.0000     -38.026589     -1034.7561   12-A
  22   1.0000     -33.528605      -912.3597   11-B
  23   1.0000     -33.527813      -912.3382   13-A
  24   1.0000     -33.516838      -912.0395   12-B
  25   1.0000      -9.824584      -267.3405   14-A
  26   1.0000      -9.824250      -267.3314   13-B
  27   1.0000      -9.816501      -267.1206   15-A
  28   1.0000      -9.816062      -267.1086   14-B
  29   1.0000      -9.809957      -266.9425   16-A
  30   1.0000      -9.809954      -266.9424   15-B
  31   1.0000      -9.808538      -266.9039   17-A
  32   1.0000      -9.808390      -266.8999   18-A
  33   1.0000      -9.808103      -266.8920   16-B
  34   1.0000      -9.807943      -266.8877   17-B
  35   1.0000      -9.806598      -266.8511   19-A
  36   1.0000      -9.806593      -266.8510   18-B
  37   1.0000      -7.341211      -199.7645   19-B
  38   1.0000      -7.340954      -199.7575   20-B
  39   1.0000      -7.334373      -199.5784   20-A
  40   1.0000      -7.333613      -199.5578   21-A
  41   1.0000      -5.404605      -147.0668   21-B
  42   1.0000      -5.404588      -147.0663   22-A
  43   1.0000      -5.403830      -147.0457   22-B
  44   1.0000      -5.403812      -147.0452   23-A
  45   1.0000      -5.399583      -146.9301   23-B
  46   1.0000      -5.399580      -146.9300   24-A
  47   1.0000      -5.398710      -146.9064   25-A
  48   1.0000      -5.398706      -146.9063   24-B
  49   1.0000      -5.398619      -146.9039   25-B
  50   1.0000      -5.398607      -146.9036   26-A
  51   1.0000      -5.398061      -146.8887   27-A
  52   1.0000      -5.398048      -146.8884   26-B
  53   1.0000      -4.020916      -109.4147   28-A
  54   1.0000      -2.540366       -69.1269   27-B
  55   1.0000      -2.539425       -69.1013   29-A
  56   1.0000      -2.516270       -68.4712   28-B
  57   1.0000      -1.743648       -47.4471   30-A
  58   1.0000      -1.743619       -47.4463   29-B
  59   1.0000      -1.742858       -47.4256   31-A
  60   1.0000      -1.742829       -47.4248   30-B
  61   1.0000      -1.741018       -47.3755   32-A
  62   1.0000      -1.740955       -47.3738   31-B
  63   1.0000      -1.740181       -47.3527   33-A
  64   1.0000      -1.740138       -47.3516   34-A
  65   1.0000      -1.740127       -47.3513   32-B
  66   1.0000      -1.740107       -47.3507   33-B
  67   1.0000      -1.739391       -47.3312   35-A
  68   1.0000      -1.739390       -47.3312   34-B
  69   1.0000      -1.735878       -47.2356   36-A
  70   1.0000      -1.735844       -47.2347   35-B
  71   1.0000      -1.735818       -47.2340   37-A
  72   1.0000      -1.735809       -47.2338   36-B
  73   1.0000      -1.735050       -47.2131   38-A
  74   1.0000      -1.735020       -47.2123   37-B
  75   1.0000      -1.734995       -47.2116   39-A
  76   1.0000      -1.734982       -47.2113   38-B
  77   1.0000      -0.602401       -16.3922   40-A
  78   1.0000      -0.600200       -16.3323   41-A
  79   1.0000      -0.520961       -14.1761   42-A
  80   1.0000      -0.516605       -14.0575   43-A
  81   1.0000      -0.499079       -13.5806   39-B
  82   1.0000      -0.497572       -13.5396   40-B
  83   1.0000      -0.412318       -11.2198   41-B
  84   1.0000      -0.408644       -11.1198   42-B
  85   1.0000      -0.382357       -10.4045   44-A
  86   1.0000      -0.377044       -10.2599   45-A
  87   1.0000      -0.319890        -8.7046   46-A
  88   1.0000      -0.316480        -8.6119   47-A
  89   1.0000      -0.287929        -7.8349   43-B
  90   1.0000      -0.284759        -7.7487   44-B
  91   1.0000      -0.228512        -6.2181   48-A
  92   1.0000      -0.220825        -6.0089   49-A
  93   1.0000      -0.199444        -5.4271   50-A
  94   1.0000      -0.191784        -5.2187   51-A
  95   1.0000      -0.175634        -4.7793   45-B
  96   1.0000      -0.167791        -4.5658   46-B
  97   1.0000      -0.139577        -3.7981   47-B
  98   1.0000      -0.137932        -3.7533   48-B
  99   1.0000      -0.137245        -3.7346   52-A
 100   1.0000      -0.129934        -3.5357   49-B
 101   1.0000      -0.125655        -3.4193   50-B
 102   1.0000      -0.112362        -3.0575   53-A
 103   1.0000      -0.085355        -2.3226   54-A
 104   1.0000      -0.076754        -2.0886   51-B
 105   1.0000      -0.067900        -1.8476   52-B
 106   1.0000      -0.064830        -1.7641   55-A
 107   1.0000      -0.046754        -1.2723   53-B
 108   1.0000      -0.035109        -0.9554   54-B
 109   1.0000      -0.031441        -0.8555   56-A
 110   1.0000      -0.029452        -0.8014   55-B
 111   1.0000      -0.029259        -0.7962   57-A
 112   1.0000      -0.021927        -0.5967   58-A
 113   1.0000       0.000246         0.0067   59-A
 114   1.0000       0.000611         0.0166   56-B
 115   1.0000       0.001468         0.0400   60-A
 116   1.0000       0.019713         0.5364   61-A
 117   1.0000       0.021388         0.5820   62-A
 118   1.0000       0.040826         1.1109   57-B
 119   1.0000       0.055940         1.5222   63-A
 120   1.0000       0.059898         1.6299   64-A
 121   1.0000       0.071625         1.9490   58-B
 122   1.0000       0.099252         2.7008   59-B
 123   1.0000       0.117374         3.1939   60-B
 124   0.0000       0.181008         4.9255   65-A
 125   0.0000       0.182122         4.9558   66-A
 126   0.0000       0.194775         5.3001   61-B
 127   0.0000       0.196262         5.3406   62-B
 128   0.0000       0.197697         5.3796   67-A

                 SPIN DOWN ORBITALS
  NO   OCC          E(Eh)            E(eV)    Irrep
   0   1.0000    -443.560582    -12069.8971    1-B
   1   1.0000    -443.558882    -12069.8508    2-B
   2   1.0000    -443.546196    -12069.5056    1-A
   3   1.0000    -443.546003    -12069.5004    2-A
   4   1.0000    -318.186025     -8658.2819    3-A
   5   1.0000     -56.369659     -1533.8964    3-B
   6   1.0000     -56.368964     -1533.8775    4-B
   7   1.0000     -56.357103     -1533.5547    4-A
   8   1.0000     -56.356618     -1533.5415    5-A
   9   1.0000     -51.286136     -1395.5667    5-B
  10   1.0000     -51.286082     -1395.5652    6-A
  11   1.0000     -51.285688     -1395.5545    6-B
  12   1.0000     -51.285634     -1395.5531    7-A
  13   1.0000     -51.284485     -1395.5218    8-A
  14   1.0000     -51.284458     -1395.5211    7-B
  15   1.0000     -51.284349     -1395.5181    8-B
  16   1.0000     -51.284321     -1395.5173    9-A
  17   1.0000     -51.284003     -1395.5087   10-A
  18   1.0000     -51.283974     -1395.5079    9-B
  19   1.0000     -51.283910     -1395.5061   10-B
  20   1.0000     -51.283879     -1395.5053   11-A
  21   1.0000     -38.012876     -1034.3830   12-A
  22   1.0000     -33.515581      -912.0053   11-B
  23   1.0000     -33.514784      -911.9836   13-A
  24   1.0000     -33.512994      -911.9349   12-B
  25   1.0000      -9.824543      -267.3394   14-A
  26   1.0000      -9.824209      -267.3303   13-B
  27   1.0000      -9.816452      -267.1192   15-A
  28   1.0000      -9.816012      -267.1073   14-B
  29   1.0000      -9.809850      -266.9396   16-A
  30   1.0000      -9.809847      -266.9395   15-B
  31   1.0000      -9.808511      -266.9032   17-A
  32   1.0000      -9.808403      -266.9002   18-A
  33   1.0000      -9.808075      -266.8913   16-B
  34   1.0000      -9.807953      -266.8880   17-B
  35   1.0000      -9.806480      -266.8479   19-A
  36   1.0000      -9.806477      -266.8478   18-B
  37   1.0000      -7.340809      -199.7536   19-B
  38   1.0000      -7.340559      -199.7468   20-B
  39   1.0000      -7.333964      -199.5673   20-A
  40   1.0000      -7.333210      -199.5468   21-A
  41   1.0000      -5.404243      -147.0569   21-B
  42   1.0000      -5.404225      -147.0564   22-A
  43   1.0000      -5.403469      -147.0359   22-B
  44   1.0000      -5.403451      -147.0354   23-A
  45   1.0000      -5.398929      -146.9123   24-A
  46   1.0000      -5.398917      -146.9120   23-B
  47   1.0000      -5.398227      -146.8932   24-B
  48   1.0000      -5.398217      -146.8929   25-A
  49   1.0000      -5.397988      -146.8867   26-A
  50   1.0000      -5.397974      -146.8863   25-B
  51   1.0000      -5.397565      -146.8752   26-B
  52   1.0000      -5.397553      -146.8749   27-A
  53   1.0000      -3.993112      -108.6581   28-A
  54   1.0000      -2.506065       -68.1935   27-B
  55   1.0000      -2.505650       -68.1822   28-B
  56   1.0000      -2.504632       -68.1545   29-A
  57   1.0000      -1.743195       -47.4347   30-A
  58   1.0000      -1.743166       -47.4339   29-B
  59   1.0000      -1.742412       -47.4135   31-A
  60   1.0000      -1.742383       -47.4126   30-B
  61   1.0000      -1.740208       -47.3535   32-A
  62   1.0000      -1.740173       -47.3525   31-B
  63   1.0000      -1.739751       -47.3410   33-A
  64   1.0000      -1.739710       -47.3399   32-B
  65   1.0000      -1.739351       -47.3302   34-A
  66   1.0000      -1.739305       -47.3289   33-B
  67   1.0000      -1.739029       -47.3214   35-A
  68   1.0000      -1.738998       -47.3206   34-B
  69   1.0000      -1.735082       -47.2140   35-B
  70   1.0000      -1.735068       -47.2136   36-A
  71   1.0000      -1.735060       -47.2134   37-A
  72   1.0000      -1.735007       -47.2119   36-B
  73   1.0000      -1.734260       -47.1916   37-B
  74   1.0000      -1.734250       -47.1914   38-A
  75   1.0000      -1.734238       -47.1910   39-A
  76   1.0000      -1.734189       -47.1897   38-B
  77   1.0000      -0.601590       -16.3701   40-A
  78   1.0000      -0.599265       -16.3068   41-A
  79   1.0000      -0.519841       -14.1456   42-A
  80   1.0000      -0.515481       -14.0269   43-A
  81   1.0000      -0.497403       -13.5350   39-B
  82   1.0000      -0.495818       -13.4919   40-B
  83   1.0000      -0.409663       -11.1475   41-B
  84   1.0000      -0.405971       -11.0470   42-B
  85   1.0000      -0.379866       -10.3367   44-A
  86   1.0000      -0.374671       -10.1953   45-A
  87   1.0000      -0.318132        -8.6568   46-A
  88   1.0000      -0.314611        -8.5610   47-A
  89   1.0000      -0.285635        -7.7725   43-B
  90   1.0000      -0.282214        -7.6794   44-B
  91   1.0000      -0.227383        -6.1874   48-A
  92   1.0000      -0.219751        -5.9797   49-A
  93   1.0000      -0.198200        -5.3933   50-A
  94   1.0000      -0.190556        -5.1853   51-A
  95   1.0000      -0.173990        -4.7345   45-B
  96   1.0000      -0.165812        -4.5120   46-B
  97   1.0000      -0.138788        -3.7766   47-B
  98   1.0000      -0.136565        -3.7161   48-B
  99   1.0000      -0.135296        -3.6816   52-A
 100   1.0000      -0.129500        -3.5239   49-B
 101   1.0000      -0.124944        -3.3999   50-B
 102   1.0000      -0.110691        -3.0121   53-A
 103   1.0000      -0.083973        -2.2850   54-A
 104   1.0000      -0.074705        -2.0328   51-B
 105   1.0000      -0.062564        -1.7025   55-A
 106   1.0000      -0.057934        -1.5765   52-B
 107   1.0000      -0.045591        -1.2406   53-B
 108   1.0000      -0.033101        -0.9007   54-B
 109   1.0000      -0.028846        -0.7849   56-A
 110   1.0000      -0.023199        -0.6313   57-A
 111   1.0000      -0.019997        -0.5441   58-A
 112   1.0000      -0.002075        -0.0565   55-B
 113   1.0000       0.009543         0.2597   59-A
 114   1.0000       0.011598         0.3156   56-B
 115   1.0000       0.011647         0.3169   60-A
 116   1.0000       0.029263         0.7963   61-A
 117   1.0000       0.032394         0.8815   62-A
 118   1.0000       0.051581         1.4036   57-B
 119   1.0000       0.058428         1.5899   63-A
 120   1.0000       0.062758         1.7077   64-A
 121   1.0000       0.073847         2.0095   58-B
 122   1.0000       0.102905         2.8002   59-B
 123   0.0000       0.146493         3.9863   60-B
 124   0.0000       0.182466         4.9651   65-A
 125   0.0000       0.184088         5.0093   66-A
 126   0.0000       0.196534         5.3480   61-B
 127   0.0000       0.198432         5.3996   67-A

MULLIKEN ATOMIC CHARGES AND SPIN POPULATIONS
--------------------------------------------
   0 Cu:    0.637327    0.305324
   1 Se:   -0.734078    0.171599
   2 C :    0.223004   -0.002775
   3 Se:   -0.724396    0.175668
   4 C :    0.237468    0.000510
   5 Se:   -0.734078    0.171599
   6 C :    0.223004   -0.002775
   7 Se:   -0.724396    0.175668
   8 C :    0.237468    0.000510
   9 C :   -0.112037   -0.002465
  10 C :   -0.112037   -0.002465
  11 C :   -0.169367   -0.001449
  12 H :    0.092718    0.002331
  13 C :   -0.169367   -0.001449
  14 H :    0.092718    0.002331
  15 H :    0.016766    0.001777
  16 H :    0.016766    0.001777
  17 C :   -0.103053   -0.001496
  18 C :   -0.103053   -0.001496
  19 C :   -0.158324   -0.000671
  20 H :    0.092094    0.002679
  21 C :   -0.158324   -0.000671
  22 H :    0.092094    0.002679
  23 H :    0.020541    0.001630
  24 H :    0.020541    0.001630
Sum of atomic charges         :   -2.0000000

LOEWDIN ATOMIC CHARGES AND SPIN POPULATIONS
-------------------------------------------
   0 Cu:   -0.616717    0.385669
   1 Se:   -0.202712    0.122643
   2 C :    0.038051    0.011921
   3 Se:   -0.203714    0.126516
   4 C :    0.034850    0.014140
   5 Se:   -0.202712    0.122643
   6 C :    0.038051    0.011921
   7 Se:   -0.203714    0.126516
   8 C :    0.034850    0.014140
   9 C :    0.369364    0.006180
  10 C :    0.369364    0.006180
  11 C :    0.324165   -0.000272
  12 H :   -0.462941    0.008772
  13 C :    0.324165   -0.000272
  14 H :   -0.462941    0.008772
  15 H :   -0.407328    0.000387
  16 H :   -0.407328    0.000387
  17 C :    0.370869    0.006833
  18 C :    0.370869    0.006833
  19 C :    0.319773    0.000455
  20 H :   -0.460432    0.009177
  21 C :    0.319773    0.000455
  22 H :   -0.460432    0.009177
  23 H :   -0.411586    0.000415
  24 H :   -0.411586    0.000415

  Mayer bond orders larger than 0.100000
B(  0-Cu,  1-Se) :   0.5495 B(  0-Cu,  3-Se) :   0.5470 B(  0-Cu,  5-Se) :   0.5495
B(  0-Cu,  7-Se) :   0.5470 B(  1-Se,  2-C ) :   1.0398 B(  2-C ,  6-C ) :   1.1331
B(  2-C , 17-C ) :   1.2576 B(  3-Se,  4-C ) :   1.0356 B(  4-C ,  8-C ) :   1.1302
B(  4-C , 10-C ) :   1.2650 B(  5-Se,  6-C ) :   1.0398 B(  6-C , 18-C ) :   1.2576
B(  7-Se,  8-C ) :   1.0356 B(  8-C ,  9-C ) :   1.2650 B(  9-C , 13-C ) :   1.3752
B(  9-C , 14-H ) :   0.9589 B( 10-C , 11-C ) :   1.3752 B( 10-C , 12-H ) :   0.9589
B( 11-C , 13-C ) :   1.3054 B( 11-C , 15-H ) :   0.9976 B( 13-C , 16-H ) :   0.9976
B( 17-C , 19-C ) :   1.3794 B( 17-C , 20-H ) :   0.9596 B( 18-C , 21-C ) :   1.3794
B( 18-C , 22-H ) :   0.9596 B( 19-C , 21-C ) :   1.3116 B( 19-C , 23-H ) :   0.9961
B( 21-C , 24-H ) :   0.9961

FINAL SINGLE POINT ENERGY    -11627.111289600505

DIPOLE MOMENT
-------------
                                X             Y             Z
Electronic contribution:      0.00000      -0.00000      -0.03852
Nuclear contribution   :      0.00000       0.00000      -0.00000
                        -----------------------------------------
Total Dipole Moment    :      0.00000      -0.00000      -0.03852
                        -----------------------------------------
Magnitude (a.u.)       :      0.03852
Magnitude (Debye)      :      0.09791

Rotational constants in cm-1:     0.017591     0.004097     0.003325
Rotational constants in MHz :   527.376603   122.811918    99.666040

                             ****ORCA TERMINATED NORMALLY****
TOTAL RUN TIME: 0 days 17 hours 16 minutes 14 seconds 517 msec
