                         Program Version 5.0.4 -  RELEASE  -
|  1> ! RIJCOSX nofrozencore ReducedPop printbasis
|  2> ! M06L ano-rcc-dzp autoaux
|  3>
|  4> %maxcore 7500
|  5> %basis
|  6> PCDTrimBas overlap
|  7> PCDTrimAuxJ Coulomb
|  8> PCDTrimAuxJK Coulomb
|  9> PCDTrimAuxC Coulomb
| 10> PCDThresh -1
| 11> end
| 12>
| 13> %basis
| 14> newgto Cu "ano-rcc-tzp" end
| 15> newgto Se "ano-rcc-tzp" end
| 16> end
| 17>
| 18> %pal
| 19> nprocs 8
| 20> end
| 21>
| 22> % sym SymThresh 1e-2 end
| 23> * xyz -2 2
| 24> Cu -6.096363651093345e-06 1.6868748467827763e-06 2.2335629574559594e-06
| 25> Se -1.2806550335184794 0.46497996398982505 -1.9369227032542635
| 26> C -0.2500575678666809 0.21984808887559085 -3.1853461103081644
| 27> Se -1.7403065949131806 0.43984707317127014 1.5446075327015465
| 28> C -1.0672464902166698 0.17475134561236327 3.013285843796912
| 29> Se 1.740217536678045 -0.4398155775488121 -1.5447239657575078
| 30> C 1.0686040376630177 -0.17511381752173424 -3.0140695478519173
| 31> Se 1.2805362694447198 -0.464950094542519 1.937031312235944
| 32> C 0.2513116623830591 -0.22025629941493546 3.1862178190321986
| 33> C 0.6447762884606538 -0.3956647834189656 4.48930067786698
| 34> C -1.8607791167331718 0.3547976982739509 4.163744964553091
| 35> C -1.3962577286494884 0.1583454460194532 5.470859527249852
| 36> H -2.44523740648785 0.5302494210361159 4.079209907879396
| 37> C -0.07443444746123647 -0.23684885021085397 5.627003647272849
| 38> H 2.137316272582366 -0.842346630642392 4.675339257263908
| 39> H -2.0165868739667645 0.3054443939715673 6.2320650378488756
| 40> H 0.3980330187379 -0.4247129693774782 6.696580726585096
| 41> C -0.685775658397922 0.4079404434944289 -4.494531141943781
| 42> C 1.8194134161324873 -0.34241041595669874 -4.16906433487365
| 43> C 0.07259488887027866 0.23779818940406966 -5.635907374149087
| 44> H -1.6674865583385168 0.7015916623514576 -4.6135998703220125
| 45> C 1.3913901506400164 -0.15731737522312125 -5.4621419544936645
| 46> H 2.9207642473966677 -0.672647112995537 -4.018115309051764
| 47> H -0.3612703630677842 0.40987797949609434 -6.608630535446589
| 48> H 2.0813662370138064 -0.3206228188569654 -6.31553049021222
| 49> *
| 50>
| 51> % eprnmr
| 52> gtensor true
| 53> Nuclei = all H {aiso,adip,aorb,fgrad,rho}
| 54> Nuclei = all Cu {aiso,adip,aorb,fgrad,rho}
| 55> end
| 56>
| 57>                          ****END OF INPUT****

CARTESIAN COORDINATES (ANGSTROEM)
---------------------------------
  Cu     0.000002   -0.000006    0.000000
  Se    -1.947561   -1.347205    0.000000
  C     -3.190330   -0.281227    0.000000
  Se     1.534476   -1.803699    0.000000
  C      3.009212   -1.092745    0.000000
  Se    -1.534593    1.803605    0.000000
  C     -3.009987    1.094154    0.000000
  Se     1.947669    1.347082    0.000000
  C      3.191211    0.282540    0.000000
  C      4.498295    0.701035    0.000000
  C      4.155513   -1.912294    0.000000
  C      5.467112   -1.419719    0.000000
  H      4.066950   -2.521947    0.000000
  C      5.632328   -0.041140    0.000000
  H      4.694587    2.257724    0.000000
  H      6.224924   -2.061280    0.000000
  H      6.706197    0.458178    0.000000
  C     -4.503807   -0.743798    0.000000
  C     -4.161116    1.869149    0.000000
  C     -5.641253    0.039165    0.000000
  H     -4.629617   -1.767681    0.000000
  C     -5.458418    1.414703    0.000000
  H     -4.002587    3.017924    0.000000
  H     -6.617908   -0.419295    0.000000
  H     -6.308039    2.128251    0.000000

 Total Charge           Charge          ....   -2
 Multiplicity           Mult            ....    2
 Number of Electrons    NEL             ....  247
 Basis Dimension        Dim             ....  575

ORBITAL ENERGIES
----------------
                 SPIN UP ORBITALS
  NO   OCC          E(Eh)            E(eV)    Irrep
   0   1.0000    -443.563577    -12069.9785    1-A'
   1   1.0000    -443.562093    -12069.9382    2-A'
   2   1.0000    -443.548934    -12069.5801    3-A'
   3   1.0000    -443.547958    -12069.5535    4-A'
   4   1.0000    -318.188249     -8658.3424    5-A'
   5   1.0000     -56.372260     -1533.9672    6-A'
   6   1.0000     -56.371182     -1533.9378    7-A'
   7   1.0000     -56.359159     -1533.6107    8-A'
   8   1.0000     -56.358097     -1533.5818    9-A'
   9   1.0000     -51.289211     -1395.6504   10-A'
  10   1.0000     -51.287857     -1395.6135   11-A'
  11   1.0000     -51.287613     -1395.6069   12-A'
  12   1.0000     -51.287447     -1395.6024   13-A'
  13   1.0000     -51.287446     -1395.6024    1-A"
  14   1.0000     -51.287115     -1395.5934   14-A'
  15   1.0000     -51.286216     -1395.5689   15-A'
  16   1.0000     -51.286106     -1395.5659   16-A'
  17   1.0000     -51.285780     -1395.5570   17-A'
  18   1.0000     -51.285766     -1395.5566    2-A"
  19   1.0000     -51.285668     -1395.5540    3-A"
  20   1.0000     -51.285329     -1395.5447    4-A"
  21   1.0000     -38.028808     -1034.8165   18-A'
  22   1.0000     -33.530870      -912.4214   19-A'
  23   1.0000     -33.530073      -912.3997   20-A'
  24   1.0000     -33.518882      -912.0951    5-A"
  25   1.0000      -9.843764      -267.8624   21-A'
  26   1.0000      -9.828823      -267.4559   22-A'
  27   1.0000      -9.819074      -267.1906   23-A'
  28   1.0000      -9.816236      -267.1134   24-A'
  29   1.0000      -9.814885      -267.0766   25-A'
  30   1.0000      -9.814141      -267.0564   26-A'
  31   1.0000      -9.812999      -267.0253   27-A'
  32   1.0000      -9.812591      -267.0142   28-A'
  33   1.0000      -9.809741      -266.9366   29-A'
  34   1.0000      -9.809280      -266.9241   30-A'
  35   1.0000      -9.802819      -266.7483   31-A'
  36   1.0000      -9.787992      -266.3448   32-A'
  37   1.0000      -7.343364      -199.8231   33-A'
  38   1.0000      -7.342264      -199.7932   34-A'
  39   1.0000      -7.335864      -199.6190   35-A'
  40   1.0000      -7.334871      -199.5920   36-A'
  41   1.0000      -5.406824      -147.1272   37-A'
  42   1.0000      -5.405799      -147.0993   38-A'
  43   1.0000      -5.405182      -147.0825   39-A'
  44   1.0000      -5.405030      -147.0783   40-A'
  45   1.0000      -5.401503      -146.9824   41-A'
  46   1.0000      -5.401217      -146.9746    6-A"
  47   1.0000      -5.400205      -146.9470   42-A'
  48   1.0000      -5.399906      -146.9389   43-A'
  49   1.0000      -5.399790      -146.9358    7-A"
  50   1.0000      -5.399678      -146.9327   44-A'
  51   1.0000      -5.399500      -146.9279    8-A"
  52   1.0000      -5.399273      -146.9217    9-A"
  53   1.0000      -4.023106      -109.4743   45-A'
  54   1.0000      -2.542682       -69.1899   46-A'
  55   1.0000      -2.541728       -69.1639   47-A'
  56   1.0000      -2.518172       -68.5230   10-A"
  57   1.0000      -1.745848       -47.5069   48-A'
  58   1.0000      -1.744784       -47.4780   49-A'
  59   1.0000      -1.744206       -47.4623   50-A'
  60   1.0000      -1.744042       -47.4578   51-A'
  61   1.0000      -1.743104       -47.4323   52-A'
  62   1.0000      -1.742403       -47.4132   11-A"
  63   1.0000      -1.741968       -47.4014   53-A'
  64   1.0000      -1.741483       -47.3882   54-A'
  65   1.0000      -1.741331       -47.3840   55-A'
  66   1.0000      -1.741263       -47.3822   12-A"
  67   1.0000      -1.740772       -47.3688   13-A"
  68   1.0000      -1.740541       -47.3625   14-A"
  69   1.0000      -1.738047       -47.2947   15-A"
  70   1.0000      -1.738042       -47.2945   56-A'
  71   1.0000      -1.736697       -47.2579   57-A'
  72   1.0000      -1.736566       -47.2544   16-A"
  73   1.0000      -1.736445       -47.2511   58-A'
  74   1.0000      -1.736313       -47.2475   17-A"
  75   1.0000      -1.736158       -47.2433   18-A"
  76   1.0000      -1.736150       -47.2430   59-A'
  77   1.0000      -0.610161       -16.6033   60-A'
  78   1.0000      -0.604041       -16.4368   61-A'
  79   1.0000      -0.527952       -14.3663   62-A'
  80   1.0000      -0.522457       -14.2168   63-A'
  81   1.0000      -0.517535       -14.0828   64-A'
  82   1.0000      -0.500151       -13.6098   65-A'
  83   1.0000      -0.426284       -11.5998   66-A'
  84   1.0000      -0.413442       -11.2503   67-A'
  85   1.0000      -0.393132       -10.6977   68-A'
  86   1.0000      -0.381906       -10.3922   69-A'
  87   1.0000      -0.344235        -9.3671   70-A'
  88   1.0000      -0.320014        -8.7080   71-A'
  89   1.0000      -0.287769        -7.8306   72-A'
  90   1.0000      -0.284505        -7.7418   73-A'
  91   1.0000      -0.236758        -6.4425   74-A'
  92   1.0000      -0.226204        -6.1553   75-A'
  93   1.0000      -0.206720        -5.6251   76-A'
  94   1.0000      -0.201290        -5.4774   77-A'
  95   1.0000      -0.178220        -4.8496   78-A'
  96   1.0000      -0.167146        -4.5483   79-A'
  97   1.0000      -0.141818        -3.8591   80-A'
  98   1.0000      -0.137851        -3.7511   81-A'
  99   1.0000      -0.136864        -3.7243   82-A'
 100   1.0000      -0.134177        -3.6511   19-A"
 101   1.0000      -0.131810        -3.5867   20-A"
 102   1.0000      -0.106258        -2.8914   83-A'
 103   1.0000      -0.075851        -2.0640   84-A'
 104   1.0000      -0.072303        -1.9675   85-A'
 105   1.0000      -0.067902        -1.8477   86-A'
 106   1.0000      -0.052586        -1.4309   87-A'
 107   1.0000      -0.051706        -1.4070   21-A"
 108   1.0000      -0.049457        -1.3458   22-A"
 109   1.0000      -0.035158        -0.9567   23-A"
 110   1.0000      -0.030985        -0.8432   88-A'
 111   1.0000      -0.030282        -0.8240   89-A'
 112   1.0000      -0.028908        -0.7866   24-A"
 113   1.0000      -0.003385        -0.0921   25-A"
 114   1.0000      -0.002404        -0.0654   26-A"
 115   1.0000      -0.000727        -0.0198   90-A'
 116   1.0000       0.017804         0.4845   91-A'
 117   1.0000       0.019485         0.5302   92-A'
 118   1.0000       0.040040         1.0895   93-A'
 119   1.0000       0.052816         1.4372   27-A"
 120   1.0000       0.054635         1.4867   28-A"
 121   1.0000       0.068613         1.8671   29-A"
 122   1.0000       0.097585         2.6554   30-A"
 123   1.0000       0.115108         3.1323   94-A'
 124   0.0000       0.174849         4.7579   95-A'
 125   0.0000       0.181323         4.9340   96-A'
 126   0.0000       0.191949         5.2232   97-A'
 127   0.0000       0.195657         5.3241   98-A'
 128   0.0000       0.200312         5.4508   31-A"

                 SPIN DOWN ORBITALS
  NO   OCC          E(Eh)            E(eV)    Irrep
   0   1.0000    -443.563124    -12069.9662    1-A'
   1   1.0000    -443.561640    -12069.9258    2-A'
   2   1.0000    -443.548478    -12069.5677    3-A'
   3   1.0000    -443.547505    -12069.5412    4-A'
   4   1.0000    -318.188127     -8658.3391    5-A'
   5   1.0000     -56.372076     -1533.9622    6-A'
   6   1.0000     -56.370998     -1533.9328    7-A'
   7   1.0000     -56.358977     -1533.6057    8-A'
   8   1.0000     -56.357916     -1533.5769    9-A'
   9   1.0000     -51.288888     -1395.6416   10-A'
  10   1.0000     -51.287294     -1395.5982   11-A'
  11   1.0000     -51.287198     -1395.5956    1-A"
  12   1.0000     -51.287133     -1395.5938   12-A'
  13   1.0000     -51.287124     -1395.5936   13-A'
  14   1.0000     -51.286786     -1395.5844   14-A'
  15   1.0000     -51.285512     -1395.5497    2-A"
  16   1.0000     -51.285457     -1395.5482   15-A'
  17   1.0000     -51.285420     -1395.5472    3-A"
  18   1.0000     -51.285380     -1395.5461   16-A'
  19   1.0000     -51.285076     -1395.5379    4-A"
  20   1.0000     -51.285039     -1395.5368   17-A'
  21   1.0000     -38.014921     -1034.4386   18-A'
  22   1.0000     -33.517674      -912.0623   19-A'
  23   1.0000     -33.516878      -912.0406   20-A'
  24   1.0000     -33.515005      -911.9897    5-A"
  25   1.0000      -9.843658      -267.8595   21-A'
  26   1.0000      -9.828774      -267.4545   22-A'
  27   1.0000      -9.819021      -267.1892   23-A'
  28   1.0000      -9.816187      -267.1120   24-A'
  29   1.0000      -9.814760      -267.0732   25-A'
  30   1.0000      -9.814157      -267.0568   26-A'
  31   1.0000      -9.813017      -267.0258   27-A'
  32   1.0000      -9.812555      -267.0132   28-A'
  33   1.0000      -9.809761      -266.9372   29-A'
  34   1.0000      -9.809300      -266.9246   30-A'
  35   1.0000      -9.802704      -266.7451   31-A'
  36   1.0000      -9.787884      -266.3419   32-A'
  37   1.0000      -7.342965      -199.8122   33-A'
  38   1.0000      -7.341865      -199.7823   34-A'
  39   1.0000      -7.335455      -199.6079   35-A'
  40   1.0000      -7.334464      -199.5809   36-A'
  41   1.0000      -5.406462      -147.1173   37-A'
  42   1.0000      -5.405438      -147.0895   38-A'
  43   1.0000      -5.404821      -147.0727   39-A'
  44   1.0000      -5.404661      -147.0683   40-A'
  45   1.0000      -5.400905      -146.9661    6-A"
  46   1.0000      -5.400694      -146.9604   41-A'
  47   1.0000      -5.399476      -146.9272    7-A"
  48   1.0000      -5.399350      -146.9238   42-A'
  49   1.0000      -5.399191      -146.9195    8-A"
  50   1.0000      -5.399092      -146.9168   43-A'
  51   1.0000      -5.398958      -146.9131    9-A"
  52   1.0000      -5.398842      -146.9100   44-A'
  53   1.0000      -3.994894      -108.7066   45-A'
  54   1.0000      -2.507851       -68.2421   10-A"
  55   1.0000      -2.507462       -68.2315   46-A'
  56   1.0000      -2.506428       -68.2034   47-A'
  57   1.0000      -1.745400       -47.4948   48-A'
  58   1.0000      -1.744340       -47.4659   49-A'
  59   1.0000      -1.743762       -47.4502   50-A'
  60   1.0000      -1.743586       -47.4454   51-A'
  61   1.0000      -1.742231       -47.4085   52-A'
  62   1.0000      -1.742096       -47.4048   11-A"
  63   1.0000      -1.741043       -47.3762   53-A'
  64   1.0000      -1.740963       -47.3740   12-A"
  65   1.0000      -1.740593       -47.3640   54-A'
  66   1.0000      -1.740467       -47.3605   13-A"
  67   1.0000      -1.740424       -47.3593   55-A'
  68   1.0000      -1.740232       -47.3541   14-A"
  69   1.0000      -1.737286       -47.2740   15-A"
  70   1.0000      -1.737251       -47.2730   56-A'
  71   1.0000      -1.735874       -47.2355   57-A'
  72   1.0000      -1.735774       -47.2328   16-A"
  73   1.0000      -1.735658       -47.2297   58-A'
  74   1.0000      -1.735553       -47.2268   17-A"
  75   1.0000      -1.735376       -47.2220   18-A"
  76   1.0000      -1.735339       -47.2210   59-A'
  77   1.0000      -0.609386       -16.5822   60-A'
  78   1.0000      -0.603240       -16.4150   61-A'
  79   1.0000      -0.526775       -14.3343   62-A'
  80   1.0000      -0.521321       -14.1859   63-A'
  81   1.0000      -0.516366       -14.0510   64-A'
  82   1.0000      -0.498455       -13.5636   65-A'
  83   1.0000      -0.423202       -11.5159   66-A'
  84   1.0000      -0.410746       -11.1770   67-A'
  85   1.0000      -0.391291       -10.6476   68-A'
  86   1.0000      -0.379527       -10.3275   69-A'
  87   1.0000      -0.342073        -9.3083   70-A'
  88   1.0000      -0.318188        -8.6583   71-A'
  89   1.0000      -0.285311        -7.7637   72-A'
  90   1.0000      -0.281794        -7.6680   73-A'
  91   1.0000      -0.235544        -6.4095   74-A'
  92   1.0000      -0.225072        -6.1245   75-A'
  93   1.0000      -0.205184        -5.5833   76-A'
  94   1.0000      -0.200036        -5.4433   77-A'
  95   1.0000      -0.176936        -4.8147   78-A'
  96   1.0000      -0.165328        -4.4988   79-A'
  97   1.0000      -0.140742        -3.8298   80-A'
  98   1.0000      -0.136347        -3.7102   81-A'
  99   1.0000      -0.134731        -3.6662   82-A'
 100   1.0000      -0.133807        -3.6411   19-A"
 101   1.0000      -0.131425        -3.5763   20-A"
 102   1.0000      -0.104085        -2.8323   83-A'
 103   1.0000      -0.074261        -2.0207   84-A'
 104   1.0000      -0.070501        -1.9184   85-A'
 105   1.0000      -0.057551        -1.5660   86-A'
 106   1.0000      -0.050807        -1.3825   21-A"
 107   1.0000      -0.049539        -1.3480   87-A'
 108   1.0000      -0.048652        -1.3239   22-A"
 109   1.0000      -0.032862        -0.8942   23-A"
 110   1.0000      -0.027937        -0.7602   24-A"
 111   1.0000      -0.024505        -0.6668   88-A'
 112   1.0000      -0.003009        -0.0819   89-A'
 113   1.0000       0.006257         0.1703   25-A"
 114   1.0000       0.008804         0.2396   26-A"
 115   1.0000       0.009573         0.2605   90-A'
 116   1.0000       0.027659         0.7526   91-A'
 117   1.0000       0.030762         0.8371   92-A'
 118   1.0000       0.051300         1.3959   93-A'
 119   1.0000       0.054864         1.4929   27-A"
 120   1.0000       0.058094         1.5808   28-A"
 121   1.0000       0.070358         1.9145   29-A"
 122   1.0000       0.100849         2.7442   30-A"
 123   0.0000       0.144909         3.9432   94-A'
 124   0.0000       0.176223         4.7953   95-A'
 125   0.0000       0.183297         4.9878   96-A'
 126   0.0000       0.193223         5.2579   97-A'
 127   0.0000       0.199076         5.4171   98-A'

MULLIKEN ATOMIC CHARGES AND SPIN POPULATIONS
--------------------------------------------
   0 Cu:    0.642006    0.309705
   1 Se:   -0.739514    0.171957
   2 C :    0.216636   -0.003071
   3 Se:   -0.756934    0.171570
   4 C :    0.198440   -0.002809
   5 Se:   -0.721667    0.175180
   6 C :    0.228174   -0.003405
   7 Se:   -0.684924    0.174825
   8 C :    0.222424   -0.002893
   9 C :   -0.006265   -0.000169
  10 C :   -1.314479   -0.005016
  11 C :   -0.262227   -0.000588
  12 H :    1.445754    0.005522
  13 C :   -0.105351   -0.001198
  14 H :   -0.145809    0.003303
  15 H :    0.139303    0.000730
  16 H :   -0.055938    0.001989
  17 C :   -0.138361   -0.001980
  18 C :   -0.059199   -0.000911
  19 C :   -0.163442   -0.000682
  20 H :    0.152173    0.003049
  21 C :   -0.134870   -0.000732
  22 H :    0.017281    0.002358
  23 H :    0.027492    0.001524
  24 H :   -0.000701    0.001742
Sum of atomic charges         :   -2.0000000

LOEWDIN ATOMIC CHARGES AND SPIN POPULATIONS
-------------------------------------------
   0 Cu:   -0.614939    0.390127
   1 Se:   -0.197298    0.122483
   2 C :    0.045168    0.011635
   3 Se:   -0.151266    0.123766
   4 C :    0.129973    0.012191
   5 Se:   -0.208570    0.124327
   6 C :    0.027682    0.011909
   7 Se:   -0.247473    0.123951
   8 C :   -0.003268    0.012466
   9 C :    0.238515    0.006062
  10 C :    0.763680    0.006927
  11 C :    0.462318    0.000148
  12 H :   -1.119436    0.008227
  13 C :    0.243289    0.000451
  14 H :   -0.185440    0.010091
  15 H :   -0.489226    0.000378
  16 H :   -0.338667    0.000510
  17 C :    0.397282    0.006796
  18 C :    0.331883    0.006973
  19 C :    0.326914    0.000402
  20 H :   -0.509894    0.009288
  21 C :    0.296100    0.000500
  22 H :   -0.388627    0.009587
  23 H :   -0.416446    0.000391
  24 H :   -0.392253    0.000416

  Mayer bond orders larger than 0.100000
B(  0-Cu,  1-Se) :   0.5490 B(  0-Cu,  3-Se) :   0.5352 B(  0-Cu,  5-Se) :   0.5540
B(  0-Cu,  7-Se) :   0.5551 B(  1-Se,  2-C ) :   1.0422 B(  2-C ,  6-C ) :   1.1331
B(  2-C , 17-C ) :   1.2630 B(  3-Se,  4-C ) :   1.0573 B(  3-Se, 10-C ) :   0.1050
B(  4-C ,  8-C ) :   1.1235 B(  4-C , 10-C ) :   1.3416 B(  5-Se,  6-C ) :   1.0382
B(  6-C , 18-C ) :   1.2535 B(  7-Se,  8-C ) :   1.0469 B(  8-C ,  9-C ) :   1.2747
B(  9-C , 13-C ) :   1.3881 B(  9-C , 14-H ) :   0.9404 B( 10-C , 11-C ) :   1.5204
B( 10-C , 12-H ) :  -1.4576 B( 11-C , 13-C ) :   1.3145 B( 11-C , 15-H ) :   0.9263
B( 13-C , 16-H ) :   1.0196 B( 17-C , 19-C ) :   1.3853 B( 17-C , 20-H ) :   0.9229
B( 18-C , 21-C ) :   1.3736 B( 18-C , 22-H ) :   0.9900 B( 19-C , 21-C ) :   1.3110
B( 19-C , 23-H ) :   0.9926 B( 21-C , 24-H ) :   1.0037

FINAL SINGLE POINT ENERGY    -11626.656333431802

DIPOLE MOMENT
-------------
                                X             Y             Z
Electronic contribution:     -0.29907      -1.52804      -0.00000
Nuclear contribution   :      0.12627       1.02663       0.00000
                        -----------------------------------------
Total Dipole Moment    :     -0.17280      -0.50141      -0.00000
                        -----------------------------------------
Magnitude (a.u.)       :      0.53035
Magnitude (Debye)      :      1.34803

Rotational constants in cm-1:     0.017605     0.004098     0.003324
Rotational constants in MHz :   527.788221   122.850856    99.654689

                             ****ORCA TERMINATED NORMALLY****
TOTAL RUN TIME: 0 days 15 hours 36 minutes 10 seconds 695 msec
