                         Program Version 5.0.4 -  RELEASE  -
|  1> ! RIJCOSX nofrozencore ReducedPop printbasis
|  2> ! M06L ano-rcc-dzp autoaux
|  3>
|  4> %maxcore 7500
|  5> %basis
|  6> PCDTrimBas overlap
|  7> PCDTrimAuxJ Coulomb
|  8> PCDTrimAuxJK Coulomb
|  9> PCDTrimAuxC Coulomb
| 10> PCDThresh -1
| 11> end
| 12>
| 13> %basis
| 14> newgto Cu "ano-rcc-tzp" end
| 15> newgto Se "ano-rcc-tzp" end
| 16> end
| 17>
| 18> %pal
| 19> nprocs 8
| 20> end
| 21>
| 22> % sym SymThresh 1e-2 end
| 23> * xyz -2 2
| 24> Cu -0.0001587652243669618 3.120306001452404e-05 -0.000221228326797086
| 25> Se 1.380890979077462 1.5866463481525055 1.0862559401088712
| 26> C 2.0999972951228556 0.806316363636356 2.3764501488873977
| 27> Se -0.7752628142540474 1.4788029679119254 -1.678457180281277
| 28> C -1.7987230629586213 0.5293704609202258 -2.5857019051543557
| 29> Se 0.7756583151866815 -1.478012090132344 1.6786165677025169
| 30> C 1.8064578846788824 -0.6248252312683054 2.6388414851371818
| 31> Se -1.3822191418181227 -1.5853078194632038 -1.088592561105575
| 32> C -2.026154561867602 -0.7189514317457646 -2.319499150422527
| 33> C -2.9632321772060015 -1.4281209639427364 -3.222383186644359
| 34> C -2.457773874921161 1.151143479847776 -3.726031395490915
| 35> C -3.3166562339995305 0.43939758350882874 -4.525724481977626
| 36> H -2.1670333946469156 2.196515011052881 -3.8181042292574237
| 37> C -3.559694689895339 -0.7810875741773375 -4.29243918752563
| 38> H -3.095492074789832 -2.4667343396382253 -2.926572777695424
| 39> H -3.692474451814839 1.090605488468361 -5.309766618435446
| 40> H -4.202640648084724 -1.4860709593279842 -4.813428372034741
| 41> C 2.896071290862262 1.353211098749649 3.1685337994400755
| 42> C 2.4216134817037567 -1.0852579927052626 3.6491370054526526
| 43> C 3.5829576440059063 0.9771928471028319 4.234355163139686
| 44> H 3.2399483702197243 2.396244057015725 3.146848169329333
| 45> C 3.271007554872633 -0.6325834477558239 4.553283071584339
| 46> H 2.323374142919142 -2.1167880535643757 3.9861447492051627
| 47> H 4.321478491752187 1.2994687684018795 5.052639767296433
| 48> H 3.8817450911038716 -0.9129367721903149 5.476603572085507
| 49> *
| 50>
| 51> % eprnmr
| 52> gtensor true
| 53> Nuclei = all H {aiso,adip,aorb,fgrad,rho}
| 54> Nuclei = all Cu {aiso,adip,aorb,fgrad,rho}
| 55> end
| 56>
| 57>                          ****END OF INPUT****

CARTESIAN COORDINATES (ANGSTROEM)
---------------------------------
  Cu     0.000005   -0.000274    0.000000
  Se     1.807009    1.529372    0.000000
  C      1.147827    3.064334    0.000000
  Se     1.345657   -1.947900    0.000000
  C      0.232000   -3.185541    0.000000
  Se    -1.344804    1.948184    0.000000
  C     -0.325805    3.242072    0.000000
  Se    -1.805893   -1.532160    0.000000
  C     -1.048688   -2.983710    0.000000
  C     -1.908858   -4.190500    0.000000
  C      0.743114   -4.549382    0.000000
  C     -0.106787   -5.627083    0.000000
  H      1.832051   -4.554363    0.000000
  C     -1.362310   -5.463577    0.000000
  H     -2.965049   -3.929397    0.000000
  H      0.480138   -6.541168    0.000000
  H     -2.170029   -6.191176    0.000000
  C      1.823222    4.115079    0.000000
  C     -0.683426    4.459947    0.000000
  C      1.561454    5.411480    0.000000
  H      2.918553    4.198089    0.000000
  C     -0.093123    5.641220    0.000000
  H     -1.726978    4.773443    0.000000
  H      2.003677    6.471340    0.000000
  H     -0.272107    6.769087    0.000000

 Total Charge           Charge          ....   -2
 Multiplicity           Mult            ....    2
 Number of Electrons    NEL             ....  247
 Basis Dimension        Dim             ....  575

ORBITAL ENERGIES
----------------
                 SPIN UP ORBITALS
  NO   OCC          E(Eh)            E(eV)    Irrep
   0   1.0000    -443.560901    -12069.9057    1-A'
   1   1.0000    -443.559705    -12069.8732    2-A'
   2   1.0000    -443.547746    -12069.5478    3-A'
   3   1.0000    -443.543725    -12069.4384    4-A'
   4   1.0000    -318.188113     -8658.3387    5-A'
   5   1.0000     -56.370458     -1533.9181    6-A'
   6   1.0000     -56.369324     -1533.8873    7-A'
   7   1.0000     -56.358971     -1533.6056    8-A'
   8   1.0000     -56.355032     -1533.4984    9-A'
   9   1.0000     -51.290127     -1395.6753   10-A'
  10   1.0000     -51.288663     -1395.6355   11-A'
  11   1.0000     -51.288385     -1395.6279    1-A"
  12   1.0000     -51.287346     -1395.5996   12-A'
  13   1.0000     -51.287010     -1395.5905   13-A'
  14   1.0000     -51.286034     -1395.5639   14-A'
  15   1.0000     -51.285511     -1395.5497   15-A'
  16   1.0000     -51.285491     -1395.5492    2-A"
  17   1.0000     -51.285144     -1395.5397    3-A"
  18   1.0000     -51.283716     -1395.5009   16-A'
  19   1.0000     -51.282370     -1395.4642   17-A'
  20   1.0000     -51.281744     -1395.4472    4-A"
  21   1.0000     -38.028597     -1034.8107   18-A'
  22   1.0000     -33.530701      -912.4168   19-A'
  23   1.0000     -33.529822      -912.3928   20-A'
  24   1.0000     -33.518710      -912.0905    5-A"
  25   1.0000      -9.824002      -267.3247   21-A'
  26   1.0000      -9.823474      -267.3103   22-A'
  27   1.0000      -9.816890      -267.1312   23-A'
  28   1.0000      -9.815306      -267.0881   24-A'
  29   1.0000      -9.814975      -267.0791   25-A'
  30   1.0000      -9.813272      -267.0327   26-A'
  31   1.0000      -9.807389      -266.8726   27-A'
  32   1.0000      -9.807158      -266.8663   28-A'
  33   1.0000      -9.805440      -266.8196   29-A'
  34   1.0000      -9.805351      -266.8172   30-A'
  35   1.0000      -9.797654      -266.6077   31-A'
  36   1.0000      -9.797412      -266.6011   32-A'
  37   1.0000      -7.342899      -199.8104   33-A'
  38   1.0000      -7.341035      -199.7597   34-A'
  39   1.0000      -7.335911      -199.6203   35-A'
  40   1.0000      -7.332398      -199.5247   36-A'
  41   1.0000      -5.407763      -147.1527   37-A'
  42   1.0000      -5.405333      -147.0866   38-A'
  43   1.0000      -5.405193      -147.0828   39-A'
  44   1.0000      -5.402346      -147.0053    6-A"
  45   1.0000      -5.402308      -147.0043   40-A'
  46   1.0000      -5.402175      -147.0007   41-A'
  47   1.0000      -5.399913      -146.9391   42-A'
  48   1.0000      -5.399646      -146.9318   43-A'
  49   1.0000      -5.399521      -146.9284    7-A"
  50   1.0000      -5.399201      -146.9197    8-A"
  51   1.0000      -5.397131      -146.8634   44-A'
  52   1.0000      -5.396092      -146.8351    9-A"
  53   1.0000      -4.022868      -109.4678   45-A'
  54   1.0000      -2.542504       -69.1850   46-A'
  55   1.0000      -2.541393       -69.1548   47-A'
  56   1.0000      -2.517980       -68.5177   10-A"
  57   1.0000      -1.746632       -47.5283   48-A'
  58   1.0000      -1.744168       -47.4612   49-A'
  59   1.0000      -1.743847       -47.4525   50-A'
  60   1.0000      -1.743763       -47.4502   51-A'
  61   1.0000      -1.743484       -47.4426   11-A"
  62   1.0000      -1.741591       -47.3911   52-A'
  63   1.0000      -1.741334       -47.3841   53-A'
  64   1.0000      -1.740953       -47.3737   54-A'
  65   1.0000      -1.740798       -47.3695   12-A"
  66   1.0000      -1.740549       -47.3628   13-A"
  67   1.0000      -1.738957       -47.3194   55-A'
  68   1.0000      -1.738840       -47.3162   14-A"
  69   1.0000      -1.738736       -47.3134   56-A'
  70   1.0000      -1.737573       -47.2818   15-A"
  71   1.0000      -1.736221       -47.2450   16-A"
  72   1.0000      -1.736219       -47.2449   57-A'
  73   1.0000      -1.736217       -47.2449   17-A"
  74   1.0000      -1.736207       -47.2446   58-A'
  75   1.0000      -1.733296       -47.1654   59-A'
  76   1.0000      -1.733177       -47.1621   18-A"
  77   1.0000      -0.610950       -16.6248   60-A'
  78   1.0000      -0.610542       -16.6137   61-A'
  79   1.0000      -0.542499       -14.7622   62-A'
  80   1.0000      -0.523516       -14.2456   63-A'
  81   1.0000      -0.497629       -13.5412   64-A'
  82   1.0000      -0.490053       -13.3350   65-A'
  83   1.0000      -0.422105       -11.4861   66-A'
  84   1.0000      -0.413521       -11.2525   67-A'
  85   1.0000      -0.385263       -10.4835   68-A'
  86   1.0000      -0.375969       -10.2306   69-A'
  87   1.0000      -0.335546        -9.1307   70-A'
  88   1.0000      -0.306955        -8.3527   71-A'
  89   1.0000      -0.303321        -8.2538   72-A'
  90   1.0000      -0.281284        -7.6541   73-A'
  91   1.0000      -0.242283        -6.5929   74-A'
  92   1.0000      -0.230008        -6.2588   75-A'
  93   1.0000      -0.209037        -5.6882   76-A'
  94   1.0000      -0.191571        -5.2129   77-A'
  95   1.0000      -0.184449        -5.0191   78-A'
  96   1.0000      -0.163788        -4.4569   79-A'
  97   1.0000      -0.137194        -3.7332   19-A"
  98   1.0000      -0.137049        -3.7293   80-A'
  99   1.0000      -0.136578        -3.7165   20-A"
 100   1.0000      -0.133568        -3.6346   81-A'
 101   1.0000      -0.131362        -3.5746   82-A'
 102   1.0000      -0.113529        -3.0893   83-A'
 103   1.0000      -0.088885        -2.4187   84-A'
 104   1.0000      -0.081067        -2.2059   85-A'
 105   1.0000      -0.067863        -1.8467   21-A"
 106   1.0000      -0.052492        -1.4284   22-A"
 107   1.0000      -0.049909        -1.3581   86-A'
 108   1.0000      -0.033180        -0.9029   87-A'
 109   1.0000      -0.027877        -0.7586   23-A"
 110   1.0000      -0.027738        -0.7548   88-A'
 111   1.0000      -0.022515        -0.6127   24-A"
 112   1.0000      -0.003444        -0.0937   89-A'
 113   1.0000      -0.003019        -0.0822   25-A"
 114   1.0000       0.000133         0.0036   26-A"
 115   1.0000       0.008361         0.2275   90-A'
 116   1.0000       0.017477         0.4756   91-A'
 117   1.0000       0.024909         0.6778   92-A'
 118   1.0000       0.040798         1.1102   93-A'
 119   1.0000       0.048162         1.3106   27-A"
 120   1.0000       0.055412         1.5078   28-A"
 121   1.0000       0.069663         1.8956   29-A"
 122   1.0000       0.098446         2.6788   30-A"
 123   1.0000       0.115388         3.1399   94-A'
 124   0.0000       0.179368         4.8808   95-A'
 125   0.0000       0.181387         4.9358   96-A'
 126   0.0000       0.182698         4.9715   31-A"
 127   0.0000       0.184682         5.0254   32-A"
 128   0.0000       0.193237         5.2582   97-A'

                 SPIN DOWN ORBITALS
  NO   OCC          E(Eh)            E(eV)    Irrep
   0   1.0000    -443.560452    -12069.8935    1-A'
   1   1.0000    -443.559253    -12069.8609    2-A'
   2   1.0000    -443.547294    -12069.5355    3-A'
   3   1.0000    -443.543270    -12069.4260    4-A'
   4   1.0000    -318.187992     -8658.3354    5-A'
   5   1.0000     -56.370275     -1533.9132    6-A'
   6   1.0000     -56.369141     -1533.8823    7-A'
   7   1.0000     -56.358789     -1533.6006    8-A'
   8   1.0000     -56.354850     -1533.4934    9-A'
   9   1.0000     -51.289824     -1395.6671   10-A'
  10   1.0000     -51.288136     -1395.6211    1-A"
  11   1.0000     -51.287930     -1395.6155   11-A'
  12   1.0000     -51.287016     -1395.5907   12-A'
  13   1.0000     -51.286700     -1395.5821   13-A'
  14   1.0000     -51.285305     -1395.5441   14-A'
  15   1.0000     -51.285242     -1395.5424    2-A"
  16   1.0000     -51.284891     -1395.5328    3-A"
  17   1.0000     -51.284763     -1395.5294   15-A'
  18   1.0000     -51.283382     -1395.4918   16-A'
  19   1.0000     -51.281630     -1395.4441   17-A'
  20   1.0000     -51.281492     -1395.4403    4-A"
  21   1.0000     -38.014784     -1034.4349   18-A'
  22   1.0000     -33.517572      -912.0595   19-A'
  23   1.0000     -33.516699      -912.0357   20-A'
  24   1.0000     -33.514853      -911.9855    5-A"
  25   1.0000      -9.823953      -267.3233   21-A'
  26   1.0000      -9.823431      -267.3092   22-A'
  27   1.0000      -9.816737      -267.1270   23-A'
  28   1.0000      -9.815245      -267.0864   24-A'
  29   1.0000      -9.814837      -267.0753   25-A'
  30   1.0000      -9.813220      -267.0313   26-A'
  31   1.0000      -9.807431      -266.8738   27-A'
  32   1.0000      -9.807161      -266.8664   28-A'
  33   1.0000      -9.805475      -266.8205   29-A'
  34   1.0000      -9.805341      -266.8169   30-A'
  35   1.0000      -9.797581      -266.6057   31-A'
  36   1.0000      -9.797322      -266.5987   32-A'
  37   1.0000      -7.342501      -199.7996   33-A'
  38   1.0000      -7.340636      -199.7489   34-A'
  39   1.0000      -7.335503      -199.6092   35-A'
  40   1.0000      -7.331990      -199.5136   36-A'
  41   1.0000      -5.407420      -147.1434   37-A'
  42   1.0000      -5.404983      -147.0771   38-A'
  43   1.0000      -5.404821      -147.0727   39-A'
  44   1.0000      -5.401989      -146.9956    6-A"
  45   1.0000      -5.401971      -146.9951   40-A'
  46   1.0000      -5.401351      -146.9782   41-A'
  47   1.0000      -5.399200      -146.9197    7-A"
  48   1.0000      -5.399098      -146.9169   42-A'
  49   1.0000      -5.398897      -146.9115    8-A"
  50   1.0000      -5.398804      -146.9089   43-A'
  51   1.0000      -5.396304      -146.8409   44-A'
  52   1.0000      -5.395785      -146.8268    9-A"
  53   1.0000      -3.994834      -108.7050   45-A'
  54   1.0000      -2.507710       -68.2383   10-A"
  55   1.0000      -2.507499       -68.2325   46-A'
  56   1.0000      -2.506317       -68.2004   47-A'
  57   1.0000      -1.746210       -47.5168   48-A'
  58   1.0000      -1.743709       -47.4487   49-A'
  59   1.0000      -1.743404       -47.4404   50-A'
  60   1.0000      -1.743181       -47.4344   11-A"
  61   1.0000      -1.742884       -47.4263   51-A'
  62   1.0000      -1.740699       -47.3668   52-A'
  63   1.0000      -1.740494       -47.3613   12-A"
  64   1.0000      -1.740480       -47.3609   53-A'
  65   1.0000      -1.740445       -47.3599   54-A'
  66   1.0000      -1.740247       -47.3545   13-A"
  67   1.0000      -1.738141       -47.2972   55-A'
  68   1.0000      -1.738059       -47.2950   14-A"
  69   1.0000      -1.737828       -47.2887   56-A'
  70   1.0000      -1.737266       -47.2734   15-A"
  71   1.0000      -1.735466       -47.2244   16-A"
  72   1.0000      -1.735431       -47.2235   17-A"
  73   1.0000      -1.735426       -47.2233   57-A'
  74   1.0000      -1.735387       -47.2223   58-A'
  75   1.0000      -1.732525       -47.1444   59-A'
  76   1.0000      -1.732418       -47.1415   18-A"
  77   1.0000      -0.610356       -16.6086   60-A'
  78   1.0000      -0.609750       -16.5921   61-A'
  79   1.0000      -0.541493       -14.7348   62-A'
  80   1.0000      -0.522272       -14.2117   63-A'
  81   1.0000      -0.496165       -13.5013   64-A'
  82   1.0000      -0.488465       -13.2918   65-A'
  83   1.0000      -0.419357       -11.4113   66-A'
  84   1.0000      -0.410664       -11.1747   67-A'
  85   1.0000      -0.382966       -10.4210   68-A'
  86   1.0000      -0.373159       -10.1542   69-A'
  87   1.0000      -0.333285        -9.0691   70-A'
  88   1.0000      -0.305884        -8.3235   71-A'
  89   1.0000      -0.300303        -8.1717   72-A'
  90   1.0000      -0.278739        -7.5849   73-A'
  91   1.0000      -0.241497        -6.5715   74-A'
  92   1.0000      -0.228933        -6.2296   75-A'
  93   1.0000      -0.207595        -5.6489   76-A'
  94   1.0000      -0.190054        -5.1716   77-A'
  95   1.0000      -0.183584        -4.9956   78-A'
  96   1.0000      -0.161916        -4.4060   79-A'
  97   1.0000      -0.136838        -3.7235   19-A"
  98   1.0000      -0.136316        -3.7093   20-A"
  99   1.0000      -0.135897        -3.6979   80-A'
 100   1.0000      -0.131930        -3.5900   81-A'
 101   1.0000      -0.129372        -3.5204   82-A'
 102   1.0000      -0.111676        -3.0389   83-A'
 103   1.0000      -0.083682        -2.2771   84-A'
 104   1.0000      -0.078152        -2.1266   85-A'
 105   1.0000      -0.067251        -1.8300   21-A"
 106   1.0000      -0.051663        -1.4058   22-A"
 107   1.0000      -0.039787        -1.0827   86-A'
 108   1.0000      -0.026575        -0.7231   87-A'
 109   1.0000      -0.025706        -0.6995   23-A"
 110   1.0000      -0.019663        -0.5350   24-A"
 111   1.0000      -0.002630        -0.0716   88-A'
 112   1.0000       0.003643         0.0991   89-A'
 113   1.0000       0.005724         0.1557   25-A"
 114   1.0000       0.010440         0.2841   26-A"
 115   1.0000       0.014806         0.4029   90-A'
 116   1.0000       0.028601         0.7783   91-A'
 117   1.0000       0.032523         0.8850   92-A'
 118   1.0000       0.051079         1.3899   27-A"
 119   1.0000       0.052087         1.4174   93-A'
 120   1.0000       0.058415         1.5895   28-A"
 121   1.0000       0.071380         1.9423   29-A"
 122   1.0000       0.101635         2.7656   30-A"
 123   0.0000       0.145004         3.9458   94-A'
 124   0.0000       0.181580         4.9411   95-A'
 125   0.0000       0.182000         4.9525   96-A'
 126   0.0000       0.182886         4.9766   31-A"
 127   0.0000       0.185253         5.0410   32-A"

MULLIKEN ATOMIC CHARGES AND SPIN POPULATIONS
--------------------------------------------
   0 Cu:    0.634088    0.308018
   1 Se:   -0.793781    0.171639
   2 C :    0.182497   -0.000902
   3 Se:   -0.773427    0.179625
   4 C :    0.274442   -0.004618
   5 Se:   -0.770005    0.166676
   6 C :    0.175137   -0.001844
   7 Se:   -0.736540    0.176844
   8 C :    0.263832   -0.005166
   9 C :   -0.149086   -0.000240
  10 C :   -0.145279   -0.000264
  11 C :   -0.132428   -0.000705
  12 H :    0.089176    0.002619
  13 C :   -0.134517   -0.000482
  14 H :    0.090566    0.002791
  15 H :    0.019701    0.002063
  16 H :    0.020172    0.002195
  17 C :    0.040124   -0.002517
  18 C :    0.026810   -0.001656
  19 C :   -0.147551   -0.001438
  20 H :    0.065422    0.004098
  21 C :   -0.159732   -0.001483
  22 H :    0.077042    0.003177
  23 H :   -0.007194    0.000715
  24 H :   -0.009470    0.000852
Sum of atomic charges         :   -2.0000000

LOEWDIN ATOMIC CHARGES AND SPIN POPULATIONS
-------------------------------------------
   0 Cu:   -0.626094    0.388300
   1 Se:   -0.186240    0.125984
   2 C :    0.034239    0.012457
   3 Se:   -0.205071    0.125438
   4 C :    0.043881    0.010053
   5 Se:   -0.177820    0.122766
   6 C :    0.029730    0.012809
   7 Se:   -0.199597    0.123573
   8 C :    0.032542    0.010125
   9 C :    0.418185    0.007727
  10 C :    0.406930    0.007469
  11 C :    0.276495    0.000620
  12 H :   -0.458598    0.011726
  13 C :    0.281266    0.000765
  14 H :   -0.460519    0.011024
  15 H :   -0.405861    0.000584
  16 H :   -0.406465    0.000694
  17 C :    0.267489    0.006353
  18 C :    0.277709    0.006196
  19 C :    0.368244   -0.000116
  20 H :   -0.454975    0.007792
  21 C :    0.369789   -0.000227
  22 H :   -0.465765    0.007763
  23 H :   -0.379622    0.000029
  24 H :   -0.379873    0.000096

  Mayer bond orders larger than 0.100000
B(  0-Cu,  1-Se) :   0.5575 B(  0-Cu,  3-Se) :   0.5532 B(  0-Cu,  5-Se) :   0.5494
B(  0-Cu,  7-Se) :   0.5517 B(  1-Se,  2-C ) :   1.0318 B(  2-C ,  6-C ) :   1.1259
B(  2-C , 17-C ) :   1.2611 B(  3-Se,  4-C ) :   0.9921 B(  4-C ,  8-C ) :   1.1576
B(  4-C , 10-C ) :   1.2380 B(  5-Se,  6-C ) :   1.0623 B(  6-C , 18-C ) :   1.2376
B(  7-Se,  8-C ) :   1.0255 B(  8-C ,  9-C ) :   1.2259 B(  9-C , 13-C ) :   1.3838
B(  9-C , 14-H ) :   0.9554 B( 10-C , 11-C ) :   1.3800 B( 10-C , 12-H ) :   0.9552
B( 11-C , 13-C ) :   1.3419 B( 11-C , 15-H ) :   0.9893 B( 13-C , 16-H ) :   0.9887
B( 17-C , 19-C ) :   1.3831 B( 17-C , 20-H ) :   0.9517 B( 18-C , 21-C ) :   1.3973
B( 18-C , 22-H ) :   0.9513 B( 19-C , 21-C ) :   1.1686 B( 19-C , 23-H ) :   0.9829
B( 21-C , 24-H ) :   0.9884

FINAL SINGLE POINT ENERGY    -11626.967629698795

DIPOLE MOMENT
-------------
                                X             Y             Z
Electronic contribution:     -0.21225      -1.48549      -0.00000
Nuclear contribution   :      0.07378       0.96148       0.00000
                        -----------------------------------------
Total Dipole Moment    :     -0.13847      -0.52401      -0.00000
                        -----------------------------------------
Magnitude (a.u.)       :      0.54200
Magnitude (Debye)      :      1.37765

Rotational constants in cm-1:     0.017591     0.004098     0.003324
Rotational constants in MHz :   527.358924   122.855437    99.642387

                             ****ORCA TERMINATED NORMALLY****
TOTAL RUN TIME: 0 days 19 hours 19 minutes 45 seconds 688 msec
