                         Program Version 5.0.4 -  RELEASE  -
|  1> ! RIJCOSX nofrozencore ReducedPop printbasis
|  2> ! M06L ano-rcc-dzp autoaux
|  3>
|  4> %maxcore 7500
|  5> %basis
|  6> PCDTrimBas overlap
|  7> PCDTrimAuxJ Coulomb
|  8> PCDTrimAuxJK Coulomb
|  9> PCDTrimAuxC Coulomb
| 10> PCDThresh -1
| 11> end
| 12>
| 13> %basis
| 14> newgto Cu "ano-rcc-tzp" end
| 15> newgto Se "ano-rcc-tzp" end
| 16> end
| 17>
| 18> %pal
| 19> nprocs 8
| 20> end
| 21>
| 22> % sym SymThresh 1e-2 end
| 23> * xyz -2 2
| 24> Cu -0.00012742327738379404 0.00025379758245105754 0.00013856440929319223
| 25> Se 0.8367705365760397 -1.123946433458451 1.9085681103390766
| 26> C 0.41895614076322624 -0.14500620933916167 3.1250529924357875
| 27> Se 0.7408797351141125 -1.620240805079361 -1.5565244840792019
| 28> C 0.20772731098875888 -0.9858348539181133 -3.1969945519988974
| 29> Se -0.7393709022836056 1.6182779942601597 1.5602975241237296
| 30> C -0.21803491589051538 0.9914969372570368 3.1309862176201815
| 31> Se -0.8368557602650204 1.1242163609894416 -1.9079551494505609
| 32> C -0.4095040691118745 0.13414416398755333 -3.0939696152499456
| 33> C -0.7633568392191007 0.4702127414237586 -4.624116362535135
| 34> C 0.5390200231054499 -1.7372977244061865 -4.032995207636315
| 35> C 0.16952565475750908 -1.3650829974540577 -5.520208665219358
| 36> H 1.0604308902923762 -2.733026319109903 -4.377712690069014
| 37> C -0.5241169636396595 -0.13086864309876758 -5.531223926200116
| 38> H -1.2842304282620738 1.4500297181472315 -4.3570611899022795
| 39> H 0.48461187633411246 -2.0742815297155417 -6.286730722104047
| 40> H -0.7700769173184283 0.10774588473999498 -6.568764211179751
| 41> C 0.7704980797629278 -0.49513618161275463 4.5607824595238675
| 42> C -0.5491847738732922 1.7642708180292779 4.0789862396993986
| 43> C 0.5158696433632303 0.14784115250623758 5.543026715771711
| 44> H 1.29650511771332 -1.4564954528179652 4.437104442303985
| 45> C -0.1640940953515417 1.3583614547543752 5.535578928039355
| 46> H -1.0797435742541428 2.7435681561465337 4.25369008334312
| 47> H 0.7698180219114904 -0.10729108965343104 6.568729648229881
| 48> H -0.5009664751920607 2.101636693832268 6.277408738820296
| 49> *
| 50>
| 51> % eprnmr
| 52> gtensor true
| 53> Nuclei = all H {aiso,adip,aorb,fgrad,rho}
| 54> Nuclei = all Cu {aiso,adip,aorb,fgrad,rho}
| 55> end
| 56>
| 57>                          ****END OF INPUT****

CARTESIAN COORDINATES (ANGSTROEM)
---------------------------------
  Cu     0.000287    0.000132    0.000000
  Se    -1.338772    1.952886    0.000000
  C     -0.248834    3.146520    0.000000
  Se    -1.816032   -1.516205    0.000000
  C     -1.045479   -3.184771    0.000000
  Se     1.813683    1.520059    0.000000
  C      1.053714    3.118231    0.000000
  Se     1.339066   -1.952277    0.000000
  C      0.235562   -3.114939    0.000000
  C      0.661232   -4.663586    0.000000
  C     -1.884732   -4.002696    0.000000
  C     -1.418765   -5.509265    0.000000
  H     -3.016962   -4.319288    0.000000
  C     -0.003768   -5.557540    0.000000
  H      1.777277   -4.424602    0.000000
  H     -2.211411   -6.258605    0.000000
  H      0.297172   -6.607948    0.000000
  C     -0.688126    4.600657    0.000000
  C      1.914435    4.048126    0.000000
  C      0.022911    5.568896    0.000000
  H     -1.786804    4.505278    0.000000
  C      1.410655    5.524922    0.000000
  H      3.032325    4.194270    0.000000
  H     -0.296650    6.607900    0.000000
  H      2.243013    6.248408    0.000000

 Total Charge           Charge          ....   -2
 Multiplicity           Mult            ....    2
 Number of Electrons    NEL             ....  247
 Basis Dimension        Dim             ....  575

ORBITAL ENERGIES
----------------
                 SPIN UP ORBITALS
  NO   OCC          E(Eh)            E(eV)    Irrep
   0   1.0000    -443.580595    -12070.4416    1-A'
   1   1.0000    -443.572131    -12070.2113    2-A'
   2   1.0000    -443.522798    -12068.8689    3-A'
   3   1.0000    -443.511675    -12068.5662    4-A'
   4   1.0000    -318.186794     -8658.3029    5-A'
   5   1.0000     -56.387955     -1534.3943    6-A'
   6   1.0000     -56.379995     -1534.1777    7-A'
   7   1.0000     -56.339582     -1533.0780    8-A'
   8   1.0000     -56.330717     -1532.8367    9-A'
   9   1.0000     -51.308701     -1396.1807   10-A'
  10   1.0000     -51.307392     -1396.1451    1-A"
  11   1.0000     -51.307251     -1396.1413   11-A'
  12   1.0000     -51.300762     -1395.9647   12-A'
  13   1.0000     -51.299327     -1395.9257   13-A'
  14   1.0000     -51.299247     -1395.9235    2-A"
  15   1.0000     -51.270664     -1395.1457   14-A'
  16   1.0000     -51.269048     -1395.1017   15-A'
  17   1.0000     -51.268111     -1395.0762    3-A"
  18   1.0000     -51.264291     -1394.9723   16-A'
  19   1.0000     -51.262557     -1394.9251   17-A'
  20   1.0000     -51.261433     -1394.8945    4-A"
  21   1.0000     -38.026761     -1034.7608   18-A'
  22   1.0000     -33.528732      -912.3632   19-A'
  23   1.0000     -33.527984      -912.3428   20-A'
  24   1.0000     -33.517257      -912.0509    5-A"
  25   1.0000      -9.821201      -267.2485   21-A'
  26   1.0000      -9.820839      -267.2386   22-A'
  27   1.0000      -9.820277      -267.2233   23-A'
  28   1.0000      -9.818873      -267.1851   24-A'
  29   1.0000      -9.816943      -267.1326   25-A'
  30   1.0000      -9.814577      -267.0682   26-A'
  31   1.0000      -9.810612      -266.9603   27-A'
  32   1.0000      -9.802668      -266.7441   28-A'
  33   1.0000      -9.802079      -266.7281   29-A'
  34   1.0000      -9.799904      -266.6690   30-A'
  35   1.0000      -9.795975      -266.5620   31-A'
  36   1.0000      -9.791916      -266.4516   32-A'
  37   1.0000      -7.360229      -200.2820   33-A'
  38   1.0000      -7.352321      -200.0668   34-A'
  39   1.0000      -7.319951      -199.1860   35-A'
  40   1.0000      -7.312856      -198.9929   36-A'
  41   1.0000      -5.425164      -147.6262   37-A'
  42   1.0000      -5.420936      -147.5112    6-A"
  43   1.0000      -5.419323      -147.4673   38-A'
  44   1.0000      -5.417533      -147.4186   39-A'
  45   1.0000      -5.412705      -147.2872    7-A"
  46   1.0000      -5.411833      -147.2635   40-A'
  47   1.0000      -5.392459      -146.7363   41-A'
  48   1.0000      -5.387585      -146.6036   42-A'
  49   1.0000      -5.386414      -146.5718   43-A'
  50   1.0000      -5.384274      -146.5136    8-A"
  51   1.0000      -5.381215      -146.4303   44-A'
  52   1.0000      -5.378396      -146.3536    9-A"
  53   1.0000      -4.020963      -109.4160   45-A'
  54   1.0000      -2.540398       -69.1277   46-A'
  55   1.0000      -2.539193       -69.0950   47-A'
  56   1.0000      -2.516688       -68.4826   10-A"
  57   1.0000      -1.764810       -48.0229   48-A'
  58   1.0000      -1.761674       -47.9376   11-A"
  59   1.0000      -1.760829       -47.9146   49-A'
  60   1.0000      -1.756887       -47.8073   50-A'
  61   1.0000      -1.756868       -47.8068   51-A'
  62   1.0000      -1.756826       -47.8057   12-A"
  63   1.0000      -1.753676       -47.7200   13-A"
  64   1.0000      -1.753410       -47.7127   52-A'
  65   1.0000      -1.749019       -47.5932   53-A'
  66   1.0000      -1.748921       -47.5906   14-A"
  67   1.0000      -1.729990       -47.0754   54-A'
  68   1.0000      -1.728602       -47.0376   55-A'
  69   1.0000      -1.726590       -46.9829   15-A"
  70   1.0000      -1.724723       -46.9321   56-A'
  71   1.0000      -1.723631       -46.9024   57-A'
  72   1.0000      -1.721798       -46.8525   16-A"
  73   1.0000      -1.721707       -46.8500   58-A'
  74   1.0000      -1.721183       -46.8358   17-A"
  75   1.0000      -1.716195       -46.7000   18-A"
  76   1.0000      -1.716028       -46.6955   59-A'
  77   1.0000      -0.622990       -16.9524   60-A'
  78   1.0000      -0.615711       -16.7544   61-A'
  79   1.0000      -0.544090       -14.8054   62-A'
  80   1.0000      -0.535352       -14.5677   63-A'
  81   1.0000      -0.506865       -13.7925   64-A'
  82   1.0000      -0.500300       -13.6139   65-A'
  83   1.0000      -0.411487       -11.1971   66-A'
  84   1.0000      -0.410470       -11.1695   67-A'
  85   1.0000      -0.372675       -10.1410   68-A'
  86   1.0000      -0.362073        -9.8525   69-A'
  87   1.0000      -0.342974        -9.3328   70-A'
  88   1.0000      -0.336663        -9.1611   71-A'
  89   1.0000      -0.286620        -7.7993   72-A'
  90   1.0000      -0.283456        -7.7132   73-A'
  91   1.0000      -0.239243        -6.5101   74-A'
  92   1.0000      -0.232182        -6.3180   75-A'
  93   1.0000      -0.224488        -6.1086   76-A'
  94   1.0000      -0.222386        -6.0514   77-A'
  95   1.0000      -0.176611        -4.8058   78-A'
  96   1.0000      -0.173140        -4.7114   79-A'
  97   1.0000      -0.149807        -4.0765   19-A"
  98   1.0000      -0.145173        -3.9503   80-A'
  99   1.0000      -0.141699        -3.8558   20-A"
 100   1.0000      -0.119430        -3.2498   81-A'
 101   1.0000      -0.109392        -2.9767   82-A'
 102   1.0000      -0.107191        -2.9168   83-A'
 103   1.0000      -0.097821        -2.6618   84-A'
 104   1.0000      -0.090275        -2.4565   85-A'
 105   1.0000      -0.073855        -2.0097   21-A"
 106   1.0000      -0.062412        -1.6983   22-A"
 107   1.0000      -0.041233        -1.1220   86-A'
 108   1.0000      -0.035883        -0.9764   23-A"
 109   1.0000      -0.034032        -0.9261   87-A'
 110   1.0000      -0.027562        -0.7500   24-A"
 111   1.0000      -0.011107        -0.3022   88-A'
 112   1.0000      -0.005755        -0.1566   25-A"
 113   1.0000      -0.000873        -0.0237   89-A'
 114   1.0000       0.002534         0.0690   26-A"
 115   1.0000       0.010083         0.2744   90-A'
 116   1.0000       0.017341         0.4719   91-A'
 117   1.0000       0.034224         0.9313   92-A'
 118   1.0000       0.045975         1.2510   93-A'
 119   1.0000       0.058943         1.6039   27-A"
 120   1.0000       0.061170         1.6645   28-A"
 121   1.0000       0.065652         1.7865   29-A"
 122   1.0000       0.093359         2.5404   30-A"
 123   1.0000       0.119079         3.2403   94-A'
 124   0.0000       0.172212         4.6861   31-A"
 125   0.0000       0.178818         4.8659   32-A"
 126   0.0000       0.180576         4.9137   95-A'
 127   0.0000       0.180762         4.9188   96-A'
 128   0.0000       0.193579         5.2676   97-A'

                 SPIN DOWN ORBITALS
  NO   OCC          E(Eh)            E(eV)    Irrep
   0   1.0000    -443.580163    -12070.4299    1-A'
   1   1.0000    -443.571673    -12070.1989    2-A'
   2   1.0000    -443.522359    -12068.8570    3-A'
   3   1.0000    -443.511219    -12068.5538    4-A'
   4   1.0000    -318.186671     -8658.2995    5-A'
   5   1.0000     -56.387779     -1534.3895    6-A'
   6   1.0000     -56.379809     -1534.1726    7-A'
   7   1.0000     -56.339408     -1533.0732    8-A'
   8   1.0000     -56.330536     -1532.8318    9-A'
   9   1.0000     -51.308394     -1396.1724   10-A'
  10   1.0000     -51.307143     -1396.1383    1-A"
  11   1.0000     -51.306566     -1396.1227   11-A'
  12   1.0000     -51.300434     -1395.9558   12-A'
  13   1.0000     -51.298986     -1395.9164    2-A"
  14   1.0000     -51.298596     -1395.9058   13-A'
  15   1.0000     -51.270340     -1395.1369   14-A'
  16   1.0000     -51.268336     -1395.0824   15-A'
  17   1.0000     -51.267872     -1395.0697    3-A"
  18   1.0000     -51.263939     -1394.9627   16-A'
  19   1.0000     -51.261826     -1394.9052   17-A'
  20   1.0000     -51.261185     -1394.8878    4-A"
  21   1.0000     -38.013501     -1034.3999   18-A'
  22   1.0000     -33.516108      -912.0197   19-A'
  23   1.0000     -33.515408      -912.0006   20-A'
  24   1.0000     -33.513532      -911.9496    5-A"
  25   1.0000      -9.821171      -267.2476   21-A'
  26   1.0000      -9.820949      -267.2416   22-A'
  27   1.0000      -9.820194      -267.2211   23-A'
  28   1.0000      -9.818879      -267.1853   24-A'
  29   1.0000      -9.817024      -267.1348   25-A'
  30   1.0000      -9.814434      -267.0643   26-A'
  31   1.0000      -9.810549      -266.9586   27-A'
  32   1.0000      -9.802560      -266.7412   28-A'
  33   1.0000      -9.801853      -266.7220   29-A'
  34   1.0000      -9.799877      -266.6682   30-A'
  35   1.0000      -9.795719      -266.5551   31-A'
  36   1.0000      -9.791865      -266.4502   32-A'
  37   1.0000      -7.359843      -200.2715   33-A'
  38   1.0000      -7.351912      -200.0557   34-A'
  39   1.0000      -7.319558      -199.1753   35-A'
  40   1.0000      -7.312445      -198.9817   36-A'
  41   1.0000      -5.424804      -147.6164   37-A'
  42   1.0000      -5.420613      -147.5024    6-A"
  43   1.0000      -5.418564      -147.4466   38-A'
  44   1.0000      -5.417156      -147.4083   39-A'
  45   1.0000      -5.412370      -147.2781    7-A"
  46   1.0000      -5.411017      -147.2413   40-A'
  47   1.0000      -5.392093      -146.7263   41-A'
  48   1.0000      -5.387189      -146.5929   42-A'
  49   1.0000      -5.385621      -146.5502   43-A'
  50   1.0000      -5.383991      -146.5058    8-A"
  51   1.0000      -5.380399      -146.4081   44-A'
  52   1.0000      -5.378107      -146.3457    9-A"
  53   1.0000      -3.994287      -108.6901   45-A'
  54   1.0000      -2.507697       -68.2379   46-A'
  55   1.0000      -2.506806       -68.2137   10-A"
  56   1.0000      -2.505160       -68.1689   47-A'
  57   1.0000      -1.764407       -48.0120   48-A'
  58   1.0000      -1.761346       -47.9287   11-A"
  59   1.0000      -1.759993       -47.8919   49-A'
  60   1.0000      -1.756453       -47.7955   50-A'
  61   1.0000      -1.756091       -47.7857   12-A"
  62   1.0000      -1.756077       -47.7853   51-A'
  63   1.0000      -1.753340       -47.7108   13-A"
  64   1.0000      -1.752514       -47.6883   52-A'
  65   1.0000      -1.748186       -47.5706   53-A'
  66   1.0000      -1.748140       -47.5693   14-A"
  67   1.0000      -1.729473       -47.0614   54-A'
  68   1.0000      -1.727749       -47.0144   55-A'
  69   1.0000      -1.726301       -46.9750   15-A"
  70   1.0000      -1.724130       -46.9160   56-A'
  71   1.0000      -1.722760       -46.8787   57-A'
  72   1.0000      -1.721087       -46.8332   16-A"
  73   1.0000      -1.721013       -46.8311   58-A'
  74   1.0000      -1.720876       -46.8274   17-A"
  75   1.0000      -1.715477       -46.6805   18-A"
  76   1.0000      -1.715344       -46.6769   59-A'
  77   1.0000      -0.622371       -16.9356   60-A'
  78   1.0000      -0.615061       -16.7367   61-A'
  79   1.0000      -0.543370       -14.7858   62-A'
  80   1.0000      -0.534542       -14.5456   63-A'
  81   1.0000      -0.504965       -13.7408   64-A'
  82   1.0000      -0.498510       -13.5651   65-A'
  83   1.0000      -0.409707       -11.1487   66-A'
  84   1.0000      -0.408423       -11.1137   67-A'
  85   1.0000      -0.369417       -10.0523   68-A'
  86   1.0000      -0.358315        -9.7503   69-A'
  87   1.0000      -0.341266        -9.2863   70-A'
  88   1.0000      -0.334711        -9.1080   71-A'
  89   1.0000      -0.283994        -7.7279   72-A'
  90   1.0000      -0.280609        -7.6358   73-A'
  91   1.0000      -0.238042        -6.4775   74-A'
  92   1.0000      -0.231046        -6.2871   75-A'
  93   1.0000      -0.223003        -6.0682   76-A'
  94   1.0000      -0.221279        -6.0213   77-A'
  95   1.0000      -0.175368        -4.7720   78-A'
  96   1.0000      -0.171628        -4.6702   79-A'
  97   1.0000      -0.149591        -4.0706   19-A"
  98   1.0000      -0.142975        -3.8906   80-A'
  99   1.0000      -0.141427        -3.8484   20-A"
 100   1.0000      -0.117831        -3.2063   81-A'
 101   1.0000      -0.107650        -2.9293   82-A'
 102   1.0000      -0.105028        -2.8580   83-A'
 103   1.0000      -0.091926        -2.5014   84-A'
 104   1.0000      -0.088415        -2.4059   85-A'
 105   1.0000      -0.073522        -2.0006   21-A"
 106   1.0000      -0.061942        -1.6855   22-A"
 107   1.0000      -0.033385        -0.9084   86-A'
 108   1.0000      -0.033369        -0.9080   23-A"
 109   1.0000      -0.026227        -0.7137   24-A"
 110   1.0000      -0.008523        -0.2319   87-A'
 111   1.0000      -0.002626        -0.0715   88-A'
 112   1.0000       0.004731         0.1287   25-A"
 113   1.0000       0.005909         0.1608   89-A'
 114   1.0000       0.012356         0.3362   26-A"
 115   1.0000       0.019538         0.5317   90-A'
 116   1.0000       0.028463         0.7745   91-A'
 117   1.0000       0.037885         1.0309   92-A'
 118   1.0000       0.057236         1.5575   93-A'
 119   1.0000       0.061220         1.6659   27-A"
 120   1.0000       0.064220         1.7475   28-A"
 121   1.0000       0.067095         1.8258   29-A"
 122   1.0000       0.096755         2.6328   30-A"
 123   0.0000       0.146950         3.9987   94-A'
 124   0.0000       0.172605         4.6968   31-A"
 125   0.0000       0.179142         4.8747   32-A"
 126   0.0000       0.182768         4.9734   95-A'
 127   0.0000       0.182968         4.9788   96-A'

MULLIKEN ATOMIC CHARGES AND SPIN POPULATIONS
--------------------------------------------
   0 Cu:    0.667384    0.295850
   1 Se:   -0.678351    0.167984
   2 C :    0.211674   -0.008971
   3 Se:   -0.939056    0.188173
   4 C :    0.330640   -0.000822
   5 Se:   -0.898402    0.177890
   6 C :    0.330955   -0.000929
   7 Se:   -0.643400    0.157306
   8 C :    0.205005   -0.011338
   9 C :   -0.102424    0.012015
  10 C :    0.038065   -0.007687
  11 C :   -0.280545    0.001655
  12 H :    0.024406    0.010973
  13 C :   -0.017922   -0.000958
  14 H :    0.028492    0.001770
  15 H :    0.017116    0.001985
  16 H :   -0.000689    0.003411
  17 C :   -0.131755    0.006559
  18 C :   -0.027666   -0.005513
  19 C :   -0.046251   -0.000697
  20 H :    0.063248    0.001226
  21 C :   -0.235557   -0.000088
  22 H :    0.054173    0.005667
  23 H :    0.018756    0.002574
  24 H :    0.012105    0.001966
Sum of atomic charges         :   -2.0000000

LOEWDIN ATOMIC CHARGES AND SPIN POPULATIONS
-------------------------------------------
   0 Cu:   -0.640977    0.374371
   1 Se:   -0.130118    0.125410
   2 C :    0.050415    0.010324
   3 Se:   -0.271753    0.130534
   4 C :   -0.022339    0.006755
   5 Se:   -0.265761    0.123639
   6 C :    0.008620    0.007746
   7 Se:   -0.090963    0.118918
   8 C :    0.069788    0.008338
   9 C :    0.317410    0.011690
  10 C :    0.343933    0.008550
  11 C :    0.393455    0.003072
  12 H :   -0.363112    0.009825
  13 C :    0.213901    0.001021
  14 H :   -0.452989    0.016142
  15 H :   -0.432727    0.000361
  16 H :   -0.386044    0.001649
  17 C :    0.342320    0.009658
  18 C :    0.379640    0.007160
  19 C :    0.246806    0.000717
  20 H :   -0.459038    0.013211
  21 C :    0.369443    0.001342
  22 H :   -0.399321    0.008033
  23 H :   -0.402619    0.001144
  24 H :   -0.417971    0.000389

  Mayer bond orders larger than 0.100000
B(  0-Cu,  1-Se) :   0.5120 B(  0-Cu,  3-Se) :   0.5679 B(  0-Cu,  5-Se) :   0.5698
B(  0-Cu,  7-Se) :   0.4933 B(  1-Se,  2-C ) :   1.1265 B(  1-Se, 21-C ) :   0.1035
B(  2-C ,  6-C ) :   1.1345 B(  2-C , 17-C ) :   1.1382 B(  3-Se,  4-C ) :   0.8260
B(  4-C ,  8-C ) :   1.1195 B(  4-C , 10-C ) :   1.3761 B(  5-Se,  6-C ) :   0.8696
B(  6-C , 18-C ) :   1.3333 B(  7-Se,  8-C ) :   1.1711 B(  7-Se, 11-C ) :   0.1276
B(  8-C ,  9-C ) :   1.0491 B(  8-C , 11-C ) :   0.1024 B(  9-C , 13-C ) :   1.5904
B(  9-C , 14-H ) :   0.9405 B( 10-C , 11-C ) :   1.2438 B( 10-C , 12-H ) :   0.9378
B( 11-C , 13-C ) :   1.2164 B( 11-C , 15-H ) :   0.9963 B( 13-C , 16-H ) :   0.9652
B( 17-C , 19-C ) :   1.4997 B( 17-C , 20-H ) :   0.9540 B( 18-C , 21-C ) :   1.2882
B( 18-C , 22-H ) :   0.9604 B( 19-C , 21-C ) :   1.2701 B( 19-C , 23-H ) :   0.9778
B( 21-C , 24-H ) :   0.9949

FINAL SINGLE POINT ENERGY    -11626.714025138037

DIPOLE MOMENT
-------------
                                X             Y             Z
Electronic contribution:      0.13999       0.20885      -0.00000
Nuclear contribution   :      0.05527      -0.09779       0.00000
                        -----------------------------------------
Total Dipole Moment    :      0.19525       0.11106      -0.00000
                        -----------------------------------------
Magnitude (a.u.)       :      0.22463
Magnitude (Debye)      :      0.57096

Rotational constants in cm-1:     0.017628     0.004093     0.003322
Rotational constants in MHz :   528.470706   122.705566    99.583323

                             ****ORCA TERMINATED NORMALLY****
TOTAL RUN TIME: 0 days 17 hours 2 minutes 37 seconds 130 msec
