                         Program Version 5.0.4 -  RELEASE  -
|  1> ! RIJCOSX nofrozencore ReducedPop printbasis
|  2> ! M06L ano-rcc-dzp autoaux
|  3>
|  4> %maxcore 7500
|  5> %basis
|  6> PCDTrimBas overlap
|  7> PCDTrimAuxJ Coulomb
|  8> PCDTrimAuxJK Coulomb
|  9> PCDTrimAuxC Coulomb
| 10> PCDThresh -1
| 11> end
| 12>
| 13> %basis
| 14> newgto Cu "ano-rcc-tzp" end
| 15> newgto Se "ano-rcc-tzp" end
| 16> end
| 17>
| 18> %pal
| 19> nprocs 8
| 20> end
| 21>
| 22> % sym SymThresh 1e-2 end
| 23> * xyz -2 2
| 24> Cu -1.3873432025196834e-05 -5.130777765583277e-06 2.015447849393378e-05
| 25> Se -1.304635931359078 -1.5081239801381339 -1.2772931288757268
| 26> C -2.489892397340257 -0.5836219007300141 -1.928589331052485
| 27> Se 1.6027823073963061 -1.6007266096450583 0.6904765062263957
| 28> C 2.6156687696998526 -0.7748850963322729 1.6787901341084843
| 29> Se -1.6024698777070987 1.6008421547603393 -0.690930385082079
| 30> C -2.6201504431812723 0.7732276498828788 -1.6722794313758038
| 31> Se 1.3049444764873184 1.5082380886356406 1.2768448932740215
| 32> C 2.4854273719772677 0.5819706112139388 1.9350758484109727
| 33> C 3.5029146792349053 1.1786812187461477 2.6772511180839413
| 34> C 3.7506400971023557 -1.4017456766282002 2.1898013833880414
| 35> C 4.678003877173781 -0.8347003237459382 3.039505932143825
| 36> H 3.954283218016925 -2.4178095195208384 1.8273425492228117
| 37> C 4.5485209194611365 0.5239189245943924 3.2947606349920595
| 38> H 3.503667105970669 2.27576249565552 2.7140081576669726
| 39> H 5.58104822298559 -1.3966266517005712 3.311047576827919
| 40> H 5.343028379945011 1.105649739042816 3.780495196559009
| 41> C -3.500837633178208 -1.1779147633202562 -2.680270384014342
| 42> C -3.7486147634976628 1.4024967268729336 -2.1927435681748264
| 43> C -4.55044461535729 -0.5246306929247102 -3.291964243577562
| 44> H -3.4870707746291743 -2.2696253951058005 -2.7381201100733197
| 45> C -4.679851546662437 0.8340166720777757 -3.0368199872714734
| 46> H -3.937789004684513 2.4239115605128543 -1.8513042427204898
| 47> H -5.332187680160522 -1.1016405492967891 -3.7962439060541686
| 48> H -5.570105604286083 1.4006721883245763 -3.32694263330536
| 49> *
| 50>
| 51> % eprnmr
| 52> gtensor true
| 53> Nuclei = all H {aiso,adip,aorb,fgrad,rho}
| 54> Nuclei = all Cu {aiso,adip,aorb,fgrad,rho}
| 55> end
| 56>
| 57>                          ****END OF INPUT****

CARTESIAN COORDINATES (ANGSTROEM)
---------------------------------
  Cu     0.000021   -0.000014    0.000000
  Se    -0.988497   -1.451315   -1.588883
  C     -1.809385   -2.550454   -0.693488
  Se     0.988035    1.451631   -1.588883
  C      1.816037    2.545902   -0.693488
  Se    -0.988497   -1.451315    1.588883
  C     -1.809385   -2.550454    0.693488
  Se     0.988035    1.451631    1.588883
  C      1.816037    2.545902    0.693488
  C      2.444082    3.621390    1.318861
  C      2.444082    3.621390   -1.318861
  C      3.181821    4.605766   -0.694220
  H      2.277457    3.725514   -2.398898
  C      3.181821    4.605766    0.694220
  H      2.277457    3.725514    2.398898
  H      3.559571    5.454996   -1.278516
  H      3.559571    5.454996    1.278516
  C     -2.447133   -3.619303   -1.318863
  C     -2.447133   -3.619303    1.318863
  C     -3.179015   -4.607685   -0.694220
  H     -2.302064   -3.708678   -2.398900
  C     -3.179015   -4.607685    0.694220
  H     -2.302064   -3.708678    2.398900
  H     -3.575768   -5.443912   -1.278515
  H     -3.575768   -5.443912    1.278515

 Total Charge           Charge          ....   -2
 Multiplicity           Mult            ....    2
 Number of Electrons    NEL             ....  247
 Basis Dimension        Dim             ....  575

ORBITAL ENERGIES
----------------
                 SPIN UP ORBITALS
  NO   OCC          E(Eh)            E(eV)    Irrep
   0   1.0000    -443.561091    -12069.9109    1-A"
   1   1.0000    -443.560021    -12069.8818    2-A"
   2   1.0000    -443.546595    -12069.5164    1-A'
   3   1.0000    -443.546455    -12069.5126    2-A'
   4   1.0000    -318.187181     -8658.3134    3-A'
   5   1.0000     -56.369973     -1533.9049    3-A"
   6   1.0000     -56.369677     -1533.8969    4-A"
   7   1.0000     -56.357121     -1533.5552    4-A'
   8   1.0000     -56.356860     -1533.5481    5-A'
   9   1.0000     -51.286429     -1395.5747    5-A"
  10   1.0000     -51.286366     -1395.5730    6-A'
  11   1.0000     -51.286356     -1395.5727    6-A"
  12   1.0000     -51.286324     -1395.5718    7-A'
  13   1.0000     -51.285072     -1395.5377    7-A"
  14   1.0000     -51.285045     -1395.5370    8-A"
  15   1.0000     -51.285021     -1395.5364    8-A'
  16   1.0000     -51.284979     -1395.5352    9-A'
  17   1.0000     -51.284645     -1395.5261    9-A"
  18   1.0000     -51.284604     -1395.5250   10-A"
  19   1.0000     -51.284598     -1395.5249   10-A'
  20   1.0000     -51.284554     -1395.5237   11-A'
  21   1.0000     -38.027741     -1034.7875   12-A'
  22   1.0000     -33.529804      -912.3924   11-A"
  23   1.0000     -33.529006      -912.3706   13-A'
  24   1.0000     -33.517833      -912.0666   14-A'
  25   1.0000      -9.817791      -267.1557   15-A'
  26   1.0000      -9.817344      -267.1435   16-A'
  27   1.0000      -9.817339      -267.1434   12-A"
  28   1.0000      -9.816892      -267.1312   13-A"
  29   1.0000      -9.809685      -266.9351   17-A'
  30   1.0000      -9.809403      -266.9274   18-A'
  31   1.0000      -9.809348      -266.9259   14-A"
  32   1.0000      -9.809025      -266.9171   19-A'
  33   1.0000      -9.808989      -266.9162   15-A"
  34   1.0000      -9.808911      -266.9140   16-A"
  35   1.0000      -9.808420      -266.9007   20-A'
  36   1.0000      -9.808383      -266.8997   17-A"
  37   1.0000      -7.341326      -199.7676   18-A"
  38   1.0000      -7.341279      -199.7664   19-A"
  39   1.0000      -7.334059      -199.5699   21-A'
  40   1.0000      -7.333946      -199.5668   22-A'
  41   1.0000      -5.404411      -147.0615   20-A"
  42   1.0000      -5.404389      -147.0609   23-A'
  43   1.0000      -5.404322      -147.0591   21-A"
  44   1.0000      -5.404307      -147.0587   24-A'
  45   1.0000      -5.399086      -146.9166   22-A"
  46   1.0000      -5.399062      -146.9159   25-A'
  47   1.0000      -5.399014      -146.9146   23-A"
  48   1.0000      -5.398987      -146.9139   26-A'
  49   1.0000      -5.398737      -146.9071   24-A"
  50   1.0000      -5.398711      -146.9064   27-A'
  51   1.0000      -5.398657      -146.9049   25-A"
  52   1.0000      -5.398631      -146.9042   28-A'
  53   1.0000      -4.022036      -109.4452   29-A'
  54   1.0000      -2.541603       -69.1605   26-A"
  55   1.0000      -2.540650       -69.1346   30-A'
  56   1.0000      -2.517128       -68.4945   31-A'
  57   1.0000      -1.743437       -47.4413   32-A'
  58   1.0000      -1.743408       -47.4405   27-A"
  59   1.0000      -1.743361       -47.4393   33-A'
  60   1.0000      -1.743331       -47.4385   28-A"
  61   1.0000      -1.740693       -47.3667   34-A'
  62   1.0000      -1.740615       -47.3645   29-A"
  63   1.0000      -1.740612       -47.3645   35-A'
  64   1.0000      -1.740536       -47.3624   30-A"
  65   1.0000      -1.740015       -47.3482   36-A'
  66   1.0000      -1.740007       -47.3480   31-A"
  67   1.0000      -1.739933       -47.3460   37-A'
  68   1.0000      -1.739926       -47.3458   32-A"
  69   1.0000      -1.735659       -47.2297   38-A'
  70   1.0000      -1.735606       -47.2282   33-A"
  71   1.0000      -1.735582       -47.2276   39-A'
  72   1.0000      -1.735556       -47.2269   40-A'
  73   1.0000      -1.735529       -47.2262   34-A"
  74   1.0000      -1.735519       -47.2259   35-A"
  75   1.0000      -1.735480       -47.2248   41-A'
  76   1.0000      -1.735442       -47.2238   36-A"
  77   1.0000      -0.602867       -16.4048   42-A'
  78   1.0000      -0.602663       -16.3993   43-A'
  79   1.0000      -0.521876       -14.2010   44-A'
  80   1.0000      -0.521135       -14.1808   45-A'
  81   1.0000      -0.498772       -13.5723   37-A"
  82   1.0000      -0.498442       -13.5633   38-A"
  83   1.0000      -0.412804       -11.2330   39-A"
  84   1.0000      -0.411647       -11.2015   40-A"
  85   1.0000      -0.383000       -10.4220   46-A'
  86   1.0000      -0.378368       -10.2959   47-A'
  87   1.0000      -0.319728        -8.7002   48-A'
  88   1.0000      -0.317422        -8.6375   49-A'
  89   1.0000      -0.286324        -7.7913   41-A"
  90   1.0000      -0.282988        -7.7005   42-A"
  91   1.0000      -0.228785        -6.2255   50-A'
  92   1.0000      -0.222085        -6.0432   51-A'
  93   1.0000      -0.200643        -5.4598   52-A'
  94   1.0000      -0.199572        -5.4306   53-A'
  95   1.0000      -0.169079        -4.6009   43-A"
  96   1.0000      -0.164293        -4.4706   44-A"
  97   1.0000      -0.138383        -3.7656   45-A"
  98   1.0000      -0.136987        -3.7276   54-A'
  99   1.0000      -0.136534        -3.7153   46-A"
 100   1.0000      -0.131056        -3.5662   55-A'
 101   1.0000      -0.130663        -3.5555   56-A'
 102   1.0000      -0.110390        -3.0039   57-A'
 103   1.0000      -0.081919        -2.2291   58-A'
 104   1.0000      -0.071303        -1.9403   47-A"
 105   1.0000      -0.065707        -1.7880   48-A"
 106   1.0000      -0.062863        -1.7106   59-A'
 107   1.0000      -0.049280        -1.3410   60-A'
 108   1.0000      -0.048396        -1.3169   61-A'
 109   1.0000      -0.032409        -0.8819   49-A"
 110   1.0000      -0.030091        -0.8188   50-A"
 111   1.0000      -0.029758        -0.8098   62-A'
 112   1.0000      -0.025722        -0.6999   51-A"
 113   1.0000      -0.001669        -0.0454   52-A"
 114   1.0000      -0.001318        -0.0359   63-A'
 115   1.0000       0.000431         0.0117   64-A'
 116   1.0000       0.018965         0.5161   65-A'
 117   1.0000       0.020689         0.5630   66-A'
 118   1.0000       0.040111         1.0915   53-A"
 119   1.0000       0.055210         1.5023   54-A"
 120   1.0000       0.055718         1.5162   55-A"
 121   1.0000       0.070010         1.9051   67-A'
 122   1.0000       0.098883         2.6907   68-A'
 123   1.0000       0.116241         3.1631   56-A"
 124   0.0000       0.181370         4.9353   69-A'
 125   0.0000       0.181622         4.9422   70-A'
 126   0.0000       0.195965         5.3325   57-A"
 127   0.0000       0.196401         5.3443   58-A"
 128   0.0000       0.200832         5.4649   71-A'

                 SPIN DOWN ORBITALS
  NO   OCC          E(Eh)            E(eV)    Irrep
   0   1.0000    -443.560638    -12069.8986    1-A"
   1   1.0000    -443.559567    -12069.8694    2-A"
   2   1.0000    -443.546141    -12069.5041    1-A'
   3   1.0000    -443.546001    -12069.5003    2-A'
   4   1.0000    -318.187058     -8658.3100    3-A'
   5   1.0000     -56.369789     -1533.8999    3-A"
   6   1.0000     -56.369494     -1533.8919    4-A"
   7   1.0000     -56.356939     -1533.5503    4-A'
   8   1.0000     -56.356679     -1533.5432    5-A'
   9   1.0000     -51.286107     -1395.5659    5-A"
  10   1.0000     -51.286036     -1395.5640    6-A'
  11   1.0000     -51.286033     -1395.5639    6-A"
  12   1.0000     -51.285993     -1395.5628    7-A'
  13   1.0000     -51.284397     -1395.5194    7-A"
  14   1.0000     -51.284357     -1395.5183    8-A"
  15   1.0000     -51.284351     -1395.5181    8-A'
  16   1.0000     -51.284330     -1395.5176    9-A"
  17   1.0000     -51.284310     -1395.5170    9-A'
  18   1.0000     -51.284306     -1395.5169   10-A"
  19   1.0000     -51.284285     -1395.5163   10-A'
  20   1.0000     -51.284247     -1395.5153   11-A'
  21   1.0000     -38.013832     -1034.4090   12-A'
  22   1.0000     -33.516588      -912.0327   11-A"
  23   1.0000     -33.515791      -912.0110   13-A'
  24   1.0000     -33.513945      -911.9608   14-A'
  25   1.0000      -9.817740      -267.1543   15-A'
  26   1.0000      -9.817293      -267.1421   16-A'
  27   1.0000      -9.817288      -267.1420   12-A"
  28   1.0000      -9.816841      -267.1298   13-A"
  29   1.0000      -9.809693      -266.9353   17-A'
  30   1.0000      -9.809418      -266.9278   18-A'
  31   1.0000      -9.809314      -266.9250   14-A"
  32   1.0000      -9.808991      -266.9162   15-A"
  33   1.0000      -9.808917      -266.9142   19-A'
  34   1.0000      -9.808843      -266.9122   16-A"
  35   1.0000      -9.808304      -266.8975   20-A'
  36   1.0000      -9.808279      -266.8968   17-A"
  37   1.0000      -7.340925      -199.7567   18-A"
  38   1.0000      -7.340881      -199.7555   19-A"
  39   1.0000      -7.333652      -199.5588   21-A'
  40   1.0000      -7.333539      -199.5557   22-A'
  41   1.0000      -5.404046      -147.0516   20-A"
  42   1.0000      -5.404023      -147.0509   23-A'
  43   1.0000      -5.403957      -147.0492   21-A"
  44   1.0000      -5.403942      -147.0487   24-A'
  45   1.0000      -5.398424      -146.8986   22-A"
  46   1.0000      -5.398398      -146.8979   25-A'
  47   1.0000      -5.398344      -146.8964   23-A"
  48   1.0000      -5.398318      -146.8957   26-A'
  49   1.0000      -5.398261      -146.8942   24-A"
  50   1.0000      -5.398237      -146.8935   27-A'
  51   1.0000      -5.398189      -146.8922   25-A"
  52   1.0000      -5.398163      -146.8915   28-A'
  53   1.0000      -3.993769      -108.6760   29-A'
  54   1.0000      -2.506793       -68.2133   30-A'
  55   1.0000      -2.506314       -68.2003   26-A"
  56   1.0000      -2.505283       -68.1722   31-A'
  57   1.0000      -1.742988       -47.4291   32-A'
  58   1.0000      -1.742958       -47.4283   27-A"
  59   1.0000      -1.742912       -47.4270   33-A'
  60   1.0000      -1.742882       -47.4262   28-A"
  61   1.0000      -1.739801       -47.3424   34-A'
  62   1.0000      -1.739733       -47.3405   29-A"
  63   1.0000      -1.739723       -47.3403   35-A'
  64   1.0000      -1.739698       -47.3396   36-A'
  65   1.0000      -1.739676       -47.3390   30-A"
  66   1.0000      -1.739652       -47.3383   31-A"
  67   1.0000      -1.739618       -47.3374   37-A'
  68   1.0000      -1.739598       -47.3369   32-A"
  69   1.0000      -1.734873       -47.2083   38-A'
  70   1.0000      -1.734830       -47.2071   33-A"
  71   1.0000      -1.734797       -47.2062   39-A'
  72   1.0000      -1.734771       -47.2055   40-A'
  73   1.0000      -1.734754       -47.2051   34-A"
  74   1.0000      -1.734730       -47.2044   35-A"
  75   1.0000      -1.734695       -47.2035   41-A'
  76   1.0000      -1.734654       -47.2023   36-A"
  77   1.0000      -0.602058       -16.3828   42-A'
  78   1.0000      -0.601868       -16.3776   43-A'
  79   1.0000      -0.520726       -14.1697   44-A'
  80   1.0000      -0.520022       -14.1505   45-A'
  81   1.0000      -0.497056       -13.5256   37-A"
  82   1.0000      -0.496734       -13.5168   38-A"
  83   1.0000      -0.410122       -11.1600   39-A"
  84   1.0000      -0.408945       -11.1279   40-A"
  85   1.0000      -0.380461       -10.3529   46-A'
  86   1.0000      -0.376015       -10.2319   47-A'
  87   1.0000      -0.317992        -8.6530   48-A'
  88   1.0000      -0.315531        -8.5860   49-A'
  89   1.0000      -0.283895        -7.7252   41-A"
  90   1.0000      -0.280300        -7.6273   42-A"
  91   1.0000      -0.227652        -6.1947   50-A'
  92   1.0000      -0.221027        -6.0145   51-A'
  93   1.0000      -0.199339        -5.4243   52-A'
  94   1.0000      -0.198346        -5.3973   53-A'
  95   1.0000      -0.167681        -4.5628   43-A"
  96   1.0000      -0.162304        -4.4165   44-A"
  97   1.0000      -0.137479        -3.7410   45-A"
  98   1.0000      -0.135047        -3.6748   54-A'
  99   1.0000      -0.134757        -3.6669   46-A"
 100   1.0000      -0.130671        -3.5557   55-A'
 101   1.0000      -0.130218        -3.5434   56-A'
 102   1.0000      -0.108632        -2.9560   57-A'
 103   1.0000      -0.080591        -2.1930   58-A'
 104   1.0000      -0.069859        -1.9010   47-A"
 105   1.0000      -0.060715        -1.6521   59-A'
 106   1.0000      -0.054253        -1.4763   48-A"
 107   1.0000      -0.048115        -1.3093   60-A'
 108   1.0000      -0.047823        -1.3013   61-A'
 109   1.0000      -0.029639        -0.8065   49-A"
 110   1.0000      -0.024711        -0.6724   50-A"
 111   1.0000      -0.023364        -0.6358   62-A'
 112   1.0000      -0.002558        -0.0696   51-A"
 113   1.0000       0.008017         0.2182   52-A"
 114   1.0000       0.009758         0.2655   63-A'
 115   1.0000       0.010907         0.2968   64-A'
 116   1.0000       0.028872         0.7857   65-A'
 117   1.0000       0.031867         0.8672   66-A'
 118   1.0000       0.050579         1.3763   53-A"
 119   1.0000       0.057842         1.5740   54-A"
 120   1.0000       0.059350         1.6150   55-A"
 121   1.0000       0.071763         1.9528   67-A'
 122   1.0000       0.102145         2.7795   68-A'
 123   0.0000       0.146063         3.9746   56-A"
 124   0.0000       0.183229         4.9859   69-A'
 125   0.0000       0.183510         4.9936   70-A'
 126   0.0000       0.199212         5.4208   57-A"
 127   0.0000       0.199743         5.4353   58-A"

MULLIKEN ATOMIC CHARGES AND SPIN POPULATIONS
--------------------------------------------
   0 Cu:    0.637660    0.309973
   1 Se:   -0.728567    0.173298
   2 C :    0.220044   -0.003311
   3 Se:   -0.726921    0.173410
   4 C :    0.219497   -0.003352
   5 Se:   -0.728567    0.173298
   6 C :    0.220044   -0.003311
   7 Se:   -0.726921    0.173410
   8 C :    0.219497   -0.003352
   9 C :   -0.085729   -0.001021
  10 C :   -0.085729   -0.001021
  11 C :   -0.153054   -0.000683
  12 H :    0.073375    0.002586
  13 C :   -0.153054   -0.000683
  14 H :    0.073375    0.002586
  15 H :    0.013373    0.001641
  16 H :    0.013373    0.001641
  17 C :   -0.089986   -0.001120
  18 C :   -0.089986   -0.001120
  19 C :   -0.153956   -0.000685
  20 H :    0.077753    0.002617
  21 C :   -0.153956   -0.000685
  22 H :    0.077753    0.002617
  23 H :    0.015341    0.001633
  24 H :    0.015341    0.001633
Sum of atomic charges         :   -2.0000000

LOEWDIN ATOMIC CHARGES AND SPIN POPULATIONS
-------------------------------------------
   0 Cu:   -0.616842    0.390735
   1 Se:   -0.204897    0.123461
   2 C :    0.037523    0.011650
   3 Se:   -0.205647    0.123581
   4 C :    0.037272    0.011617
   5 Se:   -0.204897    0.123461
   6 C :    0.037523    0.011650
   7 Se:   -0.205647    0.123581
   8 C :    0.037272    0.011617
   9 C :    0.361506    0.007097
  10 C :    0.361506    0.007097
  11 C :    0.308347    0.000501
  12 H :   -0.443151    0.009139
  13 C :    0.308347    0.000501
  14 H :   -0.443151    0.009139
  15 H :   -0.404112    0.000429
  16 H :   -0.404112    0.000429
  17 C :    0.363832    0.007049
  18 C :    0.363832    0.007049
  19 C :    0.311200    0.000485
  20 H :   -0.447271    0.009204
  21 C :    0.311200    0.000485
  22 H :   -0.447271    0.009204
  23 H :   -0.406180    0.000419
  24 H :   -0.406180    0.000419

  Mayer bond orders larger than 0.100000
B(  0-Cu,  1-Se) :   0.5506 B(  0-Cu,  3-Se) :   0.5504 B(  0-Cu,  5-Se) :   0.5506
B(  0-Cu,  7-Se) :   0.5504 B(  1-Se,  2-C ) :   1.0376 B(  2-C ,  6-C ) :   1.1381
B(  2-C , 17-C ) :   1.2554 B(  3-Se,  4-C ) :   1.0371 B(  4-C ,  8-C ) :   1.1395
B(  4-C , 10-C ) :   1.2548 B(  5-Se,  6-C ) :   1.0376 B(  6-C , 18-C ) :   1.2554
B(  7-Se,  8-C ) :   1.0371 B(  8-C ,  9-C ) :   1.2548 B(  9-C , 13-C ) :   1.3800
B(  9-C , 14-H ) :   0.9704 B( 10-C , 11-C ) :   1.3800 B( 10-C , 12-H ) :   0.9704
B( 11-C , 13-C ) :   1.3101 B( 11-C , 15-H ) :   1.0013 B( 13-C , 16-H ) :   1.0013
B( 17-C , 19-C ) :   1.3797 B( 17-C , 20-H ) :   0.9681 B( 18-C , 21-C ) :   1.3797
B( 18-C , 22-H ) :   0.9681 B( 19-C , 21-C ) :   1.3107 B( 19-C , 23-H ) :   1.0000
B( 21-C , 24-H ) :   1.0000

FINAL SINGLE POINT ENERGY    -11627.132919901451

DIPOLE MOMENT
-------------
                                X             Y             Z
Electronic contribution:      0.04775      -0.04705       0.00000
Nuclear contribution   :     -0.06717       0.04596       0.00000
                        -----------------------------------------
Total Dipole Moment    :     -0.01942      -0.00110       0.00000
                        -----------------------------------------
Magnitude (a.u.)       :      0.01945
Magnitude (Debye)      :      0.04943

Rotational constants in cm-1:     0.017607     0.004097     0.003325
Rotational constants in MHz :   527.841420   122.837104    99.666038

                             ****ORCA TERMINATED NORMALLY****
TOTAL RUN TIME: 0 days 17 hours 0 minutes 40 seconds 953 msec
