                         Program Version 5.0.4 -  RELEASE  -
|  1> ! RIJCOSX nofrozencore ReducedPop printbasis
|  2> ! M06L ano-rcc-dzp autoaux
|  3>
|  4> %maxcore 7500
|  5> %basis
|  6> PCDTrimBas overlap
|  7> PCDTrimAuxJ Coulomb
|  8> PCDTrimAuxJK Coulomb
|  9> PCDTrimAuxC Coulomb
| 10> PCDThresh -1
| 11> end
| 12>
| 13> %basis
| 14> newgto Cu "ano-rcc-tzp" end
| 15> newgto Se "ano-rcc-tzp" end
| 16> end
| 17>
| 18> %pal
| 19> nprocs 8
| 20> end
| 21>
| 22> % sym SymThresh 1e-2 end
| 23> * xyz -2 2
| 24> Cu -0.04877069876751959 0.015492126407433545 0.22015903974650683
| 25> Se -0.630223327770651 -2.0183789492544135 -0.41704183807183726
| 26> C -0.46918388011347867 -2.6247232947984944 -1.960298703423485
| 27> Se -0.5847499622690508 0.021284225487958268 2.397847876743794
| 28> C -0.08778997131890849 1.572096066082811 2.666756487603766
| 29> Se 0.4565478682709644 -0.24720843564331926 -2.211175927171337
| 30> C 0.0788227377315254 -1.7164417663759832 -2.8427015628791565
| 31> Se 0.814167832094615 2.3613305159917974 0.1768394814069107
| 32> C 0.4717551979820868 2.514387920631979 1.7876656749557154
| 33> C 0.7828592538922068 3.7525528030915085 2.3490694348338015
| 34> C -0.25444927145388513 2.0089278597928986 3.983526929258858
| 35> C 0.056184514119802215 3.2270311180886235 4.517332813444766
| 36> H -0.686284965128294 1.271272920156679 4.646640672672481
| 37> C 0.610165518018474 4.15986609923599 3.6468519450379926
| 38> H 1.2127177923178412 4.470190532686727 1.6645260834140414
| 39> H -0.12753963106171137 3.43473144250844 5.56627371390543
| 40> H 0.8967092598648255 5.159155417346926 3.9564344437262617
| 41> C -0.8143273944702647 -3.8866619654396892 -2.4188953790653613
| 42> C 0.2552709883591245 -2.125949080938422 -4.1589093425018575
| 43> C -0.639799145500735 -4.294330822187457 -3.7246251672537896
| 44> H -1.2415161911922101 -4.5843498882789 -1.7158289243787757
| 45> C -0.08812547329032372 -3.386018308155722 -4.621819058964621
| 46> H 0.6821539622848035 -1.4296967393931863 -4.862853257595344
| 47> H -0.9275894966724754 -5.294984994370257 -4.031169238790987
| 48> H 0.07474366005702722 -3.6463911906113498 -5.663797490225283
| 49> *
| 50>
| 51> % eprnmr
| 52> gtensor true
| 53> Nuclei = all H {aiso,adip,aorb,fgrad,rho}
| 54> Nuclei = all Cu {aiso,adip,aorb,fgrad,rho}
| 55> end
| 56>
| 57>                          ****END OF INPUT****

CARTESIAN COORDINATES (ANGSTROEM)
---------------------------------
  Cu     0.007174    0.225914    0.000000
  Se    -2.128037   -0.341199    0.000000
  C     -2.707458   -1.903089    0.000000
  Se    -0.078609    2.466958    0.000000
  C      1.558633    2.676088    0.000000
  Se    -0.169441   -2.264980    0.000000
  C     -1.704653   -2.850876    0.000000
  Se     2.502754    0.079024    0.000000
  C      2.597454    1.730225    0.000000
  C      3.889988    2.254029    0.000000
  C      1.967416    4.012268    0.000000
  C      3.239787    4.508543    0.000000
  H      1.155253    4.726921    0.000000
  C      4.268191    3.571954    0.000000
  H      4.681776    1.518193    0.000000
  H      3.416299    5.579064    0.000000
  H      5.317419    3.846999    0.000000
  C     -4.029605   -2.320045    0.000000
  C     -2.084411   -4.187670    0.000000
  C     -4.407851   -3.646135    0.000000
  H     -4.800968   -1.566016    0.000000
  C     -3.404388   -4.609148    0.000000
  H     -1.314538   -4.942540    0.000000
  H     -5.458658   -3.917993    0.000000
  H     -3.637186   -5.670206    0.000000

 Total Charge           Charge          ....   -2
 Multiplicity           Mult            ....    2
 Number of Electrons    NEL             ....  247
 Basis Dimension        Dim             ....  575

ORBITAL ENERGIES
----------------
                 SPIN UP ORBITALS
  NO   OCC          E(Eh)            E(eV)    Irrep
   0   1.0000    -443.564216    -12069.9959    1-A'
   1   1.0000    -443.554642    -12069.7354    2-A'
   2   1.0000    -443.552155    -12069.6678    3-A'
   3   1.0000    -443.539787    -12069.3312    4-A'
   4   1.0000    -318.176982     -8658.0358    5-A'
   5   1.0000     -56.373698     -1534.0063    6-A'
   6   1.0000     -56.364963     -1533.7686    7-A'
   7   1.0000     -56.363120     -1533.7185    8-A'
   8   1.0000     -56.350755     -1533.3820    9-A'
   9   1.0000     -51.292377     -1395.7365   10-A'
  10   1.0000     -51.291683     -1395.7177   11-A'
  11   1.0000     -51.291137     -1395.7028   12-A'
  12   1.0000     -51.290552     -1395.6869    1-A"
  13   1.0000     -51.290200     -1395.6773   13-A'
  14   1.0000     -51.289389     -1395.6552    2-A"
  15   1.0000     -51.284295     -1395.5166   14-A'
  16   1.0000     -51.282715     -1395.4736   15-A'
  17   1.0000     -51.282457     -1395.4666    3-A"
  18   1.0000     -51.278452     -1395.3576   16-A'
  19   1.0000     -51.276947     -1395.3167   17-A'
  20   1.0000     -51.276627     -1395.3080    4-A"
  21   1.0000     -38.014896     -1034.4379   18-A'
  22   1.0000     -33.516090      -912.0192   19-A'
  23   1.0000     -33.515391      -912.0002   20-A'
  24   1.0000     -33.507795      -911.7935    5-A"
  25   1.0000      -9.820826      -267.2383   21-A'
  26   1.0000      -9.820157      -267.2201   22-A'
  27   1.0000      -9.813431      -267.0370   23-A'
  28   1.0000      -9.812870      -267.0218   24-A'
  29   1.0000      -9.811555      -266.9860   25-A'
  30   1.0000      -9.810784      -266.9650   26-A'
  31   1.0000      -9.810466      -266.9563   27-A'
  32   1.0000      -9.809933      -266.9418   28-A'
  33   1.0000      -9.809034      -266.9174   29-A'
  34   1.0000      -9.808590      -266.9053   30-A'
  35   1.0000      -9.801187      -266.7038   31-A'
  36   1.0000      -9.800818      -266.6938   32-A'
  37   1.0000      -7.346122      -199.8982   33-A'
  38   1.0000      -7.340269      -199.7389   34-A'
  39   1.0000      -7.337750      -199.6703   35-A'
  40   1.0000      -7.327492      -199.3912   36-A'
  41   1.0000      -5.409938      -147.2119   37-A'
  42   1.0000      -5.409209      -147.1921   38-A'
  43   1.0000      -5.406088      -147.1071   39-A'
  44   1.0000      -5.405948      -147.1033   40-A'
  45   1.0000      -5.404395      -147.0611    6-A"
  46   1.0000      -5.403632      -147.0403    7-A"
  47   1.0000      -5.403319      -147.0318   41-A'
  48   1.0000      -5.397349      -146.8693   42-A'
  49   1.0000      -5.397313      -146.8683    8-A"
  50   1.0000      -5.396475      -146.8455   43-A'
  51   1.0000      -5.390558      -146.6845   44-A'
  52   1.0000      -5.390549      -146.6843    9-A"
  53   1.0000      -4.010323      -109.1264   45-A'
  54   1.0000      -2.528658       -68.8083   46-A'
  55   1.0000      -2.527057       -68.7647   47-A'
  56   1.0000      -2.509499       -68.2869   10-A"
  57   1.0000      -1.748866       -47.5891   48-A'
  58   1.0000      -1.748525       -47.5798   49-A'
  59   1.0000      -1.747208       -47.5439   50-A'
  60   1.0000      -1.746765       -47.5319   51-A'
  61   1.0000      -1.745371       -47.4940   11-A"
  62   1.0000      -1.744500       -47.4703   12-A"
  63   1.0000      -1.742155       -47.4064   52-A'
  64   1.0000      -1.742098       -47.4049   13-A"
  65   1.0000      -1.742085       -47.4046   53-A'
  66   1.0000      -1.741836       -47.3978   14-A"
  67   1.0000      -1.741604       -47.3915   54-A'
  68   1.0000      -1.739189       -47.3257   55-A'
  69   1.0000      -1.738804       -47.3152   15-A"
  70   1.0000      -1.735198       -47.2171   56-A'
  71   1.0000      -1.733942       -47.1830   57-A'
  72   1.0000      -1.733875       -47.1811   16-A"
  73   1.0000      -1.732275       -47.1376   58-A'
  74   1.0000      -1.731963       -47.1291   17-A"
  75   1.0000      -1.727076       -46.9961   18-A"
  76   1.0000      -1.727058       -46.9956   59-A'
  77   1.0000      -0.609298       -16.5798   60-A'
  78   1.0000      -0.596143       -16.2219   61-A'
  79   1.0000      -0.531318       -14.4579   62-A'
  80   1.0000      -0.513097       -13.9621   63-A'
  81   1.0000      -0.499584       -13.5944   64-A'
  82   1.0000      -0.495176       -13.4744   65-A'
  83   1.0000      -0.410986       -11.1835   66-A'
  84   1.0000      -0.408303       -11.1105   67-A'
  85   1.0000      -0.397510       -10.8168   68-A'
  86   1.0000      -0.368940       -10.0394   69-A'
  87   1.0000      -0.320902        -8.7322   70-A'
  88   1.0000      -0.318257        -8.6602   71-A'
  89   1.0000      -0.290239        -7.8978   72-A'
  90   1.0000      -0.281117        -7.6496   73-A'
  91   1.0000      -0.234478        -6.3805   74-A'
  92   1.0000      -0.222910        -6.0657   75-A'
  93   1.0000      -0.203381        -5.5343   76-A'
  94   1.0000      -0.194919        -5.3040   77-A'
  95   1.0000      -0.174532        -4.7493   78-A'
  96   1.0000      -0.163341        -4.4447   79-A'
  97   1.0000      -0.144979        -3.9451   80-A'
  98   1.0000      -0.140316        -3.8182   81-A'
  99   1.0000      -0.135486        -3.6868   19-A"
 100   1.0000      -0.134039        -3.6474   82-A'
 101   1.0000      -0.124507        -3.3880   20-A"
 102   1.0000      -0.111105        -3.0233   83-A'
 103   1.0000      -0.090091        -2.4515   84-A'
 104   1.0000      -0.077051        -2.0967   85-A'
 105   1.0000      -0.065790        -1.7902   86-A'
 106   1.0000      -0.054871        -1.4931   21-A"
 107   1.0000      -0.053690        -1.4610   87-A'
 108   1.0000      -0.043052        -1.1715   22-A"
 109   1.0000      -0.031337        -0.8527   23-A"
 110   1.0000      -0.029788        -0.8106   88-A'
 111   1.0000      -0.025888        -0.7044   24-A"
 112   1.0000      -0.017056        -0.4641   89-A'
 113   1.0000       0.002202         0.0599   25-A"
 114   1.0000       0.003077         0.0837   90-A'
 115   1.0000       0.004625         0.1258   26-A"
 116   1.0000       0.021812         0.5935   91-A'
 117   1.0000       0.029232         0.7954   92-A'
 118   1.0000       0.056257         1.5308   27-A"
 119   1.0000       0.058157         1.5825   93-A'
 120   1.0000       0.059188         1.6106   28-A"
 121   1.0000       0.066925         1.8211   29-A"
 122   1.0000       0.099201         2.6994   30-A"
 123   1.0000       0.123691         3.3658   94-A'
 124   0.0000       0.179602         4.8872   95-A'
 125   0.0000       0.184341         5.0162   96-A'
 126   0.0000       0.193722         5.2714   97-A'
 127   0.0000       0.198989         5.4148   98-A'
 128   0.0000       0.199052         5.4165   31-A"

                 SPIN DOWN ORBITALS
  NO   OCC          E(Eh)            E(eV)    Irrep
   0   1.0000    -443.563424    -12069.9744    1-A'
   1   1.0000    -443.554403    -12069.7289    2-A'
   2   1.0000    -443.551410    -12069.6475    3-A'
   3   1.0000    -443.539548    -12069.3247    4-A'
   4   1.0000    -318.176874     -8658.0329    5-A'
   5   1.0000     -56.373390     -1533.9979    6-A'
   6   1.0000     -56.364865     -1533.7659    7-A'
   7   1.0000     -56.362825     -1533.7104    8-A'
   8   1.0000     -56.350657     -1533.3793    9-A'
   9   1.0000     -51.291794     -1395.7207   10-A'
  10   1.0000     -51.290704     -1395.6910   11-A'
  11   1.0000     -51.290317     -1395.6805   12-A'
  12   1.0000     -51.290085     -1395.6742    1-A"
  13   1.0000     -51.289057     -1395.6462   13-A'
  14   1.0000     -51.289007     -1395.6448    2-A"
  15   1.0000     -51.284134     -1395.5122   14-A'
  16   1.0000     -51.282343     -1395.4635   15-A'
  17   1.0000     -51.282334     -1395.4632    3-A"
  18   1.0000     -51.278292     -1395.3533   16-A'
  19   1.0000     -51.276521     -1395.3051   17-A'
  20   1.0000     -51.276489     -1395.3042    4-A"
  21   1.0000     -38.004213     -1034.1472   18-A'
  22   1.0000     -33.505904      -911.7420   19-A'
  23   1.0000     -33.505263      -911.7246   20-A'
  24   1.0000     -33.504747      -911.7105    5-A"
  25   1.0000      -9.820782      -267.2371   21-A'
  26   1.0000      -9.820119      -267.2190   22-A'
  27   1.0000      -9.813364      -267.0352   23-A'
  28   1.0000      -9.812737      -267.0182   24-A'
  29   1.0000      -9.811530      -266.9853   25-A'
  30   1.0000      -9.810748      -266.9640   26-A'
  31   1.0000      -9.810490      -266.9570   27-A'
  32   1.0000      -9.809980      -266.9431   28-A'
  33   1.0000      -9.809057      -266.9180   29-A'
  34   1.0000      -9.808626      -266.9063   30-A'
  35   1.0000      -9.801100      -266.7015   31-A'
  36   1.0000      -9.800765      -266.6924   32-A'
  37   1.0000      -7.345442      -199.8796   33-A'
  38   1.0000      -7.339573      -199.7199   34-A'
  39   1.0000      -7.337550      -199.6649   35-A'
  40   1.0000      -7.327276      -199.3853   36-A'
  41   1.0000      -5.409434      -147.1982   37-A'
  42   1.0000      -5.408563      -147.1745   38-A'
  43   1.0000      -5.404654      -147.0681   39-A'
  44   1.0000      -5.404484      -147.0635   40-A'
  45   1.0000      -5.403884      -147.0472    6-A"
  46   1.0000      -5.403130      -147.0266   41-A'
  47   1.0000      -5.403036      -147.0241    7-A"
  48   1.0000      -5.397165      -146.8643    8-A"
  49   1.0000      -5.396953      -146.8586   42-A'
  50   1.0000      -5.396289      -146.8405   43-A'
  51   1.0000      -5.390392      -146.6800    9-A"
  52   1.0000      -5.390095      -146.6719   44-A'
  53   1.0000      -3.989326      -108.5551   45-A'
  54   1.0000      -2.502018       -68.0834   46-A'
  55   1.0000      -2.501464       -68.0683   10-A"
  56   1.0000      -2.501077       -68.0578   47-A'
  57   1.0000      -1.748105       -47.5684   48-A'
  58   1.0000      -1.747565       -47.5537   49-A'
  59   1.0000      -1.745791       -47.5054   50-A'
  60   1.0000      -1.745119       -47.4871   51-A'
  61   1.0000      -1.744900       -47.4811   11-A"
  62   1.0000      -1.743947       -47.4552   12-A"
  63   1.0000      -1.741863       -47.3985   52-A'
  64   1.0000      -1.740838       -47.3706   53-A'
  65   1.0000      -1.740798       -47.3695   13-A"
  66   1.0000      -1.740327       -47.3567   14-A"
  67   1.0000      -1.740115       -47.3509   54-A'
  68   1.0000      -1.738754       -47.3139   55-A'
  69   1.0000      -1.738649       -47.3110   15-A"
  70   1.0000      -1.734974       -47.2110   56-A'
  71   1.0000      -1.733588       -47.1733   57-A'
  72   1.0000      -1.733525       -47.1716   16-A"
  73   1.0000      -1.731823       -47.1253   17-A"
  74   1.0000      -1.731806       -47.1248   58-A'
  75   1.0000      -1.726671       -46.9851   18-A"
  76   1.0000      -1.726626       -46.9839   59-A'
  77   1.0000      -0.607975       -16.5438   60-A'
  78   1.0000      -0.595781       -16.2120   61-A'
  79   1.0000      -0.529426       -14.4064   62-A'
  80   1.0000      -0.512507       -13.9460   63-A'
  81   1.0000      -0.498636       -13.5686   64-A'
  82   1.0000      -0.493417       -13.4266   65-A'
  83   1.0000      -0.409557       -11.1446   66-A'
  84   1.0000      -0.403507       -10.9800   67-A'
  85   1.0000      -0.393976       -10.7206   68-A'
  86   1.0000      -0.367621       -10.0035   69-A'
  87   1.0000      -0.318774        -8.6743   70-A'
  88   1.0000      -0.316392        -8.6095   71-A'
  89   1.0000      -0.286571        -7.7980   72-A'
  90   1.0000      -0.279574        -7.6076   73-A'
  91   1.0000      -0.232569        -6.3285   74-A'
  92   1.0000      -0.222189        -6.0461   75-A'
  93   1.0000      -0.201389        -5.4801   76-A'
  94   1.0000      -0.194299        -5.2871   77-A'
  95   1.0000      -0.172569        -4.6958   78-A'
  96   1.0000      -0.162261        -4.4153   79-A'
  97   1.0000      -0.142936        -3.8895   80-A'
  98   1.0000      -0.137389        -3.7386   81-A'
  99   1.0000      -0.134828        -3.6689   19-A"
 100   1.0000      -0.133262        -3.6263   82-A'
 101   1.0000      -0.124317        -3.3828   20-A"
 102   1.0000      -0.109387        -2.9766   83-A'
 103   1.0000      -0.087211        -2.3731   84-A'
 104   1.0000      -0.072154        -1.9634   85-A'
 105   1.0000      -0.063740        -1.7345   86-A'
 106   1.0000      -0.053523        -1.4564   21-A"
 107   1.0000      -0.050187        -1.3657   87-A'
 108   1.0000      -0.042445        -1.1550   22-A"
 109   1.0000      -0.029743        -0.8093   23-A"
 110   1.0000      -0.024845        -0.6761   24-A"
 111   1.0000      -0.019465        -0.5297   88-A'
 112   1.0000      -0.001356        -0.0369   89-A'
 113   1.0000       0.010010         0.2724   25-A"
 114   1.0000       0.011323         0.3081   90-A'
 115   1.0000       0.012320         0.3352   26-A"
 116   1.0000       0.033435         0.9098   91-A'
 117   1.0000       0.038358         1.0438   92-A'
 118   1.0000       0.059277         1.6130   27-A"
 119   1.0000       0.062118         1.6903   28-A"
 120   1.0000       0.069624         1.8946   29-A"
 121   1.0000       0.071435         1.9439   93-A'
 122   1.0000       0.101821         2.7707   30-A"
 123   0.0000       0.151943         4.1346   94-A'
 124   0.0000       0.182474         4.9654   95-A'
 125   0.0000       0.185648         5.0517   96-A'
 126   0.0000       0.198265         5.3951   97-A'
 127   0.0000       0.199069         5.4169   31-A"

MULLIKEN ATOMIC CHARGES AND SPIN POPULATIONS
--------------------------------------------
   0 Cu:    0.697070    0.242738
   1 Se:   -0.774634    0.258931
   2 C :    0.247321    0.000737
   3 Se:   -0.809017    0.098542
   4 C :    0.178633   -0.003640
   5 Se:   -0.660069    0.313294
   6 C :    0.284674   -0.007648
   7 Se:   -0.790125    0.096767
   8 C :    0.215730   -0.001777
   9 C :   -0.070290   -0.001223
  10 C :   -0.063269   -0.000057
  11 C :   -0.160535   -0.000431
  12 H :    0.093558    0.001917
  13 C :   -0.160767   -0.000475
  14 H :    0.103709    0.002522
  15 H :    0.018374    0.001044
  16 H :    0.018498    0.000558
  17 C :   -0.141941   -0.005226
  18 C :   -0.139327   -0.004827
  19 C :   -0.152668   -0.002167
  20 H :    0.080130    0.003605
  21 C :   -0.149410   -0.001573
  22 H :    0.084428    0.004065
  23 H :    0.023962    0.002278
  24 H :    0.025966    0.002044
Sum of atomic charges         :   -2.0000000

LOEWDIN ATOMIC CHARGES AND SPIN POPULATIONS
-------------------------------------------
   0 Cu:   -0.609617    0.302977
   1 Se:   -0.277133    0.198080
   2 C :    0.079868    0.015631
   3 Se:   -0.178212    0.057560
   4 C :    0.067344    0.005637
   5 Se:   -0.242082    0.262534
   6 C :    0.050496    0.019131
   7 Se:   -0.193722    0.072213
   8 C :    0.042263    0.004378
   9 C :    0.364127    0.003863
  10 C :    0.367645    0.004933
  11 C :    0.318586    0.000465
  12 H :   -0.480930    0.006764
  13 C :    0.320989    0.000086
  14 H :   -0.481744    0.007724
  15 H :   -0.410161    0.000211
  16 H :   -0.410529    0.000048
  17 C :    0.370814    0.005541
  18 C :    0.373847    0.008264
  19 C :    0.317042   -0.000388
  20 H :   -0.437991    0.009716
  21 C :    0.320151   -0.000201
  22 H :   -0.442878    0.013941
  23 H :   -0.413798    0.000444
  24 H :   -0.414378    0.000449

  Mayer bond orders larger than 0.100000
B(  0-Cu,  1-Se) :   0.5069 B(  0-Cu,  3-Se) :   0.6186 B(  0-Cu,  5-Se) :   0.3988
B(  0-Cu,  7-Se) :   0.5246 B(  1-Se,  2-C ) :   1.0074 B(  1-Se,  5-Se) :   0.2163
B(  2-C ,  6-C ) :   1.1175 B(  2-C , 17-C ) :   1.2723 B(  3-Se,  4-C ) :   1.0200
B(  4-C ,  8-C ) :   1.1574 B(  4-C , 10-C ) :   1.2496 B(  5-Se,  6-C ) :   1.0414
B(  6-C , 18-C ) :   1.2605 B(  7-Se,  8-C ) :   1.0142 B(  8-C ,  9-C ) :   1.2505
B(  9-C , 13-C ) :   1.3901 B(  9-C , 14-H ) :   0.9569 B( 10-C , 11-C ) :   1.3889
B( 10-C , 12-H ) :   0.9560 B( 11-C , 13-C ) :   1.2983 B( 11-C , 15-H ) :   0.9968
B( 13-C , 16-H ) :   0.9969 B( 17-C , 19-C ) :   1.3757 B( 17-C , 20-H ) :   0.9653
B( 18-C , 21-C ) :   1.3775 B( 18-C , 22-H ) :   0.9664 B( 19-C , 21-C ) :   1.3205
B( 19-C , 23-H ) :   0.9937 B( 21-C , 24-H ) :   0.9925

FINAL SINGLE POINT ENERGY    -11627.102390690061

DIPOLE MOMENT
-------------
                                X             Y             Z
Electronic contribution:      1.71756       0.92704      -0.00000
Nuclear contribution   :     -1.94129      -0.95226       0.00000
                        -----------------------------------------
Total Dipole Moment    :     -0.22372      -0.02522      -0.00000
                        -----------------------------------------
Magnitude (a.u.)       :      0.22514
Magnitude (Debye)      :      0.57226

Rotational constants in cm-1:     0.017778     0.004097     0.003330
Rotational constants in MHz :   532.962506   122.830456    99.824230

                             ****ORCA TERMINATED NORMALLY****
TOTAL RUN TIME: 0 days 17 hours 8 minutes 7 seconds 607 msec
