                         Program Version 5.0.4 -  RELEASE  -
|  1> ! RIJCOSX nofrozencore ReducedPop printbasis
|  2> ! M06L ano-rcc-dzp autoaux
|  3>
|  4> %maxcore 7500
|  5> %basis
|  6> PCDTrimBas overlap
|  7> PCDTrimAuxJ Coulomb
|  8> PCDTrimAuxJK Coulomb
|  9> PCDTrimAuxC Coulomb
| 10> PCDThresh -1
| 11> end
| 12>
| 13> %basis
| 14> newgto Cu "ano-rcc-tzp" end
| 15> newgto Se "ano-rcc-tzp" end
| 16> end
| 17>
| 18> %pal
| 19> nprocs 8
| 20> end
| 21>
| 22> % sym SymThresh 1e-2 end
| 23> * xyz -2 2
| 24> Cu -3.514629322046437e-05 3.119500581537408e-05 0.00015723107099120044
| 25> Se 0.3886175667415965 -0.3210405027707228 -2.3157902022950094
| 26> C -0.5987222317650682 0.7672836213069679 -3.021709170768974
| 27> Se 1.5210919255083875 -1.6618630835104382 0.7297558088253666
| 28> C 1.4315433473410966 -1.6333119263381946 2.3611531673957247
| 29> Se -1.5203093412475674 1.660900031617449 -0.7267693676446085
| 30> C -1.443366478932832 1.6462970811469366 -2.368464808932173
| 31> Se -0.3906653180652544 0.32334608593591435 2.3131567244073405
| 32> C 0.5950462951980026 -0.7651189908842694 3.064689561059059
| 33> C 0.6114035086437355 -0.8398646790476384 4.446989123269174
| 34> C 2.2001209442930487 -2.48959915106024 3.1305801882595494
| 35> C 2.2301705573363244 -2.5782230852666457 4.493316963525312
| 36> H 2.858318724477161 -3.1743224407759794 2.615320664138392
| 37> C 1.376446027666969 -1.691681053287369 5.20001217845385
| 38> H -0.04121832065022771 -0.16178056305875477 4.978147331106138
| 39> H 2.936950407290381 -3.350373164314128 4.831445469041911
| 40> H 1.223563936113716 -1.5722679595474531 6.277409304610573
| 41> C -0.5672301354252852 0.7929814454145175 -4.459102968926342
| 42> C -2.175512304253277 2.465109214571937 -3.1766798475987663
| 43> C -1.3929035076112166 1.709081387301107 -5.193885952527961
| 44> H 0.12350770834929506 0.07000230336786892 -4.893397369093021
| 45> C -2.242107218519672 2.5908011544318152 -4.487847804918161
| 46> H -2.8499356997481895 3.1692589516200584 -2.7102684571351823
| 47> H -1.4577912469196679 1.824031283578415 -6.289713387327016
| 48> H -2.9886208586994027 3.4010213071450064 -4.7159683757464395
| 49> *
| 50>
| 51> % eprnmr
| 52> gtensor true
| 53> Nuclei = all H {aiso,adip,aorb,fgrad,rho}
| 54> Nuclei = all Cu {aiso,adip,aorb,fgrad,rho}
| 55> end
| 56>
| 57>                          ****END OF INPUT****

CARTESIAN COORDINATES (ANGSTROEM)
---------------------------------
  Cu     0.000045    0.000158    0.000000
  Se    -0.469328   -2.323081    0.000000
  C      1.009144   -3.009908    0.000000
  Se    -2.262196    0.700373    0.000000
  C     -2.201708    2.333356    0.000000
  Se     2.260919   -0.697403    0.000000
  C      2.219363   -2.340440    0.000000
  Se     0.472445    2.320487    0.000000
  C     -1.005620    3.052956    0.000000
  C     -1.089616    4.434821    0.000000
  C     -3.362146    3.087902    0.000000
  C     -3.465372    4.449942    0.000000
  H     -4.304952    2.560000    0.000000
  C     -2.244159    5.173032    0.000000
  H     -0.155678    4.978512    0.000000
  H     -4.516466    4.774419    0.000000
  H     -2.066748    6.253283    0.000000
  C      1.025367   -4.447785    0.000000
  C      3.328062   -3.134473    0.000000
  C      2.268026   -5.166590    0.000000
  H      0.031330   -4.895356    0.000000
  C      3.482638   -4.444244    0.000000
  H      4.296781   -2.655102    0.000000
  H      2.410751   -6.261072    0.000000
  H      4.587222   -4.657956    0.000000

 Total Charge           Charge          ....   -2
 Multiplicity           Mult            ....    2
 Number of Electrons    NEL             ....  247
 Basis Dimension        Dim             ....  575

ORBITAL ENERGIES
----------------
                 SPIN UP ORBITALS
  NO   OCC          E(Eh)            E(eV)    Irrep
   0   1.0000    -443.561602    -12069.9248    1-A'
   1   1.0000    -443.560479    -12069.8943    2-A'
   2   1.0000    -443.547374    -12069.5376    3-A'
   3   1.0000    -443.546453    -12069.5126    4-A'
   4   1.0000    -318.187471     -8658.3213    5-A'
   5   1.0000     -56.370379     -1533.9160    6-A'
   6   1.0000     -56.369896     -1533.9028    7-A'
   7   1.0000     -56.357678     -1533.5704    8-A'
   8   1.0000     -56.356956     -1533.5507    9-A'
   9   1.0000     -51.287458     -1395.6027   10-A'
  10   1.0000     -51.287261     -1395.5973   11-A'
  11   1.0000     -51.286201     -1395.5685   12-A'
  12   1.0000     -51.286075     -1395.5650   13-A'
  13   1.0000     -51.285937     -1395.5613   14-A'
  14   1.0000     -51.285760     -1395.5565    1-A"
  15   1.0000     -51.285557     -1395.5509   15-A'
  16   1.0000     -51.285516     -1395.5498    2-A"
  17   1.0000     -51.284668     -1395.5268   16-A'
  18   1.0000     -51.284235     -1395.5150    3-A"
  19   1.0000     -51.284206     -1395.5142   17-A'
  20   1.0000     -51.283756     -1395.5019    4-A"
  21   1.0000     -38.028010     -1034.7947   18-A'
  22   1.0000     -33.530090      -912.4001   19-A'
  23   1.0000     -33.529263      -912.3776   20-A'
  24   1.0000     -33.518064      -912.0729    5-A"
  25   1.0000      -9.830177      -267.4927   21-A'
  26   1.0000      -9.822329      -267.2792   22-A'
  27   1.0000      -9.821726      -267.2628   23-A'
  28   1.0000      -9.821270      -267.2504   24-A'
  29   1.0000      -9.815516      -267.0938   25-A'
  30   1.0000      -9.812226      -267.0042   26-A'
  31   1.0000      -9.808212      -266.8950   27-A'
  32   1.0000      -9.807722      -266.8817   28-A'
  33   1.0000      -9.806344      -266.8442   29-A'
  34   1.0000      -9.805317      -266.8162   30-A'
  35   1.0000      -9.805042      -266.8088   31-A'
  36   1.0000      -9.795959      -266.5616   32-A'
  37   1.0000      -7.341740      -199.7789   33-A'
  38   1.0000      -7.341345      -199.7681   34-A'
  39   1.0000      -7.334431      -199.5800   35-A'
  40   1.0000      -7.333895      -199.5654   36-A'
  41   1.0000      -5.405488      -147.0908   37-A'
  42   1.0000      -5.404922      -147.0754   38-A'
  43   1.0000      -5.403866      -147.0467   39-A'
  44   1.0000      -5.403691      -147.0419   40-A'
  45   1.0000      -5.400302      -146.9497   41-A'
  46   1.0000      -5.399943      -146.9399    6-A"
  47   1.0000      -5.399650      -146.9319   42-A'
  48   1.0000      -5.399326      -146.9231    7-A"
  49   1.0000      -5.398432      -146.8988   43-A'
  50   1.0000      -5.398378      -146.8973   44-A'
  51   1.0000      -5.398037      -146.8881    8-A"
  52   1.0000      -5.397962      -146.8860    9-A"
  53   1.0000      -4.022281      -109.4518   45-A'
  54   1.0000      -2.541889       -69.1683   46-A'
  55   1.0000      -2.540890       -69.1411   47-A'
  56   1.0000      -2.517310       -68.4995   10-A"
  57   1.0000      -1.744652       -47.4744   48-A'
  58   1.0000      -1.743995       -47.4565   49-A'
  59   1.0000      -1.742744       -47.4225   50-A'
  60   1.0000      -1.742526       -47.4165   51-A'
  61   1.0000      -1.741887       -47.3991   52-A'
  62   1.0000      -1.741230       -47.3813   53-A'
  63   1.0000      -1.741146       -47.3790   11-A"
  64   1.0000      -1.740538       -47.3624   12-A"
  65   1.0000      -1.740091       -47.3503   54-A'
  66   1.0000      -1.739981       -47.3473   55-A'
  67   1.0000      -1.739344       -47.3299   13-A"
  68   1.0000      -1.739215       -47.3264   14-A"
  69   1.0000      -1.736874       -47.2627   56-A'
  70   1.0000      -1.736820       -47.2613   15-A"
  71   1.0000      -1.736213       -47.2447   57-A'
  72   1.0000      -1.736149       -47.2430   16-A"
  73   1.0000      -1.734912       -47.2093   58-A'
  74   1.0000      -1.734871       -47.2082   59-A'
  75   1.0000      -1.734849       -47.2076   17-A"
  76   1.0000      -1.734816       -47.2067   18-A"
  77   1.0000      -0.602978       -16.4079   60-A'
  78   1.0000      -0.602591       -16.3973   61-A'
  79   1.0000      -0.524299       -14.2669   62-A'
  80   1.0000      -0.518466       -14.1082   63-A'
  81   1.0000      -0.502536       -13.6747   64-A'
  82   1.0000      -0.496829       -13.5194   65-A'
  83   1.0000      -0.418079       -11.3765   66-A'
  84   1.0000      -0.415305       -11.3010   67-A'
  85   1.0000      -0.379586       -10.3291   68-A'
  86   1.0000      -0.374099       -10.1797   69-A'
  87   1.0000      -0.323817        -8.8115   70-A'
  88   1.0000      -0.319232        -8.6867   71-A'
  89   1.0000      -0.290091        -7.8938   72-A'
  90   1.0000      -0.283388        -7.7114   73-A'
  91   1.0000      -0.226941        -6.1754   74-A'
  92   1.0000      -0.220857        -6.0098   75-A'
  93   1.0000      -0.200014        -5.4427   76-A'
  94   1.0000      -0.197575        -5.3763   77-A'
  95   1.0000      -0.168047        -4.5728   78-A'
  96   1.0000      -0.163282        -4.4431   79-A'
  97   1.0000      -0.140545        -3.8244   80-A'
  98   1.0000      -0.137827        -3.7505   81-A'
  99   1.0000      -0.134161        -3.6507   82-A'
 100   1.0000      -0.130886        -3.5616   19-A"
 101   1.0000      -0.130445        -3.5496   20-A"
 102   1.0000      -0.109848        -2.9891   83-A'
 103   1.0000      -0.081217        -2.2100   84-A'
 104   1.0000      -0.069584        -1.8935   85-A'
 105   1.0000      -0.064878        -1.7654   86-A'
 106   1.0000      -0.061212        -1.6657   87-A'
 107   1.0000      -0.049741        -1.3535   21-A"
 108   1.0000      -0.046535        -1.2663   22-A"
 109   1.0000      -0.034057        -0.9268   23-A"
 110   1.0000      -0.031407        -0.8546   88-A'
 111   1.0000      -0.028060        -0.7636   89-A'
 112   1.0000      -0.027565        -0.7501   24-A"
 113   1.0000      -0.002777        -0.0756   25-A"
 114   1.0000      -0.001077        -0.0293   26-A"
 115   1.0000       0.000308         0.0084   90-A'
 116   1.0000       0.019006         0.5172   91-A'
 117   1.0000       0.021067         0.5733   92-A'
 118   1.0000       0.040591         1.1045   93-A'
 119   1.0000       0.052700         1.4340   27-A"
 120   1.0000       0.054125         1.4728   28-A"
 121   1.0000       0.070913         1.9296   29-A"
 122   1.0000       0.099828         2.7165   30-A"
 123   1.0000       0.115797         3.1510   94-A'
 124   0.0000       0.181877         4.9491   95-A'
 125   0.0000       0.183002         4.9797   96-A'
 126   0.0000       0.194428         5.2907   97-A'
 127   0.0000       0.196014         5.3338   98-A'
 128   0.0000       0.199620         5.4319   31-A"

                 SPIN DOWN ORBITALS
  NO   OCC          E(Eh)            E(eV)    Irrep
   0   1.0000    -443.561150    -12069.9125    1-A'
   1   1.0000    -443.560026    -12069.8819    2-A'
   2   1.0000    -443.546923    -12069.5254    3-A'
   3   1.0000    -443.546001    -12069.5003    4-A'
   4   1.0000    -318.187348     -8658.3179    5-A'
   5   1.0000     -56.370196     -1533.9110    6-A'
   6   1.0000     -56.369712     -1533.8978    7-A'
   7   1.0000     -56.357498     -1533.5655    8-A'
   8   1.0000     -56.356775     -1533.5458    9-A'
   9   1.0000     -51.287124     -1395.5936   10-A'
  10   1.0000     -51.286932     -1395.5884   11-A'
  11   1.0000     -51.285759     -1395.5565   12-A'
  12   1.0000     -51.285507     -1395.5496    1-A"
  13   1.0000     -51.285463     -1395.5484   13-A'
  14   1.0000     -51.285262     -1395.5429    2-A"
  15   1.0000     -51.285241     -1395.5424   14-A'
  16   1.0000     -51.285193     -1395.5411   15-A'
  17   1.0000     -51.283988     -1395.5083    3-A"
  18   1.0000     -51.283945     -1395.5071   16-A'
  19   1.0000     -51.283508     -1395.4952    4-A"
  20   1.0000     -51.283478     -1395.4944   17-A'
  21   1.0000     -38.014096     -1034.4161   18-A'
  22   1.0000     -33.516869      -912.0404   19-A'
  23   1.0000     -33.516044      -912.0179   20-A'
  24   1.0000     -33.514177      -911.9671    5-A"
  25   1.0000      -9.830112      -267.4909   21-A'
  26   1.0000      -9.822188      -267.2753   22-A'
  27   1.0000      -9.821678      -267.2614   23-A'
  28   1.0000      -9.821220      -267.2490   24-A'
  29   1.0000      -9.815475      -267.0927   25-A'
  30   1.0000      -9.812239      -267.0046   26-A'
  31   1.0000      -9.808226      -266.8954   27-A'
  32   1.0000      -9.807739      -266.8822   28-A'
  33   1.0000      -9.806233      -266.8412   29-A'
  34   1.0000      -9.805347      -266.8170   30-A'
  35   1.0000      -9.804921      -266.8055   31-A'
  36   1.0000      -9.795847      -266.5586   32-A'
  37   1.0000      -7.341340      -199.7680   33-A'
  38   1.0000      -7.340944      -199.7572   34-A'
  39   1.0000      -7.334027      -199.5690   35-A'
  40   1.0000      -7.333489      -199.5544   36-A'
  41   1.0000      -5.405112      -147.0806   37-A'
  42   1.0000      -5.404554      -147.0654   38-A'
  43   1.0000      -5.403512      -147.0370   39-A'
  44   1.0000      -5.403330      -147.0321   40-A'
  45   1.0000      -5.399630      -146.9314    6-A"
  46   1.0000      -5.399478      -146.9273   41-A'
  47   1.0000      -5.399008      -146.9145    7-A"
  48   1.0000      -5.398819      -146.9093   42-A'
  49   1.0000      -5.397726      -146.8796    8-A"
  50   1.0000      -5.397653      -146.8776    9-A"
  51   1.0000      -5.397617      -146.8766   43-A'
  52   1.0000      -5.397561      -146.8751   44-A'
  53   1.0000      -3.993993      -108.6821   45-A'
  54   1.0000      -2.506964       -68.2180   10-A"
  55   1.0000      -2.506577       -68.2074   46-A'
  56   1.0000      -2.505505       -68.1783   47-A'
  57   1.0000      -1.744193       -47.4619   48-A'
  58   1.0000      -1.743543       -47.4442   49-A'
  59   1.0000      -1.742306       -47.4106   50-A'
  60   1.0000      -1.742077       -47.4043   51-A'
  61   1.0000      -1.740983       -47.3745   52-A'
  62   1.0000      -1.740832       -47.3704   11-A"
  63   1.0000      -1.740325       -47.3567   53-A'
  64   1.0000      -1.740225       -47.3539   12-A"
  65   1.0000      -1.739207       -47.3262   54-A'
  66   1.0000      -1.739095       -47.3232   55-A'
  67   1.0000      -1.739043       -47.3218   13-A"
  68   1.0000      -1.738910       -47.3181   14-A"
  69   1.0000      -1.736073       -47.2409   56-A'
  70   1.0000      -1.736051       -47.2404   15-A"
  71   1.0000      -1.735401       -47.2227   57-A'
  72   1.0000      -1.735369       -47.2218   16-A"
  73   1.0000      -1.734118       -47.1878   58-A'
  74   1.0000      -1.734082       -47.1868   17-A"
  75   1.0000      -1.734080       -47.1867   59-A'
  76   1.0000      -1.734055       -47.1860   18-A"
  77   1.0000      -0.602180       -16.3862   60-A'
  78   1.0000      -0.601803       -16.3759   61-A'
  79   1.0000      -0.523112       -14.2346   62-A'
  80   1.0000      -0.517271       -14.0757   63-A'
  81   1.0000      -0.501016       -13.6334   64-A'
  82   1.0000      -0.495152       -13.4738   65-A'
  83   1.0000      -0.415355       -11.3024   66-A'
  84   1.0000      -0.412690       -11.2299   67-A'
  85   1.0000      -0.377002       -10.2587   68-A'
  86   1.0000      -0.371622       -10.1124   69-A'
  87   1.0000      -0.321993        -8.7619   70-A'
  88   1.0000      -0.317607        -8.6425   71-A'
  89   1.0000      -0.287484        -7.8228   72-A'
  90   1.0000      -0.280770        -7.6401   73-A'
  91   1.0000      -0.225858        -6.1459   74-A'
  92   1.0000      -0.219792        -5.9809   75-A'
  93   1.0000      -0.198545        -5.4027   76-A'
  94   1.0000      -0.196261        -5.3405   77-A'
  95   1.0000      -0.166734        -4.5371   78-A'
  96   1.0000      -0.161541        -4.3958   79-A'
  97   1.0000      -0.139462        -3.7950   80-A'
  98   1.0000      -0.136019        -3.7013   81-A'
  99   1.0000      -0.132028        -3.5927   82-A'
 100   1.0000      -0.130517        -3.5515   19-A"
 101   1.0000      -0.130068        -3.5393   20-A"
 102   1.0000      -0.108026        -2.9395   83-A'
 103   1.0000      -0.079725        -2.1694   84-A'
 104   1.0000      -0.068125        -1.8538   85-A'
 105   1.0000      -0.059577        -1.6212   86-A'
 106   1.0000      -0.053037        -1.4432   87-A'
 107   1.0000      -0.048818        -1.3284   21-A"
 108   1.0000      -0.045649        -1.2422   22-A"
 109   1.0000      -0.031903        -0.8681   23-A"
 110   1.0000      -0.026466        -0.7202   24-A"
 111   1.0000      -0.022904        -0.6232   88-A'
 112   1.0000      -0.002435        -0.0663   89-A'
 113   1.0000       0.006847         0.1863   25-A"
 114   1.0000       0.010074         0.2741   26-A"
 115   1.0000       0.010704         0.2913   90-A'
 116   1.0000       0.029199         0.7945   91-A'
 117   1.0000       0.031807         0.8655   92-A'
 118   1.0000       0.051834         1.4105   93-A'
 119   1.0000       0.054630         1.4865   27-A"
 120   1.0000       0.057816         1.5733   28-A"
 121   1.0000       0.072617         1.9760   29-A"
 122   1.0000       0.103062         2.8045   30-A"
 123   0.0000       0.145632         3.9628   94-A'
 124   0.0000       0.183874         5.0035   95-A'
 125   0.0000       0.185203         5.0396   96-A'
 126   0.0000       0.198083         5.3901   97-A'
 127   0.0000       0.199098         5.4177   98-A'

MULLIKEN ATOMIC CHARGES AND SPIN POPULATIONS
--------------------------------------------
   0 Cu:    0.637183    0.310849
   1 Se:   -0.682972    0.175194
   2 C :    0.250853   -0.003565
   3 Se:   -0.733055    0.174025
   4 C :    0.205780   -0.003392
   5 Se:   -0.774825    0.170771
   6 C :    0.194358   -0.003828
   7 Se:   -0.743514    0.172914
   8 C :    0.222058   -0.003045
   9 C :   -0.058028   -0.001468
  10 C :   -0.043121   -0.001459
  11 C :   -0.190208   -0.001013
  12 H :    0.091110    0.002926
  13 C :   -0.195007   -0.001144
  14 H :    0.090350    0.002939
  15 H :    0.015343    0.001998
  16 H :    0.019483    0.001805
  17 C :   -0.169599   -0.000569
  18 C :    0.019530   -0.001204
  19 C :   -0.205489   -0.000166
  20 H :    0.088076    0.002389
  21 C :   -0.143560   -0.001443
  22 H :    0.089638    0.002654
  23 H :    0.020510    0.001668
  24 H :   -0.004894    0.002165
Sum of atomic charges         :   -2.0000000

LOEWDIN ATOMIC CHARGES AND SPIN POPULATIONS
-------------------------------------------
   0 Cu:   -0.616853    0.390801
   1 Se:   -0.207955    0.122860
   2 C :    0.049152    0.010764
   3 Se:   -0.201426    0.124821
   4 C :    0.035373    0.012145
   5 Se:   -0.197966    0.122383
   6 C :    0.032020    0.012460
   7 Se:   -0.202886    0.122530
   8 C :    0.047094    0.011454
   9 C :    0.360411    0.006874
  10 C :    0.358773    0.007037
  11 C :    0.323503    0.000449
  12 H :   -0.455080    0.009084
  13 C :    0.323692    0.000316
  14 H :   -0.455878    0.009604
  15 H :   -0.407503    0.000429
  16 H :   -0.414592    0.000342
  17 C :    0.397038    0.007993
  18 C :    0.331687    0.006238
  19 C :    0.324729    0.000790
  20 H :   -0.469212    0.011219
  21 C :    0.303208    0.000206
  22 H :   -0.459349    0.008239
  23 H :   -0.429861    0.000546
  24 H :   -0.368119    0.000417

  Mayer bond orders larger than 0.100000
B(  0-Cu,  1-Se) :   0.5486 B(  0-Cu,  3-Se) :   0.5496 B(  0-Cu,  5-Se) :   0.5552
B(  0-Cu,  7-Se) :   0.5519 B(  1-Se,  2-C ) :   1.0485 B(  2-C ,  6-C ) :   1.1393
B(  2-C , 17-C ) :   1.2537 B(  3-Se,  4-C ) :   1.0450 B(  4-C ,  8-C ) :   1.1430
B(  4-C , 10-C ) :   1.2424 B(  5-Se,  6-C ) :   1.0287 B(  6-C , 18-C ) :   1.2292
B(  7-Se,  8-C ) :   1.0263 B(  8-C ,  9-C ) :   1.2506 B(  9-C , 13-C ) :   1.3889
B(  9-C , 14-H ) :   0.9580 B( 10-C , 11-C ) :   1.3840 B( 10-C , 12-H ) :   0.9573
B( 11-C , 13-C ) :   1.3041 B( 11-C , 15-H ) :   0.9976 B( 13-C , 16-H ) :   0.9976
B( 17-C , 19-C ) :   1.4137 B( 17-C , 20-H ) :   0.9640 B( 18-C , 21-C ) :   1.3560
B( 18-C , 22-H ) :   0.9517 B( 19-C , 21-C ) :   1.2979 B( 19-C , 23-H ) :   0.9985
B( 21-C , 24-H ) :   0.9998

FINAL SINGLE POINT ENERGY    -11627.109942600608

DIPOLE MOMENT
-------------
                                X             Y             Z
Electronic contribution:     -0.30097      -0.05244      -0.00000
Nuclear contribution   :      0.24563       0.08605       0.00000
                        -----------------------------------------
Total Dipole Moment    :     -0.05534       0.03361      -0.00000
                        -----------------------------------------
Magnitude (a.u.)       :      0.06475
Magnitude (Debye)      :      0.16459

Rotational constants in cm-1:     0.017557     0.004100     0.003324
Rotational constants in MHz :   526.349605   122.904844    99.638772

                             ****ORCA TERMINATED NORMALLY****
TOTAL RUN TIME: 0 days 16 hours 21 minutes 6 seconds 945 msec
