                         Program Version 5.0.4 -  RELEASE  -
|  1> ! RIJCOSX nofrozencore ReducedPop printbasis
|  2> ! M06L ano-rcc-dzp autoaux
|  3>
|  4> %maxcore 7500
|  5> %basis
|  6> PCDTrimBas overlap
|  7> PCDTrimAuxJ Coulomb
|  8> PCDTrimAuxJK Coulomb
|  9> PCDTrimAuxC Coulomb
| 10> PCDThresh -1
| 11> end
| 12>
| 13> %basis
| 14> newgto Cu "ano-rcc-tzp" end
| 15> newgto Se "ano-rcc-tzp" end
| 16> end
| 17>
| 18> %pal
| 19> nprocs 8
| 20> end
| 21>
| 22> % sym SymThresh 1e-2 end
| 23> * xyz -2 2
| 24> Cu 0.0003305842363921777 -0.00024305676514485404 0.0002515203203844971
| 25> Se -0.3512854052901738 -1.6809894124011735 1.6296875855437065
| 26> C -2.008781663367587 -1.8122443319261328 1.6890572564613535
| 27> Se 2.3655645892681116 -0.03393392607638267 0.13170079566134926
| 28> C 2.7572570852192646 1.0763657886794915 -0.9380649880869351
| 29> Se -2.3641960129922395 0.03558137215553901 -0.13325530953822257
| 30> C -2.850493144947164 -1.0857367717190458 0.9433489778000131
| 31> Se 0.3479497728212613 1.6797239199061622 -1.6285886047534255
| 32> C 2.039364497217721 1.8737413318241307 -1.747939063271613
| 33> C 2.5947111543882544 2.751022834645348 -2.5829553994287338
| 34> C 4.263703648047213 1.349530326208973 -1.142538319367973
| 35> C 4.810868793376935 2.2241287514787205 -1.975270809459468
| 36> H 5.008477301240715 0.7989372662909057 -0.5729433765016727
| 37> C 3.867158334532459 3.00900399157868 -2.7823208377684816
| 38> H 1.4506275471211394 3.0540835020525434 -2.9270464006164607
| 39> H 5.886517507459896 2.367650584974266 -2.070869153790059
| 40> H 4.29280468773967 3.736041472491268 -3.475771971783475
| 41> C -2.5922513624394443 -2.782261626457837 2.613615096665734
| 42> C -4.221669427024793 -1.3448274249133725 1.1396884149060322
| 43> C -3.8651814639128843 -3.0132989441288762 2.786604410009617
| 44> H -1.8421280916893217 -3.3266578272703926 3.177371144668763
| 45> C -4.7796857585030095 -2.2346167116819404 1.986828486164898
| 46> H -4.736703307153753 -0.6594160708459125 0.4477833185613681
| 47> H -4.251916732917435 -3.749602546752135 3.49073985123736
| 48> H -5.853146668170201 -2.364383649896174 2.06906312574574
| 49> *
| 50>
| 51> % eprnmr
| 52> gtensor true
| 53> Nuclei = all H {aiso,adip,aorb,fgrad,rho}
| 54> Nuclei = all Cu {aiso,adip,aorb,fgrad,rho}
| 55> end
| 56>
| 57>                          ****END OF INPUT****

CARTESIAN COORDINATES (ANGSTROEM)
---------------------------------
  Cu     0.000336   -0.000345    0.000000
  Se    -0.317342   -2.346125    0.000000
  C     -1.973428   -2.505580    0.000000
  Se     2.368055   -0.081909    0.000000
  C      2.737449    1.465390    0.000000
  Se    -2.366719    0.084194    0.000000
  C     -2.830565   -1.477140    0.000000
  Se     0.314030    2.344403    0.000000
  C      2.002783    2.591151    0.000000
  C      2.540698    3.810140    0.000000
  C      4.239482    1.825536    0.000000
  C      4.769265    3.040891    0.000000
  H      4.996028    1.044564    0.000000
  C      3.808863    4.152456    0.000000
  H      1.389576    4.250697    0.000000
  H      5.842811    3.225976    0.000000
  H      4.220037    5.163183    0.000000
  C     -2.537601   -3.853870    0.000000
  C     -4.197512   -1.819571    0.000000
  C     -3.806797   -4.158492    0.000000
  H     -1.775828   -4.626253    0.000000
  C     -4.737844   -3.056015    0.000000
  H     -4.726887   -0.853370    0.000000
  H     -4.178842   -5.182747    0.000000
  H     -5.809481   -3.221892    0.000000

 Total Charge           Charge          ....   -2
 Multiplicity           Mult            ....    2
 Number of Electrons    NEL             ....  247
 Basis Dimension        Dim             ....  575

ORBITAL ENERGIES
----------------
                 SPIN UP ORBITALS
  NO   OCC          E(Eh)            E(eV)    Irrep
   0   1.0000    -443.571095    -12070.1831    1-A'
   1   1.0000    -443.560594    -12069.8974    2-A'
   2   1.0000    -443.545584    -12069.4889    3-A'
   3   1.0000    -443.536538    -12069.2428    4-A'
   4   1.0000    -318.188313     -8658.3442    5-A'
   5   1.0000     -56.377666     -1534.1143    6-A'
   6   1.0000     -56.369636     -1533.8958    7-A'
   7   1.0000     -56.356469     -1533.5375    8-A'
   8   1.0000     -56.350392     -1533.3721    9-A'
   9   1.0000     -51.296312     -1395.8436   10-A'
  10   1.0000     -51.295140     -1395.8117   11-A'
  11   1.0000     -51.294880     -1395.8047    1-A"
  12   1.0000     -51.286175     -1395.5678   12-A'
  13   1.0000     -51.286091     -1395.5655   13-A'
  14   1.0000     -51.284883     -1395.5326   14-A'
  15   1.0000     -51.284750     -1395.5290   15-A'
  16   1.0000     -51.284343     -1395.5179    2-A"
  17   1.0000     -51.284267     -1395.5159    3-A"
  18   1.0000     -51.278982     -1395.3720   16-A'
  19   1.0000     -51.277690     -1395.3369   17-A'
  20   1.0000     -51.276818     -1395.3131    4-A"
  21   1.0000     -38.028572     -1034.8101   18-A'
  22   1.0000     -33.530620      -912.4146   19-A'
  23   1.0000     -33.529854      -912.3937   20-A'
  24   1.0000     -33.518681      -912.0897    5-A"
  25   1.0000      -9.821574      -267.2586   21-A'
  26   1.0000      -9.821226      -267.2491   22-A'
  27   1.0000      -9.818878      -267.1853   23-A'
  28   1.0000      -9.817850      -267.1573   24-A'
  29   1.0000      -9.814244      -267.0591   25-A'
  30   1.0000      -9.813493      -267.0387   26-A'
  31   1.0000      -9.811827      -266.9934   27-A'
  32   1.0000      -9.810097      -266.9463   28-A'
  33   1.0000      -9.808194      -266.8945   29-A'
  34   1.0000      -9.808108      -266.8922   30-A'
  35   1.0000      -9.801265      -266.7060   31-A'
  36   1.0000      -9.794579      -266.5241   32-A'
  37   1.0000      -7.348738      -199.9693   33-A'
  38   1.0000      -7.341021      -199.7593   34-A'
  39   1.0000      -7.333588      -199.5571   35-A'
  40   1.0000      -7.328684      -199.4236   36-A'
  41   1.0000      -5.412818      -147.2903   37-A'
  42   1.0000      -5.407964      -147.1582    6-A"
  43   1.0000      -5.407702      -147.1510   38-A'
  44   1.0000      -5.404568      -147.0658   39-A'
  45   1.0000      -5.403647      -147.0407   40-A'
  46   1.0000      -5.399333      -146.9233   41-A'
  47   1.0000      -5.398855      -146.9103   42-A'
  48   1.0000      -5.398847      -146.9101    7-A"
  49   1.0000      -5.398456      -146.8995   43-A'
  50   1.0000      -5.397746      -146.8801    8-A"
  51   1.0000      -5.393870      -146.7747   44-A'
  52   1.0000      -5.392007      -146.7240    9-A"
  53   1.0000      -4.022757      -109.4648   45-A'
  54   1.0000      -2.542249       -69.1781   46-A'
  55   1.0000      -2.541400       -69.1550   47-A'
  56   1.0000      -2.517846       -68.5141   10-A"
  57   1.0000      -1.752642       -47.6918   48-A'
  58   1.0000      -1.749135       -47.5964   49-A'
  59   1.0000      -1.748890       -47.5897   11-A"
  60   1.0000      -1.744622       -47.4736   50-A'
  61   1.0000      -1.744611       -47.4733   12-A"
  62   1.0000      -1.743217       -47.4353   51-A'
  63   1.0000      -1.742791       -47.4238   52-A'
  64   1.0000      -1.740859       -47.3712   53-A'
  65   1.0000      -1.740065       -47.3496   13-A"
  66   1.0000      -1.740060       -47.3494   54-A'
  67   1.0000      -1.739094       -47.3232   14-A"
  68   1.0000      -1.737071       -47.2681   55-A'
  69   1.0000      -1.735783       -47.2330   56-A'
  70   1.0000      -1.735765       -47.2326   15-A"
  71   1.0000      -1.735478       -47.2247   57-A'
  72   1.0000      -1.734764       -47.2053   58-A'
  73   1.0000      -1.734756       -47.2051   16-A"
  74   1.0000      -1.733655       -47.1752   17-A"
  75   1.0000      -1.729551       -47.0635   18-A"
  76   1.0000      -1.729489       -47.0618   59-A'
  77   1.0000      -0.604985       -16.4625   60-A'
  78   1.0000      -0.604336       -16.4448   61-A'
  79   1.0000      -0.526538       -14.3278   62-A'
  80   1.0000      -0.523353       -14.2411   63-A'
  81   1.0000      -0.500889       -13.6299   64-A'
  82   1.0000      -0.496792       -13.5184   65-A'
  83   1.0000      -0.421507       -11.4698   66-A'
  84   1.0000      -0.418378       -11.3846   67-A'
  85   1.0000      -0.378301       -10.2941   68-A'
  86   1.0000      -0.370452       -10.0805   69-A'
  87   1.0000      -0.325642        -8.8612   70-A'
  88   1.0000      -0.323436        -8.8011   71-A'
  89   1.0000      -0.286843        -7.8054   72-A'
  90   1.0000      -0.283000        -7.7008   73-A'
  91   1.0000      -0.234817        -6.3897   74-A'
  92   1.0000      -0.227455        -6.1894   75-A'
  93   1.0000      -0.200514        -5.4563   76-A'
  94   1.0000      -0.199081        -5.4173   77-A'
  95   1.0000      -0.166625        -4.5341   78-A'
  96   1.0000      -0.160010        -4.3541   79-A'
  97   1.0000      -0.150310        -4.0901   80-A'
  98   1.0000      -0.139513        -3.7963   81-A'
  99   1.0000      -0.132277        -3.5994   19-A"
 100   1.0000      -0.131747        -3.5850   20-A"
 101   1.0000      -0.124564        -3.3896   82-A'
 102   1.0000      -0.103308        -2.8112   83-A'
 103   1.0000      -0.076241        -2.0746   84-A'
 104   1.0000      -0.068189        -1.8555   85-A'
 105   1.0000      -0.064394        -1.7522   86-A'
 106   1.0000      -0.052847        -1.4380   21-A"
 107   1.0000      -0.050944        -1.3863   22-A"
 108   1.0000      -0.044862        -1.2208   87-A'
 109   1.0000      -0.031724        -0.8633   23-A"
 110   1.0000      -0.030679        -0.8348   88-A'
 111   1.0000      -0.025952        -0.7062   89-A'
 112   1.0000      -0.025832        -0.7029   24-A"
 113   1.0000      -0.003893        -0.1059   25-A"
 114   1.0000      -0.001702        -0.0463   26-A"
 115   1.0000      -0.000112        -0.0031   90-A'
 116   1.0000       0.017932         0.4880   91-A'
 117   1.0000       0.020173         0.5489   92-A'
 118   1.0000       0.040193         1.0937   93-A'
 119   1.0000       0.047742         1.2991   27-A"
 120   1.0000       0.049729         1.3532   28-A"
 121   1.0000       0.072156         1.9635   29-A"
 122   1.0000       0.101558         2.7635   30-A"
 123   1.0000       0.115743         3.1495   94-A'
 124   0.0000       0.180227         4.9042   95-A'
 125   0.0000       0.180361         4.9079   96-A'
 126   0.0000       0.196269         5.3407   97-A'
 127   0.0000       0.198644         5.4054   98-A'
 128   0.0000       0.198941         5.4135   31-A"

                 SPIN DOWN ORBITALS
  NO   OCC          E(Eh)            E(eV)    Irrep
   0   1.0000    -443.570643    -12070.1708    1-A'
   1   1.0000    -443.560140    -12069.8850    2-A'
   2   1.0000    -443.545128    -12069.4765    3-A'
   3   1.0000    -443.536108    -12069.2311    4-A'
   4   1.0000    -318.188194     -8658.3410    5-A'
   5   1.0000     -56.377484     -1534.1093    6-A'
   6   1.0000     -56.369452     -1533.8908    7-A'
   7   1.0000     -56.356287     -1533.5325    8-A'
   8   1.0000     -56.350217     -1533.3674    9-A'
   9   1.0000     -51.295989     -1395.8348   10-A'
  10   1.0000     -51.294629     -1395.7978    1-A"
  11   1.0000     -51.294408     -1395.7918   11-A'
  12   1.0000     -51.285852     -1395.5590   12-A'
  13   1.0000     -51.285763     -1395.5566   13-A'
  14   1.0000     -51.284152     -1395.5127   14-A'
  15   1.0000     -51.284095     -1395.5112    2-A"
  16   1.0000     -51.284014     -1395.5090    3-A"
  17   1.0000     -51.284007     -1395.5088   15-A'
  18   1.0000     -51.278673     -1395.3636   16-A'
  19   1.0000     -51.276988     -1395.3178   17-A'
  20   1.0000     -51.276582     -1395.3067    4-A"
  21   1.0000     -38.014848     -1034.4366   18-A'
  22   1.0000     -33.517574      -912.0595   19-A'
  23   1.0000     -33.516808      -912.0387   20-A'
  24   1.0000     -33.514860      -911.9857    5-A"
  25   1.0000      -9.821532      -267.2575   21-A'
  26   1.0000      -9.821146      -267.2470   22-A'
  27   1.0000      -9.818834      -267.1841   23-A'
  28   1.0000      -9.817802      -267.1560   24-A'
  29   1.0000      -9.814336      -267.0617   25-A'
  30   1.0000      -9.813322      -267.0341   26-A'
  31   1.0000      -9.811648      -266.9885   27-A'
  32   1.0000      -9.809966      -266.9427   28-A'
  33   1.0000      -9.808150      -266.8933   29-A'
  34   1.0000      -9.807817      -266.8843   30-A'
  35   1.0000      -9.801309      -266.7072   31-A'
  36   1.0000      -9.794609      -266.5249   32-A'
  37   1.0000      -7.348339      -199.9585   33-A'
  38   1.0000      -7.340620      -199.7484   34-A'
  39   1.0000      -7.333179      -199.5459   35-A'
  40   1.0000      -7.328297      -199.4131   36-A'
  41   1.0000      -5.412457      -147.2805   37-A'
  42   1.0000      -5.407650      -147.1496    6-A"
  43   1.0000      -5.406877      -147.1286   38-A'
  44   1.0000      -5.404199      -147.0557   39-A'
  45   1.0000      -5.403287      -147.0309   40-A'
  46   1.0000      -5.398532      -146.9015   41-A'
  47   1.0000      -5.398515      -146.9011    7-A"
  48   1.0000      -5.398497      -146.9006   42-A'
  49   1.0000      -5.397631      -146.8770   43-A'
  50   1.0000      -5.397435      -146.8717    8-A"
  51   1.0000      -5.393080      -146.7532   44-A'
  52   1.0000      -5.391713      -146.7160    9-A"
  53   1.0000      -3.994894      -108.7066   45-A'
  54   1.0000      -2.507659       -68.2369   10-A"
  55   1.0000      -2.507445       -68.2310   46-A'
  56   1.0000      -2.506532       -68.2062   47-A'
  57   1.0000      -1.752228       -47.6805   48-A'
  58   1.0000      -1.748586       -47.5814   11-A"
  59   1.0000      -1.748244       -47.5721   49-A'
  60   1.0000      -1.743837       -47.4522   12-A"
  61   1.0000      -1.743797       -47.4511   50-A'
  62   1.0000      -1.742761       -47.4229   51-A'
  63   1.0000      -1.742336       -47.4114   52-A'
  64   1.0000      -1.739956       -47.3466   53-A'
  65   1.0000      -1.739753       -47.3411   13-A"
  66   1.0000      -1.739167       -47.3251   54-A'
  67   1.0000      -1.738787       -47.3148   14-A"
  68   1.0000      -1.736587       -47.2549   55-A'
  69   1.0000      -1.734992       -47.2115   15-A"
  70   1.0000      -1.734976       -47.2111   56-A'
  71   1.0000      -1.734643       -47.2020   57-A'
  72   1.0000      -1.733988       -47.1842   16-A"
  73   1.0000      -1.733971       -47.1838   58-A'
  74   1.0000      -1.733364       -47.1672   17-A"
  75   1.0000      -1.728828       -47.0438   18-A"
  76   1.0000      -1.728779       -47.0425   59-A'
  77   1.0000      -0.604267       -16.4429   60-A'
  78   1.0000      -0.603493       -16.4219   61-A'
  79   1.0000      -0.525437       -14.2979   62-A'
  80   1.0000      -0.522180       -14.2092   63-A'
  81   1.0000      -0.499066       -13.5803   64-A'
  82   1.0000      -0.495317       -13.4783   65-A'
  83   1.0000      -0.419090       -11.4040   66-A'
  84   1.0000      -0.415486       -11.3060   67-A'
  85   1.0000      -0.375772       -10.2253   68-A'
  86   1.0000      -0.367807       -10.0085   69-A'
  87   1.0000      -0.323496        -8.8028   70-A'
  88   1.0000      -0.321148        -8.7389   71-A'
  89   1.0000      -0.284498        -7.7416   72-A'
  90   1.0000      -0.280652        -7.6369   73-A'
  91   1.0000      -0.233667        -6.3584   74-A'
  92   1.0000      -0.226312        -6.1583   75-A'
  93   1.0000      -0.199409        -5.4262   76-A'
  94   1.0000      -0.197855        -5.3839   77-A'
  95   1.0000      -0.164897        -4.4871   78-A'
  96   1.0000      -0.157056        -4.2737   79-A'
  97   1.0000      -0.149655        -4.0723   80-A'
  98   1.0000      -0.137504        -3.7417   81-A'
  99   1.0000      -0.131936        -3.5902   19-A"
 100   1.0000      -0.131348        -3.5742   20-A"
 101   1.0000      -0.123203        -3.3525   82-A'
 102   1.0000      -0.101377        -2.7586   83-A'
 103   1.0000      -0.074168        -2.0182   84-A'
 104   1.0000      -0.065853        -1.7920   85-A'
 105   1.0000      -0.052748        -1.4353   86-A'
 106   1.0000      -0.051963        -1.4140   21-A"
 107   1.0000      -0.050079        -1.3627   22-A"
 108   1.0000      -0.042135        -1.1466   87-A'
 109   1.0000      -0.029372        -0.7993   23-A"
 110   1.0000      -0.024870        -0.6768   24-A"
 111   1.0000      -0.021175        -0.5762   88-A'
 112   1.0000      -0.003157        -0.0859   89-A'
 113   1.0000       0.005218         0.1420   25-A"
 114   1.0000       0.009410         0.2561   26-A"
 115   1.0000       0.009879         0.2688   90-A'
 116   1.0000       0.028054         0.7634   91-A'
 117   1.0000       0.030755         0.8369   92-A'
 118   1.0000       0.049704         1.3525   27-A"
 119   1.0000       0.051264         1.3950   93-A'
 120   1.0000       0.053762         1.4629   28-A"
 121   1.0000       0.073817         2.0087   29-A"
 122   1.0000       0.104706         2.8492   30-A"
 123   0.0000       0.145062         3.9473   94-A'
 124   0.0000       0.181738         4.9454   95-A'
 125   0.0000       0.184051         5.0083   96-A'
 126   0.0000       0.198700         5.4069   97-A'
 127   0.0000       0.199278         5.4226   31-A"

MULLIKEN ATOMIC CHARGES AND SPIN POPULATIONS
--------------------------------------------
   0 Cu:    0.643102    0.307642
   1 Se:   -0.751640    0.176874
   2 C :    0.228971   -0.004618
   3 Se:   -0.632190    0.173337
   4 C :    0.181971   -0.007845
   5 Se:   -0.744382    0.172442
   6 C :    0.273814   -0.005428
   7 Se:   -0.791392    0.164835
   8 C :    0.358023   -0.003638
   9 C :   -0.074108    0.017744
  10 C :   -0.123167    0.001464
  11 C :   -0.103657   -0.000423
  12 H :    0.083710    0.002624
  13 C :   -0.241807   -0.002623
  14 H :   -0.009389   -0.004055
  15 H :    0.021513    0.003826
  16 H :    0.009124    0.000243
  17 C :   -0.091935    0.000164
  18 C :   -0.099770    0.003344
  19 C :   -0.139531   -0.001105
  20 H :    0.086447    0.002686
  21 C :   -0.209358   -0.001172
  22 H :    0.084883    0.001273
  23 H :    0.016050    0.001440
  24 H :    0.024718    0.000968
Sum of atomic charges         :   -2.0000000

LOEWDIN ATOMIC CHARGES AND SPIN POPULATIONS
-------------------------------------------
   0 Cu:   -0.606325    0.387072
   1 Se:   -0.198389    0.126409
   2 C :    0.064168    0.009827
   3 Se:   -0.181944    0.125196
   4 C :    0.041978    0.009802
   5 Se:   -0.182089    0.120010
   6 C :    0.014692    0.010541
   7 Se:   -0.140953    0.108174
   8 C :    0.038811    0.006797
   9 C :    0.311619    0.014233
  10 C :    0.390882    0.008841
  11 C :    0.321589    0.001779
  12 H :   -0.458378    0.007424
  13 C :    0.303369    0.000629
  14 H :   -0.511181    0.022460
  15 H :   -0.401216    0.001618
  16 H :   -0.423599   -0.000636
  17 C :    0.363755    0.007332
  18 C :    0.371127    0.008062
  19 C :    0.309188    0.000246
  20 H :   -0.461114    0.010703
  21 C :    0.328312    0.000048
  22 H :   -0.474600    0.013075
  23 H :   -0.401300    0.000332
  24 H :   -0.418403    0.000026

  Mayer bond orders larger than 0.100000
B(  0-Cu,  1-Se) :   0.5501 B(  0-Cu,  3-Se) :   0.5544 B(  0-Cu,  5-Se) :   0.5524
B(  0-Cu,  7-Se) :   0.5406 B(  1-Se,  2-C ) :   1.0089 B(  2-C ,  6-C ) :   1.1714
B(  2-C , 17-C ) :   1.1950 B(  3-Se,  4-C ) :   1.1071 B(  4-C ,  8-C ) :   1.1659
B(  4-C , 10-C ) :   1.1522 B(  5-Se,  6-C ) :   1.0267 B(  6-C , 18-C ) :   1.1902
B(  7-Se,  8-C ) :   0.9214 B(  8-C ,  9-C ) :   1.2148 B(  9-C , 13-C ) :   1.4770
B(  9-C , 14-H ) :   0.9355 B( 10-C , 11-C ) :   1.5100 B( 10-C , 12-H ) :   0.9693
B( 11-C , 13-C ) :   1.2145 B( 11-C , 15-H ) :   0.9857 B( 13-C , 16-H ) :   1.0088
B( 17-C , 19-C ) :   1.4745 B( 17-C , 20-H ) :   0.9616 B( 18-C , 21-C ) :   1.4671
B( 18-C , 22-H ) :   0.9499 B( 19-C , 21-C ) :   1.2356 B( 19-C , 23-H ) :   0.9948
B( 21-C , 24-H ) :   0.9975

FINAL SINGLE POINT ENERGY    -11627.045868858890

DIPOLE MOMENT
-------------
                                X             Y             Z
Electronic contribution:      0.10314      -0.26993      -0.00000
Nuclear contribution   :     -0.02136      -0.19149       0.00000
                        -----------------------------------------
Total Dipole Moment    :      0.08178      -0.46142      -0.00000
                        -----------------------------------------
Magnitude (a.u.)       :      0.46861
Magnitude (Debye)      :      1.19111

Rotational constants in cm-1:     0.017618     0.004091     0.003320
Rotational constants in MHz :   528.163093   122.656400    99.540017

                             ****ORCA TERMINATED NORMALLY****
TOTAL RUN TIME: 0 days 16 hours 51 minutes 39 seconds 830 msec
