                         Program Version 5.0.4 -  RELEASE  -
|  1> ! RIJCOSX nofrozencore ReducedPop printbasis
|  2> ! M06L ano-rcc-dzp autoaux
|  3>
|  4> %maxcore 7500
|  5> %basis
|  6> PCDTrimBas overlap
|  7> PCDTrimAuxJ Coulomb
|  8> PCDTrimAuxJK Coulomb
|  9> PCDTrimAuxC Coulomb
| 10> PCDThresh -1
| 11> end
| 12>
| 13> %basis
| 14> newgto Cu "ano-rcc-tzp" end
| 15> newgto Se "ano-rcc-tzp" end
| 16> end
| 17>
| 18> %pal
| 19> nprocs 8
| 20> end
| 21>
| 22> % sym SymThresh 1e-2 end
| 23> * xyz -2 2
| 24> Cu 0.0014005915715321147 0.00103184755327481 -0.0008189669569365968
| 25> Se -1.5852105975773267 -0.48986504799972747 1.6956781796313118
| 26> C -1.2978023105748695 0.785985426088285 2.734185282015165
| 27> Se -0.5244924697809716 -1.8695199941921519 -1.3749735270454604
| 28> C 0.42843818958711066 -1.7736964632019603 -2.619557304941462
| 29> Se 0.5450611904538444 1.8552342251671758 1.32956614193856
| 30> C -0.3957951267376931 1.8786433059174765 2.692197750409904
| 31> Se 1.576866634590605 0.42593598784858777 -1.7563163764619252
| 32> C 1.3142865141479185 -0.7719153168749164 -2.741640445614051
| 33> C 2.0789118686136048 -0.7500527458529923 -3.802678269397225
| 34> C 0.3379847027501296 -2.750771814862751 -3.598983187099461
| 35> C 1.1249384266840263 -2.7735437741965527 -4.742338795849281
| 36> H -0.3954811889552647 -3.524895609657063 -3.435160953071034
| 37> C 2.0150036619285943 -1.6617027657229204 -4.745616654810326
| 38> H 2.7839645593914355 0.056315049922153394 -3.8895910417593664
| 39> H 1.0841027166329844 -3.5192924809409987 -5.529931321120194
| 40> H 2.70431947309525 -1.5338039099383494 -5.5794797704879855
| 41> C -2.0708704488035092 0.8436686527440805 3.8974071380350224
| 42> C -0.3729051634588827 2.8372007229476774 3.7465721238363856
| 43> C -2.063435250925534 1.7697702226115688 4.936927748996867
| 44> H -2.7885813942993463 0.039540098645238414 4.004834621075337
| 45> C -1.1739165636289033 2.8426166914388933 4.89021127572651
| 46> H 0.3366249376782168 3.6501136902857043 3.6607245330020417
| 47> H -2.7671103804572414 1.612066889906596 5.757387792952256
| 48> H -1.108101396410635 3.6074777542893792 5.664004048945062
| 49> *
| 50>
| 51> % eprnmr
| 52> gtensor true
| 53> Nuclei = all H {aiso,adip,aorb,fgrad,rho}
| 54> Nuclei = all Cu {aiso,adip,aorb,fgrad,rho}
| 55> end
| 56>
| 57>                          ****END OF INPUT****

CARTESIAN COORDINATES (ANGSTROEM)
---------------------------------
  Cu     0.001481   -0.001226    0.000000
  Se    -0.995214    2.153540    0.000000
  C      0.377905    3.104033    0.000000
  Se    -2.044845   -1.216289    0.000000
  C     -1.646181   -2.735274    0.000000
  Se     2.037018    1.165028    0.000000
  C      1.761985    2.798087    0.000000
  Se     0.928333   -2.211509    0.000000
  C     -0.358538   -3.116287    0.000000
  C     -0.093940   -4.397271    0.000000
  C     -2.656607   -3.684576    0.000000
  C     -2.429771   -5.054109    0.000000
  H     -3.667156   -3.306598    0.000000
  C     -1.030206   -5.317993    0.000000
  H      0.939991   -4.690305    0.000000
  H     -3.192025   -5.826819    0.000000
  H     -0.682965   -6.350594    0.000000
  C      0.190553    4.489293    0.000000
  C      2.732366    3.841842    0.000000
  C      1.123419    5.522775    0.000000
  H     -0.845145    4.806473    0.000000
  C      2.483630    5.215774    0.000000
  H      3.774294    3.548557    0.000000
  H      0.741675    6.546227    0.000000
  H      3.273015    5.967420    0.000000

 Total Charge           Charge          ....   -2
 Multiplicity           Mult            ....    2
 Number of Electrons    NEL             ....  247
 Basis Dimension        Dim             ....  575

ORBITAL ENERGIES
----------------
                 SPIN UP ORBITALS
  NO   OCC          E(Eh)            E(eV)    Irrep
   0   1.0000    -443.576780    -12070.3378    1-A'
   1   1.0000    -443.555275    -12069.7527    2-A'
   2   1.0000    -443.554680    -12069.7365    3-A'
   3   1.0000    -443.541064    -12069.3659    4-A'
   4   1.0000    -318.184267     -8658.2341    5-A'
   5   1.0000     -56.379800     -1534.1724    6-A'
   6   1.0000     -56.366178     -1533.8017    7-A'
   7   1.0000     -56.360326     -1533.6424    8-A'
   8   1.0000     -56.353337     -1533.4523    9-A'
   9   1.0000     -51.289658     -1395.6625   10-A'
  10   1.0000     -51.289179     -1395.6495   11-A'
  11   1.0000     -51.288522     -1395.6316   12-A'
  12   1.0000     -51.288087     -1395.6198    1-A"
  13   1.0000     -51.287690     -1395.6090   13-A'
  14   1.0000     -51.287190     -1395.5954    2-A"
  15   1.0000     -51.285274     -1395.5433   14-A'
  16   1.0000     -51.284144     -1395.5125   15-A'
  17   1.0000     -51.283754     -1395.5019    3-A"
  18   1.0000     -51.280151     -1395.4038   16-A'
  19   1.0000     -51.278691     -1395.3641   17-A'
  20   1.0000     -51.278385     -1395.3558    4-A"
  21   1.0000     -38.024781     -1034.7069   18-A'
  22   1.0000     -33.526839      -912.3117   19-A'
  23   1.0000     -33.526056      -912.2904   20-A'
  24   1.0000     -33.514964      -911.9885    5-A"
  25   1.0000      -9.821385      -267.2535   21-A'
  26   1.0000      -9.820304      -267.2240   22-A'
  27   1.0000      -9.816239      -267.1134   23-A'
  28   1.0000      -9.814610      -267.0691   24-A'
  29   1.0000      -9.813496      -267.0388   25-A'
  30   1.0000      -9.812711      -267.0174   26-A'
  31   1.0000      -9.809470      -266.9293   27-A'
  32   1.0000      -9.806861      -266.8583   28-A'
  33   1.0000      -9.802971      -266.7524   29-A'
  34   1.0000      -9.798301      -266.6253   30-A'
  35   1.0000      -9.791386      -266.4372   31-A'
  36   1.0000      -9.790222      -266.4055   32-A'
  37   1.0000      -7.345217      -199.8735   33-A'
  38   1.0000      -7.340355      -199.7412   34-A'
  39   1.0000      -7.334651      -199.5860   35-A'
  40   1.0000      -7.330660      -199.4774   36-A'
  41   1.0000      -5.407464      -147.1446   37-A'
  42   1.0000      -5.405397      -147.0883   38-A'
  43   1.0000      -5.401821      -146.9910   39-A'
  44   1.0000      -5.401647      -146.9863   40-A'
  45   1.0000      -5.401211      -146.9744    6-A"
  46   1.0000      -5.400224      -146.9476   41-A'
  47   1.0000      -5.399945      -146.9400    7-A"
  48   1.0000      -5.399343      -146.9236   42-A'
  49   1.0000      -5.396819      -146.8549   43-A'
  50   1.0000      -5.396514      -146.8466    8-A"
  51   1.0000      -5.393857      -146.7743   44-A'
  52   1.0000      -5.393747      -146.7713    9-A"
  53   1.0000      -4.019114      -109.3657   45-A'
  54   1.0000      -2.538606       -69.0790   46-A'
  55   1.0000      -2.537681       -69.0538   47-A'
  56   1.0000      -2.514355       -68.4191   10-A"
  57   1.0000      -1.745978       -47.5105   48-A'
  58   1.0000      -1.745551       -47.4989   49-A'
  59   1.0000      -1.743356       -47.4391   50-A'
  60   1.0000      -1.742652       -47.4200   11-A"
  61   1.0000      -1.742069       -47.4041   51-A'
  62   1.0000      -1.741909       -47.3998   52-A'
  63   1.0000      -1.741222       -47.3811   12-A"
  64   1.0000      -1.738449       -47.3056   53-A'
  65   1.0000      -1.738126       -47.2968   54-A'
  66   1.0000      -1.738019       -47.2939   13-A"
  67   1.0000      -1.737955       -47.2922   55-A'
  68   1.0000      -1.737773       -47.2872   14-A"
  69   1.0000      -1.736826       -47.2614   15-A"
  70   1.0000      -1.736811       -47.2610   56-A'
  71   1.0000      -1.735490       -47.2251   57-A'
  72   1.0000      -1.735032       -47.2126   16-A"
  73   1.0000      -1.733506       -47.1711   58-A'
  74   1.0000      -1.733408       -47.1684   17-A"
  75   1.0000      -1.730572       -47.0913   59-A'
  76   1.0000      -1.730466       -47.0884   18-A"
  77   1.0000      -0.626379       -17.0447   60-A'
  78   1.0000      -0.591809       -16.1039   61-A'
  79   1.0000      -0.526693       -14.3320   62-A'
  80   1.0000      -0.523988       -14.2584   63-A'
  81   1.0000      -0.516512       -14.0550   64-A'
  82   1.0000      -0.487702       -13.2710   65-A'
  83   1.0000      -0.422666       -11.5013   66-A'
  84   1.0000      -0.408263       -11.1094   67-A'
  85   1.0000      -0.381838       -10.3903   68-A'
  86   1.0000      -0.376745       -10.2517   69-A'
  87   1.0000      -0.334883        -9.1126   70-A'
  88   1.0000      -0.311944        -8.4884   71-A'
  89   1.0000      -0.286082        -7.7847   72-A'
  90   1.0000      -0.282137        -7.6773   73-A'
  91   1.0000      -0.226998        -6.1769   74-A'
  92   1.0000      -0.220533        -6.0010   75-A'
  93   1.0000      -0.211018        -5.7421   76-A'
  94   1.0000      -0.191972        -5.2238   77-A'
  95   1.0000      -0.172169        -4.6850   78-A'
  96   1.0000      -0.165903        -4.5145   79-A'
  97   1.0000      -0.152742        -4.1563   80-A'
  98   1.0000      -0.149035        -4.0555   19-A"
  99   1.0000      -0.134449        -3.6586   81-A'
 100   1.0000      -0.125829        -3.4240   82-A'
 101   1.0000      -0.121651        -3.3103   20-A"
 102   1.0000      -0.105094        -2.8597   83-A'
 103   1.0000      -0.078723        -2.1422   84-A'
 104   1.0000      -0.074634        -2.0309   85-A'
 105   1.0000      -0.064594        -1.7577   86-A'
 106   1.0000      -0.059735        -1.6255   87-A'
 107   1.0000      -0.048848        -1.3292   21-A"
 108   1.0000      -0.045332        -1.2335   22-A"
 109   1.0000      -0.044051        -1.1987   23-A"
 110   1.0000      -0.034772        -0.9462   88-A'
 111   1.0000      -0.023393        -0.6366   24-A"
 112   1.0000      -0.019267        -0.5243   89-A'
 113   1.0000       0.000465         0.0127   25-A"
 114   1.0000       0.001507         0.0410   26-A"
 115   1.0000       0.003804         0.1035   90-A'
 116   1.0000       0.022191         0.6039   91-A'
 117   1.0000       0.025102         0.6830   92-A'
 118   1.0000       0.046472         1.2646   93-A'
 119   1.0000       0.053315         1.4508   27-A"
 120   1.0000       0.057235         1.5574   28-A"
 121   1.0000       0.074052         2.0150   29-A"
 122   1.0000       0.102540         2.7903   30-A"
 123   1.0000       0.118103         3.2138   94-A'
 124   0.0000       0.181484         4.9384   95-A'
 125   0.0000       0.182716         4.9720   96-A'
 126   0.0000       0.195574         5.3218   97-A'
 127   0.0000       0.198266         5.3951   98-A'
 128   0.0000       0.202121         5.5000   31-A"

                 SPIN DOWN ORBITALS
  NO   OCC          E(Eh)            E(eV)    Irrep
   0   1.0000    -443.576304    -12070.3249    1-A'
   1   1.0000    -443.554828    -12069.7405    2-A'
   2   1.0000    -443.554206    -12069.7235    3-A'
   3   1.0000    -443.540639    -12069.3544    4-A'
   4   1.0000    -318.184146     -8658.2308    5-A'
   5   1.0000     -56.379609     -1534.1672    6-A'
   6   1.0000     -56.365997     -1533.7968    7-A'
   7   1.0000     -56.360139     -1533.6373    8-A'
   8   1.0000     -56.353166     -1533.4476    9-A'
   9   1.0000     -51.289288     -1395.6525   10-A'
  10   1.0000     -51.288886     -1395.6415   11-A'
  11   1.0000     -51.287825     -1395.6127    1-A"
  12   1.0000     -51.287763     -1395.6110   12-A'
  13   1.0000     -51.286939     -1395.5886    2-A"
  14   1.0000     -51.286922     -1395.5881   13-A'
  15   1.0000     -51.284897     -1395.5330   14-A'
  16   1.0000     -51.283496     -1395.4949    3-A"
  17   1.0000     -51.283421     -1395.4928   15-A'
  18   1.0000     -51.279849     -1395.3956   16-A'
  19   1.0000     -51.278152     -1395.3495    4-A"
  20   1.0000     -51.278024     -1395.3460   17-A'
  21   1.0000     -38.010955     -1034.3307   18-A'
  22   1.0000     -33.513704      -911.9542   19-A'
  23   1.0000     -33.512919      -911.9329   20-A'
  24   1.0000     -33.511098      -911.8833    5-A"
  25   1.0000      -9.821349      -267.2525   21-A'
  26   1.0000      -9.820232      -267.2221   22-A'
  27   1.0000      -9.816283      -267.1147   23-A'
  28   1.0000      -9.814567      -267.0679   24-A'
  29   1.0000      -9.813388      -267.0359   25-A'
  30   1.0000      -9.812705      -267.0173   26-A'
  31   1.0000      -9.809304      -266.9247   27-A'
  32   1.0000      -9.806782      -266.8561   28-A'
  33   1.0000      -9.802877      -266.7498   29-A'
  34   1.0000      -9.798331      -266.6261   30-A'
  35   1.0000      -9.791249      -266.4334   31-A'
  36   1.0000      -9.790173      -266.4041   32-A'
  37   1.0000      -7.344802      -199.8622   33-A'
  38   1.0000      -7.339956      -199.7304   34-A'
  39   1.0000      -7.334228      -199.5745   35-A'
  40   1.0000      -7.330280      -199.4671   36-A'
  41   1.0000      -5.407122      -147.1353   37-A'
  42   1.0000      -5.404991      -147.0773   38-A'
  43   1.0000      -5.401425      -146.9802   39-A'
  44   1.0000      -5.400905      -146.9661    6-A"
  45   1.0000      -5.400801      -146.9633   40-A'
  46   1.0000      -5.399629      -146.9314    7-A"
  47   1.0000      -5.399366      -146.9242   41-A'
  48   1.0000      -5.399018      -146.9147   42-A'
  49   1.0000      -5.396188      -146.8377    8-A"
  50   1.0000      -5.395976      -146.8320   43-A'
  51   1.0000      -5.393440      -146.7630    9-A"
  52   1.0000      -5.393090      -146.7534   44-A'
  53   1.0000      -3.991007      -108.6008   45-A'
  54   1.0000      -2.504063       -68.1390   10-A"
  55   1.0000      -2.503505       -68.1238   46-A'
  56   1.0000      -2.502530       -68.0973   47-A'
  57   1.0000      -1.745535       -47.4984   48-A'
  58   1.0000      -1.745073       -47.4859   49-A'
  59   1.0000      -1.742487       -47.4155   50-A'
  60   1.0000      -1.742368       -47.4122   11-A"
  61   1.0000      -1.741594       -47.3912   51-A'
  62   1.0000      -1.740951       -47.3737   52-A'
  63   1.0000      -1.740890       -47.3720   12-A"
  64   1.0000      -1.737721       -47.2858   53-A'
  65   1.0000      -1.737498       -47.2797   54-A'
  66   1.0000      -1.737434       -47.2780   13-A"
  67   1.0000      -1.737250       -47.2730   14-A"
  68   1.0000      -1.737149       -47.2702   55-A'
  69   1.0000      -1.736038       -47.2400   15-A"
  70   1.0000      -1.735971       -47.2382   56-A'
  71   1.0000      -1.734735       -47.2045   16-A"
  72   1.0000      -1.734659       -47.2025   57-A'
  73   1.0000      -1.732666       -47.1482   58-A'
  74   1.0000      -1.732609       -47.1467   17-A"
  75   1.0000      -1.729804       -47.0704   59-A'
  76   1.0000      -1.729728       -47.0683   18-A"
  77   1.0000      -0.625329       -17.0161   60-A'
  78   1.0000      -0.591074       -16.0839   61-A'
  79   1.0000      -0.525522       -14.3002   62-A'
  80   1.0000      -0.521965       -14.2034   63-A'
  81   1.0000      -0.515426       -14.0255   64-A'
  82   1.0000      -0.486119       -13.2280   65-A'
  83   1.0000      -0.420263       -11.4359   66-A'
  84   1.0000      -0.405573       -11.0362   67-A'
  85   1.0000      -0.379448       -10.3253   68-A'
  86   1.0000      -0.374489       -10.1904   69-A'
  87   1.0000      -0.332977        -9.0608   70-A'
  88   1.0000      -0.310142        -8.4394   71-A'
  89   1.0000      -0.283435        -7.7127   72-A'
  90   1.0000      -0.279669        -7.6102   73-A'
  91   1.0000      -0.225791        -6.1441   74-A'
  92   1.0000      -0.219350        -5.9688   75-A'
  93   1.0000      -0.209700        -5.7062   76-A'
  94   1.0000      -0.190730        -5.1900   77-A'
  95   1.0000      -0.170779        -4.6471   78-A'
  96   1.0000      -0.164023        -4.4633   79-A'
  97   1.0000      -0.150689        -4.1004   80-A'
  98   1.0000      -0.148573        -4.0429   19-A"
  99   1.0000      -0.133072        -3.6211   81-A'
 100   1.0000      -0.124042        -3.3754   82-A'
 101   1.0000      -0.121287        -3.3004   20-A"
 102   1.0000      -0.103292        -2.8107   83-A'
 103   1.0000      -0.077390        -2.1059   84-A'
 104   1.0000      -0.072208        -1.9649   85-A'
 105   1.0000      -0.058633        -1.5955   86-A'
 106   1.0000      -0.055324        -1.5055   87-A'
 107   1.0000      -0.048031        -1.3070   21-A"
 108   1.0000      -0.044461        -1.2098   22-A"
 109   1.0000      -0.042692        -1.1617   23-A"
 110   1.0000      -0.021449        -0.5837   24-A"
 111   1.0000      -0.017805        -0.4845   88-A'
 112   1.0000       0.000521         0.0142   89-A'
 113   1.0000       0.010108         0.2750   25-A"
 114   1.0000       0.012632         0.3437   26-A"
 115   1.0000       0.014682         0.3995   90-A'
 116   1.0000       0.033162         0.9024   91-A'
 117   1.0000       0.035110         0.9554   92-A'
 118   1.0000       0.055524         1.5109   27-A"
 119   1.0000       0.057140         1.5548   93-A'
 120   1.0000       0.060523         1.6469   28-A"
 121   1.0000       0.075790         2.0624   29-A"
 122   1.0000       0.105760         2.8779   30-A"
 123   0.0000       0.147723         4.0197   94-A'
 124   0.0000       0.184832         5.0295   95-A'
 125   0.0000       0.185152         5.0382   96-A'
 126   0.0000       0.199834         5.4378   97-A'
 127   0.0000       0.200915         5.4672   98-A'

MULLIKEN ATOMIC CHARGES AND SPIN POPULATIONS
--------------------------------------------
   0 Cu:    0.616310    0.309125
   1 Se:   -0.742303    0.173981
   2 C :    0.272545   -0.003509
   3 Se:   -0.685057    0.175703
   4 C :    0.152765   -0.003189
   5 Se:   -0.732093    0.160655
   6 C :    0.160281   -0.003022
   7 Se:   -0.709908    0.182894
   8 C :    0.268735   -0.002984
   9 C :   -0.020432   -0.001597
  10 C :   -0.121657   -0.000290
  11 C :   -0.226812   -0.000997
  12 H :    0.093384    0.002861
  13 C :   -0.135766   -0.000405
  14 H :    0.082766    0.003571
  15 H :    0.005290    0.002947
  16 H :    0.029124    0.001185
  17 C :   -0.060210   -0.002429
  18 C :   -0.160872   -0.000440
  19 C :   -0.144517   -0.000230
  20 H :    0.100484    0.002400
  21 C :   -0.160733   -0.001383
  22 H :    0.086448    0.002036
  23 H :    0.024318    0.000629
  24 H :    0.007909    0.002488
Sum of atomic charges         :   -2.0000000

LOEWDIN ATOMIC CHARGES AND SPIN POPULATIONS
-------------------------------------------
   0 Cu:   -0.599291    0.388953
   1 Se:   -0.169814    0.126362
   2 C :    0.063259    0.009022
   3 Se:   -0.212300    0.123213
   4 C :    0.007391    0.013306
   5 Se:   -0.252400    0.114900
   6 C :    0.058208    0.013042
   7 Se:   -0.156494    0.125584
   8 C :   -0.015470    0.010572
   9 C :    0.348911    0.010100
  10 C :    0.387512    0.008746
  11 C :    0.346777    0.001042
  12 H :   -0.456866    0.009742
  13 C :    0.324084    0.000851
  14 H :   -0.450513    0.013181
  15 H :   -0.407031    0.000938
  16 H :   -0.418454    0.000160
  17 C :    0.367188    0.006177
  18 C :    0.365579    0.005525
  19 C :    0.313083    0.000210
  20 H :   -0.483070    0.011246
  21 C :    0.316795    0.000324
  22 H :   -0.456975    0.006062
  23 H :   -0.415639   -0.000041
  24 H :   -0.404470    0.000782

  Mayer bond orders larger than 0.100000
B(  0-Cu,  1-Se) :   0.5440 B(  0-Cu,  3-Se) :   0.5641 B(  0-Cu,  5-Se) :   0.5412
B(  0-Cu,  7-Se) :   0.5794 B(  1-Se,  2-C ) :   1.0157 B(  2-C ,  6-C ) :   1.1406
B(  2-C , 17-C ) :   1.2559 B(  3-Se,  4-C ) :   1.0936 B(  4-C ,  8-C ) :   1.0957
B(  4-C , 10-C ) :   1.2517 B(  5-Se,  6-C ) :   1.0260 B(  6-C , 18-C ) :   1.2868
B(  7-Se,  8-C ) :   1.0891 B(  8-C ,  9-C ) :   1.1962 B(  9-C , 13-C ) :   1.3989
B(  9-C , 14-H ) :   0.9553 B( 10-C , 11-C ) :   1.3949 B( 10-C , 12-H ) :   0.9591
B( 11-C , 13-C ) :   1.2842 B( 11-C , 15-H ) :   1.0102 B( 13-C , 16-H ) :   0.9897
B( 17-C , 19-C ) :   1.3629 B( 17-C , 20-H ) :   0.9530 B( 18-C , 21-C ) :   1.3759
B( 18-C , 22-H ) :   0.9674 B( 19-C , 21-C ) :   1.3155 B( 19-C , 23-H ) :   0.9938
B( 21-C , 24-H ) :   1.0040

FINAL SINGLE POINT ENERGY    -11627.090288034173

DIPOLE MOMENT
-------------
                                X             Y             Z
Electronic contribution:     -1.28879      -2.17037       0.00000
Nuclear contribution   :      1.08142       1.78149       0.00000
                        -----------------------------------------
Total Dipole Moment    :     -0.20737      -0.38888       0.00000
                        -----------------------------------------
Magnitude (a.u.)       :      0.44072
Magnitude (Debye)      :      1.12021

Rotational constants in cm-1:     0.017752     0.004115     0.003340
Rotational constants in MHz :   532.199574   123.351582   100.141170

                             ****ORCA TERMINATED NORMALLY****
TOTAL RUN TIME: 0 days 17 hours 5 minutes 0 seconds 393 msec
