                         Program Version 5.0.4 -  RELEASE  -
|  1> ! RIJCOSX nofrozencore ReducedPop printbasis
|  2> ! M06L ano-rcc-dzp autoaux
|  3>
|  4> %maxcore 7500
|  5> %basis
|  6> PCDTrimBas overlap
|  7> PCDTrimAuxJ Coulomb
|  8> PCDTrimAuxJK Coulomb
|  9> PCDTrimAuxC Coulomb
| 10> PCDThresh -1
| 11> end
| 12>
| 13> %basis
| 14> newgto Cu "ano-rcc-tzp" end
| 15> newgto Se "ano-rcc-tzp" end
| 16> end
| 17>
| 18> %pal
| 19> nprocs 8
| 20> end
| 21>
| 22> % sym SymThresh 1e-2 end
| 23> * xyz -2 2
| 24> Cu -0.00011641083447592051 -7.580223350737651e-06 -0.00022355325502119796
| 25> Se 1.9377358708166785 -0.31720759631262757 -1.3294687534695555
| 26> C 3.085340256097395 -0.3470897381148658 -0.3172528447866401
| 27> Se -1.5318304266797582 8.461456145877592e-05 -1.8045058798791669
| 28> C -3.0234346335775606 0.22055015114562943 -1.0512119123708423
| 29> Se 1.5289222190341558 0.0002131105838042279 1.8044695889996465
| 30> C 3.101095665425763 -0.22141409713108307 1.1329046409248984
| 31> Se -1.9292671611719767 0.3168528742263925 1.3354095898749179
| 32> C -3.143035058994561 0.34473114748259837 0.22238468818556248
| 33> C -4.534876415129233 0.531732914292568 0.7120725326141819
| 34> C -4.19735083986806 0.26957685747575133 -1.8763616387193045
| 35> C -5.3895302945701395 0.42970327630347177 -1.4574857778468255
| 36> H -4.013087630185054 0.15762698383694113 -2.9344180733425107
| 37> C -5.597286540619709 0.5754258703929073 -0.04240961118679855
| 38> H -4.53648610189779 0.6272281502526876 1.797973973590493
| 39> H -6.278450093780102 0.46722424257887446 -2.07779200279244
| 40> H -6.55684474727883 0.7171333333951462 0.4408291872603054
| 41> C 4.440544232553854 -0.5270760665068199 -0.7702090328121299
| 42> C 4.14210441531996 -0.26611998185597424 1.8506239615591449
| 43> C 5.712139716044806 -0.5776002074601289 0.15301148528977238
| 44> H 4.567448845866817 -0.6346841801289955 -1.8464127918501496
| 45> C 5.358948286000976 -0.427161701559046 1.4503921456535085
| 46> H 4.023214037236975 -0.1608270766004788 2.9099007426655477
| 47> H 6.504350994975234 -0.7347279812735065 -0.7031231141517327
| 48> H 6.401841492642215 -0.496689214801758 1.8875861494525503
| 49> *
| 50>
| 51> % eprnmr
| 52> gtensor true
| 53> Nuclei = all H {aiso,adip,aorb,fgrad,rho}
| 54> Nuclei = all Cu {aiso,adip,aorb,fgrad,rho}
| 55> end
| 56>
| 57>                          ****END OF INPUT****

CARTESIAN COORDINATES (ANGSTROEM)
---------------------------------
  Cu    -0.000224   -0.000116    0.000000
  Se    -1.343335    1.954067    0.000000
  C     -0.332429    3.103214    0.000000
  Se    -1.804497   -1.531841    0.000000
  C     -1.041565   -3.034796    0.000000
  Se     1.804474    1.528917    0.000000
  C      1.123220    3.112502    0.000000
  Se     1.349261   -1.945580    0.000000
  C      0.237458   -3.160787    0.000000
  C      0.735321   -4.562257    0.000000
  C     -1.864569   -4.211240    0.000000
  C     -1.438692   -5.411664    0.000000
  H     -2.927517   -4.021215    0.000000
  C     -0.017248   -5.626920    0.000000
  H      1.825395   -4.568781    0.000000
  H     -2.057356   -6.302518    0.000000
  H      0.472185   -6.593775    0.000000
  C     -0.793254    4.467685    0.000000
  C      1.838982    4.155816    0.000000
  C      0.127755    5.741886    0.000000
  H     -1.874160    4.600128    0.000000
  C      1.431710    5.380951    0.000000
  H      2.902860    4.031506    0.000000
  H     -0.735248    6.542186    0.000000
  H      1.865863    6.427427    0.000000

 Total Charge           Charge          ....   -2
 Multiplicity           Mult            ....    2
 Number of Electrons    NEL             ....  247
 Basis Dimension        Dim             ....  575

ORBITAL ENERGIES
----------------
                 SPIN UP ORBITALS
  NO   OCC          E(Eh)            E(eV)    Irrep
   0   1.0000    -443.575350    -12070.2989    1-A'
   1   1.0000    -443.556615    -12069.7891    2-A'
   2   1.0000    -443.540300    -12069.3451    3-A'
   3   1.0000    -443.533550    -12069.1615    4-A'
   4   1.0000    -318.185762     -8658.2748    5-A'
   5   1.0000     -56.378973     -1534.1498    6-A'
   6   1.0000     -56.366506     -1533.8106    7-A'
   7   1.0000     -56.352411     -1533.4271    8-A'
   8   1.0000     -56.348245     -1533.3137    9-A'
   9   1.0000     -51.294938     -1395.8062   10-A'
  10   1.0000     -51.293925     -1395.7787   11-A'
  11   1.0000     -51.293714     -1395.7729    1-A"
  12   1.0000     -51.285743     -1395.5560   12-A'
  13   1.0000     -51.284379     -1395.5189   13-A'
  14   1.0000     -51.283848     -1395.5045    2-A"
  15   1.0000     -51.281369     -1395.4370   14-A'
  16   1.0000     -51.279942     -1395.3982   15-A'
  17   1.0000     -51.279330     -1395.3815    3-A"
  18   1.0000     -51.277361     -1395.3279   16-A'
  19   1.0000     -51.275802     -1395.2855   17-A'
  20   1.0000     -51.275266     -1395.2709    4-A"
  21   1.0000     -38.026205     -1034.7456   18-A'
  22   1.0000     -33.528240      -912.3498   19-A'
  23   1.0000     -33.527491      -912.3294   20-A'
  24   1.0000     -33.516315      -912.0253    5-A"
  25   1.0000      -9.830432      -267.4996   21-A'
  26   1.0000      -9.818979      -267.1880   22-A'
  27   1.0000      -9.816775      -267.1280   23-A'
  28   1.0000      -9.815081      -267.0819   24-A'
  29   1.0000      -9.814190      -267.0577   25-A'
  30   1.0000      -9.813097      -267.0279   26-A'
  31   1.0000      -9.809926      -266.9417   27-A'
  32   1.0000      -9.807619      -266.8789   28-A'
  33   1.0000      -9.806336      -266.8440   29-A'
  34   1.0000      -9.803261      -266.7603   30-A'
  35   1.0000      -9.800929      -266.6968   31-A'
  36   1.0000      -9.790335      -266.4086   32-A'
  37   1.0000      -7.348312      -199.9577   33-A'
  38   1.0000      -7.338875      -199.7009   34-A'
  39   1.0000      -7.330135      -199.4631   35-A'
  40   1.0000      -7.327063      -199.3795   36-A'
  41   1.0000      -5.411117      -147.2440   37-A'
  42   1.0000      -5.406263      -147.1119    6-A"
  43   1.0000      -5.405963      -147.1037   38-A'
  44   1.0000      -5.403634      -147.0404   39-A'
  45   1.0000      -5.400406      -146.9525   40-A'
  46   1.0000      -5.398291      -146.8950   41-A'
  47   1.0000      -5.397647      -146.8775   42-A'
  48   1.0000      -5.397600      -146.8762    7-A"
  49   1.0000      -5.394929      -146.8035   43-A'
  50   1.0000      -5.393979      -146.7776    8-A"
  51   1.0000      -5.391891      -146.7208   44-A'
  52   1.0000      -5.391120      -146.6998    9-A"
  53   1.0000      -4.020489      -109.4031   45-A'
  54   1.0000      -2.540000       -69.1169   46-A'
  55   1.0000      -2.539139       -69.0935   47-A'
  56   1.0000      -2.515603       -68.4530   10-A"
  57   1.0000      -1.752234       -47.6807   48-A'
  58   1.0000      -1.747594       -47.5544   49-A'
  59   1.0000      -1.747411       -47.5495   11-A"
  60   1.0000      -1.743000       -47.4294   50-A'
  61   1.0000      -1.742892       -47.4265   12-A"
  62   1.0000      -1.742453       -47.4146   51-A'
  63   1.0000      -1.739902       -47.3452   52-A'
  64   1.0000      -1.739006       -47.3208   13-A"
  65   1.0000      -1.738713       -47.3128   53-A'
  66   1.0000      -1.736671       -47.2572   54-A'
  67   1.0000      -1.735578       -47.2275   55-A'
  68   1.0000      -1.735474       -47.2247   14-A"
  69   1.0000      -1.734636       -47.2018   56-A'
  70   1.0000      -1.734500       -47.1981   15-A"
  71   1.0000      -1.733699       -47.1764   57-A'
  72   1.0000      -1.732683       -47.1487   16-A"
  73   1.0000      -1.731057       -47.1045   17-A"
  74   1.0000      -1.731039       -47.1040   58-A'
  75   1.0000      -1.728103       -47.0241   18-A"
  76   1.0000      -1.728088       -47.0237   59-A'
  77   1.0000      -0.612150       -16.6575   60-A'
  78   1.0000      -0.604818       -16.4579   61-A'
  79   1.0000      -0.534193       -14.5361   62-A'
  80   1.0000      -0.532056       -14.4780   63-A'
  81   1.0000      -0.500271       -13.6131   64-A'
  82   1.0000      -0.492451       -13.4003   65-A'
  83   1.0000      -0.420393       -11.4395   66-A'
  84   1.0000      -0.405677       -11.0390   67-A'
  85   1.0000      -0.383469       -10.4347   68-A'
  86   1.0000      -0.375008       -10.2045   69-A'
  87   1.0000      -0.332750        -9.0546   70-A'
  88   1.0000      -0.311464        -8.4754   71-A'
  89   1.0000      -0.285062        -7.7569   72-A'
  90   1.0000      -0.281260        -7.6535   73-A'
  91   1.0000      -0.240182        -6.5357   74-A'
  92   1.0000      -0.227622        -6.1939   75-A'
  93   1.0000      -0.210971        -5.7408   76-A'
  94   1.0000      -0.209460        -5.6997   77-A'
  95   1.0000      -0.163268        -4.4427   78-A'
  96   1.0000      -0.159165        -4.3311   79-A'
  97   1.0000      -0.155106        -4.2207   80-A'
  98   1.0000      -0.137506        -3.7417   19-A"
  99   1.0000      -0.132612        -3.6086   20-A"
 100   1.0000      -0.132284        -3.5996   81-A'
 101   1.0000      -0.125937        -3.4269   82-A'
 102   1.0000      -0.104489        -2.8433   83-A'
 103   1.0000      -0.081779        -2.2253   84-A'
 104   1.0000      -0.062459        -1.6996   85-A'
 105   1.0000      -0.060008        -1.6329   21-A"
 106   1.0000      -0.058422        -1.5897   86-A'
 107   1.0000      -0.058096        -1.5809   22-A"
 108   1.0000      -0.039205        -1.0668   87-A'
 109   1.0000      -0.031674        -0.8619   88-A'
 110   1.0000      -0.029050        -0.7905   23-A"
 111   1.0000      -0.022287        -0.6065   24-A"
 112   1.0000      -0.022165        -0.6031   89-A'
 113   1.0000      -0.001774        -0.0483   25-A"
 114   1.0000      -0.000155        -0.0042   26-A"
 115   1.0000       0.002145         0.0584   90-A'
 116   1.0000       0.019188         0.5221   91-A'
 117   1.0000       0.026613         0.7242   92-A'
 118   1.0000       0.042365         1.1528   93-A'
 119   1.0000       0.047122         1.2823   27-A"
 120   1.0000       0.062473         1.7000   28-A"
 121   1.0000       0.070792         1.9264   29-A"
 122   1.0000       0.099596         2.7101   30-A"
 123   1.0000       0.117941         3.2093   94-A'
 124   0.0000       0.177530         4.8308   95-A'
 125   0.0000       0.184789         5.0284   96-A'
 126   0.0000       0.193832         5.2744   97-A'
 127   0.0000       0.196756         5.3540   98-A'
 128   0.0000       0.199831         5.4377   31-A"

                 SPIN DOWN ORBITALS
  NO   OCC          E(Eh)            E(eV)    Irrep
   0   1.0000    -443.574895    -12070.2865    1-A'
   1   1.0000    -443.556163    -12069.7768    2-A'
   2   1.0000    -443.539847    -12069.3328    3-A'
   3   1.0000    -443.533107    -12069.1494    4-A'
   4   1.0000    -318.185640     -8658.2715    5-A'
   5   1.0000     -56.378790     -1534.1449    6-A'
   6   1.0000     -56.366323     -1533.8056    7-A'
   7   1.0000     -56.352230     -1533.4221    8-A'
   8   1.0000     -56.348067     -1533.3089    9-A'
   9   1.0000     -51.294578     -1395.7964   10-A'
  10   1.0000     -51.293462     -1395.7661    1-A"
  11   1.0000     -51.293221     -1395.7595   11-A'
  12   1.0000     -51.285423     -1395.5473   12-A'
  13   1.0000     -51.283644     -1395.4989   13-A'
  14   1.0000     -51.283600     -1395.4977    2-A"
  15   1.0000     -51.281050     -1395.4283   14-A'
  16   1.0000     -51.279200     -1395.3780   15-A'
  17   1.0000     -51.279081     -1395.3747    3-A"
  18   1.0000     -51.277048     -1395.3194   16-A'
  19   1.0000     -51.275083     -1395.2660   17-A'
  20   1.0000     -51.275021     -1395.2643    4-A"
  21   1.0000     -38.012378     -1034.3694   18-A'
  22   1.0000     -33.515105      -911.9924   19-A'
  23   1.0000     -33.514350      -911.9718   20-A'
  24   1.0000     -33.512451      -911.9202    5-A"
  25   1.0000      -9.830332      -267.4969   21-A'
  26   1.0000      -9.818939      -267.1869   22-A'
  27   1.0000      -9.816740      -267.1271   23-A'
  28   1.0000      -9.815030      -267.0806   24-A'
  29   1.0000      -9.814014      -267.0529   25-A'
  30   1.0000      -9.813132      -267.0289   26-A'
  31   1.0000      -9.809792      -266.9380   27-A'
  32   1.0000      -9.807441      -266.8740   28-A'
  33   1.0000      -9.806286      -266.8426   29-A'
  34   1.0000      -9.803319      -266.7619   30-A'
  35   1.0000      -9.800974      -266.6981   31-A'
  36   1.0000      -9.790272      -266.4069   32-A'
  37   1.0000      -7.347912      -199.9468   33-A'
  38   1.0000      -7.338476      -199.6901   34-A'
  39   1.0000      -7.329729      -199.4521   35-A'
  40   1.0000      -7.326664      -199.3687   36-A'
  41   1.0000      -5.410737      -147.2336   37-A'
  42   1.0000      -5.405944      -147.1032    6-A"
  43   1.0000      -5.405150      -147.0816   38-A'
  44   1.0000      -5.403271      -147.0305   39-A'
  45   1.0000      -5.400044      -146.9427   40-A'
  46   1.0000      -5.397470      -146.8726   41-A'
  47   1.0000      -5.397296      -146.8679   42-A'
  48   1.0000      -5.397292      -146.8678    7-A"
  49   1.0000      -5.394099      -146.7809   43-A'
  50   1.0000      -5.393670      -146.7692    8-A"
  51   1.0000      -5.391081      -146.6988   44-A'
  52   1.0000      -5.390812      -146.6915    9-A"
  53   1.0000      -3.992418      -108.6392   45-A'
  54   1.0000      -2.505324       -68.1733   10-A"
  55   1.0000      -2.504992       -68.1643   46-A'
  56   1.0000      -2.503981       -68.1368   47-A'
  57   1.0000      -1.751794       -47.6687   48-A'
  58   1.0000      -1.747090       -47.5407   11-A"
  59   1.0000      -1.746685       -47.5297   49-A'
  60   1.0000      -1.742185       -47.4073   50-A'
  61   1.0000      -1.742118       -47.4054   12-A"
  62   1.0000      -1.742000       -47.4022   51-A'
  63   1.0000      -1.739010       -47.3209   52-A'
  64   1.0000      -1.738705       -47.3126   13-A"
  65   1.0000      -1.738242       -47.3000   53-A'
  66   1.0000      -1.735781       -47.2330   54-A'
  67   1.0000      -1.735175       -47.2165   14-A"
  68   1.0000      -1.735113       -47.2148   55-A'
  69   1.0000      -1.733856       -47.1806   56-A'
  70   1.0000      -1.733739       -47.1774   15-A"
  71   1.0000      -1.732834       -47.1528   57-A'
  72   1.0000      -1.732380       -47.1405   16-A"
  73   1.0000      -1.730289       -47.0836   17-A"
  74   1.0000      -1.730257       -47.0827   58-A'
  75   1.0000      -1.727349       -47.0036   18-A"
  76   1.0000      -1.727317       -47.0027   59-A'
  77   1.0000      -0.611602       -16.6425   60-A'
  78   1.0000      -0.604011       -16.4360   61-A'
  79   1.0000      -0.532444       -14.4885   62-A'
  80   1.0000      -0.531001       -14.4493   63-A'
  81   1.0000      -0.499232       -13.5848   64-A'
  82   1.0000      -0.490989       -13.3605   65-A'
  83   1.0000      -0.417146       -11.3511   66-A'
  84   1.0000      -0.403325       -10.9750   67-A'
  85   1.0000      -0.380880       -10.3643   68-A'
  86   1.0000      -0.372576       -10.1383   69-A'
  87   1.0000      -0.330881        -9.0037   70-A'
  88   1.0000      -0.309671        -8.4266   71-A'
  89   1.0000      -0.282552        -7.6886   72-A'
  90   1.0000      -0.278533        -7.5793   73-A'
  91   1.0000      -0.239164        -6.5080   74-A'
  92   1.0000      -0.226351        -6.1593   75-A'
  93   1.0000      -0.209823        -5.7096   76-A'
  94   1.0000      -0.208342        -5.6693   77-A'
  95   1.0000      -0.161394        -4.3917   78-A'
  96   1.0000      -0.158555        -4.3145   79-A'
  97   1.0000      -0.153063        -4.1651   80-A'
  98   1.0000      -0.137252        -3.7348   19-A"
  99   1.0000      -0.132253        -3.5988   20-A"
 100   1.0000      -0.130148        -3.5415   81-A'
 101   1.0000      -0.123632        -3.3642   82-A'
 102   1.0000      -0.102240        -2.7821   83-A'
 103   1.0000      -0.079895        -2.1741   84-A'
 104   1.0000      -0.058925        -1.6034   21-A"
 105   1.0000      -0.058418        -1.5896   85-A'
 106   1.0000      -0.057395        -1.5618   22-A"
 107   1.0000      -0.049570        -1.3489   86-A'
 108   1.0000      -0.037849        -1.0299   87-A'
 109   1.0000      -0.027339        -0.7439   23-A"
 110   1.0000      -0.020887        -0.5684   24-A"
 111   1.0000      -0.018599        -0.5061   88-A'
 112   1.0000      -0.001002        -0.0273   89-A'
 113   1.0000       0.007545         0.2053   25-A"
 114   1.0000       0.010932         0.2975   26-A"
 115   1.0000       0.012426         0.3381   90-A'
 116   1.0000       0.030948         0.8421   91-A'
 117   1.0000       0.035246         0.9591   92-A'
 118   1.0000       0.050497         1.3741   27-A"
 119   1.0000       0.053528         1.4566   93-A'
 120   1.0000       0.065089         1.7712   28-A"
 121   1.0000       0.072524         1.9735   29-A"
 122   1.0000       0.102865         2.7991   30-A"
 123   0.0000       0.147484         4.0132   94-A'
 124   0.0000       0.178973         4.8701   95-A'
 125   0.0000       0.186846         5.0843   96-A'
 126   0.0000       0.196268         5.3407   97-A'
 127   0.0000       0.199968         5.4414   98-A'

MULLIKEN ATOMIC CHARGES AND SPIN POPULATIONS
--------------------------------------------
   0 Cu:    0.648124    0.307986
   1 Se:   -0.546740    0.168705
   2 C :    0.140938   -0.005217
   3 Se:   -0.816349    0.176992
   4 C :    0.259969   -0.004629
   5 Se:   -0.837770    0.170222
   6 C :    0.235117    0.001818
   7 Se:   -0.760772    0.174867
   8 C :    0.248837   -0.006033
   9 C :   -0.072951    0.002742
  10 C :   -0.081500    0.000142
  11 C :   -0.138972   -0.001463
  12 H :    0.084217    0.002965
  13 C :   -0.168963   -0.001396
  14 H :    0.086449    0.002350
  15 H :    0.020664    0.000920
  16 H :    0.024914    0.001338
  17 C :   -0.168493   -0.001282
  18 C :   -0.091550   -0.003216
  19 C :   -0.121013    0.002403
  20 H :    0.093227    0.002231
  21 C :   -0.104944   -0.001044
  22 H :    0.078382    0.003956
  23 H :    0.001804    0.003247
  24 H :   -0.012625    0.001395
Sum of atomic charges         :   -2.0000000

LOEWDIN ATOMIC CHARGES AND SPIN POPULATIONS
-------------------------------------------
   0 Cu:   -0.617745    0.388546
   1 Se:   -0.190310    0.120184
   2 C :    0.001699    0.013710
   3 Se:   -0.206798    0.125684
   4 C :    0.038382    0.009248
   5 Se:   -0.203007    0.122005
   6 C :    0.082489    0.011653
   7 Se:   -0.192054    0.123679
   8 C :    0.029710    0.009582
   9 C :    0.382944    0.008588
  10 C :    0.359594    0.007466
  11 C :    0.311428   -0.000044
  12 H :   -0.449950    0.010562
  13 C :    0.321633    0.000184
  14 H :   -0.458541    0.011577
  15 H :   -0.400704    0.000114
  16 H :   -0.405258    0.000234
  17 C :    0.421118    0.007831
  18 C :    0.286838    0.005960
  19 C :    0.331844    0.002734
  20 H :   -0.482306    0.007994
  21 C :    0.261399    0.000252
  22 H :   -0.447597    0.010081
  23 H :   -0.366817    0.001576
  24 H :   -0.407991    0.000599

  Mayer bond orders larger than 0.100000
B(  0-Cu,  1-Se) :   0.5323 B(  0-Cu,  3-Se) :   0.5572 B(  0-Cu,  5-Se) :   0.5445
B(  0-Cu,  7-Se) :   0.5501 B(  1-Se,  2-C ) :   1.2010 B(  2-C ,  6-C ) :   1.0733
B(  2-C , 17-C ) :   1.2934 B(  3-Se,  4-C ) :   0.9635 B(  4-C ,  8-C ) :   1.2143
B(  4-C , 10-C ) :   1.1674 B(  5-Se,  6-C ) :   0.9688 B(  6-C , 18-C ) :   1.3284
B(  7-Se,  8-C ) :   1.0163 B(  8-C ,  9-C ) :   1.1503 B(  9-C , 13-C ) :   1.5195
B(  9-C , 14-H ) :   0.9535 B( 10-C , 11-C ) :   1.5084 B( 10-C , 12-H ) :   0.9636
B( 11-C , 13-C ) :   1.2023 B( 11-C , 15-H ) :   0.9890 B( 13-C , 16-H ) :   0.9917
B( 17-C , 19-C ) :   1.2543 B( 17-C , 20-H ) :   0.9564 B( 18-C , 21-C ) :   1.3208
B( 18-C , 22-H ) :   0.9638 B( 19-C , 21-C ) :   1.3598 B( 19-C , 23-H ) :   0.9634
B( 21-C , 24-H ) :   0.9929

FINAL SINGLE POINT ENERGY    -11626.989355652247

DIPOLE MOMENT
-------------
                                X             Y             Z
Electronic contribution:      0.33532      -0.72157       0.00000
Nuclear contribution   :     -0.55490       0.05122       0.00000
                        -----------------------------------------
Total Dipole Moment    :     -0.21958      -0.67035       0.00000
                        -----------------------------------------
Magnitude (a.u.)       :      0.70540
Magnitude (Debye)      :      1.79298

Rotational constants in cm-1:     0.017615     0.004097     0.003324
Rotational constants in MHz :   528.088144   122.816242    99.642594

                             ****ORCA TERMINATED NORMALLY****
TOTAL RUN TIME: 0 days 17 hours 10 minutes 23 seconds 762 msec
