                         Program Version 5.0.4 -  RELEASE  -
|  1> ! RIJCOSX nofrozencore ReducedPop printbasis
|  2> ! M06L ano-rcc-dzp autoaux
|  3>
|  4> %maxcore 7500
|  5> %basis
|  6> PCDTrimBas overlap
|  7> PCDTrimAuxJ Coulomb
|  8> PCDTrimAuxJK Coulomb
|  9> PCDTrimAuxC Coulomb
| 10> PCDThresh -1
| 11> end
| 12>
| 13> %basis
| 14> newgto Cu "ano-rcc-tzp" end
| 15> newgto Se "ano-rcc-tzp" end
| 16> end
| 17>
| 18> %pal
| 19> nprocs 8
| 20> end
| 21>
| 22> % sym SymThresh 1e-2 end
| 23> * xyz -2 2
| 24> Cu 4.400101970199803e-05 -1.9457196160615844e-05 2.8658816841448596e-05
| 25> Se 1.2890572343147781 0.09609524840505869 -1.9845352646767718
| 26> C 1.9957317260192429 1.573735006881116 -1.9487908580366304
| 27> Se -0.7498182093097584 -2.224527426767042 -0.31271286445989144
| 28> C -1.7489842448558253 -2.5077526048026986 0.9535464082006592
| 29> Se 0.796834084593838 2.2037370652194923 0.34333532201956574
| 30> C 1.7183618923407187 2.521293770980693 -0.973491409428548
| 31> Se -1.3361178963510543 -0.07528508221141716 1.9538836365356698
| 32> C -1.9651455171988916 -1.587260190362264 1.9687123180935424
| 33> C -2.7519190284300503 -2.007178531837706 3.0385732058193753
| 34> C -2.437891959497864 -3.7148314301641583 1.0447303692447054
| 35> C -3.2607591655835844 -4.107066721124192 2.079153992305963
| 36> H -2.307152576388215 -4.407512035471178 0.22277234088400485
| 37> C -3.388953083779628 -3.2246017274107515 3.152834241494651
| 38> H -2.8729820459670483 -1.303805002362875 3.8528953422186976
| 39> H -3.7502286518742425 -5.076898299256368 2.054244424244423
| 40> H -3.9854227663377078 -3.4520975246263546 4.032180379235244
| 41> C 2.934248062037963 1.9265537775552282 -2.9198192126128526
| 42> C 2.2555281618779435 3.7954724745516937 -1.163507859173262
| 43> C 3.531955420296385 3.1613671896467554 -3.059694577604759
| 44> H 3.2113331953107833 1.1541874626443736 -3.6325207668445034
| 45> C 3.1178778318710076 4.170247751598747 -2.1722148444495404
| 46> H 1.968696732840446 4.5571767883386345 -0.44321596002842745
| 47> H 4.250931990812016 3.3346896759438156 -3.8592484725326655
| 48> H 3.4849347371212995 5.1942106154974095 -2.227034407458787
| 49> *
| 50>
| 51> % eprnmr
| 52> gtensor true
| 53> Nuclei = all H {aiso,adip,aorb,fgrad,rho}
| 54> Nuclei = all Cu {aiso,adip,aorb,fgrad,rho}
| 55> end
| 56>
| 57>                          ****END OF INPUT****

CARTESIAN COORDINATES (ANGSTROEM)
---------------------------------
  Cu    -0.000000   -0.000000   -0.000000
  Se    -1.467436    0.610317    1.755969
  C     -0.624368    0.302765    3.126639
  Se    -1.443196    0.665055   -1.755969
  C     -0.640140    0.267151   -3.126639
  Se     1.467436   -0.610317    1.755969
  C      0.624368   -0.302765    3.126639
  Se     1.443196   -0.665055   -1.755969
  C      0.640140   -0.267151   -3.126639
  C      1.242415   -0.451586   -4.368893
  C     -1.242415    0.451586   -4.368893
  C     -0.663540    0.216117   -5.597896
  H     -2.261229    0.818279   -4.360734
  C      0.663540   -0.216117   -5.597896
  H      2.261229   -0.818279   -4.360734
  H     -1.222244    0.397492   -6.512078
  H      1.222244   -0.397492   -6.512078
  C     -1.148447    0.663782    4.368893
  C      1.148447   -0.663782    4.368893
  C     -0.589878    0.382458    5.597895
  H     -2.086841    1.212078    4.360734
  C      0.589878   -0.382458    5.597895
  H      2.086841   -1.212078    4.360734
  H     -1.085476    0.706339    6.512077
  H      1.085476   -0.706339    6.512077

 Total Charge           Charge          ....   -2
 Multiplicity           Mult            ....    2
 Number of Electrons    NEL             ....  247
 Basis Dimension        Dim             ....  575

ORBITAL ENERGIES
----------------
                 SPIN UP ORBITALS
  NO   OCC          E(Eh)            E(eV)    Irrep
   0   1.0000    -443.561152    -12069.9126    1-B
   1   1.0000    -443.560052    -12069.8826    2-B
   2   1.0000    -443.546716    -12069.5197    1-A
   3   1.0000    -443.546662    -12069.5183    2-A
   4   1.0000    -318.186763     -8658.3020    3-A
   5   1.0000     -56.369876     -1533.9023    3-B
   6   1.0000     -56.369561     -1533.8937    4-B
   7   1.0000     -56.357157     -1533.5562    4-A
   8   1.0000     -56.356857     -1533.5480    5-A
   9   1.0000     -51.286288     -1395.5708    5-B
  10   1.0000     -51.286238     -1395.5695    6-A
  11   1.0000     -51.286103     -1395.5658    6-B
  12   1.0000     -51.286061     -1395.5647    7-A
  13   1.0000     -51.284970     -1395.5350    7-B
  14   1.0000     -51.284919     -1395.5336    8-A
  15   1.0000     -51.284782     -1395.5299    8-B
  16   1.0000     -51.284724     -1395.5283    9-A
  17   1.0000     -51.284497     -1395.5221   10-A
  18   1.0000     -51.284454     -1395.5210    9-B
  19   1.0000     -51.284329     -1395.5175   11-A
  20   1.0000     -51.284281     -1395.5162   10-B
  21   1.0000     -38.027271     -1034.7747   12-A
  22   1.0000     -33.529331      -912.3795   11-B
  23   1.0000     -33.528540      -912.3580   13-A
  24   1.0000     -33.517398      -912.0548   12-B
  25   1.0000      -9.818210      -267.1671   14-A
  26   1.0000      -9.817828      -267.1567   13-B
  27   1.0000      -9.816791      -267.1285   15-A
  28   1.0000      -9.816371      -267.1170   14-B
  29   1.0000      -9.809264      -266.9236   16-A
  30   1.0000      -9.808872      -266.9130   15-B
  31   1.0000      -9.808708      -266.9085   17-A
  32   1.0000      -9.808428      -266.9009   18-A
  33   1.0000      -9.808371      -266.8993   16-B
  34   1.0000      -9.808266      -266.8965   17-B
  35   1.0000      -9.807180      -266.8669   19-A
  36   1.0000      -9.807171      -266.8667   18-B
  37   1.0000      -7.341131      -199.7623   19-B
  38   1.0000      -7.341021      -199.7593   20-B
  39   1.0000      -7.333983      -199.5678   20-A
  40   1.0000      -7.333727      -199.5609   21-A
  41   1.0000      -5.404203      -147.0558   21-B
  42   1.0000      -5.404184      -147.0553   22-A
  43   1.0000      -5.403965      -147.0494   22-B
  44   1.0000      -5.403948      -147.0489   23-A
  45   1.0000      -5.399087      -146.9166   23-B
  46   1.0000      -5.399075      -146.9163   24-A
  47   1.0000      -5.398724      -146.9067   24-B
  48   1.0000      -5.398705      -146.9062   25-A
  49   1.0000      -5.398361      -146.8969   26-A
  50   1.0000      -5.398349      -146.8965   25-B
  51   1.0000      -5.398219      -146.8930   27-A
  52   1.0000      -5.398200      -146.8925   26-B
  53   1.0000      -4.021594      -109.4331   28-A
  54   1.0000      -2.541151       -69.1482   27-B
  55   1.0000      -2.540197       -69.1223   29-A
  56   1.0000      -2.516730       -68.4837   28-B
  57   1.0000      -1.743246       -47.4361   30-A
  58   1.0000      -1.743217       -47.4354   29-B
  59   1.0000      -1.743019       -47.4300   31-A
  60   1.0000      -1.742990       -47.4292   30-B
  61   1.0000      -1.740564       -47.3632   32-A
  62   1.0000      -1.740491       -47.3612   31-B
  63   1.0000      -1.740278       -47.3554   33-A
  64   1.0000      -1.740197       -47.3532   32-B
  65   1.0000      -1.739735       -47.3406   34-A
  66   1.0000      -1.739732       -47.3405   33-B
  67   1.0000      -1.739516       -47.3346   34-B
  68   1.0000      -1.739511       -47.3345   35-A
  69   1.0000      -1.735472       -47.2246   36-A
  70   1.0000      -1.735413       -47.2230   35-B
  71   1.0000      -1.735367       -47.2217   36-B
  72   1.0000      -1.735350       -47.2213   37-A
  73   1.0000      -1.735223       -47.2178   38-A
  74   1.0000      -1.735158       -47.2160   37-B
  75   1.0000      -1.735114       -47.2149   38-B
  76   1.0000      -1.735091       -47.2142   39-A
  77   1.0000      -0.601914       -16.3789   40-A
  78   1.0000      -0.600983       -16.3536   41-A
  79   1.0000      -0.520472       -14.1628   42-A
  80   1.0000      -0.519029       -14.1235   43-A
  81   1.0000      -0.498952       -13.5772   39-B
  82   1.0000      -0.498491       -13.5646   40-B
  83   1.0000      -0.413541       -11.2530   41-B
  84   1.0000      -0.412346       -11.2205   42-B
  85   1.0000      -0.382183       -10.3997   44-A
  86   1.0000      -0.377439       -10.2706   45-A
  87   1.0000      -0.320073        -8.7096   46-A
  88   1.0000      -0.317706        -8.6452   47-A
  89   1.0000      -0.287697        -7.8286   43-B
  90   1.0000      -0.284510        -7.7419   44-B
  91   1.0000      -0.228850        -6.2273   48-A
  92   1.0000      -0.222096        -6.0435   49-A
  93   1.0000      -0.199816        -5.4373   50-A
  94   1.0000      -0.198540        -5.4025   51-A
  95   1.0000      -0.170796        -4.6476   45-B
  96   1.0000      -0.165900        -4.5144   46-B
  97   1.0000      -0.139550        -3.7973   47-B
  98   1.0000      -0.137895        -3.7523   48-B
  99   1.0000      -0.136242        -3.7073   52-A
 100   1.0000      -0.130000        -3.5375   49-B
 101   1.0000      -0.129531        -3.5247   50-B
 102   1.0000      -0.110079        -2.9954   53-A
 103   1.0000      -0.082585        -2.2472   54-A
 104   1.0000      -0.071685        -1.9506   51-B
 105   1.0000      -0.065804        -1.7906   52-B
 106   1.0000      -0.063142        -1.7182   55-A
 107   1.0000      -0.047605        -1.2954   53-B
 108   1.0000      -0.046220        -1.2577   54-B
 109   1.0000      -0.033066        -0.8998   56-A
 110   1.0000      -0.030310        -0.8248   57-A
 111   1.0000      -0.029956        -0.8151   55-B
 112   1.0000      -0.025631        -0.6975   58-A
 113   1.0000      -0.001742        -0.0474   59-A
 114   1.0000      -0.000684        -0.0186   56-B
 115   1.0000       0.000741         0.0202   60-A
 116   1.0000       0.019370         0.5271   61-A
 117   1.0000       0.021124         0.5748   62-A
 118   1.0000       0.040902         1.1130   57-B
 119   1.0000       0.054380         1.4797   63-A
 120   1.0000       0.055682         1.5152   64-A
 121   1.0000       0.070629         1.9219   58-B
 122   1.0000       0.099487         2.7072   59-B
 123   1.0000       0.116619         3.1734   60-B
 124   0.0000       0.182273         4.9599   65-A
 125   0.0000       0.182491         4.9658   66-A
 126   0.0000       0.196051         5.3348   61-B
 127   0.0000       0.196554         5.3485   62-B
 128   0.0000       0.202106         5.4996   63-B

                 SPIN DOWN ORBITALS
  NO   OCC          E(Eh)            E(eV)    Irrep
   0   1.0000    -443.560700    -12069.9003    1-B
   1   1.0000    -443.559599    -12069.8703    2-B
   2   1.0000    -443.546263    -12069.5074    1-A
   3   1.0000    -443.546210    -12069.5060    2-A
   4   1.0000    -318.186640     -8658.2986    3-A
   5   1.0000     -56.369692     -1533.8973    3-B
   6   1.0000     -56.369378     -1533.8887    4-B
   7   1.0000     -56.356976     -1533.5513    4-A
   8   1.0000     -56.356676     -1533.5431    5-A
   9   1.0000     -51.285967     -1395.5621    5-B
  10   1.0000     -51.285909     -1395.5605    6-A
  11   1.0000     -51.285781     -1395.5571    6-B
  12   1.0000     -51.285731     -1395.5557    7-A
  13   1.0000     -51.284291     -1395.5165    8-A
  14   1.0000     -51.284273     -1395.5160    7-B
  15   1.0000     -51.284165     -1395.5131    8-B
  16   1.0000     -51.284146     -1395.5126    9-A
  17   1.0000     -51.284091     -1395.5111   10-A
  18   1.0000     -51.284066     -1395.5104    9-B
  19   1.0000     -51.284011     -1395.5089   10-B
  20   1.0000     -51.283984     -1395.5081   11-A
  21   1.0000     -38.013403     -1034.3973   12-A
  22   1.0000     -33.516154      -912.0209   11-B
  23   1.0000     -33.515364      -911.9994   13-A
  24   1.0000     -33.513522      -911.9493   12-B
  25   1.0000      -9.818164      -267.1658   14-A
  26   1.0000      -9.817781      -267.1554   13-B
  27   1.0000      -9.816743      -267.1272   15-A
  28   1.0000      -9.816323      -267.1157   14-B
  29   1.0000      -9.809268      -266.9238   16-A
  30   1.0000      -9.808857      -266.9126   15-B
  31   1.0000      -9.808722      -266.9089   17-A
  32   1.0000      -9.808316      -266.8979   18-A
  33   1.0000      -9.808277      -266.8968   16-B
  34   1.0000      -9.808276      -266.8968   17-B
  35   1.0000      -9.807062      -266.8637   19-A
  36   1.0000      -9.807056      -266.8636   18-B
  37   1.0000      -7.340731      -199.7514   19-B
  38   1.0000      -7.340623      -199.7485   20-B
  39   1.0000      -7.333576      -199.5567   20-A
  40   1.0000      -7.333321      -199.5498   21-A
  41   1.0000      -5.403841      -147.0460   21-B
  42   1.0000      -5.403821      -147.0454   22-A
  43   1.0000      -5.403602      -147.0395   22-B
  44   1.0000      -5.403585      -147.0390   23-A
  45   1.0000      -5.398435      -146.8989   24-A
  46   1.0000      -5.398426      -146.8987   23-B
  47   1.0000      -5.398057      -146.8886   25-A
  48   1.0000      -5.398045      -146.8883   24-B
  49   1.0000      -5.397869      -146.8835   25-B
  50   1.0000      -5.397862      -146.8833   26-A
  51   1.0000      -5.397742      -146.8800   26-B
  52   1.0000      -5.397732      -146.8797   27-A
  53   1.0000      -3.993421      -108.6665   28-A
  54   1.0000      -2.506414       -68.2030   27-B
  55   1.0000      -2.505984       -68.1913   28-B
  56   1.0000      -2.504951       -68.1632   29-A
  57   1.0000      -1.742792       -47.4238   30-A
  58   1.0000      -1.742763       -47.4230   29-B
  59   1.0000      -1.742566       -47.4176   31-A
  60   1.0000      -1.742537       -47.4168   30-B
  61   1.0000      -1.739747       -47.3409   32-A
  62   1.0000      -1.739701       -47.3397   31-B
  63   1.0000      -1.739406       -47.3316   33-A
  64   1.0000      -1.739352       -47.3302   34-A
  65   1.0000      -1.739338       -47.3298   32-B
  66   1.0000      -1.739321       -47.3293   33-B
  67   1.0000      -1.739187       -47.3257   35-A
  68   1.0000      -1.739178       -47.3254   34-B
  69   1.0000      -1.734670       -47.2028   36-A
  70   1.0000      -1.734632       -47.2017   35-B
  71   1.0000      -1.734583       -47.2004   36-B
  72   1.0000      -1.734583       -47.2004   37-A
  73   1.0000      -1.734419       -47.1959   38-A
  74   1.0000      -1.734359       -47.1943   37-B
  75   1.0000      -1.734347       -47.1940   38-B
  76   1.0000      -1.734326       -47.1934   39-A
  77   1.0000      -0.601095       -16.3566   40-A
  78   1.0000      -0.600142       -16.3307   41-A
  79   1.0000      -0.519339       -14.1319   42-A
  80   1.0000      -0.517910       -14.0930   43-A
  81   1.0000      -0.497272       -13.5315   39-B
  82   1.0000      -0.496825       -13.5193   40-B
  83   1.0000      -0.410854       -11.1799   41-B
  84   1.0000      -0.409643       -11.1470   42-B
  85   1.0000      -0.379678       -10.3316   44-A
  86   1.0000      -0.375111       -10.2073   45-A
  87   1.0000      -0.318339        -8.6625   46-A
  88   1.0000      -0.315821        -8.5939   47-A
  89   1.0000      -0.285326        -7.7641   43-B
  90   1.0000      -0.281893        -7.6707   44-B
  91   1.0000      -0.227724        -6.1967   48-A
  92   1.0000      -0.221032        -6.0146   49-A
  93   1.0000      -0.198515        -5.4019   50-A
  94   1.0000      -0.197306        -5.3690   51-A
  95   1.0000      -0.169357        -4.6084   45-B
  96   1.0000      -0.163843        -4.4584   46-B
  97   1.0000      -0.138696        -3.7741   47-B
  98   1.0000      -0.136389        -3.7113   48-B
  99   1.0000      -0.134263        -3.6535   52-A
 100   1.0000      -0.129522        -3.5245   49-B
 101   1.0000      -0.128898        -3.5075   50-B
 102   1.0000      -0.108342        -2.9481   53-A
 103   1.0000      -0.081216        -2.2100   54-A
 104   1.0000      -0.070242        -1.9114   51-B
 105   1.0000      -0.060936        -1.6581   55-A
 106   1.0000      -0.054626        -1.4864   52-B
 107   1.0000      -0.046530        -1.2662   53-B
 108   1.0000      -0.045316        -1.2331   54-B
 109   1.0000      -0.030566        -0.8317   56-A
 110   1.0000      -0.026483        -0.7206   57-A
 111   1.0000      -0.022088        -0.6011   58-A
 112   1.0000      -0.002103        -0.0572   55-B
 113   1.0000       0.007869         0.2141   59-A
 114   1.0000       0.010471         0.2849   56-B
 115   1.0000       0.011063         0.3010   60-A
 116   1.0000       0.029174         0.7939   61-A
 117   1.0000       0.032173         0.8755   62-A
 118   1.0000       0.052084         1.4173   57-B
 119   1.0000       0.056286         1.5316   63-A
 120   1.0000       0.059313         1.6140   64-A
 121   1.0000       0.072505         1.9730   58-B
 122   1.0000       0.102799         2.7973   59-B
 123   0.0000       0.146293         3.9808   60-B
 124   0.0000       0.184153         5.0110   65-A
 125   0.0000       0.184360         5.0167   66-A
 126   0.0000       0.199011         5.4154   61-B
 127   0.0000       0.199791         5.4366   62-B

MULLIKEN ATOMIC CHARGES AND SPIN POPULATIONS
--------------------------------------------
   0 Cu:    0.638108    0.308902
   1 Se:   -0.730061    0.173796
   2 C :    0.221260   -0.002477
   3 Se:   -0.732831    0.172913
   4 C :    0.221197   -0.002841
   5 Se:   -0.730061    0.173796
   6 C :    0.221260   -0.002477
   7 Se:   -0.732831    0.172913
   8 C :    0.221197   -0.002841
   9 C :   -0.099410   -0.001551
  10 C :   -0.099410   -0.001551
  11 C :   -0.158742   -0.000743
  12 H :    0.089349    0.002790
  13 C :   -0.158742   -0.000743
  14 H :    0.089349    0.002790
  15 H :    0.020669    0.001593
  16 H :    0.020669    0.001593
  17 C :   -0.095007   -0.001380
  18 C :   -0.095007   -0.001380
  19 C :   -0.160269   -0.000776
  20 H :    0.084889    0.002673
  21 C :   -0.160269   -0.000776
  22 H :    0.084889    0.002673
  23 H :    0.019902    0.001554
  24 H :    0.019902    0.001554
Sum of atomic charges         :   -2.0000000

LOEWDIN ATOMIC CHARGES AND SPIN POPULATIONS
-------------------------------------------
   0 Cu:   -0.617148    0.389720
   1 Se:   -0.204167    0.124290
   2 C :    0.037671    0.012333
   3 Se:   -0.203410    0.123376
   4 C :    0.038013    0.011967
   5 Se:   -0.204167    0.124290
   6 C :    0.037671    0.012333
   7 Se:   -0.203410    0.123376
   8 C :    0.038013    0.011967
   9 C :    0.369201    0.006841
  10 C :    0.369201    0.006841
  11 C :    0.319704    0.000387
  12 H :   -0.457107    0.009178
  13 C :    0.319704    0.000387
  14 H :   -0.457107    0.009178
  15 H :   -0.412368    0.000384
  16 H :   -0.412368    0.000384
  17 C :    0.366505    0.006820
  18 C :    0.366505    0.006820
  19 C :    0.319653    0.000348
  20 H :   -0.452747    0.008837
  21 C :    0.319653    0.000348
  22 H :   -0.452747    0.008837
  23 H :   -0.412373    0.000378
  24 H :   -0.412373    0.000378

  Mayer bond orders larger than 0.100000
B(  0-Cu,  1-Se) :   0.5494 B(  0-Cu,  3-Se) :   0.5497 B(  0-Cu,  5-Se) :   0.5494
B(  0-Cu,  7-Se) :   0.5497 B(  1-Se,  2-C ) :   1.0385 B(  2-C ,  6-C ) :   1.1359
B(  2-C , 17-C ) :   1.2521 B(  3-Se,  4-C ) :   1.0388 B(  4-C ,  8-C ) :   1.1348
B(  4-C , 10-C ) :   1.2553 B(  5-Se,  6-C ) :   1.0385 B(  6-C , 18-C ) :   1.2521
B(  7-Se,  8-C ) :   1.0388 B(  8-C ,  9-C ) :   1.2553 B(  9-C , 13-C ) :   1.3819
B(  9-C , 14-H ) :   0.9613 B( 10-C , 11-C ) :   1.3819 B( 10-C , 12-H ) :   0.9613
B( 11-C , 13-C ) :   1.3094 B( 11-C , 15-H ) :   0.9961 B( 13-C , 16-H ) :   0.9961
B( 17-C , 19-C ) :   1.3862 B( 17-C , 20-H ) :   0.9637 B( 18-C , 21-C ) :   1.3862
B( 18-C , 22-H ) :   0.9637 B( 19-C , 21-C ) :   1.3042 B( 19-C , 23-H ) :   0.9964
B( 21-C , 24-H ) :   0.9964

FINAL SINGLE POINT ENERGY    -11627.143513887595

DIPOLE MOMENT
-------------
                                X             Y             Z
Electronic contribution:      0.00000      -0.00000      -0.01370
Nuclear contribution   :     -0.00000      -0.00000       0.00000
                        -----------------------------------------
Total Dipole Moment    :      0.00000      -0.00000      -0.01370
                        -----------------------------------------
Magnitude (a.u.)       :      0.01370
Magnitude (Debye)      :      0.03481

Rotational constants in cm-1:     0.017584     0.004096     0.003325
Rotational constants in MHz :   527.149854   122.799614    99.666038

                             ****ORCA TERMINATED NORMALLY****
TOTAL RUN TIME: 0 days 17 hours 44 minutes 24 seconds 255 msec
