                         Program Version 5.0.4 -  RELEASE  -
|  1> ! RIJCOSX nofrozencore ReducedPop printbasis
|  2> ! M06L ano-rcc-dzp autoaux
|  3>
|  4> %maxcore 7500
|  5> %basis
|  6> PCDTrimBas overlap
|  7> PCDTrimAuxJ Coulomb
|  8> PCDTrimAuxJK Coulomb
|  9> PCDTrimAuxC Coulomb
| 10> PCDThresh -1
| 11> end
| 12>
| 13> %basis
| 14> newgto Cu "ano-rcc-tzp" end
| 15> newgto Se "ano-rcc-tzp" end
| 16> end
| 17>
| 18> %pal
| 19> nprocs 8
| 20> end
| 21>
| 22> % sym SymThresh 1e-2 end
| 23> * xyz -2 2
| 24> Cu -0.3626475440579888 -0.15086739420761006 0.07089018374016698
| 25> Se -1.8975941744353255 0.27449012263104866 1.3654777261285178
| 26> C -1.4661327678343155 1.5429288205460066 2.2990621410844905
| 27> Se -0.7206203917078968 -1.7166340080525846 -1.1835774788589368
| 28> C 0.40081604046661534 -2.198041903287609 -2.288918963457739
| 29> Se 0.9292660047705721 1.8820948934776645 1.2163209938359356
| 30> C -0.271616676614404 2.2592098683375497 2.2705981895430507
| 31> Se 1.9370898954384281 -0.290805385887624 -1.4038089209483215
| 32> C 1.6477069216969096 -1.5547523724564 -2.4162217754954307
| 33> C 2.5284967707435255 -2.035034708750948 -3.3798855444755094
| 34> C 0.1537198210374551 -3.2767232210316095 -3.15285922919252
| 35> C 1.0268516743359515 -3.733591197079261 -4.090160544410661
| 36> H -0.8071806958328326 -3.763779020732986 -3.0466344203686586
| 37> C 2.2433788576308458 -3.0880900799600552 -4.197652502004927
| 38> H 3.4880140152067796 -1.5469986547398038 -3.4843842015284885
| 39> H 0.7655590929897998 -4.574624385731713 -4.723656603998685
| 40> H 2.980206157168544 -3.412679944749188 -4.9316505868233795
| 41> C -2.414010334104245 1.9439678449030546 3.2278527349160284
| 42> C -0.1543005757020042 3.3165232926187995 3.1904060761663215
| 43> C -2.288027015805617 2.9692545917010587 4.112656262865501
| 44> H -3.332707220944723 1.372715131924825 3.2307077253935423
| 45> C -1.1060645676874767 3.698892397961008 4.104015408813858
| 46> H 0.7716537496356712 3.874332248438726 3.170743070787341
| 47> H -3.096903031059333 3.200442467707516 4.801444894677825
| 48> H -0.9276130522047693 4.5313634086014085 4.777918624652954
| 49> *
| 50>
| 51> % eprnmr
| 52> gtensor true
| 53> Nuclei = all H {aiso,adip,aorb,fgrad,rho}
| 54> Nuclei = all Cu {aiso,adip,aorb,fgrad,rho}
| 55> end
| 56>
| 57>                          ****END OF INPUT****

CARTESIAN COORDINATES (ANGSTROEM)
---------------------------------
  Cu    -0.377413   -0.129841    0.000000
  Se    -2.229678    0.754501    0.000000
  C     -2.041462    2.376614    0.000000
  Se    -0.410612   -2.167574    0.000000
  C      0.983528   -3.043659    0.000000
  Se     0.608914    2.348293    0.000000
  C     -0.850845    3.099917    0.000000
  Se     2.278626   -0.784493    0.000000
  C      2.251355   -2.429346    0.000000
  C      3.370802   -3.255147    0.000000
  C      0.960106   -4.447388    0.000000
  C      2.065213   -5.240080    0.000000
  H     -0.019009   -4.909093    0.000000
  C      3.297884   -4.616632    0.000000
  H      4.348104   -2.791840    0.000000
  H      1.968683   -6.320640    0.000000
  H      4.215873   -5.203422    0.000000
  C     -3.218434    3.109208    0.000000
  C     -0.970302    4.501149    0.000000
  C     -3.320336    4.465518    0.000000
  H     -4.129255    2.525472    0.000000
  C     -2.147234    5.209368    0.000000
  H     -0.047985    5.065295    0.000000
  H     -4.298115    4.941025    0.000000
  H     -2.143122    6.295177    0.000000

 Total Charge           Charge          ....   -2
 Multiplicity           Mult            ....    2
 Number of Electrons    NEL             ....  247
 Basis Dimension        Dim             ....  575

ORBITAL ENERGIES
----------------
                 SPIN UP ORBITALS
  NO   OCC          E(Eh)            E(eV)    Irrep
   0   1.0000    -443.562495    -12069.9491    1-A'
   1   1.0000    -443.560738    -12069.9013    2-A'
   2   1.0000    -443.549037    -12069.5829    3-A'
   3   1.0000    -443.544212    -12069.4516    4-A'
   4   1.0000    -318.191218     -8658.4232    5-A'
   5   1.0000     -56.372597     -1533.9763    6-A'
   6   1.0000     -56.371061     -1533.9346    7-A'
   7   1.0000     -56.359528     -1533.6207    8-A'
   8   1.0000     -56.354283     -1533.4780    9-A'
   9   1.0000     -51.289694     -1395.6635   10-A'
  10   1.0000     -51.288261     -1395.6245   11-A'
  11   1.0000     -51.288246     -1395.6241   12-A'
  12   1.0000     -51.288071     -1395.6194    1-A"
  13   1.0000     -51.286838     -1395.5858   13-A'
  14   1.0000     -51.286668     -1395.5812   14-A'
  15   1.0000     -51.286562     -1395.5783    2-A"
  16   1.0000     -51.286038     -1395.5641   15-A'
  17   1.0000     -51.284947     -1395.5344    3-A"
  18   1.0000     -51.280599     -1395.4160   16-A'
  19   1.0000     -51.279388     -1395.3831   17-A'
  20   1.0000     -51.278810     -1395.3673    4-A"
  21   1.0000     -38.033339     -1034.9398   18-A'
  22   1.0000     -33.534388      -912.5171   19-A'
  23   1.0000     -33.533809      -912.5013   20-A'
  24   1.0000     -33.524995      -912.2615    5-A"
  25   1.0000      -9.814702      -267.0716   21-A'
  26   1.0000      -9.814674      -267.0709   22-A'
  27   1.0000      -9.813478      -267.0383   23-A'
  28   1.0000      -9.811380      -266.9812   24-A'
  29   1.0000      -9.810771      -266.9647   25-A'
  30   1.0000      -9.810354      -266.9533   26-A'
  31   1.0000      -9.809528      -266.9308   27-A'
  32   1.0000      -9.808500      -266.9029   28-A'
  33   1.0000      -9.807754      -266.8826   29-A'
  34   1.0000      -9.806612      -266.8515   30-A'
  35   1.0000      -9.805546      -266.8225   31-A'
  36   1.0000      -9.802539      -266.7406   32-A'
  37   1.0000      -7.345329      -199.8766   33-A'
  38   1.0000      -7.343707      -199.8324   34-A'
  39   1.0000      -7.335788      -199.6169   35-A'
  40   1.0000      -7.329988      -199.4591   36-A'
  41   1.0000      -5.409875      -147.2102   37-A'
  42   1.0000      -5.408279      -147.1668   38-A'
  43   1.0000      -5.404479      -147.0634    6-A"
  44   1.0000      -5.404296      -147.0584   39-A'
  45   1.0000      -5.403580      -147.0389   40-A'
  46   1.0000      -5.402651      -147.0136    7-A"
  47   1.0000      -5.402356      -147.0056   41-A'
  48   1.0000      -5.400136      -146.9452   42-A'
  49   1.0000      -5.397831      -146.8825    8-A"
  50   1.0000      -5.397726      -146.8796   43-A'
  51   1.0000      -5.392774      -146.7448   44-A'
  52   1.0000      -5.392061      -146.7254    9-A"
  53   1.0000      -4.028060      -109.6091   45-A'
  54   1.0000      -2.547976       -69.3339   46-A'
  55   1.0000      -2.545090       -69.2554   47-A'
  56   1.0000      -2.524620       -68.6984   10-A"
  57   1.0000      -1.748908       -47.5902   48-A'
  58   1.0000      -1.747453       -47.5506   49-A'
  59   1.0000      -1.746337       -47.5202   50-A'
  60   1.0000      -1.745740       -47.5040   11-A"
  61   1.0000      -1.744504       -47.4704   51-A'
  62   1.0000      -1.744063       -47.4584   12-A"
  63   1.0000      -1.742786       -47.4236   52-A'
  64   1.0000      -1.741313       -47.3835   53-A'
  65   1.0000      -1.741189       -47.3802   13-A"
  66   1.0000      -1.740960       -47.3739   54-A'
  67   1.0000      -1.739379       -47.3309   55-A'
  68   1.0000      -1.739271       -47.3280   14-A"
  69   1.0000      -1.738802       -47.3152   15-A"
  70   1.0000      -1.736702       -47.2581   56-A'
  71   1.0000      -1.735871       -47.2355   16-A"
  72   1.0000      -1.735764       -47.2325   57-A'
  73   1.0000      -1.734141       -47.1884   58-A'
  74   1.0000      -1.733235       -47.1637   17-A"
  75   1.0000      -1.729101       -47.0512   18-A"
  76   1.0000      -1.729071       -47.0504   59-A'
  77   1.0000      -0.602460       -16.3938   60-A'
  78   1.0000      -0.601157       -16.3583   61-A'
  79   1.0000      -0.524196       -14.2641   62-A'
  80   1.0000      -0.520075       -14.1520   63-A'
  81   1.0000      -0.499760       -13.5992   64-A'
  82   1.0000      -0.498288       -13.5591   65-A'
  83   1.0000      -0.416085       -11.3222   66-A'
  84   1.0000      -0.414194       -11.2708   67-A'
  85   1.0000      -0.386081       -10.5058   68-A'
  86   1.0000      -0.377250       -10.2655   69-A'
  87   1.0000      -0.320005        -8.7078   70-A'
  88   1.0000      -0.316760        -8.6195   71-A'
  89   1.0000      -0.289314        -7.8726   72-A'
  90   1.0000      -0.284624        -7.7450   73-A'
  91   1.0000      -0.232491        -6.3264   74-A'
  92   1.0000      -0.224408        -6.1064   75-A'
  93   1.0000      -0.200920        -5.4673   76-A'
  94   1.0000      -0.199091        -5.4176   77-A'
  95   1.0000      -0.173539        -4.7222   78-A'
  96   1.0000      -0.167952        -4.5702   79-A'
  97   1.0000      -0.146104        -3.9757   80-A'
  98   1.0000      -0.141599        -3.8531   81-A'
  99   1.0000      -0.133612        -3.6358   82-A'
 100   1.0000      -0.130319        -3.5462   19-A"
 101   1.0000      -0.129244        -3.5169   20-A"
 102   1.0000      -0.113978        -3.1015   83-A'
 103   1.0000      -0.087402        -2.3783   84-A'
 104   1.0000      -0.079523        -2.1639   85-A'
 105   1.0000      -0.072468        -1.9719   86-A'
 106   1.0000      -0.055373        -1.5068   87-A'
 107   1.0000      -0.054787        -1.4908   21-A"
 108   1.0000      -0.049825        -1.3558   22-A"
 109   1.0000      -0.048692        -1.3250   88-A'
 110   1.0000      -0.034807        -0.9471   23-A"
 111   1.0000      -0.030458        -0.8288   24-A"
 112   1.0000      -0.018908        -0.5145   89-A'
 113   1.0000      -0.011146        -0.3033   25-A"
 114   1.0000      -0.008160        -0.2220   26-A"
 115   1.0000      -0.003632        -0.0988   90-A'
 116   1.0000       0.015876         0.4320   91-A'
 117   1.0000       0.022603         0.6151   92-A'
 118   1.0000       0.052668         1.4332   27-A"
 119   1.0000       0.057768         1.5720   28-A"
 120   1.0000       0.058969         1.6046   93-A'
 121   1.0000       0.071396         1.9428   29-A"
 122   1.0000       0.102430         2.7873   30-A"
 123   1.0000       0.106783         2.9057   94-A'
 124   0.0000       0.181664         4.9433   95-A'
 125   0.0000       0.183129         4.9832   96-A'
 126   0.0000       0.196152         5.3376   97-A'
 127   0.0000       0.197569         5.3761   98-A'
 128   0.0000       0.201990         5.4964   31-A"

                 SPIN DOWN ORBITALS
  NO   OCC          E(Eh)            E(eV)    Irrep
   0   1.0000    -443.562011    -12069.9359    1-A'
   1   1.0000    -443.560350    -12069.8907    2-A'
   2   1.0000    -443.548366    -12069.5646    3-A'
   3   1.0000    -443.543773    -12069.4397    4-A'
   4   1.0000    -318.191050     -8658.4187    5-A'
   5   1.0000     -56.372393     -1533.9708    6-A'
   6   1.0000     -56.370917     -1533.9306    7-A'
   7   1.0000     -56.359243     -1533.6130    8-A'
   8   1.0000     -56.354101     -1533.4730    9-A'
   9   1.0000     -51.289415     -1395.6559   10-A'
  10   1.0000     -51.288026     -1395.6181   11-A'
  11   1.0000     -51.287844     -1395.6132    1-A"
  12   1.0000     -51.287581     -1395.6060   12-A'
  13   1.0000     -51.286398     -1395.5738    2-A"
  14   1.0000     -51.286252     -1395.5699   13-A'
  15   1.0000     -51.286184     -1395.5680   14-A'
  16   1.0000     -51.284735     -1395.5286   15-A'
  17   1.0000     -51.284504     -1395.5223    3-A"
  18   1.0000     -51.280270     -1395.4071   16-A'
  19   1.0000     -51.278580     -1395.3611   17-A'
  20   1.0000     -51.278544     -1395.3601    4-A"
  21   1.0000     -38.023456     -1034.6708   18-A'
  22   1.0000     -33.524947      -912.2602   19-A'
  23   1.0000     -33.524308      -912.2428   20-A'
  24   1.0000     -33.522166      -912.1845    5-A"
  25   1.0000      -9.814669      -267.0707   21-A'
  26   1.0000      -9.814629      -267.0696   22-A'
  27   1.0000      -9.813430      -267.0370   23-A'
  28   1.0000      -9.811319      -266.9796   24-A'
  29   1.0000      -9.810845      -266.9667   25-A'
  30   1.0000      -9.810272      -266.9511   26-A'
  31   1.0000      -9.809600      -266.9328   27-A'
  32   1.0000      -9.808286      -266.8970   28-A'
  33   1.0000      -9.807700      -266.8811   29-A'
  34   1.0000      -9.806477      -266.8478   30-A'
  35   1.0000      -9.805478      -266.8206   31-A'
  36   1.0000      -9.802436      -266.7378   32-A'
  37   1.0000      -7.344933      -199.8658   33-A'
  38   1.0000      -7.343438      -199.8251   34-A'
  39   1.0000      -7.335115      -199.5986   35-A'
  40   1.0000      -7.329579      -199.4480   36-A'
  41   1.0000      -5.409571      -147.2019   37-A'
  42   1.0000      -5.408030      -147.1600   38-A'
  43   1.0000      -5.404175      -147.0551    6-A"
  44   1.0000      -5.403557      -147.0383   39-A'
  45   1.0000      -5.402984      -147.0227   40-A'
  46   1.0000      -5.402441      -147.0079    7-A"
  47   1.0000      -5.401847      -146.9917   41-A'
  48   1.0000      -5.398618      -146.9039   42-A'
  49   1.0000      -5.397379      -146.8702   43-A'
  50   1.0000      -5.397310      -146.8683    8-A"
  51   1.0000      -5.391869      -146.7202   44-A'
  52   1.0000      -5.391757      -146.7172    9-A"
  53   1.0000      -4.008856      -109.0865   45-A'
  54   1.0000      -2.523625       -68.6713   46-A'
  55   1.0000      -2.521242       -68.6065   47-A'
  56   1.0000      -2.517183       -68.4960   10-A"
  57   1.0000      -1.748515       -47.5795   48-A'
  58   1.0000      -1.747159       -47.5426   49-A'
  59   1.0000      -1.745542       -47.4986   50-A'
  60   1.0000      -1.745454       -47.4962   11-A"
  61   1.0000      -1.743919       -47.4545   51-A'
  62   1.0000      -1.743840       -47.4523   12-A"
  63   1.0000      -1.741947       -47.4008   52-A'
  64   1.0000      -1.740570       -47.3633   53-A'
  65   1.0000      -1.740463       -47.3604   13-A"
  66   1.0000      -1.739450       -47.3328   54-A'
  67   1.0000      -1.738903       -47.3180   55-A'
  68   1.0000      -1.738791       -47.3149   14-A"
  69   1.0000      -1.738349       -47.3029   15-A"
  70   1.0000      -1.736275       -47.2464   56-A'
  71   1.0000      -1.734515       -47.1985   16-A"
  72   1.0000      -1.734417       -47.1959   57-A'
  73   1.0000      -1.733247       -47.1640   58-A'
  74   1.0000      -1.732977       -47.1567   17-A"
  75   1.0000      -1.728310       -47.0297   18-A"
  76   1.0000      -1.728234       -47.0276   59-A'
  77   1.0000      -0.601421       -16.3655   60-A'
  78   1.0000      -0.600410       -16.3380   61-A'
  79   1.0000      -0.522466       -14.2170   62-A'
  80   1.0000      -0.518999       -14.1227   63-A'
  81   1.0000      -0.498192       -13.5565   64-A'
  82   1.0000      -0.496449       -13.5091   65-A'
  83   1.0000      -0.413196       -11.2436   66-A'
  84   1.0000      -0.410976       -11.1832   67-A'
  85   1.0000      -0.382711       -10.4141   68-A'
  86   1.0000      -0.374889       -10.2013   69-A'
  87   1.0000      -0.318385        -8.6637   70-A'
  88   1.0000      -0.314454        -8.5567   71-A'
  89   1.0000      -0.286252        -7.7893   72-A'
  90   1.0000      -0.281882        -7.6704   73-A'
  91   1.0000      -0.230940        -6.2842   74-A'
  92   1.0000      -0.223111        -6.0712   75-A'
  93   1.0000      -0.199126        -5.4185   76-A'
  94   1.0000      -0.197858        -5.3840   77-A'
  95   1.0000      -0.172084        -4.6826   78-A'
  96   1.0000      -0.165957        -4.5159   79-A'
  97   1.0000      -0.144812        -3.9405   80-A'
  98   1.0000      -0.139836        -3.8051   81-A'
  99   1.0000      -0.131213        -3.5705   82-A'
 100   1.0000      -0.129853        -3.5335   19-A"
 101   1.0000      -0.128903        -3.5076   20-A"
 102   1.0000      -0.110982        -3.0200   83-A'
 103   1.0000      -0.085224        -2.3191   84-A'
 104   1.0000      -0.074220        -2.0196   85-A'
 105   1.0000      -0.069724        -1.8973   86-A'
 106   1.0000      -0.052513        -1.4289   21-A"
 107   1.0000      -0.050276        -1.3681   87-A'
 108   1.0000      -0.048799        -1.3279   22-A"
 109   1.0000      -0.042515        -1.1569   88-A'
 110   1.0000      -0.032342        -0.8801   23-A"
 111   1.0000      -0.028755        -0.7825   24-A"
 112   1.0000      -0.005245        -0.1427   25-A"
 113   1.0000      -0.002003        -0.0545   89-A'
 114   1.0000      -0.001956        -0.0532   26-A"
 115   1.0000       0.005875         0.1599   90-A'
 116   1.0000       0.025990         0.7072   91-A'
 117   1.0000       0.034233         0.9315   92-A'
 118   1.0000       0.055876         1.5205   27-A"
 119   1.0000       0.060204         1.6382   28-A"
 120   1.0000       0.071031         1.9328   93-A'
 121   1.0000       0.073711         2.0058   29-A"
 122   1.0000       0.105459         2.8697   30-A"
 123   0.0000       0.132427         3.6035   94-A'
 124   0.0000       0.183231         4.9860   95-A'
 125   0.0000       0.184385         5.0174   96-A'
 126   0.0000       0.198822         5.4102   97-A'
 127   0.0000       0.199984         5.4418   98-A'

MULLIKEN ATOMIC CHARGES AND SPIN POPULATIONS
--------------------------------------------
   0 Cu:    0.963240    0.213972
   1 Se:   -0.848537    0.127073
   2 C :    0.151292    0.003618
   3 Se:   -0.850002    0.161621
   4 C :    0.148206    0.010289
   5 Se:   -0.742182    0.186952
   6 C :    0.212778   -0.007092
   7 Se:   -0.677196    0.306467
   8 C :    0.244082   -0.013223
   9 C :   -0.127542   -0.000395
  10 C :   -0.103088   -0.003623
  11 C :   -0.152489   -0.001157
  12 H :    0.075871    0.002913
  13 C :   -0.131668   -0.001171
  14 H :    0.077563    0.004154
  15 H :    0.019800    0.001709
  16 H :    0.020601    0.001887
  17 C :   -0.070363   -0.000735
  18 C :   -0.113783   -0.000150
  19 C :   -0.151845   -0.000164
  20 H :    0.079704    0.002263
  21 C :   -0.155419   -0.000816
  22 H :    0.093121    0.002892
  23 H :    0.020325    0.001439
  24 H :    0.017528    0.001278
Sum of atomic charges         :   -2.0000000

LOEWDIN ATOMIC CHARGES AND SPIN POPULATIONS
-------------------------------------------
   0 Cu:   -0.572599    0.296571
   1 Se:   -0.209234    0.069871
   2 C :    0.069048    0.010581
   3 Se:   -0.247184    0.104195
   4 C :    0.082745    0.012940
   5 Se:   -0.218664    0.151467
   6 C :    0.023643    0.011013
   7 Se:   -0.227449    0.258629
   8 C :    0.028906    0.019680
   9 C :    0.358667    0.010380
  10 C :    0.370864    0.004663
  11 C :    0.311250    0.000179
  12 H :   -0.447603    0.005815
  13 C :    0.309891    0.000040
  14 H :   -0.440676    0.013267
  15 H :   -0.409117    0.000324
  16 H :   -0.410048    0.000534
  17 C :    0.371589    0.006024
  18 C :    0.366299    0.006827
  19 C :    0.314636    0.000841
  20 H :   -0.464711    0.005818
  21 C :    0.318267    0.000057
  22 H :   -0.458614    0.009594
  23 H :   -0.410256    0.000365
  24 H :   -0.409650    0.000325

  Mayer bond orders larger than 0.100000
B(  0-Cu,  1-Se) :   0.5578 B(  0-Cu,  3-Se) :   0.5060 B(  0-Cu,  4-C ) :   0.1055
B(  0-Cu,  5-Se) :   0.3969 B(  0-Cu,  7-Se) :   0.3427 B(  1-Se,  2-C ) :   1.0348
B(  2-C ,  6-C ) :   1.1477 B(  2-C , 17-C ) :   1.2494 B(  3-Se,  4-C ) :   1.0181
B(  3-Se,  7-Se) :   0.1284 B(  4-C ,  8-C ) :   1.1446 B(  4-C , 10-C ) :   1.2647
B(  5-Se,  6-C ) :   1.0340 B(  6-C , 18-C ) :   1.2526 B(  7-Se,  8-C ) :   1.0269
B(  8-C ,  9-C ) :   1.2581 B(  9-C , 13-C ) :   1.3818 B(  9-C , 14-H ) :   0.9731
B( 10-C , 11-C ) :   1.3797 B( 10-C , 12-H ) :   0.9601 B( 11-C , 13-C ) :   1.3103
B( 11-C , 15-H ) :   0.9959 B( 13-C , 16-H ) :   0.9929 B( 17-C , 19-C ) :   1.3847
B( 17-C , 20-H ) :   0.9556 B( 18-C , 21-C ) :   1.3911 B( 18-C , 22-H ) :   0.9647
B( 19-C , 21-C ) :   1.3025 B( 19-C , 23-H ) :   0.9951 B( 21-C , 24-H ) :   0.9973

FINAL SINGLE POINT ENERGY    -11627.105737686317

DIPOLE MOMENT
-------------
                                X             Y             Z
Electronic contribution:      0.33925       1.01810      -0.00000
Nuclear contribution   :     -0.68349      -1.25025       0.00000
                        -----------------------------------------
Total Dipole Moment    :     -0.34424      -0.23215      -0.00000
                        -----------------------------------------
Magnitude (a.u.)       :      0.41520
Magnitude (Debye)      :      1.05536

Rotational constants in cm-1:     0.017697     0.004106     0.003333
Rotational constants in MHz :   530.542189   123.094353    99.912938

                             ****ORCA TERMINATED NORMALLY****
TOTAL RUN TIME: 0 days 16 hours 56 minutes 50 seconds 897 msec
