                         Program Version 5.0.4 -  RELEASE  -
|  1> ! RIJCOSX nofrozencore ReducedPop printbasis
|  2> ! M06L ano-rcc-dzp autoaux
|  3>
|  4> %maxcore 7500
|  5> %basis
|  6> PCDTrimBas overlap
|  7> PCDTrimAuxJ Coulomb
|  8> PCDTrimAuxJK Coulomb
|  9> PCDTrimAuxC Coulomb
| 10> PCDThresh -1
| 11> end
| 12>
| 13> %basis
| 14> newgto Cu "ano-rcc-tzp" end
| 15> newgto Se "ano-rcc-tzp" end
| 16> end
| 17>
| 18> %pal
| 19> nprocs 8
| 20> end
| 21>
| 22> % sym SymThresh 1e-2 end
| 23> * xyz -2 2
| 24> Cu 0.029192520469148473 0.43293552949830416 0.3281934668967092
| 25> Se -0.5974747215620488 0.49741413131412815 2.102754323704356
| 26> C -0.18063213293857439 2.05534868509853 2.4310774219053175
| 27> Se -0.8409385514960618 -2.3746026812536383 0.061805877744255604
| 28> C -0.43911307676653594 -2.8220474066419112 -1.458797069315431
| 29> Se 0.7332556323042926 2.0997978982413694 -0.02631025631120294
| 30> C 0.4408731202987372 2.802766568304752 1.4358122778919467
| 31> Se 0.6751754691011197 -0.5317221972406632 -2.347582614610963
| 32> C 0.1789947086615655 -2.092437355333964 -2.4615541073862603
| 33> C 0.40329750696305955 -2.73634729848465 -3.6818331677113156
| 34> C -0.7605793927117538 -4.1347468176129825 -1.8168250656702027
| 35> C -0.5361211987521003 -4.756131924877931 -3.0163033489061686
| 36> H -1.2435581725438987 -4.72638055601182 -1.053578263338173
| 37> C 0.08000203465114629 -4.030888408601719 -4.0177483743713935
| 38> H 0.8866256340176228 -2.1391244231104216 -4.440767805576571
| 39> H -0.8433455207200602 -5.78974169104294 -3.150251598031124
| 40> H 0.30190529682055395 -4.430654308363422 -5.001371725268114
| 41> C -0.4137333716816424 2.668902358666612 3.6468055538828406
| 42> C 0.7847408950073373 4.114377474939418 1.7315544626474297
| 43> C -0.06957927516491122 3.9670001762785714 3.929035255599052
| 44> H -0.8965330784225234 2.0808824680317457 4.412968546737938
| 45> C 0.5516314170941532 4.721378286801787 2.941135422544892
| 46> H 1.2665236534890867 4.679631106732399 0.9467131938391684
| 47> H -0.28275243687301355 4.386418958820694 4.907302768993142
| 48> H 0.8452877183887275 5.751491155708 3.1088934906662278
| 49> *
| 50>
| 51> % eprnmr
| 52> gtensor true
| 53> Nuclei = all H {aiso,adip,aorb,fgrad,rho}
| 54> Nuclei = all Cu {aiso,adip,aorb,fgrad,rho}
| 55> end
| 56>
| 57>                          ****END OF INPUT****

CARTESIAN COORDINATES (ANGSTROEM)
---------------------------------
  Cu     0.437623    0.323237    0.000000
  Se     0.399840    2.205924    0.000000
  C      2.025515    2.462623    0.000000
  Se    -2.511397    0.206443    0.000000
  C     -2.893199   -1.383567    0.000000
  Se     2.219071   -0.152421    0.000000
  C      2.874209    1.360275    0.000000
  Se    -0.421463   -2.464164    0.000000
  C     -2.062864   -2.492825    0.000000
  C     -2.670062   -3.751921    0.000000
  C     -4.258120   -1.686380    0.000000
  C     -4.842772   -2.924698    0.000000
  H     -4.928455   -0.839920    0.000000
  C     -4.017126   -4.032302    0.000000
  H     -1.994082   -4.594129    0.000000
  H     -5.926329   -3.005837    0.000000
  H     -4.380615   -5.054283    0.000000
  C      2.600926    3.718681    0.000000
  C      4.241697    1.596937    0.000000
  C      3.954950    3.941779    0.000000
  H      1.934233    4.568027    0.000000
  C      4.810556    2.846847    0.000000
  H      4.885461    0.729084    0.000000
  H      4.339513    4.956901    0.000000
  H      5.888402    2.964136    0.000000

 Total Charge           Charge          ....   -2
 Multiplicity           Mult            ....    2
 Number of Electrons    NEL             ....  247
 Basis Dimension        Dim             ....  575

ORBITAL ENERGIES
----------------
                 SPIN UP ORBITALS
  NO   OCC          E(Eh)            E(eV)    Irrep
   0   1.0000    -443.582036    -12070.4808    1-A'
   1   1.0000    -443.565967    -12070.0436    2-A'
   2   1.0000    -443.549641    -12069.5993    3-A'
   3   1.0000    -443.534530    -12069.1881    4-A'
   4   1.0000    -318.215966     -8659.0967    5-A'
   5   1.0000     -56.390944     -1534.4756    6-A'
   6   1.0000     -56.377187     -1534.1012    7-A'
   7   1.0000     -56.357936     -1533.5774    8-A'
   8   1.0000     -56.344152     -1533.2023    9-A'
   9   1.0000     -51.301549     -1395.9861   10-A'
  10   1.0000     -51.300732     -1395.9639   11-A'
  11   1.0000     -51.300446     -1395.9561   12-A'
  12   1.0000     -51.299952     -1395.9427    1-A"
  13   1.0000     -51.299588     -1395.9328   13-A'
  14   1.0000     -51.299130     -1395.9203    2-A"
  15   1.0000     -51.275227     -1395.2699   14-A'
  16   1.0000     -51.274123     -1395.2398   15-A'
  17   1.0000     -51.273349     -1395.2188    3-A"
  18   1.0000     -51.272722     -1395.2017   16-A'
  19   1.0000     -51.271623     -1395.1718   17-A'
  20   1.0000     -51.270811     -1395.1497    4-A"
  21   1.0000     -38.061724     -1035.7122   18-A'
  22   1.0000     -33.563105      -913.2985   19-A'
  23   1.0000     -33.561079      -913.2434   20-A'
  24   1.0000     -33.553778      -913.0447    5-A"
  25   1.0000      -9.823418      -267.3088   21-A'
  26   1.0000      -9.822875      -267.2940   22-A'
  27   1.0000      -9.816564      -267.1223   23-A'
  28   1.0000      -9.816105      -267.1098   24-A'
  29   1.0000      -9.812584      -267.0140   25-A'
  30   1.0000      -9.812022      -266.9987   26-A'
  31   1.0000      -9.806050      -266.8362   27-A'
  32   1.0000      -9.804445      -266.7925   28-A'
  33   1.0000      -9.801049      -266.7001   29-A'
  34   1.0000      -9.800577      -266.6873   30-A'
  35   1.0000      -9.796507      -266.5765   31-A'
  36   1.0000      -9.794570      -266.5238   32-A'
  37   1.0000      -7.361513      -200.3170   33-A'
  38   1.0000      -7.354890      -200.1367   34-A'
  39   1.0000      -7.328490      -199.4184   35-A'
  40   1.0000      -7.320313      -199.1958   36-A'
  41   1.0000      -5.422023      -147.5408   37-A'
  42   1.0000      -5.420957      -147.5117   38-A'
  43   1.0000      -5.418372      -147.4414   39-A'
  44   1.0000      -5.417027      -147.4048   40-A'
  45   1.0000      -5.416856      -147.4001    6-A"
  46   1.0000      -5.415801      -147.3714    7-A"
  47   1.0000      -5.391920      -146.7216   41-A'
  48   1.0000      -5.389918      -146.6671   42-A'
  49   1.0000      -5.387187      -146.5928   43-A'
  50   1.0000      -5.385925      -146.5585    8-A"
  51   1.0000      -5.385300      -146.5415   44-A'
  52   1.0000      -5.383834      -146.5016    9-A"
  53   1.0000      -4.059481      -110.4641   45-A'
  54   1.0000      -2.583460       -70.2995   46-A'
  55   1.0000      -2.575956       -70.0953   47-A'
  56   1.0000      -2.554302       -69.5061   10-A"
  57   1.0000      -1.761601       -47.9356   48-A'
  58   1.0000      -1.760386       -47.9025   49-A'
  59   1.0000      -1.759895       -47.8892   50-A'
  60   1.0000      -1.758532       -47.8521   51-A'
  61   1.0000      -1.757797       -47.8321   11-A"
  62   1.0000      -1.756751       -47.8036   12-A"
  63   1.0000      -1.755345       -47.7654   52-A'
  64   1.0000      -1.754817       -47.7510   13-A"
  65   1.0000      -1.753986       -47.7284   53-A'
  66   1.0000      -1.753591       -47.7176   14-A"
  67   1.0000      -1.731071       -47.1048   54-A'
  68   1.0000      -1.728976       -47.0478   55-A'
  69   1.0000      -1.728507       -47.0351   56-A'
  70   1.0000      -1.727202       -46.9995   15-A"
  71   1.0000      -1.726619       -46.9837   57-A'
  72   1.0000      -1.725142       -46.9435   16-A"
  73   1.0000      -1.723235       -46.8916   17-A"
  74   1.0000      -1.723192       -46.8904   58-A'
  75   1.0000      -1.721251       -46.8376   18-A"
  76   1.0000      -1.721210       -46.8365   59-A'
  77   1.0000      -0.614882       -16.7318   60-A'
  78   1.0000      -0.592364       -16.1190   61-A'
  79   1.0000      -0.537072       -14.6145   62-A'
  80   1.0000      -0.509856       -13.8739   63-A'
  81   1.0000      -0.508378       -13.8337   64-A'
  82   1.0000      -0.491814       -13.3829   65-A'
  83   1.0000      -0.428586       -11.6624   66-A'
  84   1.0000      -0.404785       -11.0148   67-A'
  85   1.0000      -0.403197       -10.9715   68-A'
  86   1.0000      -0.362740        -9.8707   69-A'
  87   1.0000      -0.329468        -8.9653   70-A'
  88   1.0000      -0.313358        -8.5269   71-A'
  89   1.0000      -0.306432        -8.3384   72-A'
  90   1.0000      -0.271280        -7.3819   73-A'
  91   1.0000      -0.243355        -6.6220   74-A'
  92   1.0000      -0.216647        -5.8953   75-A'
  93   1.0000      -0.212197        -5.7742   76-A'
  94   1.0000      -0.189196        -5.1483   77-A'
  95   1.0000      -0.184209        -5.0126   78-A'
  96   1.0000      -0.160825        -4.3763   79-A'
  97   1.0000      -0.156299        -4.2531   80-A'
  98   1.0000      -0.154432        -4.2023   81-A'
  99   1.0000      -0.144894        -3.9428   19-A"
 100   1.0000      -0.126190        -3.4338   82-A'
 101   1.0000      -0.119700        -3.2572   20-A"
 102   1.0000      -0.105080        -2.8594   83-A'
 103   1.0000      -0.096587        -2.6283   84-A'
 104   1.0000      -0.094575        -2.5735   85-A'
 105   1.0000      -0.079531        -2.1641   21-A"
 106   1.0000      -0.077001        -2.0953   86-A'
 107   1.0000      -0.074715        -2.0331   22-A"
 108   1.0000      -0.060434        -1.6445   87-A'
 109   1.0000      -0.052918        -1.4400   88-A'
 110   1.0000      -0.042591        -1.1590   89-A'
 111   1.0000      -0.036987        -1.0065   23-A"
 112   1.0000      -0.028055        -0.7634   90-A'
 113   1.0000      -0.027274        -0.7422   24-A"
 114   1.0000      -0.024580        -0.6688   25-A"
 115   1.0000      -0.018459        -0.5023   26-A"
 116   1.0000       0.000530         0.0144   91-A'
 117   1.0000       0.042918         1.1679   92-A'
 118   1.0000       0.052634         1.4323   93-A'
 119   1.0000       0.056269         1.5312   27-A"
 120   1.0000       0.062610         1.7037   28-A"
 121   1.0000       0.063070         1.7162   29-A"
 122   1.0000       0.103196         2.8081   30-A"
 123   1.0000       0.105259         2.8642   94-A'
 124   0.0000       0.177905         4.8411   95-A'
 125   0.0000       0.187588         5.1045   96-A'
 126   0.0000       0.192814         5.2467   97-A'
 127   0.0000       0.195599         5.3225   31-A"
 128   0.0000       0.202043         5.4979   98-A'

                 SPIN DOWN ORBITALS
  NO   OCC          E(Eh)            E(eV)    Irrep
   0   1.0000    -443.581635    -12070.4699    1-A'
   1   1.0000    -443.565567    -12070.0327    2-A'
   2   1.0000    -443.549089    -12069.5843    3-A'
   3   1.0000    -443.533979    -12069.1732    4-A'
   4   1.0000    -318.215699     -8659.0894    5-A'
   5   1.0000     -56.390760     -1534.4706    6-A'
   6   1.0000     -56.377005     -1534.0963    7-A'
   7   1.0000     -56.357705     -1533.5711    8-A'
   8   1.0000     -56.343925     -1533.1962    9-A'
   9   1.0000     -51.301292     -1395.9791   10-A'
  10   1.0000     -51.300480     -1395.9570   11-A'
  11   1.0000     -51.299724     -1395.9365    1-A"
  12   1.0000     -51.299681     -1395.9353   12-A'
  13   1.0000     -51.298905     -1395.9142    2-A"
  14   1.0000     -51.298837     -1395.9123   13-A'
  15   1.0000     -51.274842     -1395.2594   14-A'
  16   1.0000     -51.273171     -1395.2139   15-A'
  17   1.0000     -51.273039     -1395.2103    3-A"
  18   1.0000     -51.272324     -1395.1909   16-A'
  19   1.0000     -51.270702     -1395.1467   17-A'
  20   1.0000     -51.270506     -1395.1414    4-A"
  21   1.0000     -38.053993     -1035.5018   18-A'
  22   1.0000     -33.555401      -913.0889   19-A'
  23   1.0000     -33.553682      -913.0421   20-A'
  24   1.0000     -33.551539      -912.9838    5-A"
  25   1.0000      -9.823400      -267.3083   21-A'
  26   1.0000      -9.822859      -267.2936   22-A'
  27   1.0000      -9.816526      -267.1213   23-A'
  28   1.0000      -9.816077      -267.1090   24-A'
  29   1.0000      -9.812609      -267.0147   25-A'
  30   1.0000      -9.812037      -266.9991   26-A'
  31   1.0000      -9.805971      -266.8340   27-A'
  32   1.0000      -9.804367      -266.7904   28-A'
  33   1.0000      -9.801054      -266.7003   29-A'
  34   1.0000      -9.800582      -266.6874   30-A'
  35   1.0000      -9.796318      -266.5714   31-A'
  36   1.0000      -9.794376      -266.5185   32-A'
  37   1.0000      -7.361173      -200.3077   33-A'
  38   1.0000      -7.354545      -200.1273   34-A'
  39   1.0000      -7.328009      -199.4053   35-A'
  40   1.0000      -7.319824      -199.1825   36-A'
  41   1.0000      -5.421688      -147.5316   37-A'
  42   1.0000      -5.420637      -147.5030   38-A'
  43   1.0000      -5.417666      -147.4222   39-A'
  44   1.0000      -5.416611      -147.3935    6-A"
  45   1.0000      -5.416314      -147.3854   40-A'
  46   1.0000      -5.415558      -147.3648    7-A"
  47   1.0000      -5.391526      -146.7109   41-A'
  48   1.0000      -5.389515      -146.6562   42-A'
  49   1.0000      -5.386130      -146.5640   43-A'
  50   1.0000      -5.385576      -146.5490    8-A"
  51   1.0000      -5.384265      -146.5133   44-A'
  52   1.0000      -5.383486      -146.4921    9-A"
  53   1.0000      -4.044663      -110.0609   45-A'
  54   1.0000      -2.564643       -69.7875   46-A'
  55   1.0000      -2.557656       -69.5974   47-A'
  56   1.0000      -2.548571       -69.3501   10-A"
  57   1.0000      -1.761173       -47.9240   48-A'
  58   1.0000      -1.759990       -47.8918   49-A'
  59   1.0000      -1.759128       -47.8683   50-A'
  60   1.0000      -1.757768       -47.8313   51-A'
  61   1.0000      -1.757559       -47.8256   11-A"
  62   1.0000      -1.756520       -47.7973   12-A"
  63   1.0000      -1.754846       -47.7518   52-A'
  64   1.0000      -1.754208       -47.7344   13-A"
  65   1.0000      -1.753452       -47.7138   53-A'
  66   1.0000      -1.752976       -47.7009   14-A"
  67   1.0000      -1.730565       -47.0911   54-A'
  68   1.0000      -1.728460       -47.0338   55-A'
  69   1.0000      -1.727482       -47.0072   56-A'
  70   1.0000      -1.726916       -46.9918   15-A"
  71   1.0000      -1.725589       -46.9557   57-A'
  72   1.0000      -1.724847       -46.9355   16-A"
  73   1.0000      -1.722331       -46.8670   17-A"
  74   1.0000      -1.722269       -46.8653   58-A'
  75   1.0000      -1.720360       -46.8134   18-A"
  76   1.0000      -1.720309       -46.8120   59-A'
  77   1.0000      -0.614139       -16.7116   60-A'
  78   1.0000      -0.591401       -16.0928   61-A'
  79   1.0000      -0.535863       -14.5816   62-A'
  80   1.0000      -0.508490       -13.8367   63-A'
  81   1.0000      -0.506985       -13.7958   64-A'
  82   1.0000      -0.489583       -13.3222   65-A'
  83   1.0000      -0.425469       -11.5776   66-A'
  84   1.0000      -0.402582       -10.9548   67-A'
  85   1.0000      -0.400113       -10.8876   68-A'
  86   1.0000      -0.359527        -9.7832   69-A'
  87   1.0000      -0.327469        -8.9109   70-A'
  88   1.0000      -0.311039        -8.4638   71-A'
  89   1.0000      -0.303855        -8.2683   72-A'
  90   1.0000      -0.268138        -7.2964   73-A'
  91   1.0000      -0.241431        -6.5697   74-A'
  92   1.0000      -0.215283        -5.8581   75-A'
  93   1.0000      -0.210812        -5.7365   76-A'
  94   1.0000      -0.187598        -5.1048   77-A'
  95   1.0000      -0.181962        -4.9514   78-A'
  96   1.0000      -0.156642        -4.2625   79-A'
  97   1.0000      -0.154633        -4.2078   80-A'
  98   1.0000      -0.152036        -4.1371   81-A'
  99   1.0000      -0.144178        -3.9233   19-A"
 100   1.0000      -0.124815        -3.3964   82-A'
 101   1.0000      -0.119334        -3.2472   20-A"
 102   1.0000      -0.102784        -2.7969   83-A'
 103   1.0000      -0.094006        -2.5580   84-A'
 104   1.0000      -0.080242        -2.1835   85-A'
 105   1.0000      -0.074300        -2.0218   21-A"
 106   1.0000      -0.071258        -1.9390   22-A"
 107   1.0000      -0.070436        -1.9167   86-A'
 108   1.0000      -0.057534        -1.5656   87-A'
 109   1.0000      -0.048138        -1.3099   88-A'
 110   1.0000      -0.038519        -1.0482   89-A'
 111   1.0000      -0.036165        -0.9841   23-A"
 112   1.0000      -0.023260        -0.6329   24-A"
 113   1.0000      -0.022870        -0.6223   25-A"
 114   1.0000      -0.022817        -0.6209   90-A'
 115   1.0000      -0.017200        -0.4680   26-A"
 116   1.0000       0.009413         0.2561   91-A'
 117   1.0000       0.054901         1.4939   92-A'
 118   1.0000       0.058819         1.6005   27-A"
 119   1.0000       0.065041         1.7699   28-A"
 120   1.0000       0.065128         1.7722   29-A"
 121   1.0000       0.069391         1.8882   93-A'
 122   1.0000       0.105825         2.8796   30-A"
 123   0.0000       0.127486         3.4691   94-A'
 124   0.0000       0.178438         4.8555   95-A'
 125   0.0000       0.188958         5.1418   96-A'
 126   0.0000       0.193643         5.2693   97-A'
 127   0.0000       0.195698         5.3252   31-A"

MULLIKEN ATOMIC CHARGES AND SPIN POPULATIONS
--------------------------------------------
   0 Cu:    1.286466    0.141944
   1 Se:   -0.910900    0.216298
   2 C :    0.115888   -0.001381
   3 Se:   -0.769480    0.210943
   4 C :    0.240281   -0.005163
   5 Se:   -0.928075    0.225002
   6 C :    0.098257   -0.002129
   7 Se:   -0.771254    0.209753
   8 C :    0.231160   -0.004620
   9 C :   -0.094991    0.000570
  10 C :   -0.081836    0.000273
  11 C :   -0.145010    0.000245
  12 H :    0.107107    0.003861
  13 C :   -0.167509    0.000081
  14 H :    0.106806    0.003684
  15 H :    0.017915    0.001672
  16 H :    0.011936    0.001931
  17 C :   -0.115192   -0.003422
  18 C :   -0.113340   -0.003106
  19 C :   -0.148632   -0.001363
  20 H :    0.066183    0.002323
  21 C :   -0.155268   -0.001257
  22 H :    0.066914    0.002307
  23 H :    0.026910    0.000767
  24 H :    0.025665    0.000788
Sum of atomic charges         :   -2.0000000

LOEWDIN ATOMIC CHARGES AND SPIN POPULATIONS
-------------------------------------------
   0 Cu:   -0.490982    0.263984
   1 Se:   -0.271404    0.133755
   2 C :    0.105532    0.009472
   3 Se:   -0.210088    0.174254
   4 C :   -0.007239    0.014415
   5 Se:   -0.290141    0.135108
   6 C :    0.114479    0.009812
   7 Se:   -0.223130    0.171530
   8 C :   -0.001167    0.015198
   9 C :    0.364642    0.009807
  10 C :    0.363560    0.010021
  11 C :    0.312554    0.001186
  12 H :   -0.482860    0.012243
  13 C :    0.316946    0.001285
  14 H :   -0.481897    0.011661
  15 H :   -0.412973    0.000516
  16 H :   -0.409693    0.000608
  17 C :    0.377967    0.003393
  18 C :    0.379744    0.003744
  19 C :    0.320128   -0.000548
  20 H :   -0.435392    0.009397
  21 C :    0.321192   -0.000441
  22 H :   -0.437369    0.009789
  23 H :   -0.411734   -0.000106
  24 H :   -0.410677   -0.000083

  Mayer bond orders larger than 0.100000
B(  0-Cu,  1-Se) :   0.4073 B(  0-Cu,  3-Se) :   0.3124 B(  0-Cu,  5-Se) :   0.4093
B(  0-Cu,  7-Se) :   0.3235 B(  1-Se,  2-C ) :   1.0506 B(  1-Se,  5-Se) :   0.1723
B(  2-C ,  6-C ) :   1.1324 B(  2-C , 17-C ) :   1.2609 B(  3-Se,  4-C ) :   1.0261
B(  4-C ,  8-C ) :   1.1429 B(  4-C , 10-C ) :   1.2428 B(  5-Se,  6-C ) :   1.0532
B(  6-C , 18-C ) :   1.2637 B(  7-Se,  8-C ) :   1.0115 B(  8-C ,  9-C ) :   1.2583
B(  9-C , 13-C ) :   1.3795 B(  9-C , 14-H ) :   0.9555 B( 10-C , 11-C ) :   1.3831
B( 10-C , 12-H ) :   0.9557 B( 11-C , 13-C ) :   1.3044 B( 11-C , 15-H ) :   0.9957
B( 13-C , 16-H ) :   1.0012 B( 17-C , 19-C ) :   1.3917 B( 17-C , 20-H ) :   0.9677
B( 18-C , 21-C ) :   1.3910 B( 18-C , 22-H ) :   0.9655 B( 19-C , 21-C ) :   1.3057
B( 19-C , 23-H ) :   0.9918 B( 21-C , 24-H ) :   0.9931

FINAL SINGLE POINT ENERGY    -11627.034473924879

DIPOLE MOMENT
-------------
                                X             Y             Z
Electronic contribution:      0.22959       0.65615      -0.00000
Nuclear contribution   :      0.78827       0.16464       0.00000
                        -----------------------------------------
Total Dipole Moment    :      1.01786       0.82079      -0.00000
                        -----------------------------------------
Magnitude (a.u.)       :      1.30757
Magnitude (Debye)      :      3.32357

Rotational constants in cm-1:     0.017482     0.004081     0.003309
Rotational constants in MHz :   524.105855   122.342900    99.189038

                             ****ORCA TERMINATED NORMALLY****
TOTAL RUN TIME: 0 days 17 hours 8 minutes 29 seconds 359 msec
