                         Program Version 5.0.4 -  RELEASE  -
|  1> ! RIJCOSX nofrozencore ReducedPop printbasis
|  2> ! M06L ano-rcc-dzp autoaux
|  3>
|  4> %maxcore 7500
|  5> %basis
|  6> PCDTrimBas overlap
|  7> PCDTrimAuxJ Coulomb
|  8> PCDTrimAuxJK Coulomb
|  9> PCDTrimAuxC Coulomb
| 10> PCDThresh -1
| 11> end
| 12>
| 13> %basis
| 14> newgto Cu "ano-rcc-tzp" end
| 15> newgto Se "ano-rcc-tzp" end
| 16> end
| 17>
| 18> %pal
| 19> nprocs 8
| 20> end
| 21>
| 22> % sym SymThresh 1e-2 end
| 23> * xyz -2 2
| 24> Cu 6.750834981812844e-06 9.632026930727486e-07 -1.8179616817204633e-05
| 25> Se -1.3094444989216776 0.23050571976278106 -1.9596418537437905
| 26> C -0.22341511478487996 0.25615460098774423 -3.1845403757934156
| 27> Se -1.8273835166484986 -0.0009516526075844747 1.5062503831407585
| 28> C -1.1455134553740043 -0.15590416514870603 2.985733963887673
| 29> Se 1.8274112476742226 0.0009440242896022573 -1.5061727764466075
| 30> C 1.1455657632227318 0.155973736298179 -2.98669123748708
| 31> Se 1.309422146886473 -0.23050492765319744 1.9596497124386325
| 32> C 0.22340802278582642 -0.2562347673758573 3.185599963946316
| 33> C 0.6436983309179202 -0.382096365124804 4.496502747232442
| 34> C -1.9313035692141343 -0.1935920343309706 4.123463805061146
| 35> C -1.530936889756572 -0.31917080116442054 5.446934746211996
| 36> H -3.1926276132536624 -0.10099617105649317 3.9373189633377623
| 37> C -0.1283022436742438 -0.42164426564575036 5.647410936396007
| 38> H 1.8955870028414017 -0.4733418218667833 4.672609097673331
| 39> H -2.00658640632205 -0.3315693564256684 5.99872004419343
| 40> H 0.176874560069168 -0.4929861986661771 6.335746264151211
| 41> C -0.6582333219474993 0.3832603922224583 -4.499922738560792
| 42> C 1.947200465246666 0.19257507431846654 -4.123090266758103
| 43> C 0.14123408678251936 0.418894347408824 -5.621833884092951
| 44> H -1.7164111650132605 0.4600577115330564 -4.644450846143362
| 45> C 1.5090321487955003 0.3187270284872424 -5.4231959474378515
| 46> H 2.9999073749789544 0.1149116316946683 -3.9627048733779238
| 47> H -0.3103478822438631 0.523520248336379 -6.628013969627521
| 48> H 2.2429324470431573 0.3373104035516946 -6.267380497136088
| 49> *
| 50>
| 51> % eprnmr
| 52> gtensor true
| 53> Nuclei = all H {aiso,adip,aorb,fgrad,rho}
| 54> Nuclei = all Cu {aiso,adip,aorb,fgrad,rho}
| 55> end
| 56>
| 57>                          ****END OF INPUT****

CARTESIAN COORDINATES (ANGSTROEM)
---------------------------------
  Cu    -0.000018    0.000007    0.000000
  Se    -1.968387   -1.316597    0.000000
  C     -3.194260   -0.231364    0.000000
  Se     1.506289   -1.827352    0.000000
  C      2.991651   -1.140674    0.000000
  Se    -1.506211    1.827380    0.000000
  C     -2.992611    1.140724    0.000000
  Se     1.968395    1.316574    0.000000
  C      3.195323    0.231359    0.000000
  C      4.511001    0.655555    0.000000
  C      4.130812   -1.925294    0.000000
  C      5.459048   -1.521031    0.000000
  H      3.941155   -3.189491    0.000000
  C      5.663411   -0.115218    0.000000
  H      4.690568    1.910274    0.000000
  H      6.011304   -1.996295    0.000000
  H      6.354453    0.192173    0.000000
  C     -4.514465   -0.670126    0.000000
  C     -4.130400    1.941223    0.000000
  C     -5.637729    0.128235    0.000000
  H     -4.661906   -1.730686    0.000000
  C     -5.435292    1.499140    0.000000
  H     -3.967069    2.996339    0.000000
  H     -6.647879   -0.326594    0.000000
  H     -6.280182    2.232463    0.000000

 Total Charge           Charge          ....   -2
 Multiplicity           Mult            ....    2
 Number of Electrons    NEL             ....  247
 Basis Dimension        Dim             ....  575

ORBITAL ENERGIES
----------------
                 SPIN UP ORBITALS
  NO   OCC          E(Eh)            E(eV)    Irrep
   0   1.0000    -443.561216    -12069.9143    1-A'
   1   1.0000    -443.560105    -12069.8841    2-A'
   2   1.0000    -443.546497    -12069.5138    3-A'
   3   1.0000    -443.546196    -12069.5056    4-A'
   4   1.0000    -318.186133     -8658.2848    5-A'
   5   1.0000     -56.369921     -1533.9035    6-A'
   6   1.0000     -56.369352     -1533.8880    7-A'
   7   1.0000     -56.356863     -1533.5482    8-A'
   8   1.0000     -56.356291     -1533.5326    9-A'
   9   1.0000     -51.286201     -1395.5685   10-A'
  10   1.0000     -51.286085     -1395.5653   11-A'
  11   1.0000     -51.285482     -1395.5489   12-A'
  12   1.0000     -51.285432     -1395.5476   13-A'
  13   1.0000     -51.284853     -1395.5318   14-A'
  14   1.0000     -51.284734     -1395.5285   15-A'
  15   1.0000     -51.284410     -1395.5198    1-A"
  16   1.0000     -51.284293     -1395.5165    2-A"
  17   1.0000     -51.284141     -1395.5124   16-A'
  18   1.0000     -51.284079     -1395.5107   17-A'
  19   1.0000     -51.283708     -1395.5006    3-A"
  20   1.0000     -51.283655     -1395.4992    4-A"
  21   1.0000     -38.026706     -1034.7593   18-A'
  22   1.0000     -33.528755      -912.3638   19-A'
  23   1.0000     -33.527951      -912.3419   20-A'
  24   1.0000     -33.516789      -912.0382    5-A"
  25   1.0000      -9.823963      -267.3236   21-A'
  26   1.0000      -9.822785      -267.2916   22-A'
  27   1.0000      -9.818552      -267.1764   23-A'
  28   1.0000      -9.817420      -267.1456   24-A'
  29   1.0000      -9.810060      -266.9453   25-A'
  30   1.0000      -9.809599      -266.9328   26-A'
  31   1.0000      -9.807953      -266.8880   27-A'
  32   1.0000      -9.807496      -266.8755   28-A'
  33   1.0000      -9.805206      -266.8132   29-A'
  34   1.0000      -9.804886      -266.8045   30-A'
  35   1.0000      -9.789546      -266.3871   31-A'
  36   1.0000      -9.788753      -266.3655   32-A'
  37   1.0000      -7.341137      -199.7625   33-A'
  38   1.0000      -7.340442      -199.7436   34-A'
  39   1.0000      -7.333750      -199.5615   35-A'
  40   1.0000      -7.333054      -199.5425   36-A'
  41   1.0000      -5.404178      -147.0552   37-A'
  42   1.0000      -5.404088      -147.0527   38-A'
  43   1.0000      -5.403295      -147.0311   39-A'
  44   1.0000      -5.403251      -147.0299   40-A'
  45   1.0000      -5.398745      -146.9073   41-A'
  46   1.0000      -5.398695      -146.9060   42-A'
  47   1.0000      -5.398377      -146.8973    6-A"
  48   1.0000      -5.398299      -146.8952    7-A"
  49   1.0000      -5.397947      -146.8856   43-A'
  50   1.0000      -5.397921      -146.8849   44-A'
  51   1.0000      -5.397592      -146.8760    8-A"
  52   1.0000      -5.397555      -146.8749    9-A"
  53   1.0000      -4.021016      -109.4174   45-A'
  54   1.0000      -2.540578       -69.1326   46-A'
  55   1.0000      -2.539621       -69.1066   47-A'
  56   1.0000      -2.516111       -68.4669   10-A"
  57   1.0000      -1.743187       -47.4345   48-A'
  58   1.0000      -1.743082       -47.4317   49-A'
  59   1.0000      -1.742297       -47.4103   50-A'
  60   1.0000      -1.742256       -47.4092   51-A'
  61   1.0000      -1.740474       -47.3607   52-A'
  62   1.0000      -1.740345       -47.3572   53-A'
  63   1.0000      -1.739690       -47.3394   11-A"
  64   1.0000      -1.739639       -47.3380   12-A"
  65   1.0000      -1.739617       -47.3374   54-A'
  66   1.0000      -1.739524       -47.3349   55-A'
  67   1.0000      -1.738843       -47.3163   13-A"
  68   1.0000      -1.738836       -47.3161   14-A"
  69   1.0000      -1.735267       -47.2190   56-A'
  70   1.0000      -1.735219       -47.2177   15-A"
  71   1.0000      -1.735198       -47.2171   57-A'
  72   1.0000      -1.735106       -47.2146   16-A"
  73   1.0000      -1.734500       -47.1981   58-A'
  74   1.0000      -1.734426       -47.1961   17-A"
  75   1.0000      -1.734424       -47.1961   59-A'
  76   1.0000      -1.734360       -47.1943   18-A"
  77   1.0000      -0.603418       -16.4198   60-A'
  78   1.0000      -0.602372       -16.3914   61-A'
  79   1.0000      -0.535784       -14.5794   62-A'
  80   1.0000      -0.520476       -14.1629   63-A'
  81   1.0000      -0.499204       -13.5840   64-A'
  82   1.0000      -0.496848       -13.5199   65-A'
  83   1.0000      -0.432300       -11.7635   66-A'
  84   1.0000      -0.411549       -11.1988   67-A'
  85   1.0000      -0.400377       -10.8948   68-A'
  86   1.0000      -0.379785       -10.3345   69-A'
  87   1.0000      -0.322199        -8.7675   70-A'
  88   1.0000      -0.320692        -8.7265   71-A'
  89   1.0000      -0.304853        -8.2955   72-A'
  90   1.0000      -0.283149        -7.7049   73-A'
  91   1.0000      -0.252769        -6.8782   74-A'
  92   1.0000      -0.223965        -6.0944   75-A'
  93   1.0000      -0.200031        -5.4431   76-A'
  94   1.0000      -0.195180        -5.3111   77-A'
  95   1.0000      -0.186606        -5.0778   78-A'
  96   1.0000      -0.167044        -4.5455   79-A'
  97   1.0000      -0.139245        -3.7890   80-A'
  98   1.0000      -0.137128        -3.7314   81-A'
  99   1.0000      -0.130209        -3.5432   19-A"
 100   1.0000      -0.129943        -3.5359   20-A"
 101   1.0000      -0.117310        -3.1922   82-A'
 102   1.0000      -0.109656        -2.9839   83-A'
 103   1.0000      -0.076352        -2.0776   84-A'
 104   1.0000      -0.075673        -2.0592   85-A'
 105   1.0000      -0.066305        -1.8042   86-A'
 106   1.0000      -0.055257        -1.5036   87-A'
 107   1.0000      -0.048178        -1.3110   21-A"
 108   1.0000      -0.044968        -1.2236   22-A"
 109   1.0000      -0.032931        -0.8961   23-A"
 110   1.0000      -0.029248        -0.7959   88-A'
 111   1.0000      -0.029126        -0.7925   89-A'
 112   1.0000      -0.026652        -0.7253   24-A"
 113   1.0000      -0.001139        -0.0310   25-A"
 114   1.0000      -0.000222        -0.0060   26-A"
 115   1.0000       0.001296         0.0353   90-A'
 116   1.0000       0.019628         0.5341   91-A'
 117   1.0000       0.021160         0.5758   92-A'
 118   1.0000       0.042085         1.1452   93-A'
 119   1.0000       0.055581         1.5124   27-A"
 120   1.0000       0.056657         1.5417   28-A"
 121   1.0000       0.070415         1.9161   29-A"
 122   1.0000       0.099393         2.7046   30-A"
 123   1.0000       0.117448         3.1959   94-A'
 124   0.0000       0.181813         4.9474   95-A'
 125   0.0000       0.186876         5.0851   96-A'
 126   0.0000       0.196237         5.3399   97-A'
 127   0.0000       0.199368         5.4251   98-A'
 128   0.0000       0.203065         5.5257   31-A"

                 SPIN DOWN ORBITALS
  NO   OCC          E(Eh)            E(eV)    Irrep
   0   1.0000    -443.560758    -12069.9019    1-A'
   1   1.0000    -443.559652    -12069.8717    2-A'
   2   1.0000    -443.546034    -12069.5012    3-A'
   3   1.0000    -443.545748    -12069.4934    4-A'
   4   1.0000    -318.186010     -8658.2815    5-A'
   5   1.0000     -56.369734     -1533.8984    6-A'
   6   1.0000     -56.369170     -1533.8831    7-A'
   7   1.0000     -56.356679     -1533.5432    8-A'
   8   1.0000     -56.356111     -1533.5278    9-A'
   9   1.0000     -51.285878     -1395.5597   10-A'
  10   1.0000     -51.285759     -1395.5564   11-A'
  11   1.0000     -51.285164     -1395.5403   12-A'
  12   1.0000     -51.285106     -1395.5387   13-A'
  13   1.0000     -51.284155     -1395.5128    1-A"
  14   1.0000     -51.284093     -1395.5111   14-A'
  15   1.0000     -51.284037     -1395.5096    2-A"
  16   1.0000     -51.283978     -1395.5080   15-A'
  17   1.0000     -51.283460     -1395.4939    3-A"
  18   1.0000     -51.283413     -1395.4926   16-A'
  19   1.0000     -51.283407     -1395.4925    4-A"
  20   1.0000     -51.283360     -1395.4912   17-A'
  21   1.0000     -38.012804     -1034.3810   18-A'
  22   1.0000     -33.515545      -912.0043   19-A'
  23   1.0000     -33.514742      -911.9825   20-A'
  24   1.0000     -33.512904      -911.9325    5-A"
  25   1.0000      -9.823836      -267.3202   21-A'
  26   1.0000      -9.822659      -267.2881   22-A'
  27   1.0000      -9.818503      -267.1750   23-A'
  28   1.0000      -9.817371      -267.1442   24-A'
  29   1.0000      -9.810086      -266.9460   25-A'
  30   1.0000      -9.809624      -266.9334   26-A'
  31   1.0000      -9.807972      -266.8885   27-A'
  32   1.0000      -9.807513      -266.8760   28-A'
  33   1.0000      -9.805088      -266.8100   29-A'
  34   1.0000      -9.804768      -266.8013   30-A'
  35   1.0000      -9.789493      -266.3856   31-A'
  36   1.0000      -9.788699      -266.3640   32-A'
  37   1.0000      -7.340729      -199.7514   33-A'
  38   1.0000      -7.340047      -199.7328   34-A'
  39   1.0000      -7.333334      -199.5502   35-A'
  40   1.0000      -7.332652      -199.5316   36-A'
  41   1.0000      -5.403812      -147.0452   37-A'
  42   1.0000      -5.403722      -147.0428   38-A'
  43   1.0000      -5.402933      -147.0213   39-A'
  44   1.0000      -5.402889      -147.0201   40-A'
  45   1.0000      -5.398058      -146.8886    6-A"
  46   1.0000      -5.397981      -146.8865    7-A"
  47   1.0000      -5.397892      -146.8841   41-A'
  48   1.0000      -5.397846      -146.8828   42-A'
  49   1.0000      -5.397282      -146.8675    8-A"
  50   1.0000      -5.397245      -146.8665    9-A"
  51   1.0000      -5.397134      -146.8635   43-A'
  52   1.0000      -5.397108      -146.8628   44-A'
  53   1.0000      -3.992784      -108.6492   45-A'
  54   1.0000      -2.505774       -68.1856   10-A"
  55   1.0000      -2.505332       -68.1735   46-A'
  56   1.0000      -2.504301       -68.1455   47-A'
  57   1.0000      -1.742733       -47.4222   48-A'
  58   1.0000      -1.742631       -47.4194   49-A'
  59   1.0000      -1.741851       -47.3982   50-A'
  60   1.0000      -1.741813       -47.3971   51-A'
  61   1.0000      -1.739556       -47.3357   52-A'
  62   1.0000      -1.739424       -47.3321   53-A'
  63   1.0000      -1.739384       -47.3311   11-A"
  64   1.0000      -1.739332       -47.3296   12-A"
  65   1.0000      -1.738732       -47.3133   54-A'
  66   1.0000      -1.738635       -47.3107   55-A'
  67   1.0000      -1.738538       -47.3080   13-A"
  68   1.0000      -1.738530       -47.3078   14-A"
  69   1.0000      -1.734439       -47.1965   56-A'
  70   1.0000      -1.734422       -47.1960   15-A"
  71   1.0000      -1.734377       -47.1948   57-A'
  72   1.0000      -1.734315       -47.1931   16-A"
  73   1.0000      -1.733709       -47.1766   58-A'
  74   1.0000      -1.733663       -47.1754   17-A"
  75   1.0000      -1.733636       -47.1746   59-A'
  76   1.0000      -1.733600       -47.1737   18-A"
  77   1.0000      -0.602662       -16.3993   60-A'
  78   1.0000      -0.601581       -16.3699   61-A'
  79   1.0000      -0.534858       -14.5542   62-A'
  80   1.0000      -0.519348       -14.1322   63-A'
  81   1.0000      -0.497543       -13.5388   64-A'
  82   1.0000      -0.495250       -13.4764   65-A'
  83   1.0000      -0.430221       -11.7069   66-A'
  84   1.0000      -0.408852       -11.1254   67-A'
  85   1.0000      -0.397875       -10.8267   68-A'
  86   1.0000      -0.377445       -10.2708   69-A'
  87   1.0000      -0.319518        -8.6945   70-A'
  88   1.0000      -0.318880        -8.6772   71-A'
  89   1.0000      -0.302676        -8.2362   72-A'
  90   1.0000      -0.280637        -7.6365   73-A'
  91   1.0000      -0.251702        -6.8492   74-A'
  92   1.0000      -0.222869        -6.0646   75-A'
  93   1.0000      -0.198763        -5.4086   76-A'
  94   1.0000      -0.194127        -5.2825   77-A'
  95   1.0000      -0.184179        -5.0118   78-A'
  96   1.0000      -0.165292        -4.4978   79-A'
  97   1.0000      -0.137057        -3.7295   80-A'
  98   1.0000      -0.135748        -3.6939   81-A'
  99   1.0000      -0.129838        -3.5331   19-A"
 100   1.0000      -0.129535        -3.5248   20-A"
 101   1.0000      -0.116489        -3.1698   82-A'
 102   1.0000      -0.107660        -2.9296   83-A'
 103   1.0000      -0.074741        -2.0338   84-A'
 104   1.0000      -0.073343        -1.9958   85-A'
 105   1.0000      -0.055478        -1.5096   86-A'
 106   1.0000      -0.053525        -1.4565   87-A'
 107   1.0000      -0.047275        -1.2864   21-A"
 108   1.0000      -0.044167        -1.2019   22-A"
 109   1.0000      -0.030538        -0.8310   23-A"
 110   1.0000      -0.025684        -0.6989   24-A"
 111   1.0000      -0.022753        -0.6191   88-A'
 112   1.0000      -0.001090        -0.0297   89-A'
 113   1.0000       0.008517         0.2318   25-A"
 114   1.0000       0.010946         0.2979   26-A"
 115   1.0000       0.011592         0.3154   90-A'
 116   1.0000       0.029301         0.7973   91-A'
 117   1.0000       0.032742         0.8910   92-A'
 118   1.0000       0.053362         1.4520   93-A'
 119   1.0000       0.057442         1.5631   27-A"
 120   1.0000       0.060279         1.6403   28-A"
 121   1.0000       0.072162         1.9636   29-A"
 122   1.0000       0.102677         2.7940   30-A"
 123   0.0000       0.147318         4.0087   94-A'
 124   0.0000       0.183824         5.0021   95-A'
 125   0.0000       0.188882         5.1397   96-A'
 126   0.0000       0.199743         5.4353   97-A'
 127   0.0000       0.201848         5.4926   98-A'

MULLIKEN ATOMIC CHARGES AND SPIN POPULATIONS
--------------------------------------------
   0 Cu:    0.638597    0.309968
   1 Se:   -0.737033    0.171098
   2 C :    0.219906   -0.003054
   3 Se:   -0.709694    0.176334
   4 C :    0.227679   -0.003595
   5 Se:   -0.736745    0.171234
   6 C :    0.221113   -0.003152
   7 Se:   -0.713026    0.175959
   8 C :    0.228295   -0.003419
   9 C :   -0.097090   -0.000498
  10 C :   -0.096784   -0.000435
  11 C :   -0.774211   -0.000210
  12 H :   -0.071836    0.002078
  13 C :   -0.676930   -0.000335
  14 H :   -0.066912    0.002133
  15 H :    0.770501    0.000721
  16 H :    0.665637    0.000807
  17 C :   -0.106013   -0.001644
  18 C :   -0.106879   -0.001604
  19 C :   -0.140833   -0.000746
  20 H :    0.104322    0.002871
  21 C :   -0.137973   -0.000768
  22 H :    0.108453    0.002820
  23 H :   -0.000862    0.001677
  24 H :   -0.011683    0.001763
Sum of atomic charges         :   -2.0000000

LOEWDIN ATOMIC CHARGES AND SPIN POPULATIONS
-------------------------------------------
   0 Cu:   -0.616644    0.390558
   1 Se:   -0.202293    0.121749
   2 C :    0.039397    0.011709
   3 Se:   -0.220833    0.125788
   4 C :    0.017733    0.011470
   5 Se:   -0.201765    0.121672
   6 C :    0.039827    0.011710
   7 Se:   -0.219910    0.125751
   8 C :    0.019125    0.011424
   9 C :    0.374267    0.006878
  10 C :    0.378897    0.006887
  11 C :    0.642329    0.000569
  12 H :   -0.288902    0.009657
  13 C :    0.620916    0.000550
  14 H :   -0.296210    0.009709
  15 H :   -0.881520   -0.000108
  16 H :   -0.833791   -0.000095
  17 C :    0.371780    0.006838
  18 C :    0.371677    0.006838
  19 C :    0.303780    0.000411
  20 H :   -0.470544    0.009356
  21 C :    0.300371    0.000419
  22 H :   -0.474136    0.009330
  23 H :   -0.391885    0.000442
  24 H :   -0.381666    0.000487

  Mayer bond orders larger than 0.100000
B(  0-Cu,  1-Se) :   0.5481 B(  0-Cu,  3-Se) :   0.5534 B(  0-Cu,  5-Se) :   0.5484
B(  0-Cu,  7-Se) :   0.5527 B(  1-Se,  2-C ) :   1.0410 B(  2-C ,  6-C ) :   1.1337
B(  2-C , 17-C ) :   1.2585 B(  3-Se,  4-C ) :   1.0420 B(  4-C ,  8-C ) :   1.1259
B(  4-C , 10-C ) :   1.2570 B(  5-Se,  6-C ) :   1.0406 B(  6-C , 18-C ) :   1.2586
B(  7-Se,  8-C ) :   1.0404 B(  8-C ,  9-C ) :   1.2564 B(  9-C , 13-C ) :   1.4766
B(  9-C , 14-H ) :   1.0051 B( 10-C , 11-C ) :   1.4861 B( 10-C , 12-H ) :   1.0036
B( 11-C , 13-C ) :   1.4797 B( 11-C , 15-H ) :   0.1252 B( 13-C , 16-H ) :   0.3072
B( 17-C , 19-C ) :   1.3773 B( 17-C , 20-H ) :   0.9527 B( 18-C , 21-C ) :   1.3778
B( 18-C , 22-H ) :   0.9504 B( 19-C , 21-C ) :   1.3096 B( 19-C , 23-H ) :   1.0039
B( 21-C , 24-H ) :   1.0077

FINAL SINGLE POINT ENERGY    -11626.799042741508

DIPOLE MOMENT
-------------
                                X             Y             Z
Electronic contribution:      0.74324      -0.11164       0.00000
Nuclear contribution   :     -0.52575       0.08264       0.00000
                        -----------------------------------------
Total Dipole Moment    :      0.21748      -0.02900       0.00000
                        -----------------------------------------
Magnitude (a.u.)       :      0.21941
Magnitude (Debye)      :      0.55769

Rotational constants in cm-1:     0.017605     0.004099     0.003325
Rotational constants in MHz :   527.788953   122.872870    99.669200

                             ****ORCA TERMINATED NORMALLY****
TOTAL RUN TIME: 0 days 16 hours 56 minutes 26 seconds 791 msec
