                         Program Version 5.0.4 -  RELEASE  -
|  1> ! RIJCOSX nofrozencore ReducedPop printbasis
|  2> ! M06L ano-rcc-dzp autoaux
|  3>
|  4> %maxcore 7500
|  5> %basis
|  6> PCDTrimBas overlap
|  7> PCDTrimAuxJ Coulomb
|  8> PCDTrimAuxJK Coulomb
|  9> PCDTrimAuxC Coulomb
| 10> PCDThresh -1
| 11> end
| 12>
| 13> %basis
| 14> newgto Cu "ano-rcc-tzp" end
| 15> newgto Se "ano-rcc-tzp" end
| 16> end
| 17>
| 18> %pal
| 19> nprocs 8
| 20> end
| 21>
| 22> % sym SymThresh 1e-2 end
| 23> * xyz -2 2
| 24> Cu 0.15727555258265685 0.07491502499281474 -0.05124941094437954
| 25> Se -1.0776366106819866 1.4019620113769236 -1.833768745264738
| 26> C 0.35936789068910885 2.079563414530484 -2.2941712091738
| 27> Se -1.9554721840893878 -0.9769810550147385 0.6891470607090833
| 28> C -1.7253999577656094 -2.0235419868589424 1.9331026629026713
| 29> Se 2.1883953695487808 0.9339912934445002 -0.5894357937149101
| 30> C 1.6546743088490783 1.9048757449794993 -1.813116173119258
| 31> Se 0.7561619959732058 -1.3233686056905591 1.6741781390579211
| 32> C -0.4417974028091214 -2.1820520533041075 2.393157974319381
| 33> C -0.23998279900887348 -3.0658152306753617 3.44524841196275
| 34> C -2.7290754489062317 -2.754342358781866 2.5484597812128023
| 35> C -2.532653917531747 -3.639721879442511 3.6012194132833084
| 36> H -3.7380059733043303 -2.6296082035636776 2.1866864996678785
| 37> C -1.2362480712440342 -3.800108988458721 4.066199668991508
| 38> H 0.7712056691963451 -3.186771787963729 3.8032034273246382
| 39> H -3.3728708889182433 -4.176076350631087 4.030312437779311
| 40> H -0.9930195814052482 -4.47065227016336 4.8840598332197915
| 41> C 0.24391157891488313 2.9844942355737296 -3.3516235410462545
| 42> C 2.6473869260717096 2.6480252130398667 -2.4449443003252154
| 43> C 1.2344157491805174 3.7161749643964916 -3.970847120805438
| 44> H -0.7618103910309386 3.120060377116769 -3.7250574099085045
| 45> C 2.5211668640549227 3.5366082601028754 -3.4860856735928887
| 46> H 3.643196155102435 2.492230401177495 -2.050591656267893
| 47> H 0.9940133320762995 4.387047359787116 -4.788467964995639
| 48> H 3.388500513212378 4.051646926928665 -3.8849614697243733
| 49> *
| 50>
| 51> % eprnmr
| 52> gtensor true
| 53> Nuclei = all H {aiso,adip,aorb,fgrad,rho}
| 54> Nuclei = all Cu {aiso,adip,aorb,fgrad,rho}
| 55> end
| 56>
| 57>                          ****END OF INPUT****

CARTESIAN COORDINATES (ANGSTROEM)
---------------------------------
  Cu    -0.077926    0.164018    0.000000
  Se    -2.366034   -0.944135    0.000000
  C     -3.067609    0.553827    0.000000
  Se     1.037833   -2.043573    0.000000
  C      2.674404   -1.912113    0.000000
  Se    -0.920158    2.272038    0.000000
  C     -2.510695    1.830382    0.000000
  Se     2.174460    0.630620    0.000000
  C      3.204183   -0.645722    0.000000
  C      4.587877   -0.527193    0.000000
  C      3.554355   -2.982526    0.000000
  C      4.939279   -2.869533    0.000000
  H      3.137725   -3.977915    0.000000
  C      5.474788   -1.590538    0.000000
  H      4.999297    0.470804    0.000000
  H      5.561714   -3.758542    0.000000
  H      6.544989   -1.410666    0.000000
  C     -4.463859    0.523485    0.000000
  C     -3.411818    2.891011    0.000000
  C     -5.348115    1.580834    0.000000
  H     -4.896167   -0.467685    0.000000
  C     -4.785743    2.848392    0.000000
  H     -2.951120    3.870388    0.000000
  H     -6.418176    1.403813    0.000000
  H     -5.369780    3.762468    0.000000

 Total Charge           Charge          ....   -2
 Multiplicity           Mult            ....    2
 Number of Electrons    NEL             ....  247
 Basis Dimension        Dim             ....  575

ORBITAL ENERGIES
----------------
                 SPIN UP ORBITALS
  NO   OCC          E(Eh)            E(eV)    Irrep
   0   1.0000    -443.563642    -12069.9803    1-A'
   1   1.0000    -443.557173    -12069.8043    2-A'
   2   1.0000    -443.550159    -12069.6134    3-A'
   3   1.0000    -443.542799    -12069.4132    4-A'
   4   1.0000    -318.179843     -8658.1137    5-A'
   5   1.0000     -56.372490     -1533.9734    6-A'
   6   1.0000     -56.367195     -1533.8293    7-A'
   7   1.0000     -56.360091     -1533.6360    8-A'
   8   1.0000     -56.353543     -1533.4579    9-A'
   9   1.0000     -51.290045     -1395.6731   10-A'
  10   1.0000     -51.288968     -1395.6438   11-A'
  11   1.0000     -51.288303     -1395.6257    1-A"
  12   1.0000     -51.288005     -1395.6176   12-A'
  13   1.0000     -51.287005     -1395.5904   13-A'
  14   1.0000     -51.286180     -1395.5679    2-A"
  15   1.0000     -51.285932     -1395.5612   14-A'
  16   1.0000     -51.284407     -1395.5197   15-A'
  17   1.0000     -51.284041     -1395.5097    3-A"
  18   1.0000     -51.281735     -1395.4470   16-A'
  19   1.0000     -51.280329     -1395.4087   17-A'
  20   1.0000     -51.279843     -1395.3955    4-A"
  21   1.0000     -38.019050     -1034.5510   18-A'
  22   1.0000     -33.520716      -912.1451   19-A'
  23   1.0000     -33.520253      -912.1325   20-A'
  24   1.0000     -33.510668      -911.8716    5-A"
  25   1.0000      -9.819029      -267.1894   21-A'
  26   1.0000      -9.818345      -267.1708   22-A'
  27   1.0000      -9.813780      -267.0465   23-A'
  28   1.0000      -9.813324      -267.0341   24-A'
  29   1.0000      -9.810515      -266.9577   25-A'
  30   1.0000      -9.810340      -266.9529   26-A'
  31   1.0000      -9.810207      -266.9493   27-A'
  32   1.0000      -9.809683      -266.9350   28-A'
  33   1.0000      -9.808149      -266.8933   29-A'
  34   1.0000      -9.807552      -266.8770   30-A'
  35   1.0000      -9.803635      -266.7705   31-A'
  36   1.0000      -9.802506      -266.7398   32-A'
  37   1.0000      -7.343934      -199.8386   33-A'
  38   1.0000      -7.339555      -199.7194   34-A'
  39   1.0000      -7.336548      -199.6376   35-A'
  40   1.0000      -7.330275      -199.4669   36-A'
  41   1.0000      -5.407878      -147.1558   37-A'
  42   1.0000      -5.405110      -147.0805   38-A'
  43   1.0000      -5.404776      -147.0714   39-A'
  44   1.0000      -5.403415      -147.0344   40-A'
  45   1.0000      -5.402349      -147.0054    6-A"
  46   1.0000      -5.400957      -146.9675   41-A'
  47   1.0000      -5.399502      -146.9279   42-A'
  48   1.0000      -5.399461      -146.9268    7-A"
  49   1.0000      -5.398923      -146.9122   43-A'
  50   1.0000      -5.398611      -146.9037    8-A"
  51   1.0000      -5.393792      -146.7725   44-A'
  52   1.0000      -5.393367      -146.7610    9-A"
  53   1.0000      -4.014443      -109.2386   45-A'
  54   1.0000      -2.532893       -68.9235   46-A'
  55   1.0000      -2.532707       -68.9185   47-A'
  56   1.0000      -2.511731       -68.3477   10-A"
  57   1.0000      -1.747027       -47.5390   48-A'
  58   1.0000      -1.744748       -47.4770   49-A'
  59   1.0000      -1.744229       -47.4629   50-A'
  60   1.0000      -1.743539       -47.4441   51-A'
  61   1.0000      -1.743389       -47.4400   11-A"
  62   1.0000      -1.742097       -47.4049   52-A'
  63   1.0000      -1.740773       -47.3688   53-A'
  64   1.0000      -1.740527       -47.3622   12-A"
  65   1.0000      -1.740105       -47.3507   13-A"
  66   1.0000      -1.739731       -47.3405   54-A'
  67   1.0000      -1.739719       -47.3402   14-A"
  68   1.0000      -1.738206       -47.2990   55-A'
  69   1.0000      -1.737046       -47.2674   15-A"
  70   1.0000      -1.736986       -47.2658   56-A'
  71   1.0000      -1.735483       -47.2249   57-A'
  72   1.0000      -1.735345       -47.2211   16-A"
  73   1.0000      -1.735332       -47.2208   58-A'
  74   1.0000      -1.734819       -47.2068   17-A"
  75   1.0000      -1.730119       -47.0789   18-A"
  76   1.0000      -1.730077       -47.0778   59-A'
  77   1.0000      -0.607551       -16.5323   60-A'
  78   1.0000      -0.598992       -16.2994   61-A'
  79   1.0000      -0.527562       -14.3557   62-A'
  80   1.0000      -0.515542       -14.0286   63-A'
  81   1.0000      -0.501271       -13.6403   64-A'
  82   1.0000      -0.496106       -13.4997   65-A'
  83   1.0000      -0.411275       -11.1914   66-A'
  84   1.0000      -0.409754       -11.1500   67-A'
  85   1.0000      -0.391322       -10.6484   68-A'
  86   1.0000      -0.371213       -10.1012   69-A'
  87   1.0000      -0.322877        -8.7859   70-A'
  88   1.0000      -0.319778        -8.7016   71-A'
  89   1.0000      -0.288366        -7.8468   72-A'
  90   1.0000      -0.282317        -7.6822   73-A'
  91   1.0000      -0.231298        -6.2939   74-A'
  92   1.0000      -0.224226        -6.1015   75-A'
  93   1.0000      -0.202531        -5.5112   76-A'
  94   1.0000      -0.196786        -5.3548   77-A'
  95   1.0000      -0.171748        -4.6735   78-A'
  96   1.0000      -0.164464        -4.4753   79-A'
  97   1.0000      -0.140591        -3.8257   80-A'
  98   1.0000      -0.136935        -3.7262   81-A'
  99   1.0000      -0.134208        -3.6520   19-A"
 100   1.0000      -0.133267        -3.6264   82-A'
 101   1.0000      -0.126978        -3.4552   20-A"
 102   1.0000      -0.112124        -3.0510   83-A'
 103   1.0000      -0.084843        -2.3087   84-A'
 104   1.0000      -0.074038        -2.0147   85-A'
 105   1.0000      -0.064710        -1.7609   86-A'
 106   1.0000      -0.055999        -1.5238   87-A'
 107   1.0000      -0.051887        -1.4119   21-A"
 108   1.0000      -0.044722        -1.2170   22-A"
 109   1.0000      -0.032102        -0.8735   23-A"
 110   1.0000      -0.029933        -0.8145   88-A'
 111   1.0000      -0.026027        -0.7082   24-A"
 112   1.0000      -0.020677        -0.5627   89-A'
 113   1.0000       0.001465         0.0399   90-A'
 114   1.0000       0.002602         0.0708   25-A"
 115   1.0000       0.002907         0.0791   26-A"
 116   1.0000       0.021372         0.5816   91-A'
 117   1.0000       0.028675         0.7803   92-A'
 118   1.0000       0.048082         1.3084   93-A'
 119   1.0000       0.056139         1.5276   27-A"
 120   1.0000       0.057778         1.5722   28-A"
 121   1.0000       0.069829         1.9002   29-A"
 122   1.0000       0.098163         2.6711   30-A"
 123   1.0000       0.116083         3.1588   94-A'
 124   0.0000       0.180937         4.9236   95-A'
 125   0.0000       0.183337         4.9888   96-A'
 126   0.0000       0.195005         5.3064   97-A'
 127   0.0000       0.197980         5.3873   98-A'
 128   0.0000       0.200323         5.4511   31-A"

                 SPIN DOWN ORBITALS
  NO   OCC          E(Eh)            E(eV)    Irrep
   0   1.0000    -443.562993    -12069.9627    1-A'
   1   1.0000    -443.556884    -12069.7964    2-A'
   2   1.0000    -443.549499    -12069.5955    3-A'
   3   1.0000    -443.542492    -12069.4048    4-A'
   4   1.0000    -318.179730     -8658.1106    5-A'
   5   1.0000     -56.372232     -1533.9664    6-A'
   6   1.0000     -56.367078     -1533.8262    7-A'
   7   1.0000     -56.359830     -1533.6290    8-A'
   8   1.0000     -56.353417     -1533.4544    9-A'
   9   1.0000     -51.289616     -1395.6614   10-A'
  10   1.0000     -51.287956     -1395.6162    1-A"
  11   1.0000     -51.287949     -1395.6160   11-A'
  12   1.0000     -51.287531     -1395.6047   12-A'
  13   1.0000     -51.285908     -1395.5605   13-A'
  14   1.0000     -51.285806     -1395.5577    2-A"
  15   1.0000     -51.285739     -1395.5559   14-A'
  16   1.0000     -51.283979     -1395.5080   15-A'
  17   1.0000     -51.283897     -1395.5058    3-A"
  18   1.0000     -51.281516     -1395.4410   16-A'
  19   1.0000     -51.279753     -1395.3930   17-A'
  20   1.0000     -51.279657     -1395.3904    4-A"
  21   1.0000     -38.006781     -1034.2171   18-A'
  22   1.0000     -33.509059      -911.8279   19-A'
  23   1.0000     -33.508578      -911.8148   20-A'
  24   1.0000     -33.507217      -911.7777    5-A"
  25   1.0000      -9.818981      -267.1881   21-A'
  26   1.0000      -9.818291      -267.1693   22-A'
  27   1.0000      -9.813739      -267.0454   23-A'
  28   1.0000      -9.813284      -267.0330   24-A'
  29   1.0000      -9.810549      -266.9586   25-A'
  30   1.0000      -9.810208      -266.9493   26-A'
  31   1.0000      -9.810090      -266.9461   27-A'
  32   1.0000      -9.809720      -266.9361   28-A'
  33   1.0000      -9.808160      -266.8936   29-A'
  34   1.0000      -9.807582      -266.8779   30-A'
  35   1.0000      -9.803540      -266.7679   31-A'
  36   1.0000      -9.802417      -266.7373   32-A'
  37   1.0000      -7.343365      -199.8231   33-A'
  38   1.0000      -7.339313      -199.7128   34-A'
  39   1.0000      -7.335953      -199.6214   35-A'
  40   1.0000      -7.329992      -199.4592   36-A'
  41   1.0000      -5.407397      -147.1428   37-A'
  42   1.0000      -5.404592      -147.0664   38-A'
  43   1.0000      -5.404553      -147.0654   39-A'
  44   1.0000      -5.402251      -147.0027   40-A'
  45   1.0000      -5.401897      -146.9931    6-A"
  46   1.0000      -5.399691      -146.9331   41-A'
  47   1.0000      -5.399254      -146.9212   42-A'
  48   1.0000      -5.398991      -146.9140    7-A"
  49   1.0000      -5.398461      -146.8996   43-A'
  50   1.0000      -5.398438      -146.8990    8-A"
  51   1.0000      -5.393162      -146.7554   44-A'
  52   1.0000      -5.393157      -146.7553    9-A"
  53   1.0000      -3.989726      -108.5660   45-A'
  54   1.0000      -2.502564       -68.0982   10-A"
  55   1.0000      -2.501930       -68.0810   46-A'
  56   1.0000      -2.501792       -68.0772   47-A'
  57   1.0000      -1.746380       -47.5214   48-A'
  58   1.0000      -1.743527       -47.4438   49-A'
  59   1.0000      -1.743481       -47.4425   50-A'
  60   1.0000      -1.743274       -47.4369   51-A'
  61   1.0000      -1.742959       -47.4283   11-A"
  62   1.0000      -1.740764       -47.3686   52-A'
  63   1.0000      -1.740260       -47.3549   53-A'
  64   1.0000      -1.740083       -47.3501   12-A"
  65   1.0000      -1.739926       -47.3458   13-A"
  66   1.0000      -1.738589       -47.3094   14-A"
  67   1.0000      -1.738576       -47.3091   54-A'
  68   1.0000      -1.737897       -47.2906   55-A'
  69   1.0000      -1.735858       -47.2351   15-A"
  70   1.0000      -1.735763       -47.2325   56-A'
  71   1.0000      -1.734932       -47.2099   16-A"
  72   1.0000      -1.734916       -47.2095   57-A'
  73   1.0000      -1.734851       -47.2077   58-A'
  74   1.0000      -1.734635       -47.2018   17-A"
  75   1.0000      -1.729573       -47.0641   18-A"
  76   1.0000      -1.729498       -47.0620   59-A'
  77   1.0000      -0.606373       -16.5002   60-A'
  78   1.0000      -0.598536       -16.2870   61-A'
  79   1.0000      -0.525989       -14.3129   62-A'
  80   1.0000      -0.514856       -14.0099   63-A'
  81   1.0000      -0.500037       -13.6067   64-A'
  82   1.0000      -0.494166       -13.4469   65-A'
  83   1.0000      -0.409450       -11.1417   66-A'
  84   1.0000      -0.406002       -11.0479   67-A'
  85   1.0000      -0.388064       -10.5598   68-A'
  86   1.0000      -0.369479       -10.0540   69-A'
  87   1.0000      -0.321585        -8.7508   70-A'
  88   1.0000      -0.317238        -8.6325   71-A'
  89   1.0000      -0.285278        -7.7628   72-A'
  90   1.0000      -0.280326        -7.6281   73-A'
  91   1.0000      -0.229833        -6.2541   74-A'
  92   1.0000      -0.223281        -6.0758   75-A'
  93   1.0000      -0.200753        -5.4628   76-A'
  94   1.0000      -0.196051        -5.3348   77-A'
  95   1.0000      -0.169937        -4.6242   78-A'
  96   1.0000      -0.162967        -4.4346   79-A'
  97   1.0000      -0.138976        -3.7817   80-A'
  98   1.0000      -0.134572        -3.6619   81-A'
  99   1.0000      -0.133651        -3.6368   19-A"
 100   1.0000      -0.132262        -3.5990   82-A'
 101   1.0000      -0.126756        -3.4492   20-A"
 102   1.0000      -0.110232        -2.9996   83-A'
 103   1.0000      -0.082608        -2.2479   84-A'
 104   1.0000      -0.069691        -1.8964   85-A'
 105   1.0000      -0.062553        -1.7021   86-A'
 106   1.0000      -0.051231        -1.3941   87-A'
 107   1.0000      -0.050833        -1.3832   21-A"
 108   1.0000      -0.044093        -1.1998   22-A"
 109   1.0000      -0.030348        -0.8258   23-A"
 110   1.0000      -0.024890        -0.6773   24-A"
 111   1.0000      -0.017703        -0.4817   88-A'
 112   1.0000      -0.001354        -0.0368   89-A'
 113   1.0000       0.010595         0.2883   90-A'
 114   1.0000       0.011289         0.3072   25-A"
 115   1.0000       0.012659         0.3445   26-A"
 116   1.0000       0.033572         0.9135   91-A'
 117   1.0000       0.038633         1.0513   92-A'
 118   1.0000       0.058617         1.5951   27-A"
 119   1.0000       0.060878         1.6566   93-A'
 120   1.0000       0.060926         1.6579   28-A"
 121   1.0000       0.072035         1.9602   29-A"
 122   1.0000       0.101107         2.7513   30-A"
 123   0.0000       0.144651         3.9361   94-A'
 124   0.0000       0.183200         4.9851   95-A'
 125   0.0000       0.184693         5.0258   96-A'
 126   0.0000       0.198842         5.4108   97-A'
 127   0.0000       0.200255         5.4492   98-A'

MULLIKEN ATOMIC CHARGES AND SPIN POPULATIONS
--------------------------------------------
   0 Cu:    0.624611    0.278431
   1 Se:   -0.777801    0.131523
   2 C :    0.233752   -0.003988
   3 Se:   -0.690694    0.253874
   4 C :    0.267278   -0.005190
   5 Se:   -0.795632    0.112769
   6 C :    0.186661   -0.003641
   7 Se:   -0.724211    0.230961
   8 C :    0.247750   -0.000824
   9 C :   -0.129554   -0.003169
  10 C :   -0.134276   -0.002980
  11 C :   -0.154702   -0.001279
  12 H :    0.088436    0.003173
  13 C :   -0.153045   -0.000998
  14 H :    0.087281    0.002999
  15 H :    0.023058    0.001959
  16 H :    0.023237    0.002042
  17 C :   -0.068401   -0.001012
  18 C :   -0.071661   -0.000200
  19 C :   -0.159030   -0.000211
  20 H :    0.107292    0.002228
  21 C :   -0.162015   -0.000525
  22 H :    0.094144    0.002071
  23 H :    0.019935    0.000702
  24 H :    0.017587    0.001283
Sum of atomic charges         :   -2.0000000

LOEWDIN ATOMIC CHARGES AND SPIN POPULATIONS
-------------------------------------------
   0 Cu:   -0.590579    0.346804
   1 Se:   -0.188689    0.098548
   2 C :    0.038151    0.005281
   3 Se:   -0.233566    0.203344
   4 C :    0.035953    0.016204
   5 Se:   -0.184596    0.065383
   6 C :    0.055683    0.006474
   7 Se:   -0.237200    0.174928
   8 C :    0.047599    0.015758
   9 C :    0.375397    0.007214
  10 C :    0.373527    0.007647
  11 C :    0.320528    0.000065
  12 H :   -0.448092    0.011336
  13 C :    0.318588    0.000343
  14 H :   -0.448361    0.010023
  15 H :   -0.413870    0.000458
  16 H :   -0.413596    0.000514
  17 C :    0.368493    0.005651
  18 C :    0.369479    0.005372
  19 C :    0.321916    0.000372
  20 H :   -0.488424    0.010150
  21 C :    0.320292    0.000515
  22 H :   -0.479124    0.007263
  23 H :   -0.410190    0.000085
  24 H :   -0.409317    0.000268

  Mayer bond orders larger than 0.100000
B(  0-Cu,  1-Se) :   0.5210 B(  0-Cu,  3-Se) :   0.4701 B(  0-Cu,  5-Se) :   0.6289
B(  0-Cu,  7-Se) :   0.5355 B(  1-Se,  2-C ) :   1.0079 B(  2-C ,  6-C ) :   1.1521
B(  2-C , 17-C ) :   1.2485 B(  3-Se,  4-C ) :   1.0342 B(  3-Se,  7-Se) :   0.1345
B(  4-C ,  8-C ) :   1.1176 B(  4-C , 10-C ) :   1.2632 B(  5-Se,  6-C ) :   1.0148
B(  6-C , 18-C ) :   1.2541 B(  7-Se,  8-C ) :   1.0326 B(  8-C ,  9-C ) :   1.2640
B(  9-C , 13-C ) :   1.3731 B(  9-C , 14-H ) :   0.9617 B( 10-C , 11-C ) :   1.3732
B( 10-C , 12-H ) :   0.9642 B( 11-C , 13-C ) :   1.3219 B( 11-C , 15-H ) :   0.9944
B( 13-C , 16-H ) :   0.9941 B( 17-C , 19-C ) :   1.3867 B( 17-C , 20-H ) :   0.9549
B( 18-C , 21-C ) :   1.3837 B( 18-C , 22-H ) :   0.9559 B( 19-C , 21-C ) :   1.3031
B( 19-C , 23-H ) :   0.9960 B( 21-C , 24-H ) :   0.9976

FINAL SINGLE POINT ENERGY    -11627.119176912223

DIPOLE MOMENT
-------------
                                X             Y             Z
Electronic contribution:     -1.65083       0.20848       0.00000
Nuclear contribution   :      1.73545      -0.07685       0.00000
                        -----------------------------------------
Total Dipole Moment    :      0.08462       0.13163       0.00000
                        -----------------------------------------
Magnitude (a.u.)       :      0.15648
Magnitude (Debye)      :      0.39775

Rotational constants in cm-1:     0.017131     0.004093     0.003304
Rotational constants in MHz :   513.579447   122.716417    99.049252

                             ****ORCA TERMINATED NORMALLY****
TOTAL RUN TIME: 0 days 16 hours 29 minutes 53 seconds 511 msec
