                         Program Version 5.0.4 -  RELEASE  -
|  1> ! RIJCOSX nofrozencore ReducedPop printbasis
|  2> ! M06L ano-rcc-dzp autoaux
|  3>
|  4> %maxcore 7500
|  5> %basis
|  6> PCDTrimBas overlap
|  7> PCDTrimAuxJ Coulomb
|  8> PCDTrimAuxJK Coulomb
|  9> PCDTrimAuxC Coulomb
| 10> PCDThresh -1
| 11> end
| 12>
| 13> %basis
| 14> newgto Cu "ano-rcc-tzp" end
| 15> newgto Se "ano-rcc-tzp" end
| 16> end
| 17>
| 18> %pal
| 19> nprocs 8
| 20> end
| 21>
| 22> % sym SymThresh 1e-2 end
| 23> * xyz -2 2
| 24> Cu 0.0005164001730024002 -3.1883986786934594e-05 0.00010483450152340887
| 25> Se -0.8912687845356817 -1.3589180296160488 1.7185064211406729
| 26> C 0.6035936010380796 -1.9448456930193811 2.6851033727582716
| 27> Se -2.0952178779791057 0.5307210024243414 -0.9645174864731252
| 28> C -1.69237079395063 1.5765198770866162 -2.321035048132344
| 29> Se 2.093035649008259 -0.5349279502827445 0.9699069254453628
| 30> C 1.633869411956981 -1.4646849453515753 2.1637761639647026
| 31> Se 0.8835674995175463 1.3615097813381694 -1.7229127539787965
| 32> C -0.4792098948208173 1.858476644283392 -2.5541440723130644
| 33> C -0.32021919862408665 2.738330039430237 -3.7170159820844924
| 34> C -2.723866628450301 1.9584944399624598 -2.95801401714595
| 35> C -2.58367064158265 2.879019300324192 -4.177779051840427
| 36> H -3.837531487077453 1.8393857653789087 -2.9317226892427186
| 37> C -1.2383912557669174 3.17844189540497 -4.418487894252456
| 38> H 0.7377470391654186 2.9390609884817267 -3.8596431428057536
| 39> H -3.5121803521022614 3.1716208152217016 -4.682332412134925
| 40> H -1.1251127735284006 3.8291179972870735 -5.278980311152947
| 41> C 0.17448805105630774 -2.613990599023179 3.5324855762733147
| 42> C 2.778715519094788 -2.109882423419606 3.167968417635313
| 43> C 1.362062255448667 -3.2344243207945564 4.508541391148556
| 44> H -0.6601232490725781 -3.1757087182802315 4.186866755055598
| 45> C 2.580313605433122 -2.8023816456470794 4.074423879401491
| 46> H 3.660534455084466 -1.633309845270006 2.633636604128129
| 47> H 0.9658302496492106 -3.8701868162861732 5.315025975034952
| 48> H 3.3767364053867075 -3.198738171068537 4.7024984459291606
| 49> *
| 50>
| 51> % eprnmr
| 52> gtensor true
| 53> Nuclei = all H {aiso,adip,aorb,fgrad,rho}
| 54> Nuclei = all Cu {aiso,adip,aorb,fgrad,rho}
| 55> end
| 56>
| 57>                          ****END OF INPUT****

CARTESIAN COORDINATES (ANGSTROEM)
---------------------------------
  Cu     0.000117    0.000515    0.000000
  Se     2.165408   -0.951467    0.000000
  C      3.330085    0.516784    0.000000
  Se    -1.146059   -2.070856    0.000000
  C     -2.847316   -1.621583    0.000000
  Se     1.152834    2.068487    0.000000
  C      2.652900    1.568082    0.000000
  Se    -2.170694    0.943884    0.000000
  C     -3.170203   -0.396290    0.000000
  C     -4.623627   -0.198177    0.000000
  C     -3.613589   -2.635711    0.000000
  C     -5.137412   -2.454575    0.000000
  H     -3.551096   -3.754291    0.000000
  C     -5.473297   -1.096432    0.000000
  H     -4.829612    0.868359    0.000000
  H     -5.741405   -3.369732    0.000000
  H     -6.548673   -0.954220    0.000000
  C      4.397554    0.058033    0.000000
  C      3.873772    2.683800    0.000000
  C      5.582221    1.217567    0.000000
  H      5.235328   -0.801299    0.000000
  C      5.008700    2.454632    0.000000
  H      3.184343    3.586532    0.000000
  H      6.597845    0.793164    0.000000
  H      5.770151    3.233128    0.000000

 Total Charge           Charge          ....   -2
 Multiplicity           Mult            ....    2
 Number of Electrons    NEL             ....  247
 Basis Dimension        Dim             ....  575

ORBITAL ENERGIES
----------------
                 SPIN UP ORBITALS
  NO   OCC          E(Eh)            E(eV)    Irrep
   0   1.0000    -443.586125    -12070.5921    1-A'
   1   1.0000    -443.559232    -12069.8603    2-A'
   2   1.0000    -443.524690    -12068.9204    3-A'
   3   1.0000    -443.504226    -12068.3635    4-A'
   4   1.0000    -318.183709     -8658.2189    5-A'
   5   1.0000     -56.392217     -1534.5102    6-A'
   6   1.0000     -56.370253     -1533.9126    7-A'
   7   1.0000     -56.340571     -1533.1049    8-A'
   8   1.0000     -56.324249     -1532.6607    9-A'
   9   1.0000     -51.311568     -1396.2588   10-A'
  10   1.0000     -51.310373     -1396.2262    1-A"
  11   1.0000     -51.310102     -1396.2189   11-A'
  12   1.0000     -51.293781     -1395.7748   12-A'
  13   1.0000     -51.292127     -1395.7297   13-A'
  14   1.0000     -51.291950     -1395.7249    2-A"
  15   1.0000     -51.271047     -1395.1561   14-A'
  16   1.0000     -51.269408     -1395.1115   15-A'
  17   1.0000     -51.268350     -1395.0827    3-A"
  18   1.0000     -51.259061     -1394.8300   16-A'
  19   1.0000     -51.257212     -1394.7796   17-A'
  20   1.0000     -51.255926     -1394.7447    4-A"
  21   1.0000     -38.023448     -1034.6706   18-A'
  22   1.0000     -33.525336      -912.2708   19-A'
  23   1.0000     -33.524629      -912.2515   20-A'
  24   1.0000     -33.514221      -911.9683    5-A"
  25   1.0000      -9.826757      -267.3996   21-A'
  26   1.0000      -9.824312      -267.3331   22-A'
  27   1.0000      -9.822252      -267.2771   23-A'
  28   1.0000      -9.821905      -267.2676   24-A'
  29   1.0000      -9.814318      -267.0612   25-A'
  30   1.0000      -9.814253      -267.0594   26-A'
  31   1.0000      -9.812975      -267.0246   27-A'
  32   1.0000      -9.804844      -266.8034   28-A'
  33   1.0000      -9.804468      -266.7931   29-A'
  34   1.0000      -9.800656      -266.6894   30-A'
  35   1.0000      -9.797655      -266.6077   31-A'
  36   1.0000      -9.793488      -266.4944   32-A'
  37   1.0000      -7.363583      -200.3733   33-A'
  38   1.0000      -7.344835      -199.8631   34-A'
  39   1.0000      -7.320249      -199.1941   35-A'
  40   1.0000      -7.307246      -198.8403   36-A'
  41   1.0000      -5.427715      -147.6956   37-A'
  42   1.0000      -5.423656      -147.5852    6-A"
  43   1.0000      -5.421632      -147.5301   38-A'
  44   1.0000      -5.412000      -147.2680   39-A'
  45   1.0000      -5.406347      -147.1142    7-A"
  46   1.0000      -5.405829      -147.1001   40-A'
  47   1.0000      -5.392370      -146.7338   41-A'
  48   1.0000      -5.386240      -146.5670   42-A'
  49   1.0000      -5.383799      -146.5006    8-A"
  50   1.0000      -5.383288      -146.4867   43-A'
  51   1.0000      -5.376570      -146.3039   44-A'
  52   1.0000      -5.373189      -146.2119    9-A"
  53   1.0000      -4.017632      -109.3253   45-A'
  54   1.0000      -2.536679       -69.0265   46-A'
  55   1.0000      -2.535870       -69.0045   47-A'
  56   1.0000      -2.513807       -68.4042   10-A"
  57   1.0000      -1.767771       -48.1035   48-A'
  58   1.0000      -1.764394       -48.0116   11-A"
  59   1.0000      -1.763231       -47.9799   49-A'
  60   1.0000      -1.759387       -47.8754   12-A"
  61   1.0000      -1.759300       -47.8730   50-A'
  62   1.0000      -1.750513       -47.6339   51-A'
  63   1.0000      -1.747625       -47.5553   13-A"
  64   1.0000      -1.747619       -47.5551   52-A'
  65   1.0000      -1.742696       -47.4212   14-A"
  66   1.0000      -1.742639       -47.4196   53-A'
  67   1.0000      -1.729937       -47.0740   54-A'
  68   1.0000      -1.728485       -47.0345   55-A'
  69   1.0000      -1.726340       -46.9761   15-A"
  70   1.0000      -1.721395       -46.8415   16-A"
  71   1.0000      -1.721327       -46.8397   56-A'
  72   1.0000      -1.720312       -46.8121   57-A'
  73   1.0000      -1.719227       -46.7825   58-A'
  74   1.0000      -1.716462       -46.7073   17-A"
  75   1.0000      -1.711215       -46.5645   18-A"
  76   1.0000      -1.710946       -46.5572   59-A'
  77   1.0000      -0.621972       -16.9247   60-A'
  78   1.0000      -0.621502       -16.9119   61-A'
  79   1.0000      -0.544731       -14.8229   62-A'
  80   1.0000      -0.533338       -14.5129   63-A'
  81   1.0000      -0.508970       -13.8498   64-A'
  82   1.0000      -0.497919       -13.5491   65-A'
  83   1.0000      -0.410091       -11.1591   66-A'
  84   1.0000      -0.407233       -11.0814   67-A'
  85   1.0000      -0.376936       -10.2569   68-A'
  86   1.0000      -0.356832        -9.7099   69-A'
  87   1.0000      -0.353653        -9.6234   70-A'
  88   1.0000      -0.340673        -9.2702   71-A'
  89   1.0000      -0.287516        -7.8237   72-A'
  90   1.0000      -0.279497        -7.6055   73-A'
  91   1.0000      -0.236201        -6.4274   74-A'
  92   1.0000      -0.230630        -6.2757   75-A'
  93   1.0000      -0.225719        -6.1421   76-A'
  94   1.0000      -0.223286        -6.0759   77-A'
  95   1.0000      -0.179613        -4.8875   78-A'
  96   1.0000      -0.172861        -4.7038   79-A'
  97   1.0000      -0.150641        -4.0991   19-A"
  98   1.0000      -0.145179        -3.9505   20-A"
  99   1.0000      -0.145037        -3.9466   80-A'
 100   1.0000      -0.129223        -3.5163   81-A'
 101   1.0000      -0.116555        -3.1716   82-A'
 102   1.0000      -0.108269        -2.9461   83-A'
 103   1.0000      -0.091944        -2.5019   84-A'
 104   1.0000      -0.087955        -2.3934   85-A'
 105   1.0000      -0.073579        -2.0022   21-A"
 106   1.0000      -0.058920        -1.6033   22-A"
 107   1.0000      -0.039667        -1.0794   86-A'
 108   1.0000      -0.034893        -0.9495   23-A"
 109   1.0000      -0.031551        -0.8585   87-A'
 110   1.0000      -0.026008        -0.7077   24-A"
 111   1.0000      -0.017203        -0.4681   88-A'
 112   1.0000      -0.000476        -0.0130   89-A'
 113   1.0000       0.000265         0.0072   25-A"
 114   1.0000       0.001685         0.0459   26-A"
 115   1.0000       0.014806         0.4029   90-A'
 116   1.0000       0.019099         0.5197   91-A'
 117   1.0000       0.046245         1.2584   92-A'
 118   1.0000       0.046741         1.2719   93-A'
 119   1.0000       0.059463         1.6181   27-A"
 120   1.0000       0.063438         1.7262   28-A"
 121   1.0000       0.067749         1.8435   29-A"
 122   1.0000       0.092783         2.5248   30-A"
 123   1.0000       0.123168         3.3516   94-A'
 124   0.0000       0.164605         4.4791   31-A"
 125   0.0000       0.178614         4.8603   95-A'
 126   0.0000       0.181043         4.9264   32-A"
 127   0.0000       0.181644         4.9428   96-A'
 128   0.0000       0.192132         5.2282   97-A'

                 SPIN DOWN ORBITALS
  NO   OCC          E(Eh)            E(eV)    Irrep
   0   1.0000    -443.585746    -12070.5818    1-A'
   1   1.0000    -443.558838    -12069.8496    2-A'
   2   1.0000    -443.524180    -12068.9065    3-A'
   3   1.0000    -443.503735    -12068.3502    4-A'
   4   1.0000    -318.183594     -8658.2158    5-A'
   5   1.0000     -56.392063     -1534.5060    6-A'
   6   1.0000     -56.370094     -1533.9082    7-A'
   7   1.0000     -56.340368     -1533.0993    8-A'
   8   1.0000     -56.324054     -1532.6554    9-A'
   9   1.0000     -51.311296     -1396.2514   10-A'
  10   1.0000     -51.310154     -1396.2203    1-A"
  11   1.0000     -51.309500     -1396.2025   11-A'
  12   1.0000     -51.293515     -1395.7675   12-A'
  13   1.0000     -51.291729     -1395.7189    2-A"
  14   1.0000     -51.291488     -1395.7123   13-A'
  15   1.0000     -51.270674     -1395.1460   14-A'
  16   1.0000     -51.268575     -1395.0888   15-A'
  17   1.0000     -51.268071     -1395.0751    3-A"
  18   1.0000     -51.258653     -1394.8188   16-A'
  19   1.0000     -51.256449     -1394.7589   17-A'
  20   1.0000     -51.255660     -1394.7374    4-A"
  21   1.0000     -38.010505     -1034.3184   18-A'
  22   1.0000     -33.513039      -911.9362   19-A'
  23   1.0000     -33.512332      -911.9169   20-A'
  24   1.0000     -33.510577      -911.8692    5-A"
  25   1.0000      -9.826821      -267.4014   21-A'
  26   1.0000      -9.824201      -267.3301   22-A'
  27   1.0000      -9.822375      -267.2804   23-A'
  28   1.0000      -9.821842      -267.2659   24-A'
  29   1.0000      -9.814211      -267.0582   25-A'
  30   1.0000      -9.814007      -267.0527   26-A'
  31   1.0000      -9.813027      -267.0261   27-A'
  32   1.0000      -9.804727      -266.8002   28-A'
  33   1.0000      -9.804333      -266.7895   29-A'
  34   1.0000      -9.800399      -266.6824   30-A'
  35   1.0000      -9.797650      -266.6076   31-A'
  36   1.0000      -9.793386      -266.4916   32-A'
  37   1.0000      -7.363244      -200.3641   33-A'
  38   1.0000      -7.344484      -199.8536   34-A'
  39   1.0000      -7.319789      -199.1816   35-A'
  40   1.0000      -7.306801      -198.8282   36-A'
  41   1.0000      -5.427395      -147.6869   37-A'
  42   1.0000      -5.423375      -147.5775    6-A"
  43   1.0000      -5.420967      -147.5120   38-A'
  44   1.0000      -5.411685      -147.2594   39-A'
  45   1.0000      -5.406069      -147.1066    7-A"
  46   1.0000      -5.405123      -147.0809   40-A'
  47   1.0000      -5.391950      -146.7224   41-A'
  48   1.0000      -5.385305      -146.5416   42-A'
  49   1.0000      -5.383461      -146.4914    8-A"
  50   1.0000      -5.382830      -146.4743   43-A'
  51   1.0000      -5.375713      -146.2806   44-A'
  52   1.0000      -5.372881      -146.2035    9-A"
  53   1.0000      -3.991749      -108.6210   45-A'
  54   1.0000      -2.504456       -68.1497   46-A'
  55   1.0000      -2.504153       -68.1415   10-A"
  56   1.0000      -2.503316       -68.1187   47-A'
  57   1.0000      -1.767416       -48.0938   48-A'
  58   1.0000      -1.764100       -48.0036   11-A"
  59   1.0000      -1.762501       -47.9601   49-A'
  60   1.0000      -1.758751       -47.8580   12-A"
  61   1.0000      -1.758598       -47.8539   50-A'
  62   1.0000      -1.750132       -47.6235   51-A'
  63   1.0000      -1.747346       -47.5477   13-A"
  64   1.0000      -1.746864       -47.5346   52-A'
  65   1.0000      -1.742038       -47.4033   14-A"
  66   1.0000      -1.741932       -47.4004   53-A'
  67   1.0000      -1.729333       -47.0575   54-A'
  68   1.0000      -1.727483       -47.0072   55-A'
  69   1.0000      -1.725993       -46.9666   15-A"
  70   1.0000      -1.720557       -46.8187   16-A"
  71   1.0000      -1.720505       -46.8173   56-A'
  72   1.0000      -1.719631       -46.7935   57-A'
  73   1.0000      -1.718284       -46.7569   58-A'
  74   1.0000      -1.716096       -46.6974   17-A"
  75   1.0000      -1.710481       -46.5446   18-A"
  76   1.0000      -1.710242       -46.5381   59-A'
  77   1.0000      -0.621278       -16.9058   60-A'
  78   1.0000      -0.620949       -16.8969   61-A'
  79   1.0000      -0.543996       -14.8029   62-A'
  80   1.0000      -0.532622       -14.4934   63-A'
  81   1.0000      -0.507229       -13.8024   64-A'
  82   1.0000      -0.496575       -13.5125   65-A'
  83   1.0000      -0.408365       -11.1122   66-A'
  84   1.0000      -0.405172       -11.0253   67-A'
  85   1.0000      -0.373391       -10.1605   68-A'
  86   1.0000      -0.353687        -9.6243   69-A'
  87   1.0000      -0.351091        -9.5537   70-A'
  88   1.0000      -0.338799        -9.2192   71-A'
  89   1.0000      -0.284590        -7.7441   72-A'
  90   1.0000      -0.276594        -7.5265   73-A'
  91   1.0000      -0.234946        -6.3932   74-A'
  92   1.0000      -0.229412        -6.2426   75-A'
  93   1.0000      -0.223980        -6.0948   76-A'
  94   1.0000      -0.222361        -6.0508   77-A'
  95   1.0000      -0.178317        -4.8522   78-A'
  96   1.0000      -0.171227        -4.6593   79-A'
  97   1.0000      -0.150427        -4.0933   19-A"
  98   1.0000      -0.144970        -3.9448   20-A"
  99   1.0000      -0.142855        -3.8873   80-A'
 100   1.0000      -0.128272        -3.4905   81-A'
 101   1.0000      -0.114362        -3.1120   82-A'
 102   1.0000      -0.105039        -2.8583   83-A'
 103   1.0000      -0.089738        -2.4419   84-A'
 104   1.0000      -0.083640        -2.2759   85-A'
 105   1.0000      -0.073290        -1.9943   21-A"
 106   1.0000      -0.058486        -1.5915   22-A"
 107   1.0000      -0.032931        -0.8961   23-A"
 108   1.0000      -0.030527        -0.8307   86-A'
 109   1.0000      -0.024367        -0.6631   24-A"
 110   1.0000      -0.016178        -0.4402   87-A'
 111   1.0000      -0.004305        -0.1171   88-A'
 112   1.0000       0.007597         0.2067   89-A'
 113   1.0000       0.009749         0.2653   25-A"
 114   1.0000       0.011778         0.3205   26-A"
 115   1.0000       0.026183         0.7125   90-A'
 116   1.0000       0.031365         0.8535   91-A'
 117   1.0000       0.049662         1.3514   92-A'
 118   1.0000       0.057819         1.5733   93-A'
 119   1.0000       0.061776         1.6810   27-A"
 120   1.0000       0.066008         1.7962   28-A"
 121   1.0000       0.069964         1.9038   29-A"
 122   1.0000       0.096463         2.6249   30-A"
 123   0.0000       0.150310         4.0902   94-A'
 124   0.0000       0.164972         4.4891   31-A"
 125   0.0000       0.181330         4.9342   32-A"
 126   0.0000       0.181600         4.9416   95-A'
 127   0.0000       0.184080         5.0091   96-A'

MULLIKEN ATOMIC CHARGES AND SPIN POPULATIONS
--------------------------------------------
   0 Cu:    0.665222    0.284130
   1 Se:   -0.932748    0.200836
   2 C :    0.338004   -0.000243
   3 Se:   -0.875220    0.199653
   4 C :    0.346383   -0.002634
   5 Se:   -0.633107    0.141118
   6 C :    0.215348   -0.011533
   7 Se:   -0.801093    0.148955
   8 C :    0.250597   -0.005215
   9 C :   -0.119823    0.001608
  10 C :   -0.026003   -0.005656
  11 C :   -0.220123    0.001641
  12 H :    0.065465    0.005228
  13 C :   -0.057874   -0.000937
  14 H :    0.078369    0.002360
  15 H :    0.014619    0.002265
  16 H :    0.023679    0.001703
  17 C :    0.023474   -0.013308
  18 C :   -0.149103    0.012644
  19 C :   -0.286368    0.011457
  20 H :    0.020043    0.016434
  21 C :    0.006912   -0.002028
  22 H :    0.039213    0.002646
  23 H :    0.007846    0.003001
  24 H :    0.006287    0.005876
Sum of atomic charges         :   -2.0000000

LOEWDIN ATOMIC CHARGES AND SPIN POPULATIONS
-------------------------------------------
   0 Cu:   -0.645373    0.365609
   1 Se:   -0.289388    0.140223
   2 C :   -0.028811    0.007618
   3 Se:   -0.244738    0.144981
   4 C :   -0.011264    0.009274
   5 Se:   -0.088769    0.105406
   6 C :    0.050044    0.005736
   7 Se:   -0.157586    0.109148
   8 C :    0.051815    0.006871
   9 C :    0.346845    0.006636
  10 C :    0.383034    0.008649
  11 C :    0.373993    0.002541
  12 H :   -0.408350    0.008749
  13 C :    0.272069    0.000320
  14 H :   -0.457863    0.010637
  15 H :   -0.411614    0.000813
  16 H :   -0.403986    0.000715
  17 C :    0.361920    0.010100
  18 C :    0.348937    0.012212
  19 C :    0.383133    0.009820
  20 H :   -0.342593    0.012695
  21 C :    0.203446    0.001758
  22 H :   -0.456748    0.014472
  23 H :   -0.431112    0.002021
  24 H :   -0.397040    0.002995

  Mayer bond orders larger than 0.100000
B(  0-Cu,  1-Se) :   0.5648 B(  0-Cu,  3-Se) :   0.5748 B(  0-Cu,  5-Se) :   0.4868
B(  0-Cu,  7-Se) :   0.5108 B(  1-Se,  2-C ) :   0.7951 B(  2-C ,  6-C ) :   1.0991
B(  2-C , 17-C ) :   1.4189 B(  3-Se,  4-C ) :   0.8766 B(  4-C ,  8-C ) :   1.1558
B(  4-C , 10-C ) :   1.3021 B(  5-Se,  6-C ) :   1.2035 B(  5-Se, 19-C ) :   0.1292
B(  6-C , 18-C ) :   1.0447 B(  7-Se,  8-C ) :   1.0352 B(  8-C ,  9-C ) :   1.1781
B(  9-C , 13-C ) :   1.4681 B(  9-C , 14-H ) :   0.9597 B( 10-C , 11-C ) :   1.3142
B( 10-C , 12-H ) :   0.9562 B( 11-C , 13-C ) :   1.2804 B( 11-C , 15-H ) :   0.9962
B( 13-C , 16-H ) :   0.9801 B( 17-C , 19-C ) :   1.1698 B( 17-C , 20-H ) :   0.9306
B( 18-C , 21-C ) :   1.5422 B( 18-C , 22-H ) :   0.9446 B( 19-C , 21-C ) :   1.2689
B( 19-C , 23-H ) :   0.9941 B( 21-C , 24-H ) :   0.9635

FINAL SINGLE POINT ENERGY    -11626.716335067817

DIPOLE MOMENT
-------------
                                X             Y             Z
Electronic contribution:     -0.69018       0.87749       0.00000
Nuclear contribution   :      0.09374      -0.27402       0.00000
                        -----------------------------------------
Total Dipole Moment    :     -0.59644       0.60347       0.00000
                        -----------------------------------------
Magnitude (a.u.)       :      0.84848
Magnitude (Debye)      :      2.15666

Rotational constants in cm-1:     0.017636     0.004090     0.003320
Rotational constants in MHz :   528.705217   122.621904    99.536528

                             ****ORCA TERMINATED NORMALLY****
TOTAL RUN TIME: 0 days 17 hours 9 minutes 19 seconds 411 msec
