                         Program Version 5.0.4 -  RELEASE  -
|  1> ! RIJCOSX nofrozencore ReducedPop printbasis
|  2> ! M06L ano-rcc-dzp autoaux
|  3>
|  4> %maxcore 7500
|  5> %basis
|  6> PCDTrimBas overlap
|  7> PCDTrimAuxJ Coulomb
|  8> PCDTrimAuxJK Coulomb
|  9> PCDTrimAuxC Coulomb
| 10> PCDThresh -1
| 11> end
| 12>
| 13> %basis
| 14> newgto Cu "ano-rcc-tzp" end
| 15> newgto Se "ano-rcc-tzp" end
| 16> end
| 17>
| 18> %pal
| 19> nprocs 8
| 20> end
| 21>
| 22> % sym SymThresh 1e-2 end
| 23> * xyz -2 2
| 24> Cu 5.069486429785086e-05 0.00017061358430897378 -0.0003849753700992665
| 25> Se -1.0217144997813972 -1.6620744305218043 -1.3464175065629052
| 26> C -1.4611284334587962 -2.6727949755256515 -0.40885554188255374
| 27> Se 0.5828465092495453 1.4460471047445809 -1.7838627533755043
| 28> C 1.2867300708324332 2.64239798984842 -1.119257336751738
| 29> Se -0.5802884179653925 -1.4418033288723318 1.7868114794272187
| 30> C -1.36166368617122 -2.7856309287807357 1.1298581043687672
| 31> Se 1.0195999707146095 1.6570976014727243 1.3515087948519284
| 32> C 1.5237118369650169 2.804090402204687 0.3401913037105059
| 33> C 2.1465182559521416 3.8898222405054796 0.7889194973627608
| 34> C 1.8457405670437756 3.8358743864314175 -1.8387458507127405
| 35> C 2.430381517279949 4.8490046118424885 -1.3864139736905061
| 36> H 1.5802707336947646 3.5379415727146792 -2.8749766446604386
| 37> C 2.6644284536402507 5.025380133932525 -0.03055936264962322
| 38> H 2.3431267774916713 4.053875162311347 1.8464443676419415
| 39> H 2.793471311066316 5.654904642023535 -2.0111410110855283
| 40> H 3.1513576583240486 5.8347526177625255 0.522651559406205
| 41> C -2.2346324861117575 -4.070137986566143 -0.7155207126319191
| 42> C -1.7457528787404701 -3.64833794655478 1.8429827645845782
| 43> C -2.621302879894308 -4.929040547212466 -0.046818259410581056
| 44> H -2.187310680758671 -3.762840516913718 -1.8336231451117617
| 45> C -2.4795454208382504 -4.9375676781511615 1.365630587996264
| 46> H -1.7224665359918536 -3.8199390971157445 2.947347858141753
| 47> H -3.1345947690740967 -5.829344299492858 -0.38851665891238163
| 48> H -2.7842027891867382 -5.659234450666474 2.1228255021632214
| 49> *
| 50>
| 51> % eprnmr
| 52> gtensor true
| 53> Nuclei = all H {aiso,adip,aorb,fgrad,rho}
| 54> Nuclei = all Cu {aiso,adip,aorb,fgrad,rho}
| 55> end
| 56>
| 57>                          ****END OF INPUT****

CARTESIAN COORDINATES (ANGSTROEM)
---------------------------------
  Cu     0.000184   -0.000382    0.000000
  Se    -1.913876   -1.398682    0.000000
  C     -3.035064   -0.484023    0.000000
  Se     1.593348   -1.753332    0.000000
  C      2.963548   -1.052647    0.000000
  Se    -1.588472    1.756411    0.000000
  C     -3.125404    1.059383    0.000000
  Se     1.908367    1.403662    0.000000
  C      3.182000    0.418602    0.000000
  C      4.421756    0.899294    0.000000
  C      4.296879   -1.743131    0.000000
  C      5.454550   -1.260804    0.000000
  H      3.934505   -2.792749    0.000000
  C      5.687106    0.106729    0.000000
  H      4.633118    1.966651    0.000000
  H      6.351515   -1.866648    0.000000
  H      6.616609    0.684873    0.000000
  C     -4.624059   -0.830456    0.000000
  C     -4.084518    1.752518    0.000000
  C     -5.579945   -0.181863    0.000000
  H     -4.303407   -1.945806    0.000000
  C     -5.555293    1.237493    0.000000
  H     -4.251919    2.857773    0.000000
  H     -6.607229   -0.549912    0.000000
  H     -6.353703    1.978778    0.000000

 Total Charge           Charge          ....   -2
 Multiplicity           Mult            ....    2
 Number of Electrons    NEL             ....  247
 Basis Dimension        Dim             ....  575

ORBITAL ENERGIES
----------------
                 SPIN UP ORBITALS
  NO   OCC          E(Eh)            E(eV)    Irrep
   0   1.0000    -443.611484    -12071.2822    1-A'
   1   1.0000    -443.588194    -12070.6484    2-A'
   2   1.0000    -443.554651    -12069.7357    3-A'
   3   1.0000    -443.533390    -12069.1571    4-A'
   4   1.0000    -318.198088     -8658.6102    5-A'
   5   1.0000     -56.412134     -1535.0522    6-A'
   6   1.0000     -56.392579     -1534.5201    7-A'
   7   1.0000     -56.363594     -1533.7314    8-A'
   8   1.0000     -56.347308     -1533.2882    9-A'
   9   1.0000     -51.325768     -1396.6452   10-A'
  10   1.0000     -51.325766     -1396.6451    1-A"
  11   1.0000     -51.325087     -1396.6266   11-A'
  12   1.0000     -51.308438     -1396.1736   12-A'
  13   1.0000     -51.307569     -1396.1499    2-A"
  14   1.0000     -51.307416     -1396.1458   13-A'
  15   1.0000     -51.287441     -1395.6022   14-A'
  16   1.0000     -51.286342     -1395.5723   15-A'
  17   1.0000     -51.285673     -1395.5541    3-A"
  18   1.0000     -51.274990     -1395.2634   16-A'
  19   1.0000     -51.273678     -1395.2277   17-A'
  20   1.0000     -51.272718     -1395.2016    4-A"
  21   1.0000     -38.038528     -1035.0810   18-A'
  22   1.0000     -33.540621      -912.6867   19-A'
  23   1.0000     -33.539634      -912.6598   20-A'
  24   1.0000     -33.528856      -912.3665    5-A"
  25   1.0000      -9.829963      -267.4869   21-A'
  26   1.0000      -9.821704      -267.2622   22-A'
  27   1.0000      -9.816650      -267.1246   23-A'
  28   1.0000      -9.809878      -266.9403   24-A'
  29   1.0000      -9.808657      -266.9071   25-A'
  30   1.0000      -9.807267      -266.8693   26-A'
  31   1.0000      -9.803810      -266.7752   27-A'
  32   1.0000      -9.803432      -266.7650   28-A'
  33   1.0000      -9.800430      -266.6833   29-A'
  34   1.0000      -9.797186      -266.5950   30-A'
  35   1.0000      -9.795973      -266.5620   31-A'
  36   1.0000      -9.793676      -266.4995   32-A'
  37   1.0000      -7.380705      -200.8392   33-A'
  38   1.0000      -7.361757      -200.3236   34-A'
  39   1.0000      -7.338570      -199.6926   35-A'
  40   1.0000      -7.325515      -199.3374   36-A'
  41   1.0000      -5.442025      -148.0850   37-A'
  42   1.0000      -5.439777      -148.0239    6-A"
  43   1.0000      -5.436672      -147.9394   38-A'
  44   1.0000      -5.424643      -147.6120   39-A'
  45   1.0000      -5.421178      -147.5177    7-A"
  46   1.0000      -5.419633      -147.4757   40-A'
  47   1.0000      -5.405229      -147.0838   41-A'
  48   1.0000      -5.400661      -146.9595   42-A'
  49   1.0000      -5.399417      -146.9256    8-A"
  50   1.0000      -5.395179      -146.8103   43-A'
  51   1.0000      -5.390177      -146.6742   44-A'
  52   1.0000      -5.387910      -146.6125    9-A"
  53   1.0000      -4.032633      -109.7335   45-A'
  54   1.0000      -2.552239       -69.4500   46-A'
  55   1.0000      -2.550917       -69.4140   47-A'
  56   1.0000      -2.527985       -68.7900   10-A"
  57   1.0000      -1.786015       -48.5999   48-A'
  58   1.0000      -1.780066       -48.4381   11-A"
  59   1.0000      -1.778086       -48.3842   49-A'
  60   1.0000      -1.775369       -48.3102   12-A"
  61   1.0000      -1.775233       -48.3065   50-A'
  62   1.0000      -1.765785       -48.0495   51-A'
  63   1.0000      -1.761593       -47.9354   13-A"
  64   1.0000      -1.760921       -47.9171   52-A'
  65   1.0000      -1.757383       -47.8208   14-A"
  66   1.0000      -1.757254       -47.8173   53-A'
  67   1.0000      -1.744762       -47.4774   54-A'
  68   1.0000      -1.742055       -47.4037   55-A'
  69   1.0000      -1.740705       -47.3670   15-A"
  70   1.0000      -1.736861       -47.2624   56-A'
  71   1.0000      -1.736748       -47.2593   16-A"
  72   1.0000      -1.733601       -47.1737   57-A'
  73   1.0000      -1.731894       -47.1272   58-A'
  74   1.0000      -1.729750       -47.0689   17-A"
  75   1.0000      -1.725693       -46.9585   18-A"
  76   1.0000      -1.725557       -46.9548   59-A'
  77   1.0000      -0.599694       -16.3185   60-A'
  78   1.0000      -0.598506       -16.2862   61-A'
  79   1.0000      -0.540130       -14.6977   62-A'
  80   1.0000      -0.531838       -14.4720   63-A'
  81   1.0000      -0.525898       -14.3104   64-A'
  82   1.0000      -0.509544       -13.8654   65-A'
  83   1.0000      -0.421549       -11.4709   66-A'
  84   1.0000      -0.411825       -11.2063   67-A'
  85   1.0000      -0.381325       -10.3764   68-A'
  86   1.0000      -0.367183        -9.9916   69-A'
  87   1.0000      -0.307155        -8.3581   70-A'
  88   1.0000      -0.302331        -8.2268   71-A'
  89   1.0000      -0.289487        -7.8774   72-A'
  90   1.0000      -0.280244        -7.6258   73-A'
  91   1.0000      -0.234378        -6.3777   74-A'
  92   1.0000      -0.228273        -6.2116   75-A'
  93   1.0000      -0.202475        -5.5096   76-A'
  94   1.0000      -0.200160        -5.4466   77-A'
  95   1.0000      -0.173347        -4.7170   78-A'
  96   1.0000      -0.165189        -4.4950   79-A'
  97   1.0000      -0.145597        -3.9619   80-A'
  98   1.0000      -0.133461        -3.6317   19-A"
  99   1.0000      -0.130058        -3.5390   20-A"
 100   1.0000      -0.125596        -3.4176   81-A'
 101   1.0000      -0.116072        -3.1585   82-A'
 102   1.0000      -0.109331        -2.9751   83-A'
 103   1.0000      -0.100086        -2.7235   84-A'
 104   1.0000      -0.079098        -2.1524   85-A'
 105   1.0000      -0.065608        -1.7853   21-A"
 106   1.0000      -0.058538        -1.5929   86-A'
 107   1.0000      -0.058147        -1.5823   22-A"
 108   1.0000      -0.055332        -1.5057   23-A"
 109   1.0000      -0.043429        -1.1818   87-A'
 110   1.0000      -0.042056        -1.1444   24-A"
 111   1.0000      -0.034464        -0.9378   88-A'
 112   1.0000      -0.019127        -0.5205   89-A'
 113   1.0000      -0.011138        -0.3031   25-A"
 114   1.0000      -0.010451        -0.2844   26-A"
 115   1.0000      -0.003729        -0.1015   90-A'
 116   1.0000       0.018679         0.5083   91-A'
 117   1.0000       0.031922         0.8686   92-A'
 118   1.0000       0.042527         1.1572   93-A'
 119   1.0000       0.050765         1.3814   27-A"
 120   1.0000       0.057601         1.5674   28-A"
 121   1.0000       0.078509         2.1363   29-A"
 122   1.0000       0.102949         2.8014   94-A'
 123   1.0000       0.104121         2.8333   30-A"
 124   0.0000       0.177423         4.8279   31-A"
 125   0.0000       0.183029         4.9805   95-A'
 126   0.0000       0.186311         5.0698   96-A'
 127   0.0000       0.193172         5.2565   32-A"
 128   0.0000       0.197012         5.3610   97-A'

                 SPIN DOWN ORBITALS
  NO   OCC          E(Eh)            E(eV)    Irrep
   0   1.0000    -443.611122    -12071.2723    1-A'
   1   1.0000    -443.587813    -12070.6380    2-A'
   2   1.0000    -443.554145    -12069.7219    3-A'
   3   1.0000    -443.532893    -12069.1436    4-A'
   4   1.0000    -318.197962     -8658.6067    5-A'
   5   1.0000     -56.411983     -1535.0481    6-A'
   6   1.0000     -56.392421     -1534.5158    7-A'
   7   1.0000     -56.363392     -1533.7259    8-A'
   8   1.0000     -56.347110     -1533.2828    9-A'
   9   1.0000     -51.325560     -1396.6395    1-A"
  10   1.0000     -51.325441     -1396.6363   10-A'
  11   1.0000     -51.324579     -1396.6128   11-A'
  12   1.0000     -51.308148     -1396.1657   12-A'
  13   1.0000     -51.307360     -1396.1442    2-A"
  14   1.0000     -51.306836     -1396.1300   13-A'
  15   1.0000     -51.287023     -1395.5908   14-A'
  16   1.0000     -51.285546     -1395.5507   15-A'
  17   1.0000     -51.285391     -1395.5464    3-A"
  18   1.0000     -51.274568     -1395.2519   16-A'
  19   1.0000     -51.272919     -1395.2070   17-A'
  20   1.0000     -51.272449     -1395.1943    4-A"
  21   1.0000     -38.024977     -1034.7122   18-A'
  22   1.0000     -33.527743      -912.3363   19-A'
  23   1.0000     -33.526759      -912.3095   20-A'
  24   1.0000     -33.525055      -912.2631    5-A"
  25   1.0000      -9.830040      -267.4890   21-A'
  26   1.0000      -9.821690      -267.2618   22-A'
  27   1.0000      -9.816561      -267.1222   23-A'
  28   1.0000      -9.809827      -266.9390   24-A'
  29   1.0000      -9.808547      -266.9041   25-A'
  30   1.0000      -9.807229      -266.8683   26-A'
  31   1.0000      -9.803634      -266.7704   27-A'
  32   1.0000      -9.803280      -266.7608   28-A'
  33   1.0000      -9.800313      -266.6801   29-A'
  34   1.0000      -9.797135      -266.5936   30-A'
  35   1.0000      -9.795702      -266.5546   31-A'
  36   1.0000      -9.793535      -266.4956   32-A'
  37   1.0000      -7.380381      -200.8304   33-A'
  38   1.0000      -7.361422      -200.3145   34-A'
  39   1.0000      -7.338115      -199.6803   35-A'
  40   1.0000      -7.325068      -199.3252   36-A'
  41   1.0000      -5.441727      -148.0769   37-A'
  42   1.0000      -5.439495      -148.0162    6-A"
  43   1.0000      -5.436032      -147.9219   38-A'
  44   1.0000      -5.424337      -147.6037   39-A'
  45   1.0000      -5.420906      -147.5103    7-A"
  46   1.0000      -5.418961      -147.4574   40-A'
  47   1.0000      -5.404794      -147.0719   41-A'
  48   1.0000      -5.399738      -146.9343   42-A'
  49   1.0000      -5.399072      -146.9162    8-A"
  50   1.0000      -5.394731      -146.7981   43-A'
  51   1.0000      -5.389294      -146.6502   44-A'
  52   1.0000      -5.387586      -146.6037    9-A"
  53   1.0000      -4.005044      -108.9828   45-A'
  54   1.0000      -2.517967       -68.5174   46-A'
  55   1.0000      -2.517870       -68.5147   10-A"
  56   1.0000      -2.516243       -68.4705   47-A'
  57   1.0000      -1.785680       -48.5908   48-A'
  58   1.0000      -1.779785       -48.4304   11-A"
  59   1.0000      -1.777371       -48.3647   49-A'
  60   1.0000      -1.774722       -48.2926   12-A"
  61   1.0000      -1.774548       -48.2879   50-A'
  62   1.0000      -1.765448       -48.0403   51-A'
  63   1.0000      -1.761326       -47.9281   13-A"
  64   1.0000      -1.760180       -47.8969   52-A'
  65   1.0000      -1.756734       -47.8032   14-A"
  66   1.0000      -1.756557       -47.7983   53-A'
  67   1.0000      -1.744228       -47.4629   54-A'
  68   1.0000      -1.741007       -47.3752   55-A'
  69   1.0000      -1.740350       -47.3573   15-A"
  70   1.0000      -1.735989       -47.2387   56-A'
  71   1.0000      -1.735889       -47.2359   16-A"
  72   1.0000      -1.733003       -47.1574   57-A'
  73   1.0000      -1.730874       -47.0995   58-A'
  74   1.0000      -1.729391       -47.0591   17-A"
  75   1.0000      -1.724890       -46.9366   18-A"
  76   1.0000      -1.724770       -46.9334   59-A'
  77   1.0000      -0.598288       -16.2802   60-A'
  78   1.0000      -0.597324       -16.2540   61-A'
  79   1.0000      -0.538414       -14.6510   62-A'
  80   1.0000      -0.530440       -14.4340   63-A'
  81   1.0000      -0.523897       -14.2560   64-A'
  82   1.0000      -0.507110       -13.7992   65-A'
  83   1.0000      -0.419442       -11.4136   66-A'
  84   1.0000      -0.409839       -11.1523   67-A'
  85   1.0000      -0.378711       -10.3052   68-A'
  86   1.0000      -0.363829        -9.9003   69-A'
  87   1.0000      -0.305438        -8.3114   70-A'
  88   1.0000      -0.300577        -8.1791   71-A'
  89   1.0000      -0.287193        -7.8149   72-A'
  90   1.0000      -0.277827        -7.5601   73-A'
  91   1.0000      -0.233079        -6.3424   74-A'
  92   1.0000      -0.227104        -6.1798   75-A'
  93   1.0000      -0.201145        -5.4734   76-A'
  94   1.0000      -0.198550        -5.4028   77-A'
  95   1.0000      -0.171660        -4.6711   78-A'
  96   1.0000      -0.162717        -4.4278   79-A'
  97   1.0000      -0.143148        -3.8952   80-A'
  98   1.0000      -0.132756        -3.6125   19-A"
  99   1.0000      -0.129460        -3.5228   20-A"
 100   1.0000      -0.124034        -3.3751   81-A'
 101   1.0000      -0.113584        -3.0908   82-A'
 102   1.0000      -0.106255        -2.8914   83-A'
 103   1.0000      -0.094561        -2.5731   84-A'
 104   1.0000      -0.077505        -2.1090   85-A'
 105   1.0000      -0.064625        -1.7585   21-A"
 106   1.0000      -0.057251        -1.5579   22-A"
 107   1.0000      -0.054209        -1.4751   86-A'
 108   1.0000      -0.053818        -1.4645   23-A"
 109   1.0000      -0.040140        -1.0923   24-A"
 110   1.0000      -0.031132        -0.8471   87-A'
 111   1.0000      -0.016335        -0.4445   88-A'
 112   1.0000      -0.008858        -0.2410   89-A'
 113   1.0000      -0.000839        -0.0228   25-A"
 114   1.0000       0.000874         0.0238   26-A"
 115   1.0000       0.009177         0.2497   90-A'
 116   1.0000       0.026299         0.7156   91-A'
 117   1.0000       0.041863         1.1391   92-A'
 118   1.0000       0.048203         1.3117   93-A'
 119   1.0000       0.053005         1.4423   27-A"
 120   1.0000       0.059889         1.6297   28-A"
 121   1.0000       0.079808         2.1717   29-A"
 122   1.0000       0.106676         2.9028   30-A"
 123   0.0000       0.131343         3.5740   94-A'
 124   0.0000       0.177999         4.8436   31-A"
 125   0.0000       0.184375         5.0171   95-A'
 126   0.0000       0.187689         5.1073   96-A'
 127   0.0000       0.193769         5.2727   32-A"

MULLIKEN ATOMIC CHARGES AND SPIN POPULATIONS
--------------------------------------------
   0 Cu:    0.611324    0.307164
   1 Se:   -0.311036    0.126189
   2 C :   -0.017127   -0.009242
   3 Se:   -0.527142    0.139512
   4 C :    0.089755   -0.002066
   5 Se:   -0.811145    0.197889
   6 C :    0.220592    0.007455
   7 Se:   -0.672866    0.199069
   8 C :    0.186072   -0.001200
   9 C :   -0.085078   -0.003320
  10 C :   -0.138040    0.004041
  11 C :   -0.096605   -0.000655
  12 H :    0.060835    0.000551
  13 C :   -0.231686    0.001058
  14 H :    0.083421    0.003704
  15 H :    0.021696    0.001727
  16 H :    0.010254    0.001752
  17 C :   -0.111021    0.014365
  18 C :    0.005932   -0.007791
  19 C :   -0.049572   -0.001137
  20 H :    0.005301    0.000728
  21 C :   -0.306069    0.004671
  22 H :    0.049474    0.010241
  23 H :    0.002446    0.003920
  24 H :    0.010285    0.001373
Sum of atomic charges         :   -2.0000000

LOEWDIN ATOMIC CHARGES AND SPIN POPULATIONS
-------------------------------------------
   0 Cu:   -0.576941    0.382855
   1 Se:   -0.073983    0.092990
   2 C :    0.056206    0.014499
   3 Se:   -0.148205    0.098287
   4 C :    0.061418    0.013963
   5 Se:   -0.254113    0.136957
   6 C :    0.019675    0.016864
   7 Se:   -0.223162    0.139376
   8 C :    0.025017    0.016935
   9 C :    0.382752    0.007953
  10 C :    0.347592    0.006412
  11 C :    0.261498    0.000395
  12 H :   -0.473443    0.010028
  13 C :    0.347664    0.001663
  14 H :   -0.449592    0.008699
  15 H :   -0.411552    0.000575
  16 H :   -0.417606    0.000478
  17 C :    0.324771    0.011487
  18 C :    0.334187    0.008985
  19 C :    0.220022    0.001470
  20 H :   -0.478274    0.012664
  21 C :    0.370016    0.004312
  22 H :   -0.404228    0.009918
  23 H :   -0.394950    0.001853
  24 H :   -0.444765    0.000381

  Mayer bond orders larger than 0.100000
B(  0-Cu,  1-Se) :   0.4587 B(  0-Cu,  3-Se) :   0.5056 B(  0-Cu,  5-Se) :   0.6280
B(  0-Cu,  7-Se) :   0.5980 B(  1-Se,  2-C ) :   1.4238 B(  1-Se, 21-C ) :   0.1327
B(  2-C ,  6-C ) :   1.0283 B(  2-C , 17-C ) :   1.0498 B(  3-Se,  4-C ) :   1.2263
B(  4-C ,  8-C ) :   1.0993 B(  4-C , 10-C ) :   1.1804 B(  5-Se,  6-C ) :   0.9274
B(  6-C , 18-C ) :   1.4397 B(  7-Se,  8-C ) :   1.0440 B(  8-C ,  9-C ) :   1.3207
B(  9-C , 13-C ) :   1.3070 B(  9-C , 14-H ) :   0.9616 B( 10-C , 11-C ) :   1.4506
B( 10-C , 12-H ) :   0.9526 B( 11-C , 13-C ) :   1.2974 B( 11-C , 15-H ) :   0.9893
B( 13-C , 16-H ) :   1.0048 B( 17-C , 19-C ) :   1.5571 B( 17-C , 20-H ) :   0.9456
B( 18-C , 21-C ) :   1.2103 B( 18-C , 22-H ) :   0.9495 B( 19-C , 21-C ) :   1.2553
B( 19-C , 23-H ) :   0.9756 B( 21-C , 24-H ) :   1.0119

FINAL SINGLE POINT ENERGY    -11626.800163711530

DIPOLE MOMENT
-------------
                                X             Y             Z
Electronic contribution:      0.33489      -0.94588       0.00000
Nuclear contribution   :      0.02385       0.23145       0.00000
                        -----------------------------------------
Total Dipole Moment    :      0.35874      -0.71444       0.00000
                        -----------------------------------------
Magnitude (a.u.)       :      0.79945
Magnitude (Debye)      :      2.03203

Rotational constants in cm-1:     0.017589     0.004101     0.003326
Rotational constants in MHz :   527.290179   122.947669    99.700592

                             ****ORCA TERMINATED NORMALLY****
TOTAL RUN TIME: 0 days 17 hours 0 minutes 13 seconds 275 msec
