                         Program Version 5.0.4 -  RELEASE  -
|  1> ! RIJCOSX nofrozencore ReducedPop printbasis
|  2> ! M06L ano-rcc-dzp autoaux
|  3>
|  4> %maxcore 7500
|  5> %basis
|  6> PCDTrimBas overlap
|  7> PCDTrimAuxJ Coulomb
|  8> PCDTrimAuxJK Coulomb
|  9> PCDTrimAuxC Coulomb
| 10> PCDThresh -1
| 11> end
| 12>
| 13> %basis
| 14> newgto Cu "ano-rcc-tzp" end
| 15> newgto Se "ano-rcc-tzp" end
| 16> end
| 17>
| 18> %pal
| 19> nprocs 8
| 20> end
| 21>
| 22> % sym SymThresh 1e-2 end
| 23> * xyz -2 2
| 24> Cu -0.0021592109442452583 -0.0012834042274002936 -0.0005082388093628388
| 25> Se 0.22310199338844047 1.1990143110732514 2.022297592614806
| 26> C -1.3489769457805016 0.8604362776439989 2.752855358450358
| 27> Se 2.1532792756890378 0.5773977239514985 -0.7907265255849978
| 28> C 2.2300183899938104 -0.20368817493870786 -2.2996782166641383
| 29> Se -2.1529440450480393 -0.5499206037274696 0.8411910288978375
| 30> C -2.3631160454509894 0.08808783583603542 2.2009497747076825
| 31> Se -0.1735255154167842 -1.1877901692440502 -2.044326036094177
| 32> C 1.1855422656508852 -0.9643677207172453 -2.803863538300677
| 33> C 1.4442473576470582 -1.5280168149673055 -4.068132236011468
| 34> C 3.3750575729474304 -0.06696842657855301 -3.034761885119126
| 35> C 3.6674382665435408 -0.6002150162724691 -4.271919350183726
| 36> H 4.120917184949839 0.5478521553635309 -2.5424327077184627
| 37> C 2.62928922157895 -1.3655688169172688 -4.790195847959448
| 38> H 0.6851381920301516 -2.1373762045079867 -4.538945876710218
| 39> H 4.617941013011913 -0.42237667192585937 -4.763259832330411
| 40> H 2.7245715938030717 -1.8461181854944018 -5.76001328754355
| 41> C -1.5579343971163047 1.474658481450732 4.067630402321759
| 42> C -3.446130890048366 -0.012434212809305492 2.9493976980175582
| 43> C -2.64610406326879 1.4557676640677064 4.971307478490669
| 44> H -0.611878369103831 2.031900818158138 4.280931521465874
| 45> C -3.4693427664859744 0.626838191083778 4.15023383996616
| 46> H -4.370168998818056 -0.5633262232762107 2.7288354691884495
| 47> H -2.9003920075362046 1.870087509891402 5.9559343830224725
| 48> H -4.464857705166648 0.37445780637473414 4.542712229519941
| 49> *
| 50>
| 51> % eprnmr
| 52> gtensor true
| 53> Nuclei = all H {aiso,adip,aorb,fgrad,rho}
| 54> Nuclei = all Cu {aiso,adip,aorb,fgrad,rho}
| 55> end
| 56>
| 57>                          ****END OF INPUT****

CARTESIAN COORDINATES (ANGSTROEM)
---------------------------------
  Cu    -0.000816   -0.002429    0.000000
  Se     2.312755    0.477770    0.000000
  C      2.963587   -1.164241    0.000000
  Se    -0.653963    2.273231    0.000000
  C     -2.352468    2.183778    0.000000
  Se     0.711092   -2.267054    0.000000
  C      2.225906   -2.341282    0.000000
  Se    -2.332136   -0.425872    0.000000
  C     -3.039553    0.978920    0.000000
  C     -4.440916    1.117430    0.000000
  C     -3.056133    3.356386    0.000000
  C     -4.423063    3.534992    0.000000
  H     -2.415826    4.232003    0.000000
  C     -5.125382    2.335459    0.000000
  H     -5.058363    0.229742    0.000000
  H     -4.872717    4.522062    0.000000
  H     -6.211892    2.328431    0.000000
  C      4.427646   -1.242314    0.000000
  C      2.951620   -3.444250    0.000000
  C      5.328396   -2.333072    0.000000
  H      4.774657   -0.179007    0.000000
  C      4.307534   -3.331495    0.000000
  H      2.598855   -4.484218    0.000000
  H      6.413894   -2.498924    0.000000
  H      4.640315   -4.379370    0.000000

 Total Charge           Charge          ....   -2
 Multiplicity           Mult            ....    2
 Number of Electrons    NEL             ....  247
 Basis Dimension        Dim             ....  575

ORBITAL ENERGIES
----------------
                 SPIN UP ORBITALS
  NO   OCC          E(Eh)            E(eV)    Irrep
   0   1.0000    -443.578160    -12070.3754    1-A'
   1   1.0000    -443.568672    -12070.1172    2-A'
   2   1.0000    -443.540514    -12069.3510    3-A'
   3   1.0000    -443.534808    -12069.1957    4-A'
   4   1.0000    -318.186944     -8658.3069    5-A'
   5   1.0000     -56.380385     -1534.1883    6-A'
   6   1.0000     -56.374590     -1534.0306    7-A'
   7   1.0000     -56.353262     -1533.4502    8-A'
   8   1.0000     -56.350602     -1533.3778    9-A'
   9   1.0000     -51.294326     -1395.7896   10-A'
  10   1.0000     -51.293353     -1395.7631   11-A'
  11   1.0000     -51.293327     -1395.7624    1-A"
  12   1.0000     -51.291144     -1395.7030   12-A'
  13   1.0000     -51.289944     -1395.6703   13-A'
  14   1.0000     -51.289761     -1395.6653    2-A"
  15   1.0000     -51.282014     -1395.4545   14-A'
  16   1.0000     -51.281840     -1395.4498   15-A'
  17   1.0000     -51.280390     -1395.4103   16-A'
  18   1.0000     -51.280360     -1395.4095   17-A'
  19   1.0000     -51.279719     -1395.3921    3-A"
  20   1.0000     -51.279523     -1395.3868    4-A"
  21   1.0000     -38.027348     -1034.7767   18-A'
  22   1.0000     -33.529352      -912.3801   19-A'
  23   1.0000     -33.528563      -912.3586   20-A'
  24   1.0000     -33.517599      -912.0602    5-A"
  25   1.0000      -9.834266      -267.6040   21-A'
  26   1.0000      -9.825511      -267.3658   22-A'
  27   1.0000      -9.818635      -267.1786   23-A'
  28   1.0000      -9.818283      -267.1691   24-A'
  29   1.0000      -9.817194      -267.1394   25-A'
  30   1.0000      -9.815223      -267.0858   26-A'
  31   1.0000      -9.809924      -266.9416   27-A'
  32   1.0000      -9.809431      -266.9282   28-A'
  33   1.0000      -9.806874      -266.8586   29-A'
  34   1.0000      -9.805789      -266.8291   30-A'
  35   1.0000      -9.803786      -266.7746   31-A'
  36   1.0000      -9.800978      -266.6982   32-A'
  37   1.0000      -7.348587      -199.9652   33-A'
  38   1.0000      -7.344596      -199.8566   34-A'
  39   1.0000      -7.331054      -199.4881   35-A'
  40   1.0000      -7.330438      -199.4714   36-A'
  41   1.0000      -5.409912      -147.2112   37-A'
  42   1.0000      -5.407665      -147.1501   38-A'
  43   1.0000      -5.405626      -147.0946    6-A"
  44   1.0000      -5.404828      -147.0729   39-A'
  45   1.0000      -5.403069      -147.0250   40-A'
  46   1.0000      -5.402801      -147.0177    7-A"
  47   1.0000      -5.402408      -147.0070   41-A'
  48   1.0000      -5.401212      -146.9744   42-A'
  49   1.0000      -5.396929      -146.8579   43-A'
  50   1.0000      -5.395679      -146.8239   44-A'
  51   1.0000      -5.395310      -146.8139    8-A"
  52   1.0000      -5.394569      -146.7937    9-A"
  53   1.0000      -4.021666      -109.4351   45-A'
  54   1.0000      -2.541107       -69.1470   46-A'
  55   1.0000      -2.540179       -69.1218   47-A'
  56   1.0000      -2.517014       -68.4914   10-A"
  57   1.0000      -1.751485       -47.6603   48-A'
  58   1.0000      -1.747858       -47.5616   49-A'
  59   1.0000      -1.746603       -47.5275   11-A"
  60   1.0000      -1.746508       -47.5249   50-A'
  61   1.0000      -1.744018       -47.4571   51-A'
  62   1.0000      -1.743829       -47.4520   12-A"
  63   1.0000      -1.742149       -47.4063   52-A'
  64   1.0000      -1.742133       -47.4058   13-A"
  65   1.0000      -1.740464       -47.3604   53-A'
  66   1.0000      -1.739402       -47.3315   54-A'
  67   1.0000      -1.739373       -47.3307   14-A"
  68   1.0000      -1.739366       -47.3305   55-A'
  69   1.0000      -1.738952       -47.3193   56-A'
  70   1.0000      -1.737391       -47.2768   57-A'
  71   1.0000      -1.737347       -47.2756   15-A"
  72   1.0000      -1.736180       -47.2439   16-A"
  73   1.0000      -1.732505       -47.1439   58-A'
  74   1.0000      -1.732498       -47.1437   17-A"
  75   1.0000      -1.731724       -47.1226   59-A'
  76   1.0000      -1.731652       -47.1206   18-A"
  77   1.0000      -0.613886       -16.7047   60-A'
  78   1.0000      -0.603011       -16.4088   61-A'
  79   1.0000      -0.533319       -14.5123   62-A'
  80   1.0000      -0.524214       -14.2646   63-A'
  81   1.0000      -0.496441       -13.5089   64-A'
  82   1.0000      -0.487512       -13.2659   65-A'
  83   1.0000      -0.425836       -11.5876   66-A'
  84   1.0000      -0.413267       -11.2456   67-A'
  85   1.0000      -0.379696       -10.3321   68-A'
  86   1.0000      -0.368423       -10.0253   69-A'
  87   1.0000      -0.319629        -8.6975   70-A'
  88   1.0000      -0.316145        -8.6027   71-A'
  89   1.0000      -0.292482        -7.9588   72-A'
  90   1.0000      -0.286214        -7.7883   73-A'
  91   1.0000      -0.237619        -6.4660   74-A'
  92   1.0000      -0.226052        -6.1512   75-A'
  93   1.0000      -0.199796        -5.4367   76-A'
  94   1.0000      -0.193412        -5.2630   77-A'
  95   1.0000      -0.169788        -4.6202   78-A'
  96   1.0000      -0.165250        -4.4967   79-A'
  97   1.0000      -0.157280        -4.2798   80-A'
  98   1.0000      -0.138851        -3.7783   19-A"
  99   1.0000      -0.137779        -3.7492   81-A'
 100   1.0000      -0.131009        -3.5649   20-A"
 101   1.0000      -0.124161        -3.3786   82-A'
 102   1.0000      -0.090203        -2.4545   83-A'
 103   1.0000      -0.078628        -2.1396   84-A'
 104   1.0000      -0.071162        -1.9364   85-A'
 105   1.0000      -0.061773        -1.6809   86-A'
 106   1.0000      -0.054927        -1.4946   21-A"
 107   1.0000      -0.050056        -1.3621   22-A"
 108   1.0000      -0.046204        -1.2573   87-A'
 109   1.0000      -0.032930        -0.8961   88-A'
 110   1.0000      -0.029453        -0.8015   23-A"
 111   1.0000      -0.025875        -0.7041   89-A'
 112   1.0000      -0.022655        -0.6165   24-A"
 113   1.0000      -0.002555        -0.0695   25-A"
 114   1.0000       0.000452         0.0123   90-A'
 115   1.0000       0.000991         0.0270   26-A"
 116   1.0000       0.018602         0.5062   91-A'
 117   1.0000       0.021370         0.5815   92-A'
 118   1.0000       0.043772         1.1911   93-A'
 119   1.0000       0.052226         1.4211   27-A"
 120   1.0000       0.056422         1.5353   28-A"
 121   1.0000       0.071032         1.9329   29-A"
 122   1.0000       0.099502         2.7076   30-A"
 123   1.0000       0.116900         3.1810   94-A'
 124   0.0000       0.178815         4.8658   95-A'
 125   0.0000       0.182394         4.9632   96-A'
 126   0.0000       0.196468         5.3462   97-A'
 127   0.0000       0.197770         5.3816   98-A'
 128   0.0000       0.198795         5.4095   31-A"

                 SPIN DOWN ORBITALS
  NO   OCC          E(Eh)            E(eV)    Irrep
   0   1.0000    -443.577721    -12070.3634    1-A'
   1   1.0000    -443.568250    -12070.1057    2-A'
   2   1.0000    -443.540036    -12069.3380    3-A'
   3   1.0000    -443.534328    -12069.1827    4-A'
   4   1.0000    -318.186823     -8658.3036    5-A'
   5   1.0000     -56.380209     -1534.1835    6-A'
   6   1.0000     -56.374418     -1534.0259    7-A'
   7   1.0000     -56.353072     -1533.4450    8-A'
   8   1.0000     -56.350409     -1533.3726    9-A'
   9   1.0000     -51.293981     -1395.7802   10-A'
  10   1.0000     -51.293086     -1395.7558    1-A"
  11   1.0000     -51.292686     -1395.7449   11-A'
  12   1.0000     -51.290831     -1395.6945   12-A'
  13   1.0000     -51.289530     -1395.6591    2-A"
  14   1.0000     -51.289281     -1395.6523   13-A'
  15   1.0000     -51.281696     -1395.4459   14-A'
  16   1.0000     -51.281503     -1395.4406   15-A'
  17   1.0000     -51.279597     -1395.3888   16-A'
  18   1.0000     -51.279548     -1395.3874   17-A'
  19   1.0000     -51.279453     -1395.3849    3-A"
  20   1.0000     -51.279257     -1395.3795    4-A"
  21   1.0000     -38.013586     -1034.4023   18-A'
  22   1.0000     -33.516279      -912.0243   19-A'
  23   1.0000     -33.515488      -912.0028   20-A'
  24   1.0000     -33.513746      -911.9554    5-A"
  25   1.0000      -9.834209      -267.6024   21-A'
  26   1.0000      -9.825415      -267.3631   22-A'
  27   1.0000      -9.818587      -267.1773   23-A'
  28   1.0000      -9.818228      -267.1676   24-A'
  29   1.0000      -9.817146      -267.1381   25-A'
  30   1.0000      -9.815168      -267.0843   26-A'
  31   1.0000      -9.809826      -266.9389   27-A'
  32   1.0000      -9.809431      -266.9282   28-A'
  33   1.0000      -9.806859      -266.8582   29-A'
  34   1.0000      -9.805613      -266.8243   30-A'
  35   1.0000      -9.803681      -266.7717   31-A'
  36   1.0000      -9.801024      -266.6994   32-A'
  37   1.0000      -7.348202      -199.9547   33-A'
  38   1.0000      -7.344223      -199.8465   34-A'
  39   1.0000      -7.330627      -199.4765   35-A'
  40   1.0000      -7.330006      -199.4596   36-A'
  41   1.0000      -5.409567      -147.2018   37-A'
  42   1.0000      -5.407328      -147.1409   38-A'
  43   1.0000      -5.405312      -147.0860    6-A"
  44   1.0000      -5.404035      -147.0513   39-A'
  45   1.0000      -5.402702      -147.0150   40-A'
  46   1.0000      -5.402508      -147.0097    7-A"
  47   1.0000      -5.401650      -146.9864   41-A'
  48   1.0000      -5.400830      -146.9640   42-A'
  49   1.0000      -5.396030      -146.8334   43-A'
  50   1.0000      -5.394989      -146.8051    8-A"
  51   1.0000      -5.394797      -146.7999   44-A'
  52   1.0000      -5.394241      -146.7848    9-A"
  53   1.0000      -3.993761      -108.6758   45-A'
  54   1.0000      -2.506772       -68.2127   10-A"
  55   1.0000      -2.506271       -68.1991   46-A'
  56   1.0000      -2.505262       -68.1717   47-A'
  57   1.0000      -1.751085       -47.6495   48-A'
  58   1.0000      -1.747466       -47.5510   49-A'
  59   1.0000      -1.746303       -47.5193   11-A"
  60   1.0000      -1.745643       -47.5014   50-A'
  61   1.0000      -1.743541       -47.4442   12-A"
  62   1.0000      -1.743187       -47.4345   51-A'
  63   1.0000      -1.741359       -47.3848   13-A"
  64   1.0000      -1.741328       -47.3839   52-A'
  65   1.0000      -1.739952       -47.3465   53-A'
  66   1.0000      -1.738861       -47.3168   54-A'
  67   1.0000      -1.738653       -47.3112   14-A"
  68   1.0000      -1.738638       -47.3107   55-A'
  69   1.0000      -1.738019       -47.2939   56-A'
  70   1.0000      -1.737048       -47.2675   15-A"
  71   1.0000      -1.736445       -47.2511   57-A'
  72   1.0000      -1.735861       -47.2352   16-A"
  73   1.0000      -1.731699       -47.1219   58-A'
  74   1.0000      -1.731686       -47.1216   17-A"
  75   1.0000      -1.730903       -47.1003   59-A'
  76   1.0000      -1.730842       -47.0986   18-A"
  77   1.0000      -0.612924       -16.6785   60-A'
  78   1.0000      -0.602169       -16.3859   61-A'
  79   1.0000      -0.532199       -14.4819   62-A'
  80   1.0000      -0.523032       -14.2324   63-A'
  81   1.0000      -0.494828       -13.4650   64-A'
  82   1.0000      -0.486016       -13.2252   65-A'
  83   1.0000      -0.423278       -11.5180   66-A'
  84   1.0000      -0.410867       -11.1803   67-A'
  85   1.0000      -0.376953       -10.2574   68-A'
  86   1.0000      -0.365513        -9.9461   69-A'
  87   1.0000      -0.317849        -8.6491   70-A'
  88   1.0000      -0.314371        -8.5545   71-A'
  89   1.0000      -0.289963        -7.8903   72-A'
  90   1.0000      -0.283645        -7.7184   73-A'
  91   1.0000      -0.236301        -6.4301   74-A'
  92   1.0000      -0.224899        -6.1198   75-A'
  93   1.0000      -0.198472        -5.4007   76-A'
  94   1.0000      -0.192121        -5.2279   77-A'
  95   1.0000      -0.168179        -4.5764   78-A'
  96   1.0000      -0.163798        -4.4572   79-A'
  97   1.0000      -0.155475        -4.2307   80-A'
  98   1.0000      -0.138452        -3.7675   19-A"
  99   1.0000      -0.136344        -3.7101   81-A'
 100   1.0000      -0.130613        -3.5542   20-A"
 101   1.0000      -0.122257        -3.3268   82-A'
 102   1.0000      -0.088309        -2.4030   83-A'
 103   1.0000      -0.076644        -2.0856   84-A'
 104   1.0000      -0.063768        -1.7352   85-A'
 105   1.0000      -0.057654        -1.5689   86-A'
 106   1.0000      -0.054262        -1.4766   21-A"
 107   1.0000      -0.049206        -1.3390   22-A"
 108   1.0000      -0.044052        -1.1987   87-A'
 109   1.0000      -0.027246        -0.7414   23-A"
 110   1.0000      -0.022736        -0.6187   88-A'
 111   1.0000      -0.020704        -0.5634   24-A"
 112   1.0000      -0.001275        -0.0347   89-A'
 113   1.0000       0.007197         0.1959   25-A"
 114   1.0000       0.010798         0.2938   90-A'
 115   1.0000       0.011173         0.3040   26-A"
 116   1.0000       0.029662         0.8071   91-A'
 117   1.0000       0.031658         0.8615   92-A'
 118   1.0000       0.054560         1.4846   93-A'
 119   1.0000       0.054631         1.4866   27-A"
 120   1.0000       0.059527         1.6198   28-A"
 121   1.0000       0.072736         1.9792   29-A"
 122   1.0000       0.102712         2.7949   30-A"
 123   0.0000       0.146359         3.9826   94-A'
 124   0.0000       0.180819         4.9203   95-A'
 125   0.0000       0.184339         5.0161   96-A'
 126   0.0000       0.198985         5.4147   31-A"
 127   0.0000       0.199203         5.4206   97-A'

MULLIKEN ATOMIC CHARGES AND SPIN POPULATIONS
--------------------------------------------
   0 Cu:    0.637738    0.306249
   1 Se:   -0.773901    0.185566
   2 C :    0.221505    0.000695
   3 Se:   -0.792859    0.184490
   4 C :    0.260226   -0.001434
   5 Se:   -0.627056    0.164765
   6 C :    0.210045   -0.006141
   7 Se:   -0.657095    0.159875
   8 C :    0.177167   -0.005073
   9 C :   -0.140187   -0.000167
  10 C :   -0.068839   -0.001870
  11 C :   -0.195168   -0.000451
  12 H :    0.097400    0.002588
  13 C :   -0.127083   -0.000715
  14 H :    0.084854    0.002299
  15 H :    0.011053    0.001185
  16 H :    0.030040    0.002102
  17 C :   -0.077359   -0.001120
  18 C :   -0.085126    0.000189
  19 C :   -0.281588   -0.000751
  20 H :    0.078865    0.001952
  21 C :   -0.040317    0.000121
  22 H :    0.040885    0.002122
  23 H :   -0.021054    0.001217
  24 H :    0.037855    0.002306
Sum of atomic charges         :   -2.0000000

LOEWDIN ATOMIC CHARGES AND SPIN POPULATIONS
-------------------------------------------
   0 Cu:   -0.614767    0.386436
   1 Se:   -0.183314    0.132553
   2 C :    0.151941    0.008751
   3 Se:   -0.196187    0.131887
   4 C :    0.076538    0.010392
   5 Se:   -0.197995    0.116285
   6 C :   -0.095946    0.015540
   7 Se:   -0.199273    0.112359
   8 C :   -0.006057    0.012834
   9 C :    0.384643    0.007184
  10 C :    0.356762    0.006894
  11 C :    0.319548    0.000545
  12 H :   -0.474860    0.012264
  13 C :    0.322767    0.000519
  14 H :   -0.450123    0.007099
  15 H :   -0.406689    0.000156
  16 H :   -0.420524    0.000695
  17 C :    0.358567    0.006462
  18 C :    0.358383    0.008001
  19 C :    0.341880    0.000601
  20 H :   -0.507615    0.015239
  21 C :    0.315622    0.000635
  22 H :   -0.386762    0.005756
  23 H :   -0.381775    0.000092
  24 H :   -0.464764    0.000822

  Mayer bond orders larger than 0.100000
B(  0-Cu,  1-Se) :   0.5481 B(  0-Cu,  3-Se) :   0.5500 B(  0-Cu,  5-Se) :   0.5558
B(  0-Cu,  7-Se) :   0.5475 B(  1-Se,  2-C ) :   0.9401 B(  2-C ,  6-C ) :   1.1279
B(  2-C , 17-C ) :   1.3102 B(  3-Se,  4-C ) :   0.9724 B(  4-C ,  8-C ) :   1.1252
B(  4-C , 10-C ) :   1.2880 B(  5-Se,  6-C ) :   1.1745 B(  6-C , 18-C ) :   1.1708
B(  7-Se,  8-C ) :   1.1237 B(  8-C ,  9-C ) :   1.2327 B(  9-C , 13-C ) :   1.3896
B(  9-C , 14-H ) :   0.9677 B( 10-C , 11-C ) :   1.3534 B( 10-C , 12-H ) :   0.9519
B( 11-C , 13-C ) :   1.3183 B( 11-C , 15-H ) :   1.0056 B( 13-C , 16-H ) :   0.9887
B( 17-C , 19-C ) :   1.3354 B( 17-C , 20-H ) :   0.9608 B( 18-C , 21-C ) :   1.3849
B( 18-C , 22-H ) :   0.9934 B( 19-C , 21-C ) :   1.2723 B( 19-C , 23-H ) :   1.0320
B( 21-C , 24-H ) :   0.9804

FINAL SINGLE POINT ENERGY    -11627.031159336884

DIPOLE MOMENT
-------------
                                X             Y             Z
Electronic contribution:      0.44072       0.68577       0.00000
Nuclear contribution   :     -0.50705      -0.79994       0.00000
                        -----------------------------------------
Total Dipole Moment    :     -0.06633      -0.11417       0.00000
                        -----------------------------------------
Magnitude (a.u.)       :      0.13204
Magnitude (Debye)      :      0.33562

Rotational constants in cm-1:     0.017593     0.004098     0.003324
Rotational constants in MHz :   527.418087   122.857093    99.645588

                             ****ORCA TERMINATED NORMALLY****
TOTAL RUN TIME: 0 days 17 hours 4 minutes 59 seconds 814 msec
