                         Program Version 5.0.4 -  RELEASE  -
|  1> ! RIJCOSX nofrozencore ReducedPop printbasis
|  2> ! M06L ano-rcc-dzp autoaux
|  3>
|  4> %maxcore 7500
|  5> %basis
|  6> PCDTrimBas overlap
|  7> PCDTrimAuxJ Coulomb
|  8> PCDTrimAuxJK Coulomb
|  9> PCDTrimAuxC Coulomb
| 10> PCDThresh -1
| 11> end
| 12>
| 13> %basis
| 14> newgto Cu "ano-rcc-tzp" end
| 15> newgto Se "ano-rcc-tzp" end
| 16> end
| 17>
| 18> %pal
| 19> nprocs 8
| 20> end
| 21>
| 22> % sym SymThresh 1e-2 end
| 23> * xyz -2 2
| 24> Cu 2.985265171529635e-05 -0.00012100773843087004 0.00013342768238042415
| 25> Se 2.102816244112011 -0.6167277810789048 0.8945418664104817
| 26> C 1.776284647344776 -1.7329124557147217 2.0590988392313805
| 27> Se 0.8584270027104933 1.549595758594623 -1.5722016628244717
| 28> C -0.45543437979817664 2.1348319132827775 -2.3461128585880617
| 29> Se -0.8582142653486072 -1.5505203000794003 1.573219409284934
| 30> C 0.4642927859436217 -2.1249916742587205 2.3365037593320563
| 31> Se -2.103536875623 0.6158055953951317 -0.8936292959803158
| 32> C -1.7800866472645789 1.7403807341831785 -2.067549137647851
| 33> C -2.7662742336111674 2.32572784676664 -2.8055454620337485
| 34> C -0.2951233371580622 3.0915898015580843 -3.357484277385635
| 35> C -1.310391239413222 3.6588913838284536 -4.079270444388676
| 36> H 0.6989144073134476 3.4327776396647827 -3.615120446244105
| 37> C -2.662849213976026 3.2343564157008333 -3.7714091538122885
| 38> H -3.802319636260631 2.0622569470353276 -2.6361140558639256
| 39> H -0.8171274055311494 4.371321246668304 -4.791250374257455
| 40> H -3.78740546569546 3.3772736395458236 -4.048784951567206
| 41> C 2.7508125498466383 -2.3317863208952634 2.8103610819729146
| 42> C 0.2837397331150441 -3.0831975663324567 3.3472065089065572
| 43> C 2.649197606895248 -3.242895183355666 3.779091403030378
| 44> H 3.7817743847553573 -2.0599781486943485 2.631402360977137
| 45> C 1.339702810570215 -3.650129300626089 4.073070139939426
| 46> H -0.7374190687962753 -3.376448816069089 3.5503054689825326
| 47> H 3.650027817487061 -3.5051935694584975 4.17125647602847
| 48> H 1.1245181700252942 -4.386378324511419 4.841248069719663
| 49> *
| 50>
| 51> % eprnmr
| 52> gtensor true
| 53> Nuclei = all H {aiso,adip,aorb,fgrad,rho}
| 54> Nuclei = all Cu {aiso,adip,aorb,fgrad,rho}
| 55> end
| 56>
| 57>                          ****END OF INPUT****

CARTESIAN COORDINATES (ANGSTROEM)
---------------------------------
  Cu     0.000181    0.000024    0.000000
  Se     1.147491    2.070183    0.000000
  C      2.748081    1.687043    0.000000
  Se    -2.175411    0.936776    0.000000
  C     -3.185764   -0.346523    0.000000
  Se     2.176792   -0.936611    0.000000
  C      3.172343    0.355877    0.000000
  Se    -1.146220   -2.070951    0.000000
  C     -2.759480   -1.690463    0.000000
  C     -3.732236   -2.646277    0.000000
  C     -4.571519   -0.137618    0.000000
  C     -5.521141   -1.123413    0.000000
  H     -4.957728    0.873193    0.000000
  C     -5.053907   -2.496673    0.000000
  H     -3.464932   -3.695116    0.000000
  H     -6.509928   -0.594187    0.000000
  H     -5.393257   -3.613289    0.000000
  C      3.739347    2.630516    0.000000
  C      4.557890    0.126668    0.000000
  C      5.064866    2.482595    0.000000
  H      3.459219    3.674698    0.000000
  C      5.511659    1.153153    0.000000
  H      4.870619   -0.908809    0.000000
  H      5.565173    3.469483    0.000000
  H      6.567451    0.900629    0.000000

 Total Charge           Charge          ....   -2
 Multiplicity           Mult            ....    2
 Number of Electrons    NEL             ....  247
 Basis Dimension        Dim             ....  575

ORBITAL ENERGIES
----------------
                 SPIN UP ORBITALS
  NO   OCC          E(Eh)            E(eV)    Irrep
   0   1.0000    -443.561542    -12069.9232    1-A'
   1   1.0000    -443.560235    -12069.8876    2-A'
   2   1.0000    -443.547268    -12069.5348    3-A'
   3   1.0000    -443.546397    -12069.5111    4-A'
   4   1.0000    -318.187875     -8658.3323    5-A'
   5   1.0000     -56.370364     -1533.9156    6-A'
   6   1.0000     -56.369882     -1533.9025    7-A'
   7   1.0000     -56.357601     -1533.5683    8-A'
   8   1.0000     -56.357201     -1533.5574    9-A'
   9   1.0000     -51.288132     -1395.6210   10-A'
  10   1.0000     -51.287276     -1395.5977   11-A'
  11   1.0000     -51.286830     -1395.5856   12-A'
  12   1.0000     -51.286454     -1395.5754    1-A"
  13   1.0000     -51.286163     -1395.5674   13-A'
  14   1.0000     -51.285997     -1395.5629   14-A'
  15   1.0000     -51.285650     -1395.5535   15-A'
  16   1.0000     -51.285557     -1395.5509    2-A"
  17   1.0000     -51.284781     -1395.5298   16-A'
  18   1.0000     -51.284337     -1395.5178    3-A"
  19   1.0000     -51.284259     -1395.5156   17-A'
  20   1.0000     -51.283818     -1395.5036    4-A"
  21   1.0000     -38.028438     -1034.8064   18-A'
  22   1.0000     -33.530548      -912.4126   19-A'
  23   1.0000     -33.529670      -912.3887   20-A'
  24   1.0000     -33.518489      -912.0845    5-A"
  25   1.0000      -9.830412      -267.4991   21-A'
  26   1.0000      -9.828848      -267.4566   22-A'
  27   1.0000      -9.821796      -267.2647   23-A'
  28   1.0000      -9.815171      -267.0844   24-A'
  29   1.0000      -9.812050      -266.9995   25-A'
  30   1.0000      -9.810438      -266.9556   26-A'
  31   1.0000      -9.809938      -266.9420   27-A'
  32   1.0000      -9.809848      -266.9395   28-A'
  33   1.0000      -9.806875      -266.8586   29-A'
  34   1.0000      -9.806868      -266.8584   30-A'
  35   1.0000      -9.801168      -266.7033   31-A'
  36   1.0000      -9.798704      -266.6363   32-A'
  37   1.0000      -7.341784      -199.7801   33-A'
  38   1.0000      -7.341638      -199.7761   34-A'
  39   1.0000      -7.334383      -199.5787   35-A'
  40   1.0000      -7.334265      -199.5755   36-A'
  41   1.0000      -5.405885      -147.1016   37-A'
  42   1.0000      -5.405082      -147.0797   38-A'
  43   1.0000      -5.404050      -147.0517   39-A'
  44   1.0000      -5.403863      -147.0466   40-A'
  45   1.0000      -5.400662      -146.9595   41-A'
  46   1.0000      -5.400531      -146.9559    6-A"
  47   1.0000      -5.399901      -146.9388   42-A'
  48   1.0000      -5.399556      -146.9294    7-A"
  49   1.0000      -5.398697      -146.9060   43-A'
  50   1.0000      -5.398508      -146.9009   44-A'
  51   1.0000      -5.398299      -146.8952    8-A"
  52   1.0000      -5.398131      -146.8906    9-A"
  53   1.0000      -4.022706      -109.4634   45-A'
  54   1.0000      -2.542377       -69.1816   46-A'
  55   1.0000      -2.541253       -69.1510   47-A'
  56   1.0000      -2.517733       -68.5110   10-A"
  57   1.0000      -1.745045       -47.4851   48-A'
  58   1.0000      -1.744268       -47.4639   49-A'
  59   1.0000      -1.742935       -47.4277   50-A'
  60   1.0000      -1.742594       -47.4184   51-A'
  61   1.0000      -1.742144       -47.4061   52-A'
  62   1.0000      -1.741626       -47.3921   11-A"
  63   1.0000      -1.741416       -47.3863   53-A'
  64   1.0000      -1.740730       -47.3677   12-A"
  65   1.0000      -1.740270       -47.3552   54-A'
  66   1.0000      -1.740053       -47.3493   55-A'
  67   1.0000      -1.739588       -47.3366   13-A"
  68   1.0000      -1.739396       -47.3314   14-A"
  69   1.0000      -1.737338       -47.2754   15-A"
  70   1.0000      -1.737304       -47.2745   56-A'
  71   1.0000      -1.736464       -47.2516   16-A"
  72   1.0000      -1.736431       -47.2507   57-A'
  73   1.0000      -1.735185       -47.2168   58-A'
  74   1.0000      -1.735129       -47.2153   17-A"
  75   1.0000      -1.735011       -47.2120   59-A'
  76   1.0000      -1.734954       -47.2105   18-A"
  77   1.0000      -0.603695       -16.4274   60-A'
  78   1.0000      -0.603231       -16.4147   61-A'
  79   1.0000      -0.522527       -14.2187   62-A'
  80   1.0000      -0.518748       -14.1159   63-A'
  81   1.0000      -0.505522       -13.7560   64-A'
  82   1.0000      -0.500263       -13.6129   65-A'
  83   1.0000      -0.424928       -11.5629   66-A'
  84   1.0000      -0.417428       -11.3588   67-A'
  85   1.0000      -0.378674       -10.3042   68-A'
  86   1.0000      -0.368729       -10.0336   69-A'
  87   1.0000      -0.320863        -8.7311   70-A'
  88   1.0000      -0.319441        -8.6924   71-A'
  89   1.0000      -0.290509        -7.9051   72-A'
  90   1.0000      -0.286595        -7.7987   73-A'
  91   1.0000      -0.228276        -6.2117   74-A'
  92   1.0000      -0.223629        -6.0853   75-A'
  93   1.0000      -0.200715        -5.4617   76-A'
  94   1.0000      -0.190835        -5.1929   77-A'
  95   1.0000      -0.167257        -4.5513   78-A'
  96   1.0000      -0.163332        -4.4445   79-A'
  97   1.0000      -0.139885        -3.8065   80-A'
  98   1.0000      -0.134350        -3.6558   81-A'
  99   1.0000      -0.132348        -3.6014   82-A'
 100   1.0000      -0.131179        -3.5696   19-A"
 101   1.0000      -0.130764        -3.5583   20-A"
 102   1.0000      -0.110238        -2.9997   83-A'
 103   1.0000      -0.083926        -2.2837   84-A'
 104   1.0000      -0.069482        -1.8907   85-A'
 105   1.0000      -0.063519        -1.7285   86-A'
 106   1.0000      -0.062373        -1.6973   87-A'
 107   1.0000      -0.048963        -1.3324   21-A"
 108   1.0000      -0.046478        -1.2647   22-A"
 109   1.0000      -0.035847        -0.9754   23-A"
 110   1.0000      -0.031531        -0.8580   88-A'
 111   1.0000      -0.029859        -0.8125   24-A"
 112   1.0000      -0.028043        -0.7631   89-A'
 113   1.0000      -0.004066        -0.1106   25-A"
 114   1.0000      -0.001175        -0.0320   26-A"
 115   1.0000       0.000107         0.0029   90-A'
 116   1.0000       0.019029         0.5178   91-A'
 117   1.0000       0.021072         0.5734   92-A'
 118   1.0000       0.040390         1.0991   93-A'
 119   1.0000       0.049554         1.3484   27-A"
 120   1.0000       0.053705         1.4614   28-A"
 121   1.0000       0.071456         1.9444   29-A"
 122   1.0000       0.100318         2.7298   30-A"
 123   1.0000       0.115220         3.1353   94-A'
 124   0.0000       0.182334         4.9616   95-A'
 125   0.0000       0.183191         4.9849   96-A'
 126   0.0000       0.192432         5.2363   97-A'
 127   0.0000       0.195117         5.3094   98-A'
 128   0.0000       0.203597         5.5402   31-A"

                 SPIN DOWN ORBITALS
  NO   OCC          E(Eh)            E(eV)    Irrep
   0   1.0000    -443.561089    -12069.9109    1-A'
   1   1.0000    -443.559785    -12069.8754    2-A'
   2   1.0000    -443.546816    -12069.5225    3-A'
   3   1.0000    -443.545947    -12069.4988    4-A'
   4   1.0000    -318.187754     -8658.3290    5-A'
   5   1.0000     -56.370180     -1533.9106    6-A'
   6   1.0000     -56.369700     -1533.8975    7-A'
   7   1.0000     -56.357420     -1533.5634    8-A'
   8   1.0000     -56.357021     -1533.5525    9-A'
   9   1.0000     -51.287808     -1395.6122   10-A'
  10   1.0000     -51.286945     -1395.5887   11-A'
  11   1.0000     -51.286207     -1395.5686    1-A"
  12   1.0000     -51.286106     -1395.5659   12-A'
  13   1.0000     -51.285841     -1395.5587   13-A'
  14   1.0000     -51.285328     -1395.5447   14-A'
  15   1.0000     -51.285305     -1395.5441    2-A"
  16   1.0000     -51.285260     -1395.5429   15-A'
  17   1.0000     -51.284089     -1395.5110    3-A"
  18   1.0000     -51.284053     -1395.5100   16-A'
  19   1.0000     -51.283569     -1395.4969    4-A"
  20   1.0000     -51.283529     -1395.4958   17-A'
  21   1.0000     -38.014557     -1034.4287   18-A'
  22   1.0000     -33.517353      -912.0535   19-A'
  23   1.0000     -33.516479      -912.0298   20-A'
  24   1.0000     -33.514622      -911.9792    5-A"
  25   1.0000      -9.830359      -267.4977   21-A'
  26   1.0000      -9.828803      -267.4553   22-A'
  27   1.0000      -9.821739      -267.2631   23-A'
  28   1.0000      -9.815126      -267.0832   24-A'
  29   1.0000      -9.811926      -266.9961   25-A'
  30   1.0000      -9.810437      -266.9556   26-A'
  31   1.0000      -9.809950      -266.9423   27-A'
  32   1.0000      -9.809746      -266.9368   28-A'
  33   1.0000      -9.806890      -266.8590   29-A'
  34   1.0000      -9.806887      -266.8590   30-A'
  35   1.0000      -9.801067      -266.7006   31-A'
  36   1.0000      -9.798594      -266.6333   32-A'
  37   1.0000      -7.341386      -199.7693   33-A'
  38   1.0000      -7.341238      -199.7652   34-A'
  39   1.0000      -7.333977      -199.5677   35-A'
  40   1.0000      -7.333860      -199.5645   36-A'
  41   1.0000      -5.405523      -147.0918   37-A'
  42   1.0000      -5.404712      -147.0697   38-A'
  43   1.0000      -5.403693      -147.0420   39-A'
  44   1.0000      -5.403504      -147.0368   40-A'
  45   1.0000      -5.400221      -146.9475    6-A"
  46   1.0000      -5.399846      -146.9373   41-A'
  47   1.0000      -5.399243      -146.9209    7-A"
  48   1.0000      -5.399070      -146.9162   42-A'
  49   1.0000      -5.397987      -146.8867    8-A"
  50   1.0000      -5.397874      -146.8836   43-A'
  51   1.0000      -5.397817      -146.8821    9-A"
  52   1.0000      -5.397683      -146.8784   44-A'
  53   1.0000      -3.994474      -108.6952   45-A'
  54   1.0000      -2.507422       -68.2304   10-A"
  55   1.0000      -2.507124       -68.2223   46-A'
  56   1.0000      -2.505931       -68.1898   47-A'
  57   1.0000      -1.744605       -47.4731   48-A'
  58   1.0000      -1.743814       -47.4516   49-A'
  59   1.0000      -1.742490       -47.4156   50-A'
  60   1.0000      -1.742143       -47.4061   51-A'
  61   1.0000      -1.741316       -47.3836   11-A"
  62   1.0000      -1.741260       -47.3821   52-A'
  63   1.0000      -1.740514       -47.3618   53-A'
  64   1.0000      -1.740416       -47.3591   12-A"
  65   1.0000      -1.739384       -47.3310   54-A'
  66   1.0000      -1.739280       -47.3282   13-A"
  67   1.0000      -1.739167       -47.3251   55-A'
  68   1.0000      -1.739085       -47.3229   14-A"
  69   1.0000      -1.736580       -47.2547   15-A"
  70   1.0000      -1.736503       -47.2527   56-A'
  71   1.0000      -1.735696       -47.2307   16-A"
  72   1.0000      -1.735622       -47.2287   57-A'
  73   1.0000      -1.734384       -47.1950   58-A'
  74   1.0000      -1.734363       -47.1944   17-A"
  75   1.0000      -1.734208       -47.1902   59-A'
  76   1.0000      -1.734187       -47.1896   18-A"
  77   1.0000      -0.602915       -16.4062   60-A'
  78   1.0000      -0.602476       -16.3942   61-A'
  79   1.0000      -0.521299       -14.1853   62-A'
  80   1.0000      -0.517432       -14.0801   63-A'
  81   1.0000      -0.504234       -13.7209   64-A'
  82   1.0000      -0.498684       -13.5699   65-A'
  83   1.0000      -0.422081       -11.4854   66-A'
  84   1.0000      -0.414728       -11.2853   67-A'
  85   1.0000      -0.376082       -10.2337   68-A'
  86   1.0000      -0.365989        -9.9591   69-A'
  87   1.0000      -0.319442        -8.6925   70-A'
  88   1.0000      -0.317905        -8.6506   71-A'
  89   1.0000      -0.287851        -7.8328   72-A'
  90   1.0000      -0.283813        -7.7229   73-A'
  91   1.0000      -0.227164        -6.1814   74-A'
  92   1.0000      -0.222464        -6.0536   75-A'
  93   1.0000      -0.199263        -5.4222   76-A'
  94   1.0000      -0.189379        -5.1533   77-A'
  95   1.0000      -0.165977        -4.5165   78-A'
  96   1.0000      -0.162088        -4.4106   79-A'
  97   1.0000      -0.138705        -3.7744   80-A'
  98   1.0000      -0.131991        -3.5917   81-A'
  99   1.0000      -0.130816        -3.5597   19-A"
 100   1.0000      -0.130403        -3.5485   20-A"
 101   1.0000      -0.130261        -3.5446   82-A'
 102   1.0000      -0.108653        -2.9566   83-A'
 103   1.0000      -0.082402        -2.2423   84-A'
 104   1.0000      -0.067612        -1.8398   85-A'
 105   1.0000      -0.060174        -1.6374   86-A'
 106   1.0000      -0.052747        -1.4353   87-A'
 107   1.0000      -0.047944        -1.3046   21-A"
 108   1.0000      -0.045549        -1.2394   22-A"
 109   1.0000      -0.033953        -0.9239   23-A"
 110   1.0000      -0.028798        -0.7836   24-A"
 111   1.0000      -0.022931        -0.6240   88-A'
 112   1.0000      -0.002626        -0.0715   89-A'
 113   1.0000       0.005610         0.1526   25-A"
 114   1.0000       0.009933         0.2703   26-A"
 115   1.0000       0.010599         0.2884   90-A'
 116   1.0000       0.029153         0.7933   91-A'
 117   1.0000       0.031633         0.8608   92-A'
 118   1.0000       0.051636         1.4051   93-A'
 119   1.0000       0.052005         1.4151   27-A"
 120   1.0000       0.057021         1.5516   28-A"
 121   1.0000       0.073141         1.9903   29-A"
 122   1.0000       0.103512         2.8167   30-A"
 123   0.0000       0.144974         3.9450   94-A'
 124   0.0000       0.184456         5.0193   95-A'
 125   0.0000       0.185333         5.0432   96-A'
 126   0.0000       0.196027         5.3342   97-A'
 127   0.0000       0.198574         5.4035   98-A'

MULLIKEN ATOMIC CHARGES AND SPIN POPULATIONS
--------------------------------------------
   0 Cu:    0.635323    0.310696
   1 Se:   -0.762330    0.172410
   2 C :    0.195477   -0.003178
   3 Se:   -0.709885    0.171938
   4 C :    0.195007   -0.003266
   5 Se:   -0.706107    0.175190
   6 C :    0.229578   -0.003148
   7 Se:   -0.763967    0.172715
   8 C :    0.190985   -0.002796
   9 C :    0.047514   -0.001771
  10 C :   -0.022817   -0.001440
  11 C :   -0.206748   -0.001176
  12 H :    0.088881    0.003023
  13 C :   -0.211134   -0.001865
  14 H :    0.087349    0.003286
  15 H :    0.009167    0.002205
  16 H :   -0.023109    0.002655
  17 C :   -0.008695   -0.001580
  18 C :   -0.118280   -0.001502
  19 C :   -0.163229   -0.001291
  20 H :    0.088071    0.002844
  21 C :   -0.192665   -0.000499
  22 H :    0.089518    0.002893
  23 H :    0.003461    0.002036
  24 H :    0.028634    0.001621
Sum of atomic charges         :   -2.0000000

LOEWDIN ATOMIC CHARGES AND SPIN POPULATIONS
-------------------------------------------
   0 Cu:   -0.621579    0.390445
   1 Se:   -0.201804    0.123559
   2 C :    0.039985    0.012438
   3 Se:   -0.205240    0.122623
   4 C :    0.044015    0.012070
   5 Se:   -0.205055    0.123905
   6 C :    0.042301    0.011607
   7 Se:   -0.204432    0.124243
   8 C :    0.047713    0.012361
   9 C :    0.323825    0.006566
  10 C :    0.359286    0.007222
  11 C :    0.319994    0.000437
  12 H :   -0.449648    0.008783
  13 C :    0.309734    0.000228
  14 H :   -0.454764    0.008579
  15 H :   -0.410586    0.000470
  16 H :   -0.368122    0.000567
  17 C :    0.340752    0.006417
  18 C :    0.382064    0.007399
  19 C :    0.311814    0.000289
  20 H :   -0.453388    0.008411
  21 C :    0.328268    0.000590
  22 H :   -0.459319    0.009995
  23 H :   -0.386938    0.000380
  24 H :   -0.428876    0.000417

  Mayer bond orders larger than 0.100000
B(  0-Cu,  1-Se) :   0.5537 B(  0-Cu,  3-Se) :   0.5503 B(  0-Cu,  5-Se) :   0.5516
B(  0-Cu,  7-Se) :   0.5527 B(  1-Se,  2-C ) :   1.0296 B(  2-C ,  6-C ) :   1.1394
B(  2-C , 17-C ) :   1.2429 B(  3-Se,  4-C ) :   1.0508 B(  4-C ,  8-C ) :   1.1570
B(  4-C , 10-C ) :   1.2328 B(  5-Se,  6-C ) :   1.0473 B(  6-C , 18-C ) :   1.2555
B(  7-Se,  8-C ) :   1.0185 B(  8-C ,  9-C ) :   1.2329 B(  9-C , 13-C ) :   1.3754
B(  9-C , 14-H ) :   0.9539 B( 10-C , 11-C ) :   1.4061 B( 10-C , 12-H ) :   0.9580
B( 11-C , 13-C ) :   1.2835 B( 11-C , 15-H ) :   0.9980 B( 13-C , 16-H ) :   1.0050
B( 17-C , 19-C ) :   1.3619 B( 17-C , 20-H ) :   0.9561 B( 18-C , 21-C ) :   1.3977
B( 18-C , 22-H ) :   0.9618 B( 19-C , 21-C ) :   1.3082 B( 19-C , 23-H ) :   1.0005
B( 21-C , 24-H ) :   0.9951

FINAL SINGLE POINT ENERGY    -11627.097263883457

DIPOLE MOMENT
-------------
                                X             Y             Z
Electronic contribution:      0.00076      -0.04270      -0.00000
Nuclear contribution   :      0.09994       0.10608       0.00000
                        -----------------------------------------
Total Dipole Moment    :      0.10070       0.06338      -0.00000
                        -----------------------------------------
Magnitude (a.u.)       :      0.11898
Magnitude (Debye)      :      0.30243

Rotational constants in cm-1:     0.017526     0.004102     0.003324
Rotational constants in MHz :   525.411968   122.961456    99.642302

                             ****ORCA TERMINATED NORMALLY****
TOTAL RUN TIME: 0 days 16 hours 54 minutes 6 seconds 634 msec
