                         Program Version 5.0.4 -  RELEASE  -
|  1> ! RIJCOSX nofrozencore ReducedPop printbasis
|  2> ! M06L ano-rcc-dzp autoaux
|  3>
|  4> %maxcore 7500
|  5> %basis
|  6> PCDTrimBas overlap
|  7> PCDTrimAuxJ Coulomb
|  8> PCDTrimAuxJK Coulomb
|  9> PCDTrimAuxC Coulomb
| 10> PCDThresh -1
| 11> end
| 12>
| 13> %basis
| 14> newgto Cu "ano-rcc-tzp" end
| 15> newgto Se "ano-rcc-tzp" end
| 16> end
| 17>
| 18> %pal
| 19> nprocs 8
| 20> end
| 21>
| 22> % sym SymThresh 1e-2 end
| 23> * xyz -2 2
| 24> Cu 0.0013734715476515999 0.0017310992762632944 -1.8005652229749777e-05
| 25> Se -2.14503322191653 -0.7371666823816014 0.6965382544310798
| 26> C -2.3226847756266444 -2.3553605572898153 0.22492023049653734
| 27> Se -0.2131516716457978 2.200817643206438 0.8422174775328889
| 28> C 1.1633255041638342 2.925342708701462 0.4807296826150372
| 29> Se 0.23297024055345378 -2.201978477835501 -0.8513627433801155
| 30> C -1.188932811973656 -3.046208050360434 -0.5105087849250965
| 31> Se 2.140904921770629 0.7333715044721291 -0.6960055063284941
| 32> C 2.167860704477891 2.294384734159356 -0.17728740476166754
| 33> C 3.280857869752938 3.057796058006654 -0.4092202234838698
| 34> C 1.423883248950377 4.257680696453433 0.8185720024874569
| 35> C 2.546231428591664 5.04071106640175 0.5891792572698001
| 36> H 0.6233392247406083 4.758011355332632 1.342114969062825
| 37> C 3.5543422670810068 4.376352409075468 -0.08177018562283306
| 38> H 4.070019889826111 2.540050213873458 -0.9336596544497665
| 39> H 2.5836568593404907 6.072625171893152 0.9234230490178958
| 40> H 4.516315807215134 4.799523864787571 -0.3626746065818408
| 41> C -3.544473229621232 -2.956849673576451 0.5599316051575168
| 42> C -1.2258433274035407 -4.396642126362143 -0.9532490566037752
| 43> C -3.503244422294463 -4.262700841783916 0.0978409639283207
| 44> H -4.341651937476071 -2.451365356176512 1.0837439203598294
| 45> C -2.455960575686149 -4.903735202667549 -0.5824764940350969
| 46> H -0.4144696523298665 -4.880431403297798 -1.4759486966921507
| 47> H -4.352786684065382 -4.970839024206549 0.2322365866446939
| 48> H -2.7533162428590217 -5.955116350613482 -0.8085681473132901
| 49> *
| 50>
| 51> % eprnmr
| 52> gtensor true
| 53> Nuclei = all H {aiso,adip,aorb,fgrad,rho}
| 54> Nuclei = all Cu {aiso,adip,aorb,fgrad,rho}
| 55> end
| 56>
| 57>                          ****END OF INPUT****

CARTESIAN COORDINATES (ANGSTROEM)
---------------------------------
  Cu     0.001379    0.001727    0.000000
  Se    -2.289128   -0.624211    0.000000
  C     -2.371584   -2.317060    0.000000
  Se    -0.383923    2.334730    0.000000
  C      1.067719    3.000339    0.000000
  Se     0.405622   -2.337365    0.000000
  C     -1.087336   -3.125902    0.000000
  Se     2.284886    0.620505    0.000000
  C      2.206895    2.263817    0.000000
  C      3.368452    2.989170    0.000000
  C      1.260277    4.386006    0.000000
  C      2.430685    5.131370    0.000000
  H      0.352607    4.970328    0.000000
  C      3.576059    4.359392    0.000000
  H      4.264906    2.387303    0.000000
  H      2.400516    6.216293    0.000000
  H      4.596285    4.736901    0.000000
  C     -3.662954   -2.864008    0.000000
  C     -1.034691   -4.546565    0.000000
  C     -3.528140   -4.243247    0.000000
  H     -4.567310   -2.274492    0.000000
  C     -2.341640   -4.993432    0.000000
  H     -0.116346   -5.114224    0.000000
  H     -4.406118   -4.929102    0.000000
  H     -2.593668   -6.080364    0.000000

 Total Charge           Charge          ....   -2
 Multiplicity           Mult            ....    2
 Number of Electrons    NEL             ....  247
 Basis Dimension        Dim             ....  575

ORBITAL ENERGIES
----------------
                 SPIN UP ORBITALS
  NO   OCC          E(Eh)            E(eV)    Irrep
   0   1.0000    -443.566358    -12070.0542    1-A'
   1   1.0000    -443.548739    -12069.5748    2-A'
   2   1.0000    -443.544910    -12069.4706    3-A'
   3   1.0000    -443.536703    -12069.2473    4-A'
   4   1.0000    -318.185762     -8658.2748    5-A'
   5   1.0000     -56.373115     -1533.9905    6-A'
   6   1.0000     -56.358946     -1533.6049    7-A'
   7   1.0000     -56.357882     -1533.5759    8-A'
   8   1.0000     -56.351255     -1533.3956    9-A'
   9   1.0000     -51.287319     -1395.5989   10-A'
  10   1.0000     -51.286046     -1395.5643   11-A'
  11   1.0000     -51.285720     -1395.5554    1-A"
  12   1.0000     -51.285625     -1395.5528   12-A'
  13   1.0000     -51.284253     -1395.5155   13-A'
  14   1.0000     -51.283745     -1395.5017    2-A"
  15   1.0000     -51.283467     -1395.4941   14-A'
  16   1.0000     -51.282152     -1395.4583   15-A'
  17   1.0000     -51.282085     -1395.4565   16-A'
  18   1.0000     -51.281640     -1395.4444    3-A"
  19   1.0000     -51.280749     -1395.4201   17-A'
  20   1.0000     -51.280261     -1395.4068    4-A"
  21   1.0000     -38.026216     -1034.7459   18-A'
  22   1.0000     -33.528278      -912.3508   19-A'
  23   1.0000     -33.527456      -912.3285   20-A'
  24   1.0000     -33.516354      -912.0264    5-A"
  25   1.0000      -9.829218      -267.4666   21-A'
  26   1.0000      -9.827534      -267.4208   22-A'
  27   1.0000      -9.822013      -267.2706   23-A'
  28   1.0000      -9.820960      -267.2419   24-A'
  29   1.0000      -9.820762      -267.2365   25-A'
  30   1.0000      -9.820139      -267.2196   26-A'
  31   1.0000      -9.817540      -267.1488   27-A'
  32   1.0000      -9.814333      -267.0616   28-A'
  33   1.0000      -9.804848      -266.8035   29-A'
  34   1.0000      -9.804424      -266.7919   30-A'
  35   1.0000      -9.802349      -266.7355   31-A'
  36   1.0000      -9.800569      -266.6870   32-A'
  37   1.0000      -7.342290      -199.7939   33-A'
  38   1.0000      -7.335651      -199.6132   34-A'
  39   1.0000      -7.333858      -199.5644   35-A'
  40   1.0000      -7.330784      -199.4808   36-A'
  41   1.0000      -5.404110      -147.0533   37-A'
  42   1.0000      -5.403475      -147.0360   38-A'
  43   1.0000      -5.403250      -147.0299   39-A'
  44   1.0000      -5.402301      -147.0041   40-A'
  45   1.0000      -5.398842      -146.9100   41-A'
  46   1.0000      -5.398780      -146.9083    6-A"
  47   1.0000      -5.398087      -146.8894   42-A'
  48   1.0000      -5.397880      -146.8838   43-A'
  49   1.0000      -5.397694      -146.8787    7-A"
  50   1.0000      -5.397284      -146.8676    8-A"
  51   1.0000      -5.396896      -146.8570   44-A'
  52   1.0000      -5.396336      -146.8418    9-A"
  53   1.0000      -4.020580      -109.4055   45-A'
  54   1.0000      -2.540157       -69.1212   46-A'
  55   1.0000      -2.539131       -69.0933   47-A'
  56   1.0000      -2.515745       -68.4569   10-A"
  57   1.0000      -1.743803       -47.4513   48-A'
  58   1.0000      -1.742132       -47.4058   49-A'
  59   1.0000      -1.741918       -47.4000   50-A'
  60   1.0000      -1.740657       -47.3657   51-A'
  61   1.0000      -1.740474       -47.3607   52-A'
  62   1.0000      -1.739944       -47.3463   11-A"
  63   1.0000      -1.739637       -47.3379   53-A'
  64   1.0000      -1.739492       -47.3340   54-A'
  65   1.0000      -1.738944       -47.3191   12-A"
  66   1.0000      -1.738658       -47.3113   13-A"
  67   1.0000      -1.738450       -47.3056   55-A'
  68   1.0000      -1.737681       -47.2847   14-A"
  69   1.0000      -1.735556       -47.2269   56-A'
  70   1.0000      -1.735527       -47.2261   15-A"
  71   1.0000      -1.734612       -47.2012   57-A'
  72   1.0000      -1.734588       -47.2006   16-A"
  73   1.0000      -1.734260       -47.1916   58-A'
  74   1.0000      -1.734162       -47.1889   17-A"
  75   1.0000      -1.733340       -47.1666   59-A'
  76   1.0000      -1.733253       -47.1642   18-A"
  77   1.0000      -0.608133       -16.5482   60-A'
  78   1.0000      -0.590239       -16.0612   61-A'
  79   1.0000      -0.526258       -14.3202   62-A'
  80   1.0000      -0.510097       -13.8804   63-A'
  81   1.0000      -0.498150       -13.5554   64-A'
  82   1.0000      -0.497652       -13.5418   65-A'
  83   1.0000      -0.411527       -11.1982   66-A'
  84   1.0000      -0.405773       -11.0417   67-A'
  85   1.0000      -0.385370       -10.4865   68-A'
  86   1.0000      -0.374252       -10.1839   69-A'
  87   1.0000      -0.321371        -8.7449   70-A'
  88   1.0000      -0.314590        -8.5604   71-A'
  89   1.0000      -0.286618        -7.7993   72-A'
  90   1.0000      -0.271700        -7.3933   73-A'
  91   1.0000      -0.229816        -6.2536   74-A'
  92   1.0000      -0.213873        -5.8198   75-A'
  93   1.0000      -0.209842        -5.7101   76-A'
  94   1.0000      -0.200496        -5.4558   77-A'
  95   1.0000      -0.191737        -5.2174   78-A'
  96   1.0000      -0.164512        -4.4766   79-A'
  97   1.0000      -0.136031        -3.7016   80-A'
  98   1.0000      -0.134362        -3.6562   19-A"
  99   1.0000      -0.131700        -3.5837   81-A'
 100   1.0000      -0.125638        -3.4188   82-A'
 101   1.0000      -0.120431        -3.2771   20-A"
 102   1.0000      -0.111907        -3.0452   83-A'
 103   1.0000      -0.085326        -2.3218   84-A'
 104   1.0000      -0.069902        -1.9021   85-A'
 105   1.0000      -0.060465        -1.6453   86-A'
 106   1.0000      -0.052178        -1.4198   87-A'
 107   1.0000      -0.050675        -1.3789   21-A"
 108   1.0000      -0.039059        -1.0629   22-A"
 109   1.0000      -0.035706        -0.9716   23-A"
 110   1.0000      -0.029584        -0.8050   88-A'
 111   1.0000      -0.027948        -0.7605   24-A"
 112   1.0000      -0.027122        -0.7380   89-A'
 113   1.0000      -0.001780        -0.0484   25-A"
 114   1.0000       0.001290         0.0351   26-A"
 115   1.0000       0.001815         0.0494   90-A'
 116   1.0000       0.019537         0.5316   91-A'
 117   1.0000       0.021469         0.5842   92-A'
 118   1.0000       0.042531         1.1573   93-A'
 119   1.0000       0.053792         1.4637   27-A"
 120   1.0000       0.057956         1.5771   28-A"
 121   1.0000       0.072689         1.9780   29-A"
 122   1.0000       0.101335         2.7575   30-A"
 123   1.0000       0.117539         3.1984   94-A'
 124   0.0000       0.182379         4.9628   95-A'
 125   0.0000       0.183698         4.9987   96-A'
 126   0.0000       0.189281         5.1506   31-A"
 127   0.0000       0.196218         5.3394   97-A'
 128   0.0000       0.196817         5.3557   98-A'

                 SPIN DOWN ORBITALS
  NO   OCC          E(Eh)            E(eV)    Irrep
   0   1.0000    -443.565916    -12070.0422    1-A'
   1   1.0000    -443.548291    -12069.5626    2-A'
   2   1.0000    -443.544447    -12069.4580    3-A'
   3   1.0000    -443.536243    -12069.2348    4-A'
   4   1.0000    -318.185640     -8658.2714    5-A'
   5   1.0000     -56.372936     -1533.9856    6-A'
   6   1.0000     -56.358760     -1533.5998    7-A'
   7   1.0000     -56.357703     -1533.5711    8-A'
   8   1.0000     -56.351071     -1533.3906    9-A'
   9   1.0000     -51.286995     -1395.5901   10-A'
  10   1.0000     -51.285479     -1395.5488    1-A"
  11   1.0000     -51.285357     -1395.5455   11-A'
  12   1.0000     -51.285300     -1395.5440   12-A'
  13   1.0000     -51.283513     -1395.4953   13-A'
  14   1.0000     -51.283496     -1395.4949    2-A"
  15   1.0000     -51.283135     -1395.4851   14-A'
  16   1.0000     -51.281829     -1395.4495   15-A'
  17   1.0000     -51.281378     -1395.4372    3-A"
  18   1.0000     -51.281330     -1395.4359   16-A'
  19   1.0000     -51.280008     -1395.3999    4-A"
  20   1.0000     -51.280006     -1395.3999   17-A'
  21   1.0000     -38.012375     -1034.3693   18-A'
  22   1.0000     -33.515127      -911.9930   19-A'
  23   1.0000     -33.514305      -911.9706   20-A'
  24   1.0000     -33.512484      -911.9210    5-A"
  25   1.0000      -9.829178      -267.4655   21-A'
  26   1.0000      -9.827496      -267.4198   22-A'
  27   1.0000      -9.821928      -267.2683   23-A'
  28   1.0000      -9.820886      -267.2399   24-A'
  29   1.0000      -9.820698      -267.2348   25-A'
  30   1.0000      -9.820082      -267.2180   26-A'
  31   1.0000      -9.817488      -267.1474   27-A'
  32   1.0000      -9.814284      -267.0602   28-A'
  33   1.0000      -9.804795      -266.8020   29-A'
  34   1.0000      -9.804379      -266.7907   30-A'
  35   1.0000      -9.802354      -266.7356   31-A'
  36   1.0000      -9.800455      -266.6839   32-A'
  37   1.0000      -7.341902      -199.7833   33-A'
  38   1.0000      -7.335238      -199.6020   34-A'
  39   1.0000      -7.333458      -199.5535   35-A'
  40   1.0000      -7.330371      -199.4695   36-A'
  41   1.0000      -5.403756      -147.0437   37-A'
  42   1.0000      -5.403097      -147.0257   38-A'
  43   1.0000      -5.402889      -147.0201   39-A'
  44   1.0000      -5.401937      -146.9942   40-A'
  45   1.0000      -5.398474      -146.8999    6-A"
  46   1.0000      -5.398050      -146.8884   41-A'
  47   1.0000      -5.397366      -146.8698    7-A"
  48   1.0000      -5.397242      -146.8664   42-A'
  49   1.0000      -5.397054      -146.8613   43-A'
  50   1.0000      -5.396977      -146.8592    8-A"
  51   1.0000      -5.396071      -146.8346   44-A'
  52   1.0000      -5.396022      -146.8332    9-A"
  53   1.0000      -3.992476      -108.6408   45-A'
  54   1.0000      -2.505447       -68.1767   10-A"
  55   1.0000      -2.505078       -68.1666   46-A'
  56   1.0000      -2.503966       -68.1364   47-A'
  57   1.0000      -1.743380       -47.4398   48-A'
  58   1.0000      -1.741679       -47.3935   49-A'
  59   1.0000      -1.741428       -47.3867   50-A'
  60   1.0000      -1.740186       -47.3529   51-A'
  61   1.0000      -1.739641       -47.3380   11-A"
  62   1.0000      -1.739604       -47.3370   52-A'
  63   1.0000      -1.738737       -47.3134   53-A'
  64   1.0000      -1.738616       -47.3102   12-A"
  65   1.0000      -1.738597       -47.3096   54-A'
  66   1.0000      -1.738356       -47.3031   13-A"
  67   1.0000      -1.737569       -47.2817   55-A'
  68   1.0000      -1.737373       -47.2763   14-A"
  69   1.0000      -1.734778       -47.2057   15-A"
  70   1.0000      -1.734770       -47.2055   56-A'
  71   1.0000      -1.733798       -47.1791   16-A"
  72   1.0000      -1.733791       -47.1789   57-A'
  73   1.0000      -1.733473       -47.1702   58-A'
  74   1.0000      -1.733400       -47.1682   17-A"
  75   1.0000      -1.732555       -47.1452   59-A'
  76   1.0000      -1.732487       -47.1434   18-A"
  77   1.0000      -0.607303       -16.5255   60-A'
  78   1.0000      -0.589502       -16.0412   61-A'
  79   1.0000      -0.525233       -14.2923   62-A'
  80   1.0000      -0.508863       -13.8469   63-A'
  81   1.0000      -0.496588       -13.5129   64-A'
  82   1.0000      -0.495808       -13.4916   65-A'
  83   1.0000      -0.409092       -11.1320   66-A'
  84   1.0000      -0.402368       -10.9490   67-A'
  85   1.0000      -0.382844       -10.4177   68-A'
  86   1.0000      -0.372552       -10.1377   69-A'
  87   1.0000      -0.319668        -8.6986   70-A'
  88   1.0000      -0.312284        -8.4977   71-A'
  89   1.0000      -0.284198        -7.7334   72-A'
  90   1.0000      -0.269076        -7.3219   73-A'
  91   1.0000      -0.228794        -6.2258   74-A'
  92   1.0000      -0.212143        -5.7727   75-A'
  93   1.0000      -0.209034        -5.6881   76-A'
  94   1.0000      -0.199272        -5.4225   77-A'
  95   1.0000      -0.190324        -5.1790   78-A'
  96   1.0000      -0.162587        -4.4242   79-A'
  97   1.0000      -0.133960        -3.6452   19-A"
  98   1.0000      -0.133212        -3.6249   80-A'
  99   1.0000      -0.129704        -3.5294   81-A'
 100   1.0000      -0.124356        -3.3839   82-A'
 101   1.0000      -0.120125        -3.2688   20-A"
 102   1.0000      -0.111452        -3.0328   83-A'
 103   1.0000      -0.083501        -2.2722   84-A'
 104   1.0000      -0.065695        -1.7876   85-A'
 105   1.0000      -0.058136        -1.5820   86-A'
 106   1.0000      -0.049936        -1.3588   21-A"
 107   1.0000      -0.042986        -1.1697   87-A'
 108   1.0000      -0.037907        -1.0315   22-A"
 109   1.0000      -0.034239        -0.9317   23-A"
 110   1.0000      -0.026177        -0.7123   24-A"
 111   1.0000      -0.022783        -0.6200   88-A'
 112   1.0000      -0.000827        -0.0225   89-A'
 113   1.0000       0.007927         0.2157   25-A"
 114   1.0000       0.012102         0.3293   90-A'
 115   1.0000       0.012194         0.3318   26-A"
 116   1.0000       0.029166         0.7937   91-A'
 117   1.0000       0.033045         0.8992   92-A'
 118   1.0000       0.053768         1.4631   93-A'
 119   1.0000       0.056468         1.5366   27-A"
 120   1.0000       0.060988         1.6596   28-A"
 121   1.0000       0.074400         2.0245   29-A"
 122   1.0000       0.104477         2.8430   30-A"
 123   0.0000       0.147154         4.0043   94-A'
 124   0.0000       0.184442         5.0189   95-A'
 125   0.0000       0.185838         5.0569   96-A'
 126   0.0000       0.189335         5.1521   31-A"
 127   0.0000       0.199093         5.4176   97-A'

MULLIKEN ATOMIC CHARGES AND SPIN POPULATIONS
--------------------------------------------
   0 Cu:    0.655467    0.308108
   1 Se:   -0.690439    0.174322
   2 C :    0.185802   -0.000295
   3 Se:   -0.716227    0.166231
   4 C :    0.207564   -0.004252
   5 Se:   -0.674140    0.178170
   6 C :    0.178148   -0.000499
   7 Se:   -0.776539    0.173909
   8 C :    0.272681   -0.003045
   9 C :   -0.082967   -0.001543
  10 C :   -0.124354   -0.000119
  11 C :   -0.164975   -0.000675
  12 H :    0.098560    0.002243
  13 C :   -0.166392   -0.000635
  14 H :    0.101559    0.002712
  15 H :    0.012191    0.001993
  16 H :    0.015271    0.001204
  17 C :   -0.141486   -0.004409
  18 C :   -0.151594   -0.004582
  19 C :   -0.087764   -0.000700
  20 H :    0.045869    0.003748
  21 C :   -0.075144   -0.000356
  22 H :    0.044238    0.003873
  23 H :    0.017771    0.002138
  24 H :    0.016902    0.002458
Sum of atomic charges         :   -2.0000000

LOEWDIN ATOMIC CHARGES AND SPIN POPULATIONS
-------------------------------------------
   0 Cu:   -0.630313    0.388929
   1 Se:   -0.254368    0.125834
   2 C :    0.100508    0.011899
   3 Se:   -0.196856    0.116937
   4 C :    0.006478    0.012732
   5 Se:   -0.255458    0.129553
   6 C :    0.104754    0.012449
   7 Se:   -0.182039    0.122777
   8 C :    0.031575    0.010687
   9 C :    0.370854    0.006751
  10 C :    0.380421    0.006978
  11 C :    0.322508    0.000588
  12 H :   -0.470057    0.008576
  13 C :    0.318813    0.000340
  14 H :   -0.476829    0.010817
  15 H :   -0.405049    0.000549
  16 H :   -0.408406    0.000146
  17 C :    0.364820    0.006757
  18 C :    0.368287    0.006949
  19 C :    0.299530    0.000627
  20 H :   -0.420632    0.008178
  21 C :    0.296434    0.000893
  22 H :   -0.420867    0.007994
  23 H :   -0.422113    0.000922
  24 H :   -0.421997    0.001138

  Mayer bond orders larger than 0.100000
B(  0-Cu,  1-Se) :   0.5255 B(  0-Cu,  3-Se) :   0.5520 B(  0-Cu,  5-Se) :   0.5224
B(  0-Cu,  7-Se) :   0.5572 B(  1-Se,  2-C ) :   1.0153 B(  2-C ,  6-C ) :   1.1827
B(  2-C , 17-C ) :   1.3096 B(  3-Se,  4-C ) :   1.0886 B(  4-C ,  8-C ) :   1.1047
B(  4-C , 10-C ) :   1.2395 B(  5-Se,  6-C ) :   1.0267 B(  6-C , 18-C ) :   1.3012
B(  7-Se,  8-C ) :   1.0245 B(  8-C ,  9-C ) :   1.2512 B(  9-C , 13-C ) :   1.3677
B(  9-C , 14-H ) :   0.9519 B( 10-C , 11-C ) :   1.3826 B( 10-C , 12-H ) :   0.9564
B( 11-C , 13-C ) :   1.3120 B( 11-C , 15-H ) :   1.0023 B( 13-C , 16-H ) :   1.0003
B( 17-C , 19-C ) :   1.3394 B( 17-C , 20-H ) :   0.9945 B( 18-C , 21-C ) :   1.3452
B( 18-C , 22-H ) :   0.9964 B( 19-C , 21-C ) :   1.3181 B( 19-C , 23-H ) :   0.9912
B( 21-C , 24-H ) :   0.9907

FINAL SINGLE POINT ENERGY    -11627.076713008604

DIPOLE MOMENT
-------------
                                X             Y             Z
Electronic contribution:      0.26634      -0.00262      -0.00000
Nuclear contribution   :     -0.25160      -0.02569       0.00000
                        -----------------------------------------
Total Dipole Moment    :      0.01475      -0.02831      -0.00000
                        -----------------------------------------
Magnitude (a.u.)       :      0.03192
Magnitude (Debye)      :      0.08114

Rotational constants in cm-1:     0.017275     0.004115     0.003323
Rotational constants in MHz :   517.899162   123.369304    99.635118

                             ****ORCA TERMINATED NORMALLY****
TOTAL RUN TIME: 0 days 17 hours 14 minutes 48 seconds 18 msec
