                         Program Version 5.0.4 -  RELEASE  -
|  1> ! RIJCOSX nofrozencore ReducedPop printbasis
|  2> ! M06L ano-rcc-dzp autoaux
|  3>
|  4> %maxcore 7500
|  5> %basis
|  6> PCDTrimBas overlap
|  7> PCDTrimAuxJ Coulomb
|  8> PCDTrimAuxJK Coulomb
|  9> PCDTrimAuxC Coulomb
| 10> PCDThresh -1
| 11> end
| 12>
| 13> %basis
| 14> newgto Cu "ano-rcc-tzp" end
| 15> newgto Se "ano-rcc-tzp" end
| 16> end
| 17>
| 18> %pal
| 19> nprocs 8
| 20> end
| 21>
| 22> % sym SymThresh 1e-2 end
| 23> * xyz -2 2
| 24> Cu -0.0004346070314326895 -3.503699042258904e-05 8.193984092852937e-05
| 25> Se 0.06613912155829303 0.49798872912026765 2.3132995679121797
| 26> C -1.506694171868592 0.4207394316138411 2.8437515802155575
| 27> Se 2.3314920304942524 0.20816692347913437 -0.34417704494056545
| 28> C 2.6232664824285314 -0.10670158483363928 -1.996686495443146
| 29> Se -2.3333626620767816 -0.20687385106198197 0.3513460938458558
| 30> C -2.5428170501122884 0.10362649415651894 1.9363837427504058
| 31> Se -0.06981868916534165 -0.49828634499937463 -2.3126104467227933
| 32> C 1.525074036810169 -0.42642559231371596 -2.881055624047622
| 33> C 1.8425785070480307 -0.6452584235573938 -4.094836519991717
| 34> C 3.7818366962524346 -0.07839610158548597 -2.522429213881664
| 35> C 4.116134458189934 -0.31250581329441796 -3.817887755097531
| 36> H 4.377628670202678 0.18822250080295092 -1.602836086601502
| 37> C 3.1068633358184137 -0.6111457148708916 -4.653328720081489
| 38> H 0.8542493076683039 -0.8619983269633746 -4.555556639932223
| 39> H 5.148803195680979 -0.2537587021511156 -4.128265994632725
| 40> H 3.1787969775104727 -0.8263394113139374 -5.710169653918316
| 41> C -1.8256471816572388 0.6524541023047257 4.11917038458155
| 42> C -3.798919957618032 0.07013024662868494 2.493129655046286
| 43> C -3.1121304172085407 0.6121870449215424 4.661242324213323
| 44> H -0.9021068386537775 0.8778168152273733 4.657470527656204
| 45> C -4.140741685550599 0.31010801025717394 3.820572580457794
| 46> H -4.675202323079978 -0.1612300511294974 1.8996200687954305
| 47> H -3.181061033268499 0.8288194777380811 5.72316625605335
| 48> H -5.158806248979781 0.26602664803968873 4.1918743632124675
| 49> *
| 50>
| 51> % eprnmr
| 52> gtensor true
| 53> Nuclei = all H {aiso,adip,aorb,fgrad,rho}
| 54> Nuclei = all Cu {aiso,adip,aorb,fgrad,rho}
| 55> end
| 56>
| 57>                          ****END OF INPUT****

CARTESIAN COORDINATES (ANGSTROEM)
---------------------------------
  Cu     0.000078   -0.000437    0.000000
  Se     2.365273    0.095940    0.000000
  C      2.887806   -1.481435    0.000000
  Se    -0.322662    2.343829    0.000000
  C     -2.008064    2.616744    0.000000
  Se     0.329966   -2.345622    0.000000
  C      1.947432   -2.536483    0.000000
  Se    -2.364615   -0.099637    0.000000
  C     -2.925705    1.499474    0.000000
  C     -4.162357    1.803865    0.000000
  C     -2.530958    3.776948    0.000000
  C     -3.850883    4.097217    0.000000
  H     -1.583590    4.388666    0.000000
  C     -4.717404    3.070126    0.000000
  H     -4.645610    0.802616    0.000000
  H     -4.155224    5.133348    0.000000
  H     -5.796713    3.129176    0.000000
  C      4.187440   -1.786504    0.000000
  C      2.500797   -3.794525    0.000000
  C      4.725426   -3.075330    0.000000
  H      4.749179   -0.849524    0.000000
  C      3.853320   -4.121967    0.000000
  H      1.883218   -4.684609    0.000000
  H      5.809968   -3.131292    0.000000
  H      4.220113   -5.142617    0.000000

 Total Charge           Charge          ....   -2
 Multiplicity           Mult            ....    2
 Number of Electrons    NEL             ....  247
 Basis Dimension        Dim             ....  575

ORBITAL ENERGIES
----------------
                 SPIN UP ORBITALS
  NO   OCC          E(Eh)            E(eV)    Irrep
   0   1.0000    -443.560899    -12069.9057    1-A'
   1   1.0000    -443.548880    -12069.5786    2-A'
   2   1.0000    -443.544575    -12069.4615    3-A'
   3   1.0000    -443.539336    -12069.3189    4-A'
   4   1.0000    -318.187510     -8658.3223    5-A'
   5   1.0000     -56.369730     -1533.8983    6-A'
   6   1.0000     -56.361456     -1533.6732    7-A'
   7   1.0000     -56.355610     -1533.5141    8-A'
   8   1.0000     -56.352617     -1533.4327    9-A'
   9   1.0000     -51.288296     -1395.6255   10-A'
  10   1.0000     -51.286957     -1395.5890   11-A'
  11   1.0000     -51.286554     -1395.5781    1-A"
  12   1.0000     -51.283846     -1395.5044   12-A'
  13   1.0000     -51.283344     -1395.4907   13-A'
  14   1.0000     -51.283294     -1395.4894   14-A'
  15   1.0000     -51.282420     -1395.4656   15-A'
  16   1.0000     -51.281948     -1395.4528   16-A'
  17   1.0000     -51.281862     -1395.4504   17-A'
  18   1.0000     -51.281754     -1395.4475    2-A"
  19   1.0000     -51.281405     -1395.4380    3-A"
  20   1.0000     -51.281184     -1395.4320    4-A"
  21   1.0000     -38.027619     -1034.7841   18-A'
  22   1.0000     -33.529701      -912.3896   19-A'
  23   1.0000     -33.528909      -912.3680   20-A'
  24   1.0000     -33.517698      -912.0629    5-A"
  25   1.0000      -9.818800      -267.1831   21-A'
  26   1.0000      -9.817983      -267.1609   22-A'
  27   1.0000      -9.815763      -267.1005   23-A'
  28   1.0000      -9.814513      -267.0665   24-A'
  29   1.0000      -9.810717      -266.9632   25-A'
  30   1.0000      -9.805194      -266.8129   26-A'
  31   1.0000      -9.804300      -266.7886   27-A'
  32   1.0000      -9.801108      -266.7017   28-A'
  33   1.0000      -9.800740      -266.6917   29-A'
  34   1.0000      -9.800137      -266.6753   30-A'
  35   1.0000      -9.794617      -266.5251   31-A'
  36   1.0000      -9.794521      -266.5225   32-A'
  37   1.0000      -7.341314      -199.7673   33-A'
  38   1.0000      -7.336442      -199.6347   34-A'
  39   1.0000      -7.332524      -199.5281   35-A'
  40   1.0000      -7.331023      -199.4873   36-A'
  41   1.0000      -5.405753      -147.0980   37-A'
  42   1.0000      -5.402847      -147.0189   38-A'
  43   1.0000      -5.402652      -147.0136   39-A'
  44   1.0000      -5.401765      -146.9895   40-A'
  45   1.0000      -5.400390      -146.9521   41-A'
  46   1.0000      -5.400147      -146.9455    6-A"
  47   1.0000      -5.397414      -146.8711   42-A'
  48   1.0000      -5.397151      -146.8639   43-A'
  49   1.0000      -5.396454      -146.8450   44-A'
  50   1.0000      -5.396335      -146.8418    7-A"
  51   1.0000      -5.396027      -146.8334    8-A"
  52   1.0000      -5.395728      -146.8252    9-A"
  53   1.0000      -4.021899      -109.4414   45-A'
  54   1.0000      -2.541510       -69.1580   46-A'
  55   1.0000      -2.540482       -69.1300   47-A'
  56   1.0000      -2.516970       -68.4902   10-A"
  57   1.0000      -1.744897       -47.4811   48-A'
  58   1.0000      -1.741993       -47.4020   49-A'
  59   1.0000      -1.741392       -47.3857   11-A"
  60   1.0000      -1.741087       -47.3774   50-A'
  61   1.0000      -1.740742       -47.3680   51-A'
  62   1.0000      -1.740445       -47.3599   52-A'
  63   1.0000      -1.739077       -47.3227   53-A'
  64   1.0000      -1.738843       -47.3163   54-A'
  65   1.0000      -1.738066       -47.2952   55-A'
  66   1.0000      -1.737892       -47.2905   12-A"
  67   1.0000      -1.737622       -47.2831   13-A"
  68   1.0000      -1.737120       -47.2694   14-A"
  69   1.0000      -1.736958       -47.2650   56-A'
  70   1.0000      -1.736935       -47.2644   15-A"
  71   1.0000      -1.733457       -47.1698   16-A"
  72   1.0000      -1.733446       -47.1695   57-A'
  73   1.0000      -1.733154       -47.1615   17-A"
  74   1.0000      -1.733146       -47.1613   58-A'
  75   1.0000      -1.732730       -47.1500   59-A'
  76   1.0000      -1.732727       -47.1499   18-A"
  77   1.0000      -0.619648       -16.8615   60-A'
  78   1.0000      -0.604937       -16.4612   61-A'
  79   1.0000      -0.520851       -14.1731   62-A'
  80   1.0000      -0.520119       -14.1532   63-A'
  81   1.0000      -0.515999       -14.0410   64-A'
  82   1.0000      -0.503109       -13.6903   65-A'
  83   1.0000      -0.408689       -11.1210   66-A'
  84   1.0000      -0.402644       -10.9565   67-A'
  85   1.0000      -0.390598       -10.6287   68-A'
  86   1.0000      -0.383585       -10.4379   69-A'
  87   1.0000      -0.317751        -8.6464   70-A'
  88   1.0000      -0.313809        -8.5392   71-A'
  89   1.0000      -0.306543        -8.3415   72-A'
  90   1.0000      -0.289942        -7.8897   73-A'
  91   1.0000      -0.239799        -6.5253   74-A'
  92   1.0000      -0.226038        -6.1508   75-A'
  93   1.0000      -0.202160        -5.5010   76-A'
  94   1.0000      -0.201215        -5.4753   77-A'
  95   1.0000      -0.162301        -4.4164   78-A'
  96   1.0000      -0.151573        -4.1245   79-A'
  97   1.0000      -0.142013        -3.8644   80-A'
  98   1.0000      -0.140341        -3.8189   19-A"
  99   1.0000      -0.140142        -3.8135   81-A'
 100   1.0000      -0.134571        -3.6619   82-A'
 101   1.0000      -0.131628        -3.5818   20-A"
 102   1.0000      -0.113330        -3.0839   83-A'
 103   1.0000      -0.075857        -2.0642   84-A'
 104   1.0000      -0.073284        -1.9941   85-A'
 105   1.0000      -0.068576        -1.8661   86-A'
 106   1.0000      -0.047656        -1.2968   21-A"
 107   1.0000      -0.046187        -1.2568   22-A"
 108   1.0000      -0.045725        -1.2442   87-A'
 109   1.0000      -0.040041        -1.0896   23-A"
 110   1.0000      -0.032059        -0.8724   24-A"
 111   1.0000      -0.028306        -0.7702   88-A'
 112   1.0000      -0.027098        -0.7374   89-A'
 113   1.0000      -0.003812        -0.1037   25-A"
 114   1.0000      -0.001571        -0.0427   26-A"
 115   1.0000       0.001633         0.0444   90-A'
 116   1.0000       0.018048         0.4911   91-A'
 117   1.0000       0.019831         0.5396   92-A'
 118   1.0000       0.043035         1.1711   93-A'
 119   1.0000       0.058560         1.5935   27-A"
 120   1.0000       0.059754         1.6260   28-A"
 121   1.0000       0.064290         1.7494   29-A"
 122   1.0000       0.093940         2.5562   30-A"
 123   1.0000       0.116605         3.1730   94-A'
 124   0.0000       0.181183         4.9302   95-A'
 125   0.0000       0.182350         4.9620   96-A'
 126   0.0000       0.195729         5.3260   97-A'
 127   0.0000       0.196549         5.3484   98-A'
 128   0.0000       0.204781         5.5724   31-A"

                 SPIN DOWN ORBITALS
  NO   OCC          E(Eh)            E(eV)    Irrep
   0   1.0000    -443.560451    -12069.8935    1-A'
   1   1.0000    -443.548420    -12069.5661    2-A'
   2   1.0000    -443.544131    -12069.4494    3-A'
   3   1.0000    -443.538876    -12069.3064    4-A'
   4   1.0000    -318.187389     -8658.3190    5-A'
   5   1.0000     -56.369549     -1533.8934    6-A'
   6   1.0000     -56.361269     -1533.6681    7-A'
   7   1.0000     -56.355432     -1533.5093    8-A'
   8   1.0000     -56.352431     -1533.4276    9-A'
   9   1.0000     -51.287980     -1395.6169   10-A'
  10   1.0000     -51.286306     -1395.5713    1-A"
  11   1.0000     -51.286225     -1395.5691   11-A'
  12   1.0000     -51.283543     -1395.4962   12-A'
  13   1.0000     -51.283037     -1395.4824   13-A'
  14   1.0000     -51.282985     -1395.4810   14-A'
  15   1.0000     -51.281644     -1395.4445   15-A'
  16   1.0000     -51.281499     -1395.4405    2-A"
  17   1.0000     -51.281224     -1395.4330   16-A'
  18   1.0000     -51.281161     -1395.4313    3-A"
  19   1.0000     -51.281091     -1395.4294   17-A'
  20   1.0000     -51.280930     -1395.4251    4-A"
  21   1.0000     -38.013837     -1034.4091   18-A'
  22   1.0000     -33.516602      -912.0331   19-A'
  23   1.0000     -33.515810      -912.0115   20-A'
  24   1.0000     -33.513852      -911.9583    5-A"
  25   1.0000      -9.818746      -267.1817   21-A'
  26   1.0000      -9.817930      -267.1594   22-A'
  27   1.0000      -9.815704      -267.0989   23-A'
  28   1.0000      -9.814463      -267.0651   24-A'
  29   1.0000      -9.810744      -266.9639   25-A'
  30   1.0000      -9.805092      -266.8101   26-A'
  31   1.0000      -9.804302      -266.7886   27-A'
  32   1.0000      -9.801143      -266.7027   28-A'
  33   1.0000      -9.800615      -266.6883   29-A'
  34   1.0000      -9.800176      -266.6763   30-A'
  35   1.0000      -9.794457      -266.5207   31-A'
  36   1.0000      -9.794380      -266.5186   32-A'
  37   1.0000      -7.340918      -199.7565   33-A'
  38   1.0000      -7.336032      -199.6236   34-A'
  39   1.0000      -7.332125      -199.5173   35-A'
  40   1.0000      -7.330609      -199.4760   36-A'
  41   1.0000      -5.405397      -147.0883   37-A'
  42   1.0000      -5.402504      -147.0096   38-A'
  43   1.0000      -5.402312      -147.0044   39-A'
  44   1.0000      -5.401414      -146.9799   40-A'
  45   1.0000      -5.399837      -146.9370    6-A"
  46   1.0000      -5.399567      -146.9297   41-A'
  47   1.0000      -5.396548      -146.8475   42-A'
  48   1.0000      -5.396290      -146.8405   43-A'
  49   1.0000      -5.396016      -146.8331    7-A"
  50   1.0000      -5.395710      -146.8247    8-A"
  51   1.0000      -5.395639      -146.8228   44-A'
  52   1.0000      -5.395422      -146.8169    9-A"
  53   1.0000      -3.993983      -108.6818   45-A'
  54   1.0000      -2.506737       -68.2118   10-A"
  55   1.0000      -2.506646       -68.2093   46-A'
  56   1.0000      -2.505536       -68.1791   47-A'
  57   1.0000      -1.744461       -47.4692   48-A'
  58   1.0000      -1.741109       -47.3780   49-A'
  59   1.0000      -1.741088       -47.3774   11-A"
  60   1.0000      -1.740617       -47.3646   50-A'
  61   1.0000      -1.740273       -47.3552   51-A'
  62   1.0000      -1.739992       -47.3476   52-A'
  63   1.0000      -1.738183       -47.2984   53-A'
  64   1.0000      -1.737957       -47.2922   54-A'
  65   1.0000      -1.737597       -47.2824   12-A"
  66   1.0000      -1.737327       -47.2751   13-A"
  67   1.0000      -1.737192       -47.2714   55-A'
  68   1.0000      -1.736820       -47.2613   14-A"
  69   1.0000      -1.736169       -47.2436   15-A"
  70   1.0000      -1.736154       -47.2431   56-A'
  71   1.0000      -1.732657       -47.1480   16-A"
  72   1.0000      -1.732634       -47.1474   57-A'
  73   1.0000      -1.732362       -47.1400   17-A"
  74   1.0000      -1.732342       -47.1394   58-A'
  75   1.0000      -1.731972       -47.1294   18-A"
  76   1.0000      -1.731952       -47.1288   59-A'
  77   1.0000      -0.619152       -16.8480   60-A'
  78   1.0000      -0.604190       -16.4408   61-A'
  79   1.0000      -0.519703       -14.1418   62-A'
  80   1.0000      -0.519007       -14.1229   63-A'
  81   1.0000      -0.514701       -14.0057   64-A'
  82   1.0000      -0.501459       -13.6454   65-A'
  83   1.0000      -0.406110       -11.0508   66-A'
  84   1.0000      -0.399938       -10.8829   67-A'
  85   1.0000      -0.387625       -10.5478   68-A'
  86   1.0000      -0.381075       -10.3696   69-A'
  87   1.0000      -0.315974        -8.5981   70-A'
  88   1.0000      -0.312097        -8.4926   71-A'
  89   1.0000      -0.303465        -8.2577   72-A'
  90   1.0000      -0.287441        -7.8217   73-A'
  91   1.0000      -0.238379        -6.4866   74-A'
  92   1.0000      -0.224848        -6.1184   75-A'
  93   1.0000      -0.200949        -5.4681   76-A'
  94   1.0000      -0.200541        -5.4570   77-A'
  95   1.0000      -0.160846        -4.3768   78-A'
  96   1.0000      -0.149571        -4.0700   79-A'
  97   1.0000      -0.140959        -3.8357   80-A'
  98   1.0000      -0.140121        -3.8129   19-A"
  99   1.0000      -0.138584        -3.7711   81-A'
 100   1.0000      -0.133000        -3.6191   82-A'
 101   1.0000      -0.131272        -3.5721   20-A"
 102   1.0000      -0.111380        -3.0308   83-A'
 103   1.0000      -0.073814        -2.0086   84-A'
 104   1.0000      -0.071272        -1.9394   85-A'
 105   1.0000      -0.057173        -1.5558   86-A'
 106   1.0000      -0.046644        -1.2692   21-A"
 107   1.0000      -0.045277        -1.2320   22-A"
 108   1.0000      -0.042794        -1.1645   87-A'
 109   1.0000      -0.038751        -1.0545   23-A"
 110   1.0000      -0.030706        -0.8355   24-A"
 111   1.0000      -0.021872        -0.5952   88-A'
 112   1.0000      -0.000502        -0.0137   89-A'
 113   1.0000       0.006256         0.1702   25-A"
 114   1.0000       0.009319         0.2536   26-A"
 115   1.0000       0.011918         0.3243   90-A'
 116   1.0000       0.026670         0.7257   91-A'
 117   1.0000       0.031964         0.8698   92-A'
 118   1.0000       0.054371         1.4795   93-A'
 119   1.0000       0.060720         1.6523   27-A"
 120   1.0000       0.063389         1.7249   28-A"
 121   1.0000       0.066091         1.7984   29-A"
 122   1.0000       0.097298         2.6476   30-A"
 123   0.0000       0.146166         3.9774   94-A'
 124   0.0000       0.183195         4.9850   95-A'
 125   0.0000       0.184585         5.0228   96-A'
 126   0.0000       0.199541         5.4298   97-A'
 127   0.0000       0.200293         5.4502   98-A'

MULLIKEN ATOMIC CHARGES AND SPIN POPULATIONS
--------------------------------------------
   0 Cu:    0.663690    0.308028
   1 Se:   -0.772962    0.170163
   2 C :    0.288527   -0.002614
   3 Se:   -0.808632    0.175436
   4 C :    0.351808   -0.004186
   5 Se:   -0.722714    0.171859
   6 C :    0.203551   -0.003669
   7 Se:   -0.808571    0.176417
   8 C :    0.344897   -0.004690
   9 C :   -0.096059    0.002588
  10 C :   -0.096184    0.004316
  11 C :   -0.200454   -0.000672
  12 H :    0.061219   -0.000267
  13 C :   -0.198343   -0.000650
  14 H :    0.074788    0.000555
  15 H :    0.017464    0.001156
  16 H :    0.021448    0.001511
  17 C :   -0.121715    0.000538
  18 C :   -0.098989   -0.002867
  19 C :   -0.171526   -0.000781
  20 H :    0.088056    0.001583
  21 C :   -0.148613   -0.000101
  22 H :    0.088042    0.002990
  23 H :    0.022662    0.001447
  24 H :    0.018611    0.001909
Sum of atomic charges         :   -2.0000000

LOEWDIN ATOMIC CHARGES AND SPIN POPULATIONS
-------------------------------------------
   0 Cu:   -0.628304    0.387636
   1 Se:   -0.187540    0.118872
   2 C :    0.044992    0.010847
   3 Se:   -0.145993    0.123149
   4 C :    0.062362    0.007559
   5 Se:   -0.197224    0.123245
   6 C :    0.037680    0.011739
   7 Se:   -0.155728    0.124700
   8 C :    0.052835    0.007902
   9 C :    0.327751    0.006983
  10 C :    0.316459    0.007534
  11 C :    0.315726    0.000651
  12 H :   -0.486059    0.016997
  13 C :    0.325616    0.000678
  14 H :   -0.480920    0.015612
  15 H :   -0.408018    0.000042
  16 H :   -0.408530    0.000188
  17 C :    0.357993    0.006705
  18 C :    0.366091    0.006446
  19 C :    0.318219    0.000420
  20 H :   -0.471033    0.012457
  21 C :    0.318315    0.000828
  22 H :   -0.452769    0.007986
  23 H :   -0.415977    0.000205
  24 H :   -0.405943    0.000620

  Mayer bond orders larger than 0.100000
B(  0-Cu,  1-Se) :   0.5456 B(  0-Cu,  3-Se) :   0.5243 B(  0-Cu,  5-Se) :   0.5559
B(  0-Cu,  7-Se) :   0.5286 B(  1-Se,  2-C ) :   1.0044 B(  2-C ,  6-C ) :   1.1100
B(  2-C , 17-C ) :   1.2988 B(  3-Se,  4-C ) :   0.9578 B(  4-C ,  8-C ) :   1.0953
B(  4-C , 10-C ) :   1.3327 B(  5-Se,  6-C ) :   1.0594 B(  6-C , 18-C ) :   1.2827
B(  7-Se,  8-C ) :   0.9666 B(  8-C ,  9-C ) :   1.3323 B(  9-C , 13-C ) :   1.3038
B(  9-C , 14-H ) :   0.9479 B( 10-C , 11-C ) :   1.3126 B( 10-C , 12-H ) :   0.9479
B( 11-C , 13-C ) :   1.4019 B( 11-C , 15-H ) :   1.0039 B( 13-C , 16-H ) :   0.9986
B( 17-C , 19-C ) :   1.3365 B( 17-C , 20-H ) :   0.9520 B( 18-C , 21-C ) :   1.3394
B( 18-C , 22-H ) :   0.9638 B( 19-C , 21-C ) :   1.3552 B( 19-C , 23-H ) :   0.9939
B( 21-C , 24-H ) :   0.9983

FINAL SINGLE POINT ENERGY    -11627.069216377186

DIPOLE MOMENT
-------------
                                X             Y             Z
Electronic contribution:     -0.50623       0.27417       0.00000
Nuclear contribution   :      0.36927      -0.27359       0.00000
                        -----------------------------------------
Total Dipole Moment    :     -0.13696       0.00058       0.00000
                        -----------------------------------------
Magnitude (a.u.)       :      0.13696
Magnitude (Debye)      :      0.34812

Rotational constants in cm-1:     0.017636     0.004101     0.003327
Rotational constants in MHz :   528.728451   122.950699    99.753894

                             ****ORCA TERMINATED NORMALLY****
TOTAL RUN TIME: 0 days 17 hours 2 minutes 5 seconds 271 msec
