                         Program Version 5.0.4 -  RELEASE  -
|  1> ! RIJCOSX nofrozencore ReducedPop printbasis
|  2> ! M06L ano-rcc-dzp autoaux
|  3>
|  4> %maxcore 7500
|  5> %basis
|  6> PCDTrimBas overlap
|  7> PCDTrimAuxJ Coulomb
|  8> PCDTrimAuxJK Coulomb
|  9> PCDTrimAuxC Coulomb
| 10> PCDThresh -1
| 11> end
| 12>
| 13> %basis
| 14> newgto Cu "ano-rcc-tzp" end
| 15> newgto Se "ano-rcc-tzp" end
| 16> end
| 17>
| 18> %pal
| 19> nprocs 8
| 20> end
| 21>
| 22> % sym SymThresh 1e-2 end
| 23> * xyz -2 2
| 24> Cu -8.984406986692928e-06 -6.301599731329845e-06 -6.969237542483895e-06
| 25> Se 1.9780776473213726 0.5619777465669716 -1.1744922456291704
| 26> C 2.911771511514069 1.3321479681615276 -0.07188484922558089
| 27> Se -1.0696786579814128 -1.055183320850808 -1.830431318027897
| 28> C -2.514387114872964 -1.5468746067909056 -1.2392594137711013
| 29> Se 1.0696837728105952 1.0551777488512855 1.8304052260493642
| 30> C 2.5153155203388984 1.5475099251512894 1.239927536418362
| 31> Se -1.97802518041174 -0.5619400870164962 1.1745357655286603
| 32> C -2.912222253645493 -1.3324966925237993 0.07142829599744907
| 33> C -4.1680049160530634 -1.8071917767927062 0.4300546057134137
| 34> C -3.414509526541132 -2.2160477964430765 -2.061649852992899
| 35> C -4.661469297033138 -2.6869323620652 -1.7039830191175922
| 36> H -3.093604497195678 -2.3832606443863122 -3.100147092600933
| 37> C -5.056920286461084 -2.470040377812136 -0.38868315930720393
| 38> H -4.474486765393104 -1.633377016176699 1.4682064229820195
| 39> H -5.265764710184412 -3.180620616553243 -2.401936456141783
| 40> H -6.0090841083487225 -2.797562079946918 -0.01042370869286596
| 41> C 4.1625882429997665 1.808476293075898 -0.41757259642196126
| 42> C 3.416849975017164 2.213536113171637 2.049835229297029
| 43> C 5.08136605002347 2.4781803885179534 0.37808977979162517
| 44> H 4.523921179484463 1.6086049583947446 -1.6249459939929527
| 45> C 4.6749672922170395 2.6985298939602154 1.721444113412037
| 46> H 3.052675385190402 2.4073798223876888 3.2417639320657274
| 47> H 5.736063936329944 2.70423317962115 0.12079958690373045
| 48> H 5.10505382638396 3.04845777559078 2.213469973023939
| 49> *
| 50>
| 51> % eprnmr
| 52> gtensor true
| 53> Nuclei = all H {aiso,adip,aorb,fgrad,rho}
| 54> Nuclei = all Cu {aiso,adip,aorb,fgrad,rho}
| 55> end
| 56>
| 57>                          ****END OF INPUT****

CARTESIAN COORDINATES (ANGSTROEM)
---------------------------------
  Cu    -0.000008   -0.000010    0.000000
  Se    -1.091163    2.101763    0.000000
  C      0.122709    3.200491    0.000000
  Se    -1.982525   -1.295259    0.000000
  C     -1.463789   -2.847464    0.000000
  Se     1.982498    1.295263    0.000000
  C      1.464549    2.848529    0.000000
  Se     1.091212   -2.101702    0.000000
  C     -0.123216   -3.201016    0.000000
  C      0.165708   -4.560229    0.000000
  C     -2.383000   -3.891202    0.000000
  C     -2.094477   -5.240765    0.000000
  H     -3.444789   -3.604811    0.000000
  C     -0.748931   -5.591397    0.000000
  H      1.228116   -4.830767    0.000000
  H     -2.863762   -5.950864    0.000000
  H     -0.418904   -6.615139    0.000000
  C     -0.153052    4.555071    0.000000
  C      2.370831    3.893018    0.000000
  C      0.739537    5.617624    0.000000
  H     -1.388304    4.875094    0.000000
  C      2.113613    5.256748    0.000000
  H      3.589774    3.568874    0.000000
  H      0.515533    6.321719    0.000000
  H      2.656202    5.761833    0.000000

 Total Charge           Charge          ....   -2
 Multiplicity           Mult            ....    2
 Number of Electrons    NEL             ....  247
 Basis Dimension        Dim             ....  575

ORBITAL ENERGIES
----------------
                 SPIN UP ORBITALS
  NO   OCC          E(Eh)            E(eV)    Irrep
   0   1.0000    -443.560780    -12069.9024    1-A'
   1   1.0000    -443.559670    -12069.8723    2-A'
   2   1.0000    -443.546081    -12069.5025    3-A'
   3   1.0000    -443.545745    -12069.4933    4-A'
   4   1.0000    -318.185747     -8658.2744    5-A'
   5   1.0000     -56.369499     -1533.8920    6-A'
   6   1.0000     -56.368955     -1533.8772    7-A'
   7   1.0000     -56.356452     -1533.5370    8-A'
   8   1.0000     -56.355889     -1533.5217    9-A'
   9   1.0000     -51.285768     -1395.5567   10-A'
  10   1.0000     -51.285690     -1395.5546   11-A'
  11   1.0000     -51.285156     -1395.5400   12-A'
  12   1.0000     -51.285026     -1395.5365   13-A'
  13   1.0000     -51.284417     -1395.5199   14-A'
  14   1.0000     -51.284335     -1395.5177   15-A'
  15   1.0000     -51.283977     -1395.5080    1-A"
  16   1.0000     -51.283900     -1395.5059    2-A"
  17   1.0000     -51.283813     -1395.5035   16-A'
  18   1.0000     -51.283674     -1395.4997   17-A'
  19   1.0000     -51.283382     -1395.4918    3-A"
  20   1.0000     -51.283249     -1395.4881    4-A"
  21   1.0000     -38.026319     -1034.7487   18-A'
  22   1.0000     -33.528360      -912.3531   19-A'
  23   1.0000     -33.527560      -912.3313   20-A'
  24   1.0000     -33.516409      -912.0278    5-A"
  25   1.0000      -9.823317      -267.3061   21-A'
  26   1.0000      -9.822097      -267.2729   22-A'
  27   1.0000      -9.813989      -267.0522   23-A'
  28   1.0000      -9.811230      -266.9771   24-A'
  29   1.0000      -9.809678      -266.9349   25-A'
  30   1.0000      -9.809222      -266.9225   26-A'
  31   1.0000      -9.807794      -266.8836   27-A'
  32   1.0000      -9.807540      -266.8767   28-A'
  33   1.0000      -9.807183      -266.8670   29-A'
  34   1.0000      -9.806898      -266.8593   30-A'
  35   1.0000      -9.788811      -266.3671   31-A'
  36   1.0000      -9.788467      -266.3577   32-A'
  37   1.0000      -7.340719      -199.7511   33-A'
  38   1.0000      -7.340082      -199.7338   34-A'
  39   1.0000      -7.333338      -199.5503   35-A'
  40   1.0000      -7.332690      -199.5326   36-A'
  41   1.0000      -5.403726      -147.0429   37-A'
  42   1.0000      -5.403697      -147.0421   38-A'
  43   1.0000      -5.402958      -147.0220   39-A'
  44   1.0000      -5.402896      -147.0203   40-A'
  45   1.0000      -5.398340      -146.8963   41-A'
  46   1.0000      -5.398257      -146.8940   42-A'
  47   1.0000      -5.397963      -146.8860    6-A"
  48   1.0000      -5.397920      -146.8849    7-A"
  49   1.0000      -5.397647      -146.8774   43-A'
  50   1.0000      -5.397527      -146.8742   44-A'
  51   1.0000      -5.397278      -146.8674    8-A"
  52   1.0000      -5.397205      -146.8654    9-A"
  53   1.0000      -4.020633      -109.4070   45-A'
  54   1.0000      -2.540193       -69.1222   46-A'
  55   1.0000      -2.539223       -69.0958   47-A'
  56   1.0000      -2.515745       -68.4569   10-A"
  57   1.0000      -1.742777       -47.4234   48-A'
  58   1.0000      -1.742738       -47.4223   49-A'
  59   1.0000      -1.742022       -47.4028   50-A'
  60   1.0000      -1.741931       -47.4004   51-A'
  61   1.0000      -1.739973       -47.3471   52-A'
  62   1.0000      -1.739891       -47.3448   53-A'
  63   1.0000      -1.739301       -47.3288   11-A"
  64   1.0000      -1.739217       -47.3265   54-A'
  65   1.0000      -1.739217       -47.3265   12-A"
  66   1.0000      -1.739125       -47.3240   55-A'
  67   1.0000      -1.738566       -47.3088   13-A"
  68   1.0000      -1.738445       -47.3055   14-A"
  69   1.0000      -1.734895       -47.2089   56-A'
  70   1.0000      -1.734791       -47.2061   15-A"
  71   1.0000      -1.734748       -47.2049   16-A"
  72   1.0000      -1.734747       -47.2049   57-A'
  73   1.0000      -1.734212       -47.1903   58-A'
  74   1.0000      -1.734082       -47.1868   17-A"
  75   1.0000      -1.734058       -47.1861   18-A"
  76   1.0000      -1.734029       -47.1853   59-A'
  77   1.0000      -0.603056       -16.4100   60-A'
  78   1.0000      -0.601716       -16.3735   61-A'
  79   1.0000      -0.535584       -14.5740   62-A'
  80   1.0000      -0.520971       -14.1763   63-A'
  81   1.0000      -0.497767       -13.5449   64-A'
  82   1.0000      -0.496669       -13.5151   65-A'
  83   1.0000      -0.432209       -11.7610   66-A'
  84   1.0000      -0.412122       -11.2144   67-A'
  85   1.0000      -0.400242       -10.8911   68-A'
  86   1.0000      -0.380966       -10.3666   69-A'
  87   1.0000      -0.322244        -8.7687   70-A'
  88   1.0000      -0.317332        -8.6350   71-A'
  89   1.0000      -0.304719        -8.2918   72-A'
  90   1.0000      -0.287266        -7.8169   73-A'
  91   1.0000      -0.252788        -6.8787   74-A'
  92   1.0000      -0.227740        -6.1971   75-A'
  93   1.0000      -0.198964        -5.4141   76-A'
  94   1.0000      -0.194840        -5.3019   77-A'
  95   1.0000      -0.186532        -5.0758   78-A'
  96   1.0000      -0.166703        -4.5362   79-A'
  97   1.0000      -0.139553        -3.7974   80-A'
  98   1.0000      -0.136753        -3.7212   81-A'
  99   1.0000      -0.129724        -3.5300   19-A"
 100   1.0000      -0.129509        -3.5241   20-A"
 101   1.0000      -0.117489        -3.1970   82-A'
 102   1.0000      -0.109265        -2.9733   83-A'
 103   1.0000      -0.075571        -2.0564   84-A'
 104   1.0000      -0.074516        -2.0277   85-A'
 105   1.0000      -0.066631        -1.8131   86-A'
 106   1.0000      -0.054854        -1.4926   87-A'
 107   1.0000      -0.047337        -1.2881   21-A"
 108   1.0000      -0.044574        -1.2129   22-A"
 109   1.0000      -0.032547        -0.8857   23-A"
 110   1.0000      -0.028919        -0.7869   88-A'
 111   1.0000      -0.028754        -0.7824   89-A'
 112   1.0000      -0.026255        -0.7144   24-A"
 113   1.0000      -0.000738        -0.0201   25-A"
 114   1.0000       0.000128         0.0035   26-A"
 115   1.0000       0.001652         0.0449   90-A'
 116   1.0000       0.020010         0.5445   91-A'
 117   1.0000       0.021439         0.5834   92-A'
 118   1.0000       0.042501         1.1565   93-A'
 119   1.0000       0.055979         1.5233   27-A"
 120   1.0000       0.057041         1.5522   28-A"
 121   1.0000       0.070696         1.9237   29-A"
 122   1.0000       0.099673         2.7122   30-A"
 123   1.0000       0.117868         3.2073   94-A'
 124   0.0000       0.183132         4.9833   95-A'
 125   0.0000       0.187060         5.0902   96-A'
 126   0.0000       0.197047         5.3619   97-A'
 127   0.0000       0.199578         5.4308   98-A'
 128   0.0000       0.203589         5.5399   31-A"

                 SPIN DOWN ORBITALS
  NO   OCC          E(Eh)            E(eV)    Irrep
   0   1.0000    -443.560322    -12069.8900    1-A'
   1   1.0000    -443.559216    -12069.8599    2-A'
   2   1.0000    -443.545619    -12069.4899    3-A'
   3   1.0000    -443.545296    -12069.4811    4-A'
   4   1.0000    -318.185624     -8658.2710    5-A'
   5   1.0000     -56.369312     -1533.8870    6-A'
   6   1.0000     -56.368772     -1533.8723    7-A'
   7   1.0000     -56.356268     -1533.5320    8-A'
   8   1.0000     -56.355709     -1533.5168    9-A'
   9   1.0000     -51.285446     -1395.5479   10-A'
  10   1.0000     -51.285363     -1395.5457   11-A'
  11   1.0000     -51.284835     -1395.5313   12-A'
  12   1.0000     -51.284702     -1395.5277   13-A'
  13   1.0000     -51.283722     -1395.5010    1-A"
  14   1.0000     -51.283659     -1395.4993   14-A'
  15   1.0000     -51.283645     -1395.4989    2-A"
  16   1.0000     -51.283581     -1395.4972   15-A'
  17   1.0000     -51.283134     -1395.4850    3-A"
  18   1.0000     -51.283084     -1395.4837   16-A'
  19   1.0000     -51.283001     -1395.4814    4-A"
  20   1.0000     -51.282948     -1395.4800   17-A'
  21   1.0000     -38.012413     -1034.3703   18-A'
  22   1.0000     -33.515147      -911.9935   19-A'
  23   1.0000     -33.514348      -911.9718   20-A'
  24   1.0000     -33.512522      -911.9221    5-A"
  25   1.0000      -9.823190      -267.3026   21-A'
  26   1.0000      -9.821971      -267.2694   22-A'
  27   1.0000      -9.813939      -267.0509   23-A'
  28   1.0000      -9.811179      -266.9758   24-A'
  29   1.0000      -9.809704      -266.9356   25-A'
  30   1.0000      -9.809247      -266.9232   26-A'
  31   1.0000      -9.807781      -266.8833   27-A'
  32   1.0000      -9.807479      -266.8751   28-A'
  33   1.0000      -9.807148      -266.8661   29-A'
  34   1.0000      -9.806806      -266.8568   30-A'
  35   1.0000      -9.788757      -266.3656   31-A'
  36   1.0000      -9.788413      -266.3563   32-A'
  37   1.0000      -7.340312      -199.7401   33-A'
  38   1.0000      -7.339686      -199.7230   34-A'
  39   1.0000      -7.332923      -199.5390   35-A'
  40   1.0000      -7.332286      -199.5216   36-A'
  41   1.0000      -5.403363      -147.0330   37-A'
  42   1.0000      -5.403332      -147.0321   38-A'
  43   1.0000      -5.402597      -147.0121   39-A'
  44   1.0000      -5.402534      -147.0104   40-A'
  45   1.0000      -5.397646      -146.8774    6-A"
  46   1.0000      -5.397602      -146.8762    7-A"
  47   1.0000      -5.397492      -146.8732   41-A'
  48   1.0000      -5.397404      -146.8708   42-A'
  49   1.0000      -5.396968      -146.8590    8-A"
  50   1.0000      -5.396894      -146.8569    9-A"
  51   1.0000      -5.396830      -146.8552   43-A'
  52   1.0000      -5.396707      -146.8519   44-A'
  53   1.0000      -3.992397      -108.6386   45-A'
  54   1.0000      -2.505402       -68.1755   10-A"
  55   1.0000      -2.504941       -68.1629   46-A'
  56   1.0000      -2.503903       -68.1347   47-A'
  57   1.0000      -1.742324       -47.4111   48-A'
  58   1.0000      -1.742283       -47.4099   49-A'
  59   1.0000      -1.741576       -47.3907   50-A'
  60   1.0000      -1.741483       -47.3882   51-A'
  61   1.0000      -1.739059       -47.3222   52-A'
  62   1.0000      -1.738993       -47.3204   11-A"
  63   1.0000      -1.738974       -47.3199   53-A'
  64   1.0000      -1.738911       -47.3182   12-A"
  65   1.0000      -1.738329       -47.3023   54-A'
  66   1.0000      -1.738259       -47.3004   13-A"
  67   1.0000      -1.738236       -47.2998   55-A'
  68   1.0000      -1.738139       -47.2972   14-A"
  69   1.0000      -1.734075       -47.1866   56-A'
  70   1.0000      -1.733997       -47.1845   15-A"
  71   1.0000      -1.733961       -47.1835   16-A"
  72   1.0000      -1.733918       -47.1823   57-A'
  73   1.0000      -1.733420       -47.1688   58-A'
  74   1.0000      -1.733318       -47.1660   17-A"
  75   1.0000      -1.733295       -47.1654   18-A"
  76   1.0000      -1.733231       -47.1636   59-A'
  77   1.0000      -0.602301       -16.3894   60-A'
  78   1.0000      -0.600922       -16.3519   61-A'
  79   1.0000      -0.534659       -14.5488   62-A'
  80   1.0000      -0.519866       -14.1463   63-A'
  81   1.0000      -0.496079       -13.4990   64-A'
  82   1.0000      -0.495077       -13.4717   65-A'
  83   1.0000      -0.430129       -11.7044   66-A'
  84   1.0000      -0.409496       -11.1429   67-A'
  85   1.0000      -0.397750       -10.8233   68-A'
  86   1.0000      -0.378570       -10.3014   69-A'
  87   1.0000      -0.319565        -8.6958   70-A'
  88   1.0000      -0.315543        -8.5864   71-A'
  89   1.0000      -0.302542        -8.2326   72-A'
  90   1.0000      -0.284772        -7.7491   73-A'
  91   1.0000      -0.251727        -6.8499   74-A'
  92   1.0000      -0.226653        -6.1675   75-A'
  93   1.0000      -0.197718        -5.3802   76-A'
  94   1.0000      -0.193780        -5.2730   77-A'
  95   1.0000      -0.184115        -5.0100   78-A'
  96   1.0000      -0.164666        -4.4808   79-A'
  97   1.0000      -0.137383        -3.7384   80-A'
  98   1.0000      -0.135598        -3.6898   81-A'
  99   1.0000      -0.129351        -3.5198   19-A"
 100   1.0000      -0.129104        -3.5131   20-A"
 101   1.0000      -0.116686        -3.1752   82-A'
 102   1.0000      -0.107177        -2.9164   83-A'
 103   1.0000      -0.073411        -1.9976   84-A'
 104   1.0000      -0.072993        -1.9862   85-A'
 105   1.0000      -0.055592        -1.5127   86-A'
 106   1.0000      -0.053123        -1.4455   87-A'
 107   1.0000      -0.046431        -1.2634   21-A"
 108   1.0000      -0.043789        -1.1916   22-A"
 109   1.0000      -0.030150        -0.8204   23-A"
 110   1.0000      -0.025284        -0.6880   24-A"
 111   1.0000      -0.022392        -0.6093   88-A'
 112   1.0000      -0.000716        -0.0195   89-A'
 113   1.0000       0.008922         0.2428   25-A"
 114   1.0000       0.011298         0.3074   26-A"
 115   1.0000       0.011964         0.3255   90-A'
 116   1.0000       0.029626         0.8062   91-A'
 117   1.0000       0.033097         0.9006   92-A'
 118   1.0000       0.053794         1.4638   93-A'
 119   1.0000       0.057838         1.5738   27-A"
 120   1.0000       0.060668         1.6509   28-A"
 121   1.0000       0.072441         1.9712   29-A"
 122   1.0000       0.102961         2.8017   30-A"
 123   0.0000       0.147761         4.0208   94-A'
 124   0.0000       0.185163         5.0385   95-A'
 125   0.0000       0.189056         5.1445   96-A'
 126   0.0000       0.200409         5.4534   97-A'
 127   0.0000       0.202079         5.4988   98-A'

MULLIKEN ATOMIC CHARGES AND SPIN POPULATIONS
--------------------------------------------
   0 Cu:    0.638202    0.309630
   1 Se:   -0.710725    0.176091
   2 C :    0.227357   -0.003487
   3 Se:   -0.733960    0.171939
   4 C :    0.223500   -0.003288
   5 Se:   -0.714127    0.175853
   6 C :    0.227619   -0.003655
   7 Se:   -0.733864    0.171813
   8 C :    0.224160   -0.003076
   9 C :   -0.095025   -0.001401
  10 C :   -0.097876   -0.001331
  11 C :   -0.181093   -0.000627
  12 H :    0.068511    0.002541
  13 C :   -0.166780   -0.000733
  14 H :    0.073324    0.002617
  15 H :    0.066406    0.001433
  16 H :    0.029876    0.001630
  17 C :   -0.096346   -0.000373
  18 C :   -0.098730   -0.000389
  19 C :   -0.736815   -0.000273
  20 H :   -0.071277    0.001929
  21 C :   -0.728193   -0.000276
  22 H :   -0.064061    0.001923
  23 H :    0.729157    0.000762
  24 H :    0.720761    0.000746
Sum of atomic charges         :   -2.0000000

LOEWDIN ATOMIC CHARGES AND SPIN POPULATIONS
-------------------------------------------
   0 Cu:   -0.617037    0.390433
   1 Se:   -0.220993    0.125604
   2 C :    0.018186    0.011445
   3 Se:   -0.205389    0.122137
   4 C :    0.035203    0.011656
   5 Se:   -0.219504    0.125368
   6 C :    0.019612    0.011430
   7 Se:   -0.204976    0.122176
   8 C :    0.036089    0.011621
   9 C :    0.364584    0.006857
  10 C :    0.368295    0.006880
  11 C :    0.339625    0.000451
  12 H :   -0.439689    0.009393
  13 C :    0.327960    0.000446
  14 H :   -0.444112    0.009418
  15 H :   -0.450901    0.000291
  16 H :   -0.420900    0.000378
  17 C :    0.376673    0.006891
  18 C :    0.379828    0.006895
  19 C :    0.635168    0.000569
  20 H :   -0.290572    0.009662
  21 C :    0.634570    0.000560
  22 H :   -0.299652    0.009643
  23 H :   -0.863551   -0.000100
  24 H :   -0.858519   -0.000103

  Mayer bond orders larger than 0.100000
B(  0-Cu,  1-Se) :   0.5526 B(  0-Cu,  3-Se) :   0.5490 B(  0-Cu,  5-Se) :   0.5524
B(  0-Cu,  7-Se) :   0.5487 B(  1-Se,  2-C ) :   1.0419 B(  2-C ,  6-C ) :   1.1263
B(  2-C , 17-C ) :   1.2572 B(  3-Se,  4-C ) :   1.0393 B(  4-C ,  8-C ) :   1.1331
B(  4-C , 10-C ) :   1.2556 B(  5-Se,  6-C ) :   1.0401 B(  6-C , 18-C ) :   1.2564
B(  7-Se,  8-C ) :   1.0394 B(  8-C ,  9-C ) :   1.2557 B(  9-C , 13-C ) :   1.3794
B(  9-C , 14-H ) :   0.9697 B( 10-C , 11-C ) :   1.3814 B( 10-C , 12-H ) :   0.9722
B( 11-C , 13-C ) :   1.3163 B( 11-C , 15-H ) :   0.9737 B( 13-C , 16-H ) :   0.9922
B( 17-C , 19-C ) :   1.4827 B( 17-C , 20-H ) :   1.0038 B( 18-C , 21-C ) :   1.4811
B( 18-C , 22-H ) :   1.0054 B( 19-C , 21-C ) :   1.4819 B( 19-C , 23-H ) :   0.1996
B( 21-C , 24-H ) :   0.2137

FINAL SINGLE POINT ENERGY    -11626.795789542415

DIPOLE MOMENT
-------------
                                X             Y             Z
Electronic contribution:      0.16308       0.60445       0.00000
Nuclear contribution   :     -0.11852      -0.44538       0.00000
                        -----------------------------------------
Total Dipole Moment    :      0.04456       0.15908       0.00000
                        -----------------------------------------
Magnitude (a.u.)       :      0.16520
Magnitude (Debye)      :      0.41990

Rotational constants in cm-1:     0.017605     0.004099     0.003325
Rotational constants in MHz :   527.770704   122.876994    99.671262

                             ****ORCA TERMINATED NORMALLY****
TOTAL RUN TIME: 0 days 16 hours 40 minutes 33 seconds 560 msec
