                         Program Version 5.0.4 -  RELEASE  -
|  1> ! RIJCOSX nofrozencore ReducedPop printbasis
|  2> ! M06L ano-rcc-dzp autoaux
|  3>
|  4> %maxcore 7500
|  5> %basis
|  6> PCDTrimBas overlap
|  7> PCDTrimAuxJ Coulomb
|  8> PCDTrimAuxJK Coulomb
|  9> PCDTrimAuxC Coulomb
| 10> PCDThresh -1
| 11> end
| 12>
| 13> %basis
| 14> newgto Cu "ano-rcc-tzp" end
| 15> newgto Se "ano-rcc-tzp" end
| 16> end
| 17>
| 18> %pal
| 19> nprocs 8
| 20> end
| 21>
| 22> % sym SymThresh 1e-2 end
| 23> * xyz -2 2
| 24> Cu -0.00010822178977788711 -5.41009919454164e-05 -1.4583853375552442e-06
| 25> Se 0.5066613820559321 -0.9837098890371568 -2.093735253210796
| 26> C 0.04640598648390241 0.13443192618038696 -3.2000852922806424
| 27> Se 0.8800563441327247 -1.7659144252560246 1.3096569064833072
| 28> C 0.5515621922473658 -1.3381805483725622 2.857766286363283
| 29> Se -0.8787845145040953 1.7665502236902924 -1.3096397674423983
| 30> C -0.5582898311127317 1.3348173445592282 -2.857856947309639
| 31> Se -0.5053895524273028 0.9843456874714245 2.093752392251705
| 32> C -0.05312825897952719 -0.13779244729990556 3.1999947036509147
| 33> C -0.22415004149742146 0.11154416510350904 4.557750630541897
| 34> C 0.9258067630269076 -2.171346463800729 3.9069068502148485
| 35> C 0.9299932508493971 -1.8315591477888569 5.254016491036694
| 36> H 1.366583768339596 -3.118881444585982 3.6321131903409904
| 37> C 0.3246599518465235 -0.6299060085400752 5.596605112641156
| 38> H -0.7250567738373421 1.0335215683979633 4.815943720141442
| 39> H 1.380193811136853 -2.4917402155450104 5.997095983108844
| 40> H 0.26535589305214224 -0.27871779359721965 6.6280283977888015
| 41> C 0.21502890183564258 -0.11610362441695245 -4.557874513710157
| 42> C -0.9349877272588911 2.166756821798087 -3.907030571913113
| 43> C -0.3173528449410278 0.6335591692270732 -5.596507610504621
| 44> H 0.7130145402465171 -1.0395413073782969 -4.816106967661045
| 45> C -0.9227208255634107 1.835194419082869 -5.253917520946886
| 46> H -1.3787734772063964 3.1127877055841298 -3.6322774575621932
| 47> H -0.2471299126216151 0.28782911602584527 -6.6277827864135235
| 48> H -1.3620066257783785 2.5008329515295165 -5.996849674252804
| 49> *
| 50>
| 51> % eprnmr
| 52> gtensor true
| 53> Nuclei = all H {aiso,adip,aorb,fgrad,rho}
| 54> Nuclei = all Cu {aiso,adip,aorb,fgrad,rho}
| 55> end
| 56>
| 57>                          ****END OF INPUT****

CARTESIAN COORDINATES (ANGSTROEM)
---------------------------------
  Cu     0.000006   -0.000121   -0.000000
  Se    -1.753239   -0.098594   -1.588883
  C     -3.125938   -0.091404   -0.693488
  Se     1.753169    0.100014   -1.588883
  C      3.126310    0.083895   -0.693488
  Se    -1.753239   -0.098594    1.588883
  C     -3.125938   -0.091404    0.693488
  Se     1.753169    0.100014    1.588883
  C      3.126310    0.083895    0.693488
  C      4.368290    0.120124    1.318862
  C      4.368290    0.120124   -1.318862
  C      5.587307    0.352475   -0.694220
  H      4.361755    0.087058   -2.398899
  C      5.587307    0.352475    0.694220
  H      4.361755    0.087058    2.398899
  H      6.494627    0.513893   -1.278515
  H      6.494627    0.513893    1.278515
  C     -4.367785   -0.130343   -1.318862
  C     -4.367785   -0.130343    1.318862
  C     -5.587709   -0.344335   -0.694220
  H     -4.361087   -0.100587   -2.398899
  C     -5.587709   -0.344335    0.694220
  H     -4.361087   -0.100587    2.398899
  H     -6.495631   -0.493561   -1.278516
  H     -6.495631   -0.493561    1.278516

 Total Charge           Charge          ....   -2
 Multiplicity           Mult            ....    2
 Number of Electrons    NEL             ....  247
 Basis Dimension        Dim             ....  575

ORBITAL ENERGIES
----------------
                 SPIN UP ORBITALS
  NO   OCC          E(Eh)            E(eV)    Irrep
   0   1.0000    -443.561240    -12069.9150    1-A"
   1   1.0000    -443.560145    -12069.8852    2-A"
   2   1.0000    -443.546687    -12069.5190    1-A'
   3   1.0000    -443.546568    -12069.5157    2-A'
   4   1.0000    -318.187147     -8658.3124    3-A'
   5   1.0000     -56.370033     -1533.9066    3-A"
   6   1.0000     -56.369712     -1533.8979    4-A"
   7   1.0000     -56.357153     -1533.5561    4-A'
   8   1.0000     -56.356883     -1533.5487    5-A'
   9   1.0000     -51.286357     -1395.5727    5-A"
  10   1.0000     -51.286294     -1395.5710    6-A'
  11   1.0000     -51.286288     -1395.5708    6-A"
  12   1.0000     -51.286256     -1395.5700    7-A'
  13   1.0000     -51.284987     -1395.5355    8-A'
  14   1.0000     -51.284973     -1395.5351    7-A"
  15   1.0000     -51.284934     -1395.5340    8-A"
  16   1.0000     -51.284910     -1395.5333    9-A'
  17   1.0000     -51.284545     -1395.5234    9-A"
  18   1.0000     -51.284525     -1395.5229   10-A'
  19   1.0000     -51.284499     -1395.5222   10-A"
  20   1.0000     -51.284473     -1395.5215   11-A'
  21   1.0000     -38.027701     -1034.7863   12-A'
  22   1.0000     -33.529740      -912.3906   11-A"
  23   1.0000     -33.528993      -912.3703   13-A'
  24   1.0000     -33.517793      -912.0655   14-A'
  25   1.0000      -9.817740      -267.1543   15-A'
  26   1.0000      -9.817412      -267.1454   16-A'
  27   1.0000      -9.817293      -267.1421   12-A"
  28   1.0000      -9.816965      -267.1332   13-A"
  29   1.0000      -9.809143      -266.9203   17-A'
  30   1.0000      -9.809048      -266.9178   18-A'
  31   1.0000      -9.808695      -266.9082   14-A"
  32   1.0000      -9.808600      -266.9056   15-A"
  33   1.0000      -9.807390      -266.8727   19-A'
  34   1.0000      -9.807385      -266.8725   16-A"
  35   1.0000      -9.807242      -266.8686   20-A'
  36   1.0000      -9.807238      -266.8685   17-A"
  37   1.0000      -7.341264      -199.7660   18-A"
  38   1.0000      -7.341200      -199.7642   19-A"
  39   1.0000      -7.333989      -199.5680   21-A'
  40   1.0000      -7.333878      -199.5650   22-A'
  41   1.0000      -5.404272      -147.0577   20-A"
  42   1.0000      -5.404246      -147.0570   23-A'
  43   1.0000      -5.404229      -147.0566   21-A"
  44   1.0000      -5.404219      -147.0563   24-A'
  45   1.0000      -5.398928      -146.9123   22-A"
  46   1.0000      -5.398918      -146.9120   23-A"
  47   1.0000      -5.398908      -146.9118   25-A'
  48   1.0000      -5.398888      -146.9112   26-A'
  49   1.0000      -5.398547      -146.9019   24-A"
  50   1.0000      -5.398530      -146.9015   25-A"
  51   1.0000      -5.398522      -146.9013   27-A'
  52   1.0000      -5.398502      -146.9007   28-A'
  53   1.0000      -4.022018      -109.4447   29-A'
  54   1.0000      -2.541547       -69.1590   26-A"
  55   1.0000      -2.540671       -69.1352   30-A'
  56   1.0000      -2.517114       -68.4942   31-A'
  57   1.0000      -1.743268       -47.4367   32-A'
  58   1.0000      -1.743253       -47.4363   33-A'
  59   1.0000      -1.743238       -47.4359   27-A"
  60   1.0000      -1.743225       -47.4356   28-A"
  61   1.0000      -1.740568       -47.3633   34-A'
  62   1.0000      -1.740544       -47.3626   35-A'
  63   1.0000      -1.740484       -47.3610   29-A"
  64   1.0000      -1.740466       -47.3605   30-A"
  65   1.0000      -1.739809       -47.3426   36-A'
  66   1.0000      -1.739802       -47.3424   31-A"
  67   1.0000      -1.739799       -47.3423   37-A'
  68   1.0000      -1.739792       -47.3422   32-A"
  69   1.0000      -1.735447       -47.2239   38-A'
  70   1.0000      -1.735436       -47.2236   39-A'
  71   1.0000      -1.735402       -47.2227   33-A"
  72   1.0000      -1.735396       -47.2225   34-A"
  73   1.0000      -1.735391       -47.2224   40-A'
  74   1.0000      -1.735384       -47.2222   35-A"
  75   1.0000      -1.735366       -47.2217   41-A'
  76   1.0000      -1.735360       -47.2215   36-A"
  77   1.0000      -0.601988       -16.3809   42-A'
  78   1.0000      -0.601679       -16.3725   43-A'
  79   1.0000      -0.520593       -14.1661   44-A'
  80   1.0000      -0.519798       -14.1444   45-A'
  81   1.0000      -0.498563       -13.5666   37-A"
  82   1.0000      -0.498210       -13.5570   38-A"
  83   1.0000      -0.411339       -11.1931   39-A"
  84   1.0000      -0.410076       -11.1587   40-A"
  85   1.0000      -0.383868       -10.4456   46-A'
  86   1.0000      -0.379332       -10.3222   47-A'
  87   1.0000      -0.320702        -8.7267   48-A'
  88   1.0000      -0.318361        -8.6630   49-A'
  89   1.0000      -0.287058        -7.8112   41-A"
  90   1.0000      -0.283867        -7.7244   42-A"
  91   1.0000      -0.229306        -6.2397   50-A'
  92   1.0000      -0.222658        -6.0588   51-A'
  93   1.0000      -0.199207        -5.4207   52-A'
  94   1.0000      -0.198182        -5.3928   53-A'
  95   1.0000      -0.171157        -4.6574   43-A"
  96   1.0000      -0.166302        -4.5253   44-A"
  97   1.0000      -0.137589        -3.7440   54-A'
  98   1.0000      -0.137568        -3.7434   45-A"
  99   1.0000      -0.135881        -3.6975   46-A"
 100   1.0000      -0.130439        -3.5494   55-A'
 101   1.0000      -0.130217        -3.5434   56-A'
 102   1.0000      -0.111056        -3.0220   57-A'
 103   1.0000      -0.081874        -2.2279   58-A'
 104   1.0000      -0.071901        -1.9565   47-A"
 105   1.0000      -0.066094        -1.7985   48-A"
 106   1.0000      -0.062811        -1.7092   59-A'
 107   1.0000      -0.047883        -1.3029   60-A'
 108   1.0000      -0.046828        -1.2743   61-A'
 109   1.0000      -0.033421        -0.9094   49-A"
 110   1.0000      -0.029726        -0.8089   62-A'
 111   1.0000      -0.029234        -0.7955   50-A"
 112   1.0000      -0.026059        -0.7091   51-A"
 113   1.0000      -0.001554        -0.0423   52-A"
 114   1.0000      -0.001188        -0.0323   63-A'
 115   1.0000       0.000485         0.0132   64-A'
 116   1.0000       0.019049         0.5184   65-A'
 117   1.0000       0.020605         0.5607   66-A'
 118   1.0000       0.040900         1.1130   53-A"
 119   1.0000       0.055726         1.5164   54-A"
 120   1.0000       0.056674         1.5422   55-A"
 121   1.0000       0.070351         1.9143   67-A'
 122   1.0000       0.098516         2.6808   68-A'
 123   1.0000       0.116153         3.1607   56-A"
 124   0.0000       0.181969         4.9516   69-A'
 125   0.0000       0.182230         4.9587   70-A'
 126   0.0000       0.196396         5.3442   57-A"
 127   0.0000       0.196891         5.3577   58-A"
 128   0.0000       0.199216         5.4209   71-A'

                 SPIN DOWN ORBITALS
  NO   OCC          E(Eh)            E(eV)    Irrep
   0   1.0000    -443.560788    -12069.9027    1-A"
   1   1.0000    -443.559692    -12069.8728    2-A"
   2   1.0000    -443.546235    -12069.5067    1-A'
   3   1.0000    -443.546115    -12069.5034    2-A'
   4   1.0000    -318.187024     -8658.3091    3-A'
   5   1.0000     -56.369850     -1533.9016    3-A"
   6   1.0000     -56.369529     -1533.8929    4-A"
   7   1.0000     -56.356972     -1533.5512    4-A'
   8   1.0000     -56.356702     -1533.5438    5-A'
   9   1.0000     -51.286033     -1395.5639    5-A"
  10   1.0000     -51.285969     -1395.5622    6-A'
  11   1.0000     -51.285958     -1395.5619    6-A"
  12   1.0000     -51.285934     -1395.5612    7-A'
  13   1.0000     -51.284304     -1395.5169    7-A"
  14   1.0000     -51.284269     -1395.5159    8-A"
  15   1.0000     -51.284252     -1395.5154    9-A"
  16   1.0000     -51.284251     -1395.5154    8-A'
  17   1.0000     -51.284235     -1395.5150    9-A'
  18   1.0000     -51.284228     -1395.5148   10-A"
  19   1.0000     -51.284208     -1395.5142   10-A'
  20   1.0000     -51.284175     -1395.5134   11-A'
  21   1.0000     -38.013803     -1034.4082   12-A'
  22   1.0000     -33.516535      -912.0313   11-A"
  23   1.0000     -33.515794      -912.0111   13-A'
  24   1.0000     -33.513902      -911.9596   14-A'
  25   1.0000      -9.817681      -267.1527   15-A'
  26   1.0000      -9.817355      -267.1438   16-A'
  27   1.0000      -9.817234      -267.1405   12-A"
  28   1.0000      -9.816908      -267.1316   13-A"
  29   1.0000      -9.809162      -266.9209   17-A'
  30   1.0000      -9.809067      -266.9183   18-A'
  31   1.0000      -9.808711      -266.9086   14-A"
  32   1.0000      -9.808616      -266.9060   15-A"
  33   1.0000      -9.807277      -266.8696   19-A'
  34   1.0000      -9.807274      -266.8695   16-A"
  35   1.0000      -9.807128      -266.8655   20-A'
  36   1.0000      -9.807125      -266.8654   17-A"
  37   1.0000      -7.340864      -199.7551   18-A"
  38   1.0000      -7.340803      -199.7534   19-A"
  39   1.0000      -7.333583      -199.5569   21-A'
  40   1.0000      -7.333471      -199.5539   22-A'
  41   1.0000      -5.403909      -147.0478   20-A"
  42   1.0000      -5.403881      -147.0471   23-A'
  43   1.0000      -5.403865      -147.0467   21-A"
  44   1.0000      -5.403855      -147.0464   24-A'
  45   1.0000      -5.398247      -146.8938   22-A"
  46   1.0000      -5.398230      -146.8933   23-A"
  47   1.0000      -5.398222      -146.8931   25-A'
  48   1.0000      -5.398203      -146.8926   26-A'
  49   1.0000      -5.398091      -146.8895   24-A"
  50   1.0000      -5.398084      -146.8893   25-A"
  51   1.0000      -5.398071      -146.8890   27-A'
  52   1.0000      -5.398053      -146.8885   28-A'
  53   1.0000      -3.993763      -108.6758   29-A'
  54   1.0000      -2.506816       -68.2139   30-A'
  55   1.0000      -2.506273       -68.1992   26-A"
  56   1.0000      -2.505294       -68.1725   31-A'
  57   1.0000      -1.742819       -47.4245   32-A'
  58   1.0000      -1.742804       -47.4241   33-A'
  59   1.0000      -1.742789       -47.4237   27-A"
  60   1.0000      -1.742776       -47.4233   28-A"
  61   1.0000      -1.739676       -47.3390   34-A'
  62   1.0000      -1.739653       -47.3384   35-A'
  63   1.0000      -1.739590       -47.3366   29-A"
  64   1.0000      -1.739572       -47.3362   30-A"
  65   1.0000      -1.739497       -47.3341   36-A'
  66   1.0000      -1.739490       -47.3339   31-A"
  67   1.0000      -1.739488       -47.3339   37-A'
  68   1.0000      -1.739480       -47.3337   32-A"
  69   1.0000      -1.734656       -47.2024   38-A'
  70   1.0000      -1.734637       -47.2019   33-A"
  71   1.0000      -1.734633       -47.2018   39-A'
  72   1.0000      -1.734623       -47.2015   40-A'
  73   1.0000      -1.734617       -47.2013   34-A"
  74   1.0000      -1.734614       -47.2013   35-A"
  75   1.0000      -1.734570       -47.2001   41-A'
  76   1.0000      -1.734564       -47.1999   36-A"
  77   1.0000      -0.601170       -16.3587   42-A'
  78   1.0000      -0.600868       -16.3505   43-A'
  79   1.0000      -0.519448       -14.1349   44-A'
  80   1.0000      -0.518685       -14.1141   45-A'
  81   1.0000      -0.496848       -13.5199   37-A"
  82   1.0000      -0.496501       -13.5105   38-A"
  83   1.0000      -0.408652       -11.1200   39-A"
  84   1.0000      -0.407367       -11.0850   40-A"
  85   1.0000      -0.381372       -10.3777   46-A'
  86   1.0000      -0.377024       -10.2593   47-A'
  87   1.0000      -0.318945        -8.6789   48-A'
  88   1.0000      -0.316444        -8.6109   49-A'
  89   1.0000      -0.284694        -7.7469   41-A"
  90   1.0000      -0.281251        -7.6532   42-A"
  91   1.0000      -0.228173        -6.2089   50-A'
  92   1.0000      -0.221595        -6.0299   51-A'
  93   1.0000      -0.197920        -5.3857   52-A'
  94   1.0000      -0.196966        -5.3597   53-A'
  95   1.0000      -0.169732        -4.6186   43-A"
  96   1.0000      -0.164238        -4.4691   44-A"
  97   1.0000      -0.136702        -3.7199   45-A"
  98   1.0000      -0.135598        -3.6898   54-A'
  99   1.0000      -0.134197        -3.6517   46-A"
 100   1.0000      -0.130050        -3.5388   55-A'
 101   1.0000      -0.129797        -3.5320   56-A'
 102   1.0000      -0.109293        -2.9740   57-A'
 103   1.0000      -0.080512        -2.1909   58-A'
 104   1.0000      -0.070455        -1.9172   47-A"
 105   1.0000      -0.060651        -1.6504   59-A'
 106   1.0000      -0.054540        -1.4841   48-A"
 107   1.0000      -0.046666        -1.2698   60-A'
 108   1.0000      -0.046184        -1.2567   61-A'
 109   1.0000      -0.030213        -0.8221   49-A"
 110   1.0000      -0.025027        -0.6810   50-A"
 111   1.0000      -0.023308        -0.6342   62-A'
 112   1.0000      -0.002115        -0.0576   51-A"
 113   1.0000       0.008045         0.2189   52-A"
 114   1.0000       0.009872         0.2686   63-A'
 115   1.0000       0.010966         0.2984   64-A'
 116   1.0000       0.028744         0.7822   65-A'
 117   1.0000       0.031905         0.8682   66-A'
 118   1.0000       0.052114         1.4181   53-A"
 119   1.0000       0.057586         1.5670   54-A"
 120   1.0000       0.060259         1.6397   55-A"
 121   1.0000       0.072094         1.9618   67-A'
 122   1.0000       0.101747         2.7687   68-A'
 123   0.0000       0.145886         3.9697   56-A"
 124   0.0000       0.183706         4.9989   69-A'
 125   0.0000       0.184024         5.0075   70-A'
 126   0.0000       0.199367         5.4250   71-A'
 127   0.0000       0.199396         5.4258   57-A"

MULLIKEN ATOMIC CHARGES AND SPIN POPULATIONS
--------------------------------------------
   0 Cu:    0.639016    0.310020
   1 Se:   -0.733903    0.172917
   2 C :    0.228966   -0.003099
   3 Se:   -0.734041    0.172924
   4 C :    0.230792   -0.003091
   5 Se:   -0.733903    0.172917
   6 C :    0.228966   -0.003099
   7 Se:   -0.734041    0.172924
   8 C :    0.230792   -0.003091
   9 C :   -0.117218   -0.001947
  10 C :   -0.117218   -0.001948
  11 C :   -0.149549    0.000452
  12 H :    0.093849    0.002773
  13 C :   -0.149549    0.000452
  14 H :    0.093849    0.002773
  15 H :    0.016289    0.001445
  16 H :    0.016289    0.001445
  17 C :   -0.114317   -0.001873
  18 C :   -0.114316   -0.001873
  19 C :   -0.151063    0.000182
  20 H :    0.093350    0.002798
  21 C :   -0.151063    0.000183
  22 H :    0.093350    0.002799
  23 H :    0.017337    0.001508
  24 H :    0.017337    0.001508
Sum of atomic charges         :   -2.0000000

LOEWDIN ATOMIC CHARGES AND SPIN POPULATIONS
-------------------------------------------
   0 Cu:   -0.616513    0.390330
   1 Se:   -0.202312    0.123206
   2 C :    0.038053    0.011667
   3 Se:   -0.202363    0.123275
   4 C :    0.037979    0.011650
   5 Se:   -0.202312    0.123206
   6 C :    0.038053    0.011667
   7 Se:   -0.202363    0.123275
   8 C :    0.037979    0.011650
   9 C :    0.371889    0.006738
  10 C :    0.371889    0.006738
  11 C :    0.317060    0.001092
  12 H :   -0.462382    0.009206
  13 C :    0.317060    0.001092
  14 H :   -0.462382    0.009206
  15 H :   -0.408148    0.000526
  16 H :   -0.408148    0.000526
  17 C :    0.371738    0.006770
  18 C :    0.371738    0.006770
  19 C :    0.317581    0.000954
  20 H :   -0.461900    0.009246
  21 C :    0.317581    0.000954
  22 H :   -0.461900    0.009246
  23 H :   -0.408938    0.000505
  24 H :   -0.408939    0.000505

  Mayer bond orders larger than 0.100000
B(  0-Cu,  1-Se) :   0.5496 B(  0-Cu,  3-Se) :   0.5492 B(  0-Cu,  5-Se) :   0.5496
B(  0-Cu,  7-Se) :   0.5492 B(  1-Se,  2-C ) :   1.0368 B(  2-C ,  6-C ) :   1.1309
B(  2-C , 17-C ) :   1.2618 B(  3-Se,  4-C ) :   1.0363 B(  4-C ,  8-C ) :   1.1303
B(  4-C , 10-C ) :   1.2629 B(  5-Se,  6-C ) :   1.0368 B(  6-C , 18-C ) :   1.2618
B(  7-Se,  8-C ) :   1.0363 B(  8-C ,  9-C ) :   1.2629 B(  9-C , 13-C ) :   1.3728
B(  9-C , 14-H ) :   0.9602 B( 10-C , 11-C ) :   1.3728 B( 10-C , 12-H ) :   0.9602
B( 11-C , 13-C ) :   1.3186 B( 11-C , 15-H ) :   0.9978 B( 13-C , 16-H ) :   0.9978
B( 17-C , 19-C ) :   1.3741 B( 17-C , 20-H ) :   0.9604 B( 18-C , 21-C ) :   1.3741
B( 18-C , 22-H ) :   0.9604 B( 19-C , 21-C ) :   1.3173 B( 19-C , 23-H ) :   0.9974
B( 21-C , 24-H ) :   0.9974

FINAL SINGLE POINT ENERGY    -11627.139768379324

DIPOLE MOMENT
-------------
                                X             Y             Z
Electronic contribution:     -0.00920       0.01666       0.00000
Nuclear contribution   :      0.00078      -0.01583      -0.00000
                        -----------------------------------------
Total Dipole Moment    :     -0.00842       0.00083       0.00000
                        -----------------------------------------
Magnitude (a.u.)       :      0.00846
Magnitude (Debye)      :      0.02150

Rotational constants in cm-1:     0.017595     0.004097     0.003325
Rotational constants in MHz :   527.491395   122.818139    99.666038

                             ****ORCA TERMINATED NORMALLY****
TOTAL RUN TIME: 0 days 17 hours 17 minutes 14 seconds 56 msec
