                         Program Version 5.0.4 -  RELEASE  -
|  1> ! RIJCOSX nofrozencore ReducedPop printbasis
|  2> ! M06L ano-rcc-dzp autoaux
|  3>
|  4> %maxcore 7500
|  5> %basis
|  6> PCDTrimBas overlap
|  7> PCDTrimAuxJ Coulomb
|  8> PCDTrimAuxJK Coulomb
|  9> PCDTrimAuxC Coulomb
| 10> PCDThresh -1
| 11> end
| 12>
| 13> %basis
| 14> newgto Cu "ano-rcc-tzp" end
| 15> newgto Se "ano-rcc-tzp" end
| 16> end
| 17>
| 18> %pal
| 19> nprocs 8
| 20> end
| 21>
| 22> % sym SymThresh 1e-2 end
| 23> * xyz -2 2
| 24> Cu -4.665441482280122e-05 -1.1303259695493053e-05 3.0986929177037744e-06
| 25> Se 1.988232393940463 0.4448851426808113 -1.2035380483414928
| 26> C 1.444680162416051 0.2534754475977911 -2.905485908042858
| 27> Se 0.953971624010184 0.30709221895361677 2.147549355094433
| 28> C -0.1722076158763491 0.06544422442974446 3.130331328457895
| 29> Se -0.9717079695795805 -0.31096162726514787 -2.1339241749062077
| 30> C 0.4501321699329909 -0.0029075765587985884 -3.288425275563666
| 31> Se -1.9831597110536898 -0.44319645290999915 1.2165799184983452
| 32> C -1.6199159441838238 -0.3009279030354453 2.771695857720814
| 33> C -2.491779059104163 -0.479330499084013 3.7850433489742015
| 34> C -0.06333364225489138 0.1421726694381281 4.588480034607056
| 35> C -0.971446783544543 -0.046571714076382525 5.558855317722701
| 36> H 0.9786007547400537 0.4034776160847574 4.777392347881714
| 37> C -2.2890850705432455 -0.38282526596431055 5.151001592901071
| 38> H -3.483086781128463 -0.7338102235851892 3.4344338750779606
| 39> H -0.7240981757469123 0.050243437210510694 6.616005038100504
| 40> H -3.0919113574785104 -0.5546118522698132 5.865529311607797
| 41> C 2.487077059823487 0.48090329702416107 -3.705803254795787
| 42> C -0.00031247664264351914 -0.15253570466919525 -4.437079588966759
| 43> C 2.2770181484504035 0.3785338076294333 -5.190011478745115
| 44> H 3.576469352287276 0.7485687349118914 -3.6695596268198507
| 45> C 1.0141651384899004 0.05629516646893002 -5.5799169208034805
| 46> H -0.8780836152117606 -0.3915721496474828 -5.146301474106535
| 47> H 3.1053250859823174 0.5570622173018794 -5.889687314915931
| 48> H 0.7373918865109943 -0.04752117948904583 -6.631395823428709
| 49> *
| 50>
| 51> % eprnmr
| 52> gtensor true
| 53> Nuclei = all H {aiso,adip,aorb,fgrad,rho}
| 54> Nuclei = all Cu {aiso,adip,aorb,fgrad,rho}
| 55> end
| 56>
| 57>                          ****END OF INPUT****

CARTESIAN COORDINATES (ANGSTROEM)
---------------------------------
  Cu     0.000003   -0.000048    0.000000
  Se    -1.195889    2.041897    0.000000
  C     -2.901110    1.475385    0.000000
  Se     2.152805    0.990842    0.000000
  C      3.131430   -0.164506    0.000000
  Se    -2.139246   -1.009045    0.000000
  C     -3.288448    0.449973    0.000000
  Se     1.208960   -2.036622    0.000000
  C      2.766506   -1.656330    0.000000
  C      3.776782   -2.549743    0.000000
  C      4.590884   -0.046473    0.000000
  C      5.558010   -0.977380    0.000000
  H      4.784281    1.026929    0.000000
  C      5.144386   -2.335503    0.000000
  H      3.421806   -3.571688    0.000000
  H      6.616814   -0.718430    0.000000
  H      5.855959   -3.159066    0.000000
  C     -3.697516    2.545226    0.000000
  C     -4.439662   -0.018431    0.000000
  C     -5.183469    2.322921    0.000000
  H     -3.656676    3.666861    0.000000
  C     -5.578905    1.021271    0.000000
  H     -5.152983   -0.924957    0.000000
  H     -5.880074    3.172776    0.000000
  H     -6.632158    0.732052    0.000000

 Total Charge           Charge          ....   -2
 Multiplicity           Mult            ....    2
 Number of Electrons    NEL             ....  247
 Basis Dimension        Dim             ....  575

ORBITAL ENERGIES
----------------
                 SPIN UP ORBITALS
  NO   OCC          E(Eh)            E(eV)    Irrep
   0   1.0000    -443.576711    -12070.3360    1-A'
   1   1.0000    -443.546279    -12069.5079    2-A'
   2   1.0000    -443.535033    -12069.2018    3-A'
   3   1.0000    -443.521764    -12068.8408    4-A'
   4   1.0000    -318.184494     -8658.2403    5-A'
   5   1.0000     -56.379996     -1534.1777    6-A'
   6   1.0000     -56.355031     -1533.4984    7-A'
   7   1.0000     -56.351782     -1533.4099    8-A'
   8   1.0000     -56.340423     -1533.1009    9-A'
   9   1.0000     -51.294269     -1395.7880   10-A'
  10   1.0000     -51.293466     -1395.7662    1-A"
  11   1.0000     -51.293327     -1395.7624   11-A'
  12   1.0000     -51.282082     -1395.4564   12-A'
  13   1.0000     -51.280070     -1395.4016   13-A'
  14   1.0000     -51.279129     -1395.3760    2-A"
  15   1.0000     -51.279030     -1395.3733   14-A'
  16   1.0000     -51.277832     -1395.3408   15-A'
  17   1.0000     -51.277534     -1395.3326    3-A"
  18   1.0000     -51.274677     -1395.2549   16-A'
  19   1.0000     -51.272614     -1395.1987   17-A'
  20   1.0000     -51.271414     -1395.1661    4-A"
  21   1.0000     -38.024893     -1034.7099   18-A'
  22   1.0000     -33.526997      -912.3160   19-A'
  23   1.0000     -33.526264      -912.2960   20-A'
  24   1.0000     -33.514964      -911.9885    5-A"
  25   1.0000      -9.840531      -267.7745   21-A'
  26   1.0000      -9.840186      -267.7651   22-A'
  27   1.0000      -9.838727      -267.7254   23-A'
  28   1.0000      -9.837774      -267.6994   24-A'
  29   1.0000      -9.808947      -266.9150   25-A'
  30   1.0000      -9.808366      -266.8992   26-A'
  31   1.0000      -9.807638      -266.8794   27-A'
  32   1.0000      -9.804554      -266.7955   28-A'
  33   1.0000      -9.799340      -266.6536   29-A'
  34   1.0000      -9.799097      -266.6470   30-A'
  35   1.0000      -9.796386      -266.5732   31-A'
  36   1.0000      -9.792137      -266.4576   32-A'
  37   1.0000      -7.348338      -199.9584   33-A'
  38   1.0000      -7.331410      -199.4978   34-A'
  39   1.0000      -7.330133      -199.4631   35-A'
  40   1.0000      -7.322361      -199.2516   36-A'
  41   1.0000      -5.410524      -147.2278   37-A'
  42   1.0000      -5.406921      -147.1298    6-A"
  43   1.0000      -5.405470      -147.0903   38-A'
  44   1.0000      -5.404102      -147.0531   39-A'
  45   1.0000      -5.398165      -146.8915   40-A'
  46   1.0000      -5.396768      -146.8535   41-A'
  47   1.0000      -5.396747      -146.8530   42-A'
  48   1.0000      -5.394720      -146.7978    7-A"
  49   1.0000      -5.391843      -146.7195   43-A'
  50   1.0000      -5.391797      -146.7183    8-A"
  51   1.0000      -5.390603      -146.6858   44-A'
  52   1.0000      -5.387712      -146.6071    9-A"
  53   1.0000      -4.019016      -109.3630   45-A'
  54   1.0000      -2.538578       -69.0782   46-A'
  55   1.0000      -2.537693       -69.0541   47-A'
  56   1.0000      -2.514072       -68.4114   10-A"
  57   1.0000      -1.752294       -47.6823   48-A'
  58   1.0000      -1.747522       -47.5525   11-A"
  59   1.0000      -1.746876       -47.5349   49-A'
  60   1.0000      -1.743202       -47.4349   12-A"
  61   1.0000      -1.743084       -47.4317   50-A'
  62   1.0000      -1.741156       -47.3793   51-A'
  63   1.0000      -1.739514       -47.3346   52-A'
  64   1.0000      -1.737752       -47.2866   13-A"
  65   1.0000      -1.736476       -47.2519   53-A'
  66   1.0000      -1.734959       -47.2106   54-A'
  67   1.0000      -1.733623       -47.1743   55-A'
  68   1.0000      -1.733187       -47.1624   56-A'
  69   1.0000      -1.732797       -47.1518   14-A"
  70   1.0000      -1.731903       -47.1275   57-A'
  71   1.0000      -1.731898       -47.1273   15-A"
  72   1.0000      -1.731165       -47.1074   16-A"
  73   1.0000      -1.728676       -47.0397   58-A'
  74   1.0000      -1.728566       -47.0367   17-A"
  75   1.0000      -1.725346       -46.9491   18-A"
  76   1.0000      -1.725114       -46.9427   59-A'
  77   1.0000      -0.653541       -17.7838   60-A'
  78   1.0000      -0.584018       -15.8920   61-A'
  79   1.0000      -0.527313       -14.3489   62-A'
  80   1.0000      -0.515660       -14.0318   63-A'
  81   1.0000      -0.507270       -13.8035   64-A'
  82   1.0000      -0.499883       -13.6025   65-A'
  83   1.0000      -0.415962       -11.3189   66-A'
  84   1.0000      -0.395719       -10.7681   67-A'
  85   1.0000      -0.383001       -10.4220   68-A'
  86   1.0000      -0.371724       -10.1151   69-A'
  87   1.0000      -0.367950       -10.0124   70-A'
  88   1.0000      -0.292163        -7.9502   71-A'
  89   1.0000      -0.288895        -7.8612   72-A'
  90   1.0000      -0.281278        -7.6540   73-A'
  91   1.0000      -0.255429        -6.9506   74-A'
  92   1.0000      -0.223604        -6.0846   75-A'
  93   1.0000      -0.215871        -5.8741   76-A'
  94   1.0000      -0.200255        -5.4492   77-A'
  95   1.0000      -0.180315        -4.9066   78-A'
  96   1.0000      -0.176437        -4.8011   19-A"
  97   1.0000      -0.156578        -4.2607   79-A'
  98   1.0000      -0.152913        -4.1610   80-A'
  99   1.0000      -0.129485        -3.5235   81-A'
 100   1.0000      -0.121895        -3.3169   82-A'
 101   1.0000      -0.116912        -3.1813   20-A"
 102   1.0000      -0.107136        -2.9153   83-A'
 103   1.0000      -0.080889        -2.2011   84-A'
 104   1.0000      -0.071997        -1.9591   85-A'
 105   1.0000      -0.061527        -1.6742   86-A'
 106   1.0000      -0.054615        -1.4861   21-A"
 107   1.0000      -0.043242        -1.1767   22-A"
 108   1.0000      -0.039128        -1.0647   87-A'
 109   1.0000      -0.033726        -0.9177   23-A"
 110   1.0000      -0.026802        -0.7293   24-A"
 111   1.0000      -0.022099        -0.6013   88-A'
 112   1.0000      -0.007024        -0.1911   89-A'
 113   1.0000      -0.001275        -0.0347   25-A"
 114   1.0000      -0.000257        -0.0070   26-A"
 115   1.0000       0.000241         0.0065   90-A'
 116   1.0000       0.017436         0.4745   91-A'
 117   1.0000       0.036063         0.9813   92-A'
 118   1.0000       0.043531         1.1845   93-A'
 119   1.0000       0.055206         1.5022   27-A"
 120   1.0000       0.058286         1.5860   28-A"
 121   1.0000       0.067234         1.8295   29-A"
 122   1.0000       0.105787         2.8786   30-A"
 123   1.0000       0.119364         3.2481   94-A'
 124   0.0000       0.166561         4.5324   31-A"
 125   0.0000       0.171070         4.6551   95-A'
 126   0.0000       0.183166         4.9842   96-A'
 127   0.0000       0.189036         5.1439   97-A'
 128   0.0000       0.202987         5.5236   98-A'

                 SPIN DOWN ORBITALS
  NO   OCC          E(Eh)            E(eV)    Irrep
   0   1.0000    -443.576313    -12070.3251    1-A'
   1   1.0000    -443.545863    -12069.4965    2-A'
   2   1.0000    -443.534553    -12069.1888    3-A'
   3   1.0000    -443.521260    -12068.8271    4-A'
   4   1.0000    -318.184372     -8658.2369    5-A'
   5   1.0000     -56.379830     -1534.1732    6-A'
   6   1.0000     -56.354862     -1533.4937    7-A'
   7   1.0000     -56.351589     -1533.4047    8-A'
   8   1.0000     -56.340222     -1533.0954    9-A'
   9   1.0000     -51.293947     -1395.7793   10-A'
  10   1.0000     -51.293245     -1395.7601    1-A"
  11   1.0000     -51.292728     -1395.7461   11-A'
  12   1.0000     -51.281752     -1395.4474   12-A'
  13   1.0000     -51.279269     -1395.3798   13-A'
  14   1.0000     -51.278865     -1395.3688    2-A"
  15   1.0000     -51.278701     -1395.3644   14-A'
  16   1.0000     -51.277304     -1395.3264    3-A"
  17   1.0000     -51.277187     -1395.3232   15-A'
  18   1.0000     -51.274320     -1395.2452   16-A'
  19   1.0000     -51.271770     -1395.1758   17-A'
  20   1.0000     -51.271138     -1395.1586    4-A"
  21   1.0000     -38.011315     -1034.3405   18-A'
  22   1.0000     -33.514089      -911.9647   19-A'
  23   1.0000     -33.513357      -911.9448   20-A'
  24   1.0000     -33.511171      -911.8853    5-A"
  25   1.0000      -9.840506      -267.7738   21-A'
  26   1.0000      -9.840093      -267.7626   22-A'
  27   1.0000      -9.838662      -267.7236   23-A'
  28   1.0000      -9.837642      -267.6959   24-A'
  29   1.0000      -9.808971      -266.9157   25-A'
  30   1.0000      -9.808356      -266.8989   26-A'
  31   1.0000      -9.807584      -266.8779   27-A'
  32   1.0000      -9.804502      -266.7941   28-A'
  33   1.0000      -9.799346      -266.6537   29-A'
  34   1.0000      -9.799017      -266.6448   30-A'
  35   1.0000      -9.796210      -266.5684   31-A'
  36   1.0000      -9.792040      -266.4549   32-A'
  37   1.0000      -7.347982      -199.9488   33-A'
  38   1.0000      -7.330979      -199.4861   34-A'
  39   1.0000      -7.329757      -199.4528   35-A'
  40   1.0000      -7.321905      -199.2392   36-A'
  41   1.0000      -5.410195      -147.2189   37-A'
  42   1.0000      -5.406622      -147.1217    6-A"
  43   1.0000      -5.404758      -147.0710   38-A'
  44   1.0000      -5.403711      -147.0424   39-A'
  45   1.0000      -5.397747      -146.8802   40-A'
  46   1.0000      -5.396421      -146.8441   41-A'
  47   1.0000      -5.395872      -146.8291   42-A'
  48   1.0000      -5.394409      -146.7893    7-A"
  49   1.0000      -5.391496      -146.7101    8-A"
  50   1.0000      -5.391090      -146.6990   43-A'
  51   1.0000      -5.389676      -146.6606   44-A'
  52   1.0000      -5.387391      -146.5984    9-A"
  53   1.0000      -3.991616      -108.6174   45-A'
  54   1.0000      -2.504354       -68.1469   46-A'
  55   1.0000      -2.503983       -68.1368   10-A"
  56   1.0000      -2.503375       -68.1203   47-A'
  57   1.0000      -1.751915       -47.6720   48-A'
  58   1.0000      -1.747220       -47.5443   11-A"
  59   1.0000      -1.746081       -47.5133   49-A'
  60   1.0000      -1.742504       -47.4159   12-A"
  61   1.0000      -1.742337       -47.4114   50-A'
  62   1.0000      -1.740598       -47.3641   51-A'
  63   1.0000      -1.738595       -47.3096   52-A'
  64   1.0000      -1.737435       -47.2780   13-A"
  65   1.0000      -1.736052       -47.2404   53-A'
  66   1.0000      -1.734332       -47.1936   54-A'
  67   1.0000      -1.732658       -47.1480   55-A'
  68   1.0000      -1.732488       -47.1434   14-A"
  69   1.0000      -1.732346       -47.1395   56-A'
  70   1.0000      -1.731133       -47.1065   57-A'
  71   1.0000      -1.731128       -47.1064   15-A"
  72   1.0000      -1.730834       -47.0984   16-A"
  73   1.0000      -1.727924       -47.0192   58-A'
  74   1.0000      -1.727847       -47.0171   17-A"
  75   1.0000      -1.724543       -46.9272   18-A"
  76   1.0000      -1.724331       -46.9214   59-A'
  77   1.0000      -0.653146       -17.7730   60-A'
  78   1.0000      -0.582754       -15.8575   61-A'
  79   1.0000      -0.526880       -14.3371   62-A'
  80   1.0000      -0.514018       -13.9871   63-A'
  81   1.0000      -0.506179       -13.7738   64-A'
  82   1.0000      -0.497800       -13.5458   65-A'
  83   1.0000      -0.413914       -11.2632   66-A'
  84   1.0000      -0.393720       -10.7137   67-A'
  85   1.0000      -0.380307       -10.3487   68-A'
  86   1.0000      -0.369266       -10.0482   69-A'
  87   1.0000      -0.365166        -9.9367   70-A'
  88   1.0000      -0.288260        -7.8440   71-A'
  89   1.0000      -0.286917        -7.8074   72-A'
  90   1.0000      -0.279170        -7.5966   73-A'
  91   1.0000      -0.254505        -6.9254   74-A'
  92   1.0000      -0.222262        -6.0481   75-A'
  93   1.0000      -0.214778        -5.8444   76-A'
  94   1.0000      -0.199272        -5.4225   77-A'
  95   1.0000      -0.178900        -4.8681   78-A'
  96   1.0000      -0.176348        -4.7987   19-A"
  97   1.0000      -0.154272        -4.1979   79-A'
  98   1.0000      -0.150740        -4.1018   80-A'
  99   1.0000      -0.128633        -3.5003   81-A'
 100   1.0000      -0.119443        -3.2502   82-A'
 101   1.0000      -0.116264        -3.1637   20-A"
 102   1.0000      -0.105086        -2.8595   83-A'
 103   1.0000      -0.078167        -2.1270   84-A'
 104   1.0000      -0.069138        -1.8814   85-A'
 105   1.0000      -0.058558        -1.5934   86-A'
 106   1.0000      -0.054334        -1.4785   21-A"
 107   1.0000      -0.042020        -1.1434   22-A"
 108   1.0000      -0.031880        -0.8675   23-A"
 109   1.0000      -0.026097        -0.7101   24-A"
 110   1.0000      -0.016274        -0.4428   87-A'
 111   1.0000      -0.012424        -0.3381   88-A'
 112   1.0000       0.002278         0.0620   89-A'
 113   1.0000       0.009308         0.2533   25-A"
 114   1.0000       0.009683         0.2635   26-A"
 115   1.0000       0.010109         0.2751   90-A'
 116   1.0000       0.031448         0.8557   91-A'
 117   1.0000       0.042380         1.1532   92-A'
 118   1.0000       0.054571         1.4849   93-A'
 119   1.0000       0.057987         1.5779   27-A"
 120   1.0000       0.060793         1.6543   28-A"
 121   1.0000       0.070737         1.9248   29-A"
 122   1.0000       0.108376         2.9491   30-A"
 123   0.0000       0.148451         4.0396   94-A'
 124   0.0000       0.166596         4.5333   31-A"
 125   0.0000       0.176139         4.7930   95-A'
 126   0.0000       0.190753         5.1907   96-A'
 127   0.0000       0.191334         5.2065   97-A'

MULLIKEN ATOMIC CHARGES AND SPIN POPULATIONS
--------------------------------------------
   0 Cu:    0.678243    0.300904
   1 Se:   -0.893220    0.191945
   2 C :    0.336152   -0.004241
   3 Se:   -0.510159    0.140521
   4 C :    0.068518   -0.002473
   5 Se:   -0.906425    0.204230
   6 C :    0.348353   -0.003957
   7 Se:   -0.681246    0.154310
   8 C :    0.154725    0.002796
   9 C :   -0.093607   -0.001497
  10 C :   -0.133432    0.003244
  11 C :   -0.161949   -0.000637
  12 H :    0.081776    0.000711
  13 C :   -0.203658   -0.000855
  14 H :    0.085318    0.002331
  15 H :    0.012191    0.001946
  16 H :    0.012718    0.001385
  17 C :   -0.075347   -0.005273
  18 C :   -0.034047   -0.006773
  19 C :   -0.109126    0.001302
  20 H :    0.066378    0.003835
  21 C :   -0.140674    0.003014
  22 H :    0.045802    0.006884
  23 H :    0.020391    0.003315
  24 H :    0.032323    0.003034
Sum of atomic charges         :   -2.0000000

LOEWDIN ATOMIC CHARGES AND SPIN POPULATIONS
-------------------------------------------
   0 Cu:   -0.635583    0.382681
   1 Se:   -0.196593    0.140076
   2 C :   -0.034898    0.005363
   3 Se:   -0.174512    0.101177
   4 C :    0.033195    0.016197
   5 Se:   -0.217685    0.148277
   6 C :   -0.061190    0.005596
   7 Se:   -0.219807    0.108960
   8 C :    0.050809    0.016293
   9 C :    0.347737    0.006103
  10 C :    0.365992    0.007352
  11 C :    0.304355    0.000536
  12 H :   -0.485302    0.008368
  13 C :    0.319863    0.000280
  14 H :   -0.468179    0.008583
  15 H :   -0.412409    0.000586
  16 H :   -0.422165    0.000176
  17 C :    0.409144    0.007786
  18 C :    0.390423    0.008910
  19 C :    0.342687    0.002392
  20 H :   -0.407605    0.008051
  21 C :    0.354984    0.003652
  22 H :   -0.375364    0.009387
  23 H :   -0.397541    0.001635
  24 H :   -0.410355    0.001584

  Mayer bond orders larger than 0.100000
B(  0-Cu,  1-Se) :   0.5385 B(  0-Cu,  3-Se) :   0.5089 B(  0-Cu,  5-Se) :   0.5365
B(  0-Cu,  7-Se) :   0.5541 B(  1-Se,  2-C ) :   0.8768 B(  2-C ,  6-C ) :   1.2361
B(  2-C , 17-C ) :   1.2621 B(  3-Se,  4-C ) :   1.2486 B(  4-C ,  8-C ) :   1.0844
B(  4-C , 10-C ) :   1.2089 B(  5-Se,  6-C ) :   0.8414 B(  6-C , 18-C ) :   1.2872
B(  7-Se,  8-C ) :   1.0797 B(  8-C ,  9-C ) :   1.2882 B(  9-C , 13-C ) :   1.3505
B(  9-C , 14-H ) :   0.9562 B( 10-C , 11-C ) :   1.4092 B( 10-C , 12-H ) :   0.9538
B( 11-C , 13-C ) :   1.3004 B( 11-C , 15-H ) :   1.0008 B( 13-C , 16-H ) :   1.0053
B( 17-C , 18-C ) :   0.1205 B( 17-C , 19-C ) :   1.3032 B( 17-C , 20-H ) :   0.9576
B( 18-C , 21-C ) :   1.2544 B( 18-C , 22-H ) :   0.9508 B( 19-C , 21-C ) :   1.4244
B( 19-C , 23-H ) :   0.9849 B( 21-C , 24-H ) :   0.9798

FINAL SINGLE POINT ENERGY    -11626.817660084684

DIPOLE MOMENT
-------------
                                X             Y             Z
Electronic contribution:     -0.38977       0.30326      -0.00000
Nuclear contribution   :     -0.87724       0.34385       0.00000
                        -----------------------------------------
Total Dipole Moment    :     -1.26701       0.64711      -0.00000
                        -----------------------------------------
Magnitude (a.u.)       :      1.42270
Magnitude (Debye)      :      3.61621

Rotational constants in cm-1:     0.017588     0.004094     0.003321
Rotational constants in MHz :   527.280773   122.722098    99.551872

                             ****ORCA TERMINATED NORMALLY****
TOTAL RUN TIME: 0 days 17 hours 40 minutes 2 seconds 554 msec
