                         Program Version 5.0.4 -  RELEASE  -
|  1> ! RIJCOSX nofrozencore ReducedPop printbasis
|  2> ! M06L ano-rcc-dzp autoaux
|  3>
|  4> %maxcore 7500
|  5> %basis
|  6> PCDTrimBas overlap
|  7> PCDTrimAuxJ Coulomb
|  8> PCDTrimAuxJK Coulomb
|  9> PCDTrimAuxC Coulomb
| 10> PCDThresh -1
| 11> end
| 12>
| 13> %basis
| 14> newgto Cu "ano-rcc-tzp" end
| 15> newgto Se "ano-rcc-tzp" end
| 16> end
| 17>
| 18> %pal
| 19> nprocs 8
| 20> end
| 21>
| 22> % sym SymThresh 1e-2 end
| 23> * xyz -2 2
| 24> Cu 0.00024373198889059865 -0.00034852044821839833 -0.00036432020910880005
| 25> Se 0.36672663186661936 2.178798928905525 0.849352735169495
| 26> C -0.879763970932599 2.4685785326414096 1.9408871187286738
| 27> Se 1.886722131347234 -0.010451040229717809 -1.43081860183591
| 28> C 1.8555470859888836 -1.47870413744 -2.166335955997128
| 29> Se -1.8861584174121486 0.0023036474073231746 1.42618060800269
| 30> C -1.9252143166121265 1.5339318837844464 2.247521549522096
| 31> Se -0.3623728213673279 -2.179641562962111 -0.8530776641598173
| 32> C 0.8619152183339462 -2.419578353179864 -1.9020698827708107
| 33> C 0.9607923746158377 -3.617831626260605 -2.5962546463582123
| 34> C 2.8327010561439585 -1.821785161337101 -3.0819431714022336
| 35> C 2.9131907617363706 -3.027202467331087 -3.7659399686292723
| 36> H 3.5603142033076556 -1.0305723283015231 -3.2226057518006996
| 37> C 1.9321174430044339 -3.9675415720669025 -3.510885212635683
| 38> H 0.22909532541643554 -4.402127589617079 -2.448930742066926
| 39> H 3.745351886032318 -3.1430694049086307 -4.45453823962108
| 40> H 1.9599609449910083 -4.923129381752357 -4.025948896856072
| 41> C -0.9869125693262472 3.5851258742899232 2.599079911889548
| 42> C -2.806153088551102 1.856048396194331 3.0795999249775226
| 43> C -1.9331484307587439 3.9520282059356107 3.503643889446724
| 44> H -0.1825281051211329 4.258763312294617 2.3396329469026282
| 45> C -2.8819442781160824 3.043612260541636 3.750816975864807
| 46> H -3.315240634538636 0.7561958045040967 2.8956048975347564
| 47> H -1.9619814833787057 4.90209313799831 4.01659991304262
| 48> H -3.757880809794645 3.036838089058169 4.409083446617072
| 49> *
| 50>
| 51> % eprnmr
| 52> gtensor true
| 53> Nuclei = all H {aiso,adip,aorb,fgrad,rho}
| 54> Nuclei = all Cu {aiso,adip,aorb,fgrad,rho}
| 55> end
| 56>
| 57>                          ****END OF INPUT****

CARTESIAN COORDINATES (ANGSTROEM)
---------------------------------
  Cu     0.000357   -0.000431    0.000000
  Se     0.112237    2.364415    0.000000
  C     -1.480260    2.905811    0.000000
  Se     2.343068   -0.342203    0.000000
  C      2.535434   -1.973374    0.000000
  Se    -2.341087    0.333022    0.000000
  C     -2.630582    2.047141    0.000000
  Se    -0.106702   -2.366117    0.000000
  C      1.450399   -2.848064    0.000000
  C      1.761671   -4.201057    0.000000
  C      3.802073   -2.526997    0.000000
  C      4.091653   -3.884754    0.000000
  H      4.580531   -1.772525    0.000000
  C      3.022119   -4.761048    0.000000
  H      0.977056   -4.947104    0.000000
  H      5.142600   -4.159703    0.000000
  H      3.207050   -5.831101    0.000000
  C     -1.788939    4.169177    0.000000
  C     -3.774519    2.560538    0.000000
  C     -3.020957    4.743936    0.000000
  H     -0.896706    4.779140    0.000000
  C     -4.055459    3.897571    0.000000
  H     -4.233217    1.423746    0.000000
  H     -3.206247    5.808007    0.000000
  H     -5.141431    4.043484    0.000000

 Total Charge           Charge          ....   -2
 Multiplicity           Mult            ....    2
 Number of Electrons    NEL             ....  247
 Basis Dimension        Dim             ....  575

ORBITAL ENERGIES
----------------
                 SPIN UP ORBITALS
  NO   OCC          E(Eh)            E(eV)    Irrep
   0   1.0000    -443.562089    -12069.9381    1-A'
   1   1.0000    -443.551267    -12069.6436    2-A'
   2   1.0000    -443.547322    -12069.5362    3-A'
   3   1.0000    -443.536318    -12069.2368    4-A'
   4   1.0000    -318.188094     -8658.3382    5-A'
   5   1.0000     -56.370789     -1533.9271    6-A'
   6   1.0000     -56.363211     -1533.7210    7-A'
   7   1.0000     -56.357485     -1533.5651    8-A'
   8   1.0000     -56.351133     -1533.3923    9-A'
   9   1.0000     -51.287551     -1395.6052   10-A'
  10   1.0000     -51.286928     -1395.5883   11-A'
  11   1.0000     -51.286213     -1395.5688   12-A'
  12   1.0000     -51.285858     -1395.5591   13-A'
  13   1.0000     -51.285793     -1395.5574    1-A"
  14   1.0000     -51.285501     -1395.5494   14-A'
  15   1.0000     -51.284894     -1395.5329    2-A"
  16   1.0000     -51.284527     -1395.5229   15-A'
  17   1.0000     -51.284062     -1395.5103    3-A"
  18   1.0000     -51.281527     -1395.4413   16-A'
  19   1.0000     -51.280123     -1395.4031   17-A'
  20   1.0000     -51.279251     -1395.3794    4-A"
  21   1.0000     -38.028137     -1034.7982   18-A'
  22   1.0000     -33.530203      -912.4032   19-A'
  23   1.0000     -33.529433      -912.3822   20-A'
  24   1.0000     -33.518258      -912.0782    5-A"
  25   1.0000      -9.818504      -267.1751   21-A'
  26   1.0000      -9.817098      -267.1368   22-A'
  27   1.0000      -9.816267      -267.1142   23-A'
  28   1.0000      -9.815445      -267.0918   24-A'
  29   1.0000      -9.810180      -266.9486   25-A'
  30   1.0000      -9.807527      -266.8764   26-A'
  31   1.0000      -9.807464      -266.8747   27-A'
  32   1.0000      -9.805591      -266.8237   28-A'
  33   1.0000      -9.803476      -266.7661   29-A'
  34   1.0000      -9.798531      -266.6316   30-A'
  35   1.0000      -9.795757      -266.5561   31-A'
  36   1.0000      -9.795061      -266.5372   32-A'
  37   1.0000      -7.341771      -199.7797   33-A'
  38   1.0000      -7.338271      -199.6845   34-A'
  39   1.0000      -7.334199      -199.5737   35-A'
  40   1.0000      -7.330248      -199.4662   36-A'
  41   1.0000      -5.405476      -147.0905   37-A'
  42   1.0000      -5.405106      -147.0804   38-A'
  43   1.0000      -5.403848      -147.0462   39-A'
  44   1.0000      -5.401760      -146.9894   40-A'
  45   1.0000      -5.400020      -146.9420   41-A'
  46   1.0000      -5.399777      -146.9354   42-A'
  47   1.0000      -5.399458      -146.9267    6-A"
  48   1.0000      -5.399140      -146.9181    7-A"
  49   1.0000      -5.398584      -146.9029   43-A'
  50   1.0000      -5.398118      -146.8903    8-A"
  51   1.0000      -5.396487      -146.8459   44-A'
  52   1.0000      -5.394670      -146.7964    9-A"
  53   1.0000      -4.022382      -109.4546   45-A'
  54   1.0000      -2.541935       -69.1696   46-A'
  55   1.0000      -2.540969       -69.1433   47-A'
  56   1.0000      -2.517503       -68.5047   10-A"
  57   1.0000      -1.744241       -47.4632   48-A'
  58   1.0000      -1.743840       -47.4523   49-A'
  59   1.0000      -1.742801       -47.4240   50-A'
  60   1.0000      -1.741645       -47.3926   51-A'
  61   1.0000      -1.741378       -47.3853   52-A'
  62   1.0000      -1.740714       -47.3672   11-A"
  63   1.0000      -1.740619       -47.3647   12-A"
  64   1.0000      -1.740163       -47.3522   53-A'
  65   1.0000      -1.739623       -47.3375   54-A'
  66   1.0000      -1.739393       -47.3313   13-A"
  67   1.0000      -1.738158       -47.2977   55-A'
  68   1.0000      -1.736415       -47.2503   14-A"
  69   1.0000      -1.736303       -47.2472   56-A'
  70   1.0000      -1.736291       -47.2469   15-A"
  71   1.0000      -1.736169       -47.2436   16-A"
  72   1.0000      -1.736162       -47.2434   57-A'
  73   1.0000      -1.735040       -47.2128   58-A'
  74   1.0000      -1.735013       -47.2121   17-A"
  75   1.0000      -1.732142       -47.1340   18-A"
  76   1.0000      -1.732083       -47.1324   59-A'
  77   1.0000      -0.621463       -16.9109   60-A'
  78   1.0000      -0.602898       -16.4057   61-A'
  79   1.0000      -0.521953       -14.2031   62-A'
  80   1.0000      -0.521274       -14.1846   63-A'
  81   1.0000      -0.515366       -14.0238   64-A'
  82   1.0000      -0.500177       -13.6105   65-A'
  83   1.0000      -0.412399       -11.2219   66-A'
  84   1.0000      -0.405449       -11.0328   67-A'
  85   1.0000      -0.388623       -10.5750   68-A'
  86   1.0000      -0.381273       -10.3750   69-A'
  87   1.0000      -0.319540        -8.6951   70-A'
  88   1.0000      -0.315920        -8.5966   71-A'
  89   1.0000      -0.305056        -8.3010   72-A'
  90   1.0000      -0.286666        -7.8006   73-A'
  91   1.0000      -0.239132        -6.5071   74-A'
  92   1.0000      -0.225505        -6.1363   75-A'
  93   1.0000      -0.207393        -5.6435   76-A'
  94   1.0000      -0.202065        -5.4985   77-A'
  95   1.0000      -0.166355        -4.5268   78-A'
  96   1.0000      -0.150501        -4.0953   79-A'
  97   1.0000      -0.141295        -3.8448   19-A"
  98   1.0000      -0.138835        -3.7779   80-A'
  99   1.0000      -0.136343        -3.7101   81-A'
 100   1.0000      -0.133378        -3.6294   82-A'
 101   1.0000      -0.130759        -3.5581   20-A"
 102   1.0000      -0.111091        -3.0230   83-A'
 103   1.0000      -0.075360        -2.0507   84-A'
 104   1.0000      -0.072665        -1.9773   85-A'
 105   1.0000      -0.067761        -1.8439   86-A'
 106   1.0000      -0.048555        -1.3212   21-A"
 107   1.0000      -0.047003        -1.2790   22-A"
 108   1.0000      -0.040789        -1.1099   87-A'
 109   1.0000      -0.039453        -1.0736   23-A"
 110   1.0000      -0.030602        -0.8327   24-A"
 111   1.0000      -0.027774        -0.7558   88-A'
 112   1.0000      -0.026108        -0.7104   89-A'
 113   1.0000      -0.004027        -0.1096   25-A"
 114   1.0000      -0.002044        -0.0556   26-A"
 115   1.0000       0.001174         0.0319   90-A'
 116   1.0000       0.016375         0.4456   91-A'
 117   1.0000       0.019303         0.5253   92-A'
 118   1.0000       0.042635         1.1602   93-A'
 119   1.0000       0.055820         1.5189   27-A"
 120   1.0000       0.059117         1.6087   28-A"
 121   1.0000       0.064420         1.7529   29-A"
 122   1.0000       0.094853         2.5811   30-A"
 123   1.0000       0.116183         3.1615   94-A'
 124   0.0000       0.180551         4.9130   95-A'
 125   0.0000       0.182176         4.9573   96-A'
 126   0.0000       0.196008         5.3337   97-A'
 127   0.0000       0.196457         5.3459   98-A'
 128   0.0000       0.203945         5.5496   31-A"

                 SPIN DOWN ORBITALS
  NO   OCC          E(Eh)            E(eV)    Irrep
   0   1.0000    -443.561644    -12069.9260    1-A'
   1   1.0000    -443.550808    -12069.6311    2-A'
   2   1.0000    -443.546877    -12069.5241    3-A'
   3   1.0000    -443.535872    -12069.2247    4-A'
   4   1.0000    -318.187974     -8658.3350    5-A'
   5   1.0000     -56.370608     -1533.9222    6-A'
   6   1.0000     -56.363025     -1533.7159    7-A'
   7   1.0000     -56.357307     -1533.5603    8-A'
   8   1.0000     -56.350951     -1533.3873    9-A'
   9   1.0000     -51.287231     -1395.5965   10-A'
  10   1.0000     -51.286632     -1395.5802   11-A'
  11   1.0000     -51.285547     -1395.5507   12-A'
  12   1.0000     -51.285544     -1395.5506    1-A"
  13   1.0000     -51.285488     -1395.5491   13-A'
  14   1.0000     -51.284722     -1395.5282   14-A'
  15   1.0000     -51.284639     -1395.5260    2-A"
  16   1.0000     -51.283817     -1395.5036    3-A"
  17   1.0000     -51.283806     -1395.5033   15-A'
  18   1.0000     -51.281225     -1395.4331   16-A'
  19   1.0000     -51.279380     -1395.3829   17-A'
  20   1.0000     -51.279005     -1395.3727    4-A"
  21   1.0000     -38.014443     -1034.4256   18-A'
  22   1.0000     -33.517188      -912.0491   19-A'
  23   1.0000     -33.516417      -912.0281   20-A'
  24   1.0000     -33.514435      -911.9742    5-A"
  25   1.0000      -9.818438      -267.1733   21-A'
  26   1.0000      -9.817027      -267.1349   22-A'
  27   1.0000      -9.816214      -267.1128   23-A'
  28   1.0000      -9.815396      -267.0905   24-A'
  29   1.0000      -9.810199      -266.9491   25-A'
  30   1.0000      -9.807488      -266.8753   26-A'
  31   1.0000      -9.807407      -266.8731   27-A'
  32   1.0000      -9.805469      -266.8204   28-A'
  33   1.0000      -9.803539      -266.7679   29-A'
  34   1.0000      -9.798550      -266.6321   30-A'
  35   1.0000      -9.795650      -266.5532   31-A'
  36   1.0000      -9.794723      -266.5280   32-A'
  37   1.0000      -7.341378      -199.7691   33-A'
  38   1.0000      -7.337862      -199.6734   34-A'
  39   1.0000      -7.333799      -199.5628   35-A'
  40   1.0000      -7.329844      -199.4552   36-A'
  41   1.0000      -5.405139      -147.0813   37-A'
  42   1.0000      -5.404747      -147.0707   38-A'
  43   1.0000      -5.403492      -147.0365   39-A'
  44   1.0000      -5.401419      -146.9801   40-A'
  45   1.0000      -5.399152      -146.9184   41-A'
  46   1.0000      -5.399150      -146.9183    6-A"
  47   1.0000      -5.398965      -146.9133   42-A'
  48   1.0000      -5.398820      -146.9094    7-A"
  49   1.0000      -5.397812      -146.8819    8-A"
  50   1.0000      -5.397771      -146.8808   43-A'
  51   1.0000      -5.395662      -146.8234   44-A'
  52   1.0000      -5.394362      -146.7880    9-A"
  53   1.0000      -3.994656      -108.7001   45-A'
  54   1.0000      -2.507334       -68.2280   10-A"
  55   1.0000      -2.507301       -68.2271   46-A'
  56   1.0000      -2.506266       -68.1990   47-A'
  57   1.0000      -1.743803       -47.4513   48-A'
  58   1.0000      -1.743389       -47.4400   49-A'
  59   1.0000      -1.742357       -47.4119   50-A'
  60   1.0000      -1.740754       -47.3683   51-A'
  61   1.0000      -1.740495       -47.3613   52-A'
  62   1.0000      -1.740409       -47.3589   11-A"
  63   1.0000      -1.740331       -47.3568   12-A"
  64   1.0000      -1.739284       -47.3283   53-A'
  65   1.0000      -1.739126       -47.3240   54-A'
  66   1.0000      -1.739090       -47.3230   13-A"
  67   1.0000      -1.737307       -47.2745   55-A'
  68   1.0000      -1.736118       -47.2422   14-A"
  69   1.0000      -1.735534       -47.2263   15-A"
  70   1.0000      -1.735510       -47.2256   56-A'
  71   1.0000      -1.735367       -47.2217   16-A"
  72   1.0000      -1.735340       -47.2210   57-A'
  73   1.0000      -1.734259       -47.1916   17-A"
  74   1.0000      -1.734254       -47.1915   58-A'
  75   1.0000      -1.731386       -47.1134   18-A"
  76   1.0000      -1.731340       -47.1122   59-A'
  77   1.0000      -0.620903       -16.8956   60-A'
  78   1.0000      -0.602099       -16.3840   61-A'
  79   1.0000      -0.520824       -14.1723   62-A'
  80   1.0000      -0.520176       -14.1547   63-A'
  81   1.0000      -0.513894       -13.9838   64-A'
  82   1.0000      -0.498488       -13.5646   65-A'
  83   1.0000      -0.409791       -11.1510   66-A'
  84   1.0000      -0.402838       -10.9618   67-A'
  85   1.0000      -0.385594       -10.4926   68-A'
  86   1.0000      -0.378869       -10.3096   69-A'
  87   1.0000      -0.317751        -8.6464   70-A'
  88   1.0000      -0.313743        -8.5374   71-A'
  89   1.0000      -0.302214        -8.2237   72-A'
  90   1.0000      -0.284169        -7.7326   73-A'
  91   1.0000      -0.237664        -6.4672   74-A'
  92   1.0000      -0.224389        -6.1059   75-A'
  93   1.0000      -0.206525        -5.6198   76-A'
  94   1.0000      -0.200779        -5.4635   77-A'
  95   1.0000      -0.164752        -4.4831   78-A'
  96   1.0000      -0.148525        -4.0416   79-A'
  97   1.0000      -0.141052        -3.8382   19-A"
  98   1.0000      -0.137470        -3.7407   80-A'
  99   1.0000      -0.134942        -3.6720   81-A'
 100   1.0000      -0.131704        -3.5839   82-A'
 101   1.0000      -0.130376        -3.5477   20-A"
 102   1.0000      -0.109056        -2.9676   83-A'
 103   1.0000      -0.073347        -1.9959   84-A'
 104   1.0000      -0.070957        -1.9309   85-A'
 105   1.0000      -0.055973        -1.5231   86-A'
 106   1.0000      -0.047575        -1.2946   21-A"
 107   1.0000      -0.046110        -1.2547   22-A"
 108   1.0000      -0.038080        -1.0362   23-A"
 109   1.0000      -0.036533        -0.9941   87-A'
 110   1.0000      -0.029113        -0.7922   24-A"
 111   1.0000      -0.021365        -0.5814   88-A'
 112   1.0000      -0.001111        -0.0302   89-A'
 113   1.0000       0.005822         0.1584   25-A"
 114   1.0000       0.008799         0.2394   26-A"
 115   1.0000       0.011158         0.3036   90-A'
 116   1.0000       0.025289         0.6881   91-A'
 117   1.0000       0.031227         0.8497   92-A'
 118   1.0000       0.053786         1.4636   93-A'
 119   1.0000       0.058143         1.5822   27-A"
 120   1.0000       0.062562         1.7024   28-A"
 121   1.0000       0.066236         1.8024   29-A"
 122   1.0000       0.098135         2.6704   30-A"
 123   0.0000       0.145387         3.9562   94-A'
 124   0.0000       0.183842         5.0026   95-A'
 125   0.0000       0.184176         5.0117   96-A'
 126   0.0000       0.199705         5.4342   97-A'
 127   0.0000       0.200943         5.4679   98-A'

MULLIKEN ATOMIC CHARGES AND SPIN POPULATIONS
--------------------------------------------
   0 Cu:    0.655085    0.306256
   1 Se:   -0.802598    0.177499
   2 C :    0.276326   -0.006428
   3 Se:   -0.742292    0.170802
   4 C :    0.241247   -0.003204
   5 Se:   -0.798545    0.169053
   6 C :    0.401429   -0.003015
   7 Se:   -0.726021    0.170672
   8 C :    0.204054   -0.003150
   9 C :   -0.103464   -0.002316
  10 C :   -0.109466   -0.000602
  11 C :   -0.161692   -0.000758
  12 H :    0.090979    0.002435
  13 C :   -0.149115   -0.000416
  14 H :    0.088735    0.002946
  15 H :    0.022749    0.001539
  16 H :    0.019946    0.001702
  17 C :   -0.074077   -0.000967
  18 C :   -0.080466    0.017970
  19 C :   -0.183383   -0.000519
  20 H :    0.090511    0.002156
  21 C :   -0.188299   -0.001248
  22 H :   -0.001646   -0.004165
  23 H :    0.015561    0.002482
  24 H :    0.014442    0.001276
Sum of atomic charges         :   -2.0000000

LOEWDIN ATOMIC CHARGES AND SPIN POPULATIONS
-------------------------------------------
   0 Cu:   -0.625168    0.385279
   1 Se:   -0.163197    0.127700
   2 C :    0.056263    0.007906
   3 Se:   -0.197646    0.120265
   4 C :    0.042816    0.011431
   5 Se:   -0.110732    0.114589
   6 C :    0.061475    0.005795
   7 Se:   -0.200830    0.121774
   8 C :    0.034953    0.011908
   9 C :    0.368950    0.006653
  10 C :    0.371024    0.006849
  11 C :    0.319489    0.000398
  12 H :   -0.465104    0.010639
  13 C :    0.317833    0.000590
  14 H :   -0.452288    0.008080
  15 H :   -0.415027    0.000312
  16 H :   -0.408723    0.000496
  17 C :    0.331056    0.005848
  18 C :    0.304145    0.014301
  19 C :    0.319978    0.001050
  20 H :   -0.469710    0.011859
  21 C :    0.301651    0.001840
  22 H :   -0.512945    0.023768
  23 H :   -0.400187    0.000851
  24 H :   -0.408075   -0.000181

  Mayer bond orders larger than 0.100000
B(  0-Cu,  1-Se) :   0.5411 B(  0-Cu,  3-Se) :   0.5502 B(  0-Cu,  5-Se) :   0.5135
B(  0-Cu,  7-Se) :   0.5615 B(  1-Se,  2-C ) :   0.9973 B(  2-C ,  6-C ) :   1.1044
B(  2-C , 17-C ) :   1.3069 B(  3-Se,  4-C ) :   1.0312 B(  4-C ,  8-C ) :   1.1283
B(  4-C , 10-C ) :   1.2672 B(  5-Se,  6-C ) :   0.9150 B(  6-C , 18-C ) :   1.3537
B(  7-Se,  8-C ) :   1.0499 B(  8-C ,  9-C ) :   1.2620 B(  9-C , 13-C ) :   1.3703
B(  9-C , 14-H ) :   0.9647 B( 10-C , 11-C ) :   1.3692 B( 10-C , 12-H ) :   0.9566
B( 11-C , 13-C ) :   1.3216 B( 11-C , 15-H ) :   0.9935 B( 13-C , 16-H ) :   0.9962
B( 17-C , 19-C ) :   1.3145 B( 17-C , 20-H ) :   0.9509 B( 18-C , 21-C ) :   1.3047
B( 18-C , 22-H ) :   0.9305 B( 19-C , 21-C ) :   1.3957 B( 19-C , 23-H ) :   1.0025
B( 21-C , 24-H ) :   0.9977

FINAL SINGLE POINT ENERGY    -11627.046307666145

DIPOLE MOMENT
-------------
                                X             Y             Z
Electronic contribution:     -0.22611       0.60536      -0.00000
Nuclear contribution   :      0.32388      -0.50131       0.00000
                        -----------------------------------------
Total Dipole Moment    :      0.09777       0.10406      -0.00000
                        -----------------------------------------
Magnitude (a.u.)       :      0.14278
Magnitude (Debye)      :      0.36292

Rotational constants in cm-1:     0.017633     0.004099     0.003326
Rotational constants in MHz :   528.629034   122.889154    99.709841

                             ****ORCA TERMINATED NORMALLY****
TOTAL RUN TIME: 0 days 16 hours 55 minutes 4 seconds 360 msec
