                         Program Version 5.0.4 -  RELEASE  -
|  1> ! RIJCOSX nofrozencore ReducedPop printbasis
|  2> ! M06L ano-rcc-dzp autoaux
|  3>
|  4> %maxcore 7500
|  5> %basis
|  6> PCDTrimBas overlap
|  7> PCDTrimAuxJ Coulomb
|  8> PCDTrimAuxJK Coulomb
|  9> PCDTrimAuxC Coulomb
| 10> PCDThresh -1
| 11> end
| 12>
| 13> %basis
| 14> newgto Cu "ano-rcc-tzp" end
| 15> newgto Se "ano-rcc-tzp" end
| 16> end
| 17>
| 18> %pal
| 19> nprocs 8
| 20> end
| 21>
| 22> % sym SymThresh 1e-2 end
| 23> * xyz -2 2
| 24> Cu 0.06030780391357375 0.01660384492676115 -0.002986846124259861
| 25> Se -0.4661621572768509 1.522700484468721 -1.7531481218356064
| 26> C -0.3626278171708092 0.624871858953562 -3.1202616066108706
| 27> Se -0.30280092694740973 1.5615892124502808 1.7547728284574908
| 28> C -0.07224434943392563 0.6939802847162022 3.125887183574303
| 29> Se 0.37714681363645197 -1.5411204257689342 -1.7584549344056706
| 30> C 0.005448614968226523 -0.7123703759625518 -3.1225790117016894
| 31> Se 0.5404030737372778 -1.5022605980172745 1.7494712147157732
| 32> C 0.2958070903632104 -0.6432688327835951 3.1235720174314987
| 33> C 0.4534875580861237 -1.25065177486255 4.36663269398884
| 34> C -0.24651723663064148 1.292488367054096 4.371038193474845
| 35> C -0.08973194588906772 0.685641170806891 5.600868436155103
| 36> H -0.5331577535277945 2.3338064423789135 4.364674487812909
| 37> C 0.2787599448510311 -0.653005150953829 5.598547251698374
| 38> H 0.7400859901542908 -2.291953151186266 4.356661555818938
| 39> H -0.24920610224556525 1.2461848942681568 6.517305276994429
| 40> H 0.42941933298925955 -1.2191460787523958 6.513032810741376
| 41> C -0.6520305597602999 1.195989243694677 -4.356799515584611
| 42> C 0.04796749374912308 -1.347152754200036 -4.361204681200905
| 43> C -0.609154267360908 0.5620415337251199 -5.582184914490375
| 44> H -0.937887459020817 2.2374947776057588 -4.346865103082845
| 45> C -0.24069117465296147 -0.7766127201290421 -5.58450267035588
| 46> H 0.33533317195038037 -2.388271179312793 -4.354876890380666
| 47> H -0.8533902342482076 1.1024191107458834 -6.4920349338324606
| 48> H -0.17480782355347055 -1.3629247466597973 -6.496304256589036
| 49> *
| 50>
| 51> % eprnmr
| 52> gtensor true
| 53> Nuclei = all H {aiso,adip,aorb,fgrad,rho}
| 54> Nuclei = all Cu {aiso,adip,aorb,fgrad,rho}
| 55> end
| 56>
| 57>                          ****END OF INPUT****

CARTESIAN COORDINATES (ANGSTROEM)
---------------------------------
  Cu    -0.000000   -0.000000    0.062623
  Se     1.588883   -1.755969    0.038573
  C      0.693488   -3.126639   -0.034686
  Se     1.588883    1.755969    0.038573
  C      0.693488    3.126639   -0.034686
  Se    -1.588883   -1.755969    0.038573
  C     -0.693488   -3.126639   -0.034686
  Se    -1.588883    1.755969    0.038573
  C     -0.693488    3.126639   -0.034686
  C     -1.318862    4.368893   -0.103084
  C      1.318862    4.368893   -0.103084
  C      0.694220    5.597896   -0.171546
  H      2.398899    4.360734   -0.102703
  C     -0.694220    5.597896   -0.171546
  H     -2.398899    4.360734   -0.102703
  H      1.278516    6.512078   -0.220135
  H     -1.278516    6.512078   -0.220135
  C      1.318862   -4.368893   -0.103084
  C     -1.318862   -4.368893   -0.103084
  C      0.694220   -5.597896   -0.171546
  H      2.398899   -4.360734   -0.102703
  C     -0.694220   -5.597896   -0.171546
  H     -2.398899   -4.360734   -0.102703
  H      1.278516   -6.512078   -0.220135
  H     -1.278516   -6.512078   -0.220135

 Total Charge           Charge          ....   -2
 Multiplicity           Mult            ....    2
 Number of Electrons    NEL             ....  247
 Basis Dimension        Dim             ....  575

ORBITAL ENERGIES
----------------
                 SPIN UP ORBITALS
  NO   OCC          E(Eh)            E(eV)    Irrep
   0   1.0000    -443.561275    -12069.9159    1-B1
   1   1.0000    -443.560204    -12069.8868    1-A2
   2   1.0000    -443.546582    -12069.5161    1-A1
   3   1.0000    -443.546525    -12069.5146    1-B2
   4   1.0000    -318.186941     -8658.3068    2-A1
   5   1.0000     -56.369890     -1533.9027    2-B1
   6   1.0000     -56.369605     -1533.8949    2-A2
   7   1.0000     -56.356924     -1533.5499    3-A1
   8   1.0000     -56.356662     -1533.5427    2-B2
   9   1.0000     -51.286060     -1395.5646    3-A2
  10   1.0000     -51.285995     -1395.5629    3-B2
  11   1.0000     -51.285991     -1395.5628    3-B1
  12   1.0000     -51.285961     -1395.5620    4-A1
  13   1.0000     -51.284692     -1395.5274    4-A2
  14   1.0000     -51.284685     -1395.5272    4-B1
  15   1.0000     -51.284647     -1395.5262    4-B2
  16   1.0000     -51.284613     -1395.5253    5-A1
  17   1.0000     -51.284253     -1395.5155    5-A2
  18   1.0000     -51.284223     -1395.5147    5-B1
  19   1.0000     -51.284207     -1395.5142    5-B2
  20   1.0000     -51.284172     -1395.5133    6-A1
  21   1.0000     -38.027498     -1034.7808    7-A1
  22   1.0000     -33.529567      -912.3859    6-B1
  23   1.0000     -33.528775      -912.3643    6-B2
  24   1.0000     -33.517558      -912.0591    8-A1
  25   1.0000      -9.816192      -267.1122    7-B2
  26   1.0000      -9.816191      -267.1121    9-A1
  27   1.0000      -9.815743      -267.1000    6-A2
  28   1.0000      -9.815743      -267.1000    7-B1
  29   1.0000      -9.808724      -266.9090    8-B2
  30   1.0000      -9.808718      -266.9088   10-A1
  31   1.0000      -9.808271      -266.8966    7-A2
  32   1.0000      -9.808269      -266.8966    8-B1
  33   1.0000      -9.806663      -266.8529    9-B2
  34   1.0000      -9.806662      -266.8529   11-A1
  35   1.0000      -9.806662      -266.8528    8-A2
  36   1.0000      -9.806661      -266.8528    9-B1
  37   1.0000      -7.340949      -199.7574   10-B1
  38   1.0000      -7.340905      -199.7562    9-A2
  39   1.0000      -7.333646      -199.5587   12-A1
  40   1.0000      -7.333535      -199.5556   10-B2
  41   1.0000      -5.403870      -147.0468   10-A2
  42   1.0000      -5.403842      -147.0460   11-B2
  43   1.0000      -5.403829      -147.0457   11-B1
  44   1.0000      -5.403820      -147.0454   13-A1
  45   1.0000      -5.398548      -146.9019   11-A2
  46   1.0000      -5.398544      -146.9018   12-B1
  47   1.0000      -5.398529      -146.9015   12-B2
  48   1.0000      -5.398511      -146.9010   14-A1
  49   1.0000      -5.398169      -146.8916   12-A2
  50   1.0000      -5.398151      -146.8912   13-B1
  51   1.0000      -5.398144      -146.8910   13-B2
  52   1.0000      -5.398124      -146.8904   15-A1
  53   1.0000      -4.021814      -109.4391   16-A1
  54   1.0000      -2.541401       -69.1550   14-B1
  55   1.0000      -2.540444       -69.1290   14-B2
  56   1.0000      -2.516864       -68.4874   17-A1
  57   1.0000      -1.742879       -47.4261   18-A1
  58   1.0000      -1.742865       -47.4258   15-B2
  59   1.0000      -1.742849       -47.4253   15-B1
  60   1.0000      -1.742836       -47.4250   13-A2
  61   1.0000      -1.740161       -47.3522   19-A1
  62   1.0000      -1.740142       -47.3517   16-B2
  63   1.0000      -1.740076       -47.3499   16-B1
  64   1.0000      -1.740064       -47.3495   14-A2
  65   1.0000      -1.739424       -47.3321   20-A1
  66   1.0000      -1.739421       -47.3321   17-B2
  67   1.0000      -1.739417       -47.3319   17-B1
  68   1.0000      -1.739414       -47.3319   15-A2
  69   1.0000      -1.735058       -47.2133   21-A1
  70   1.0000      -1.735050       -47.2131   18-B2
  71   1.0000      -1.735031       -47.2126   22-A1
  72   1.0000      -1.735029       -47.2125   19-B2
  73   1.0000      -1.735007       -47.2119   16-A2
  74   1.0000      -1.735006       -47.2119   18-B1
  75   1.0000      -1.734990       -47.2115   17-A2
  76   1.0000      -1.734986       -47.2114   19-B1
  77   1.0000      -0.602022       -16.3818   23-A1
  78   1.0000      -0.601818       -16.3763   20-B2
  79   1.0000      -0.521348       -14.1866   24-A1
  80   1.0000      -0.520611       -14.1665   21-B2
  81   1.0000      -0.498584       -13.5672   20-B1
  82   1.0000      -0.498345       -13.5607   18-A2
  83   1.0000      -0.412661       -11.2291   21-B1
  84   1.0000      -0.411513       -11.1978   19-A2
  85   1.0000      -0.383429       -10.4336   25-A1
  86   1.0000      -0.378901       -10.3104   22-B2
  87   1.0000      -0.320629        -8.7248   26-A1
  88   1.0000      -0.318306        -8.6615   23-B2
  89   1.0000      -0.287423        -7.8212   22-B1
  90   1.0000      -0.284221        -7.7340   20-A2
  91   1.0000      -0.230055        -6.2601   27-A1
  92   1.0000      -0.223444        -6.0802   24-B2
  93   1.0000      -0.200016        -5.4427   28-A1
  94   1.0000      -0.199036        -5.4160   25-B2
  95   1.0000      -0.170516        -4.6400   23-B1
  96   1.0000      -0.165616        -4.5066   21-A2
  97   1.0000      -0.138366        -3.7651   24-B1
  98   1.0000      -0.136966        -3.7270   29-A1
  99   1.0000      -0.136773        -3.7218   22-A2
 100   1.0000      -0.130016        -3.5379   30-A1
 101   1.0000      -0.129815        -3.5324   26-B2
 102   1.0000      -0.110712        -3.0126   27-B2
 103   1.0000      -0.082237        -2.2378   31-A1
 104   1.0000      -0.071671        -1.9503   25-B1
 105   1.0000      -0.065874        -1.7925   23-A2
 106   1.0000      -0.062606        -1.7036   28-B2
 107   1.0000      -0.048508        -1.3200   29-B2
 108   1.0000      -0.047714        -1.2984   32-A1
 109   1.0000      -0.032908        -0.8955   26-B1
 110   1.0000      -0.029918        -0.8141   24-A2
 111   1.0000      -0.029398        -0.8000   33-A1
 112   1.0000      -0.026343        -0.7168   25-A2
 113   1.0000      -0.001688        -0.0459   27-B1
 114   1.0000      -0.001006        -0.0274   30-B2
 115   1.0000       0.000681         0.0185   34-A1
 116   1.0000       0.019361         0.5268   35-A1
 117   1.0000       0.021053         0.5729   31-B2
 118   1.0000       0.040996         1.1156   28-B1
 119   1.0000       0.055244         1.5033   26-A2
 120   1.0000       0.056240         1.5304   29-B1
 121   1.0000       0.070420         1.9162   36-A1
 122   1.0000       0.099336         2.7031   32-B2
 123   1.0000       0.116269         3.1639   27-A2
 124   0.0000       0.182158         4.9568   33-B2
 125   0.0000       0.182285         4.9602   37-A1
 126   0.0000       0.196239         5.3399   28-A2
 127   0.0000       0.196655         5.3512   30-B1
 128   0.0000       0.201661         5.4875   38-A1

                 SPIN DOWN ORBITALS
  NO   OCC          E(Eh)            E(eV)    Irrep
   0   1.0000    -443.560822    -12069.9036    1-B1
   1   1.0000    -443.559751    -12069.8745    1-A2
   2   1.0000    -443.546129    -12069.5038    1-A1
   3   1.0000    -443.546072    -12069.5022    1-B2
   4   1.0000    -318.186818     -8658.3035    2-A1
   5   1.0000     -56.369707     -1533.8977    2-B1
   6   1.0000     -56.369422     -1533.8900    2-A2
   7   1.0000     -56.356743     -1533.5449    3-A1
   8   1.0000     -56.356481     -1533.5378    2-B2
   9   1.0000     -51.285740     -1395.5559    3-A2
  10   1.0000     -51.285669     -1395.5540    3-B1
  11   1.0000     -51.285666     -1395.5539    3-B2
  12   1.0000     -51.285632     -1395.5530    4-A1
  13   1.0000     -51.284005     -1395.5087    4-A2
  14   1.0000     -51.283978     -1395.5080    4-B1
  15   1.0000     -51.283961     -1395.5075    4-B2
  16   1.0000     -51.283952     -1395.5073    5-A2
  17   1.0000     -51.283944     -1395.5071    5-B1
  18   1.0000     -51.283925     -1395.5066    5-A1
  19   1.0000     -51.283915     -1395.5063    5-B2
  20   1.0000     -51.283881     -1395.5054    6-A1
  21   1.0000     -38.013577     -1034.4020    7-A1
  22   1.0000     -33.516338      -912.0259    6-B1
  23   1.0000     -33.515546      -912.0044    6-B2
  24   1.0000     -33.513670      -911.9533    8-A1
  25   1.0000      -9.816142      -267.1108    7-B2
  26   1.0000      -9.816141      -267.1108    9-A1
  27   1.0000      -9.815694      -267.0986    6-A2
  28   1.0000      -9.815693      -267.0986    7-B1
  29   1.0000      -9.808743      -266.9095    8-B2
  30   1.0000      -9.808737      -266.9093   10-A1
  31   1.0000      -9.808288      -266.8971    7-A2
  32   1.0000      -9.808286      -266.8970    8-B1
  33   1.0000      -9.806545      -266.8497    9-B2
  34   1.0000      -9.806545      -266.8496    8-A2
  35   1.0000      -9.806544      -266.8496   11-A1
  36   1.0000      -9.806544      -266.8496    9-B1
  37   1.0000      -7.340548      -199.7465   10-B1
  38   1.0000      -7.340506      -199.7453    9-A2
  39   1.0000      -7.333240      -199.5476   12-A1
  40   1.0000      -7.333128      -199.5445   10-B2
  41   1.0000      -5.403507      -147.0369   10-A2
  42   1.0000      -5.403478      -147.0361   11-B2
  43   1.0000      -5.403466      -147.0358   11-B1
  44   1.0000      -5.403456      -147.0355   13-A1
  45   1.0000      -5.397873      -146.8836   11-A2
  46   1.0000      -5.397857      -146.8831   12-B1
  47   1.0000      -5.397849      -146.8829   12-B2
  48   1.0000      -5.397829      -146.8824   14-A1
  49   1.0000      -5.397704      -146.8790   12-A2
  50   1.0000      -5.397699      -146.8789   13-B1
  51   1.0000      -5.397686      -146.8785   13-B2
  52   1.0000      -5.397667      -146.8780   15-A1
  53   1.0000      -3.993507      -108.6689   16-A1
  54   1.0000      -2.506520       -68.2059   17-A1
  55   1.0000      -2.506061       -68.1934   14-B1
  56   1.0000      -2.505033       -68.1654   14-B2
  57   1.0000      -1.742429       -47.4139   18-A1
  58   1.0000      -1.742415       -47.4135   15-B2
  59   1.0000      -1.742398       -47.4131   15-B1
  60   1.0000      -1.742387       -47.4128   13-A2
  61   1.0000      -1.739273       -47.3280   19-A1
  62   1.0000      -1.739255       -47.3275   16-B2
  63   1.0000      -1.739191       -47.3258   16-B1
  64   1.0000      -1.739179       -47.3255   14-A2
  65   1.0000      -1.739107       -47.3235   20-A1
  66   1.0000      -1.739104       -47.3234   17-B2
  67   1.0000      -1.739094       -47.3232   17-B1
  68   1.0000      -1.739091       -47.3231   15-A2
  69   1.0000      -1.734264       -47.1917   21-A1
  70   1.0000      -1.734262       -47.1917   18-B2
  71   1.0000      -1.734250       -47.1914   22-A1
  72   1.0000      -1.734242       -47.1911   16-A2
  73   1.0000      -1.734241       -47.1911   19-B2
  74   1.0000      -1.734240       -47.1911   18-B1
  75   1.0000      -1.734187       -47.1896   17-A2
  76   1.0000      -1.734183       -47.1895   19-B1
  77   1.0000      -0.601215       -16.3599   23-A1
  78   1.0000      -0.601025       -16.3547   20-B2
  79   1.0000      -0.520209       -14.1556   24-A1
  80   1.0000      -0.519508       -14.1365   21-B2
  81   1.0000      -0.496890       -13.5211   20-B1
  82   1.0000      -0.496667       -13.5150   18-A2
  83   1.0000      -0.409978       -11.1561   21-B1
  84   1.0000      -0.408807       -11.1242   19-A2
  85   1.0000      -0.380937       -10.3658   25-A1
  86   1.0000      -0.376596       -10.2477   22-B2
  87   1.0000      -0.318877        -8.6771   26-A1
  88   1.0000      -0.316395        -8.6096   23-B2
  89   1.0000      -0.285044        -7.7564   22-B1
  90   1.0000      -0.281589        -7.6624   20-A2
  91   1.0000      -0.228930        -6.2295   27-A1
  92   1.0000      -0.222379        -6.0513   24-B2
  93   1.0000      -0.198717        -5.4074   28-A1
  94   1.0000      -0.197813        -5.3828   25-B2
  95   1.0000      -0.169083        -4.6010   23-B1
  96   1.0000      -0.163534        -4.4500   21-A2
  97   1.0000      -0.137494        -3.7414   24-B1
  98   1.0000      -0.135119        -3.6768   22-A2
  99   1.0000      -0.135000        -3.6735   29-A1
 100   1.0000      -0.129640        -3.5277   30-A1
 101   1.0000      -0.129414        -3.5215   26-B2
 102   1.0000      -0.108972        -2.9653   27-B2
 103   1.0000      -0.080864        -2.2004   31-A1
 104   1.0000      -0.070214        -1.9106   25-B1
 105   1.0000      -0.060407        -1.6438   28-B2
 106   1.0000      -0.054235        -1.4758   23-A2
 107   1.0000      -0.047349        -1.2884   29-B2
 108   1.0000      -0.047155        -1.2831   32-A1
 109   1.0000      -0.030466        -0.8290   26-B1
 110   1.0000      -0.025551        -0.6953   24-A2
 111   1.0000      -0.022961        -0.6248   33-A1
 112   1.0000      -0.001935        -0.0527   25-A2
 113   1.0000       0.007925         0.2156   27-B1
 114   1.0000       0.010206         0.2777   30-B2
 115   1.0000       0.011086         0.3017   34-A1
 116   1.0000       0.029217         0.7950   31-B2
 117   1.0000       0.032218         0.8767   35-A1
 118   1.0000       0.052217         1.4209   28-B1
 119   1.0000       0.057100         1.5538   26-A2
 120   1.0000       0.059893         1.6298   29-B1
 121   1.0000       0.072146         1.9632   36-A1
 122   1.0000       0.102581         2.7914   32-B2
 123   0.0000       0.146130         3.9764   27-A2
 124   0.0000       0.184073         5.0089   33-B2
 125   0.0000       0.184219         5.0129   37-A1
 126   0.0000       0.199510         5.4289   28-A2
 127   0.0000       0.200021         5.4428   30-B1

MULLIKEN ATOMIC CHARGES AND SPIN POPULATIONS
--------------------------------------------
   0 Cu:    0.638066    0.310832
   1 Se:   -0.734265    0.173280
   2 C :    0.222883   -0.003165
   3 Se:   -0.734265    0.173280
   4 C :    0.222883   -0.003165
   5 Se:   -0.734265    0.173280
   6 C :    0.222883   -0.003165
   7 Se:   -0.734265    0.173280
   8 C :    0.222883   -0.003165
   9 C :   -0.105072   -0.001550
  10 C :   -0.105072   -0.001550
  11 C :   -0.155596   -0.000652
  12 H :    0.092498    0.002780
  13 C :   -0.155596   -0.000652
  14 H :    0.092498    0.002780
  15 H :    0.020036    0.001598
  16 H :    0.020036    0.001598
  17 C :   -0.105072   -0.001550
  18 C :   -0.105072   -0.001550
  19 C :   -0.155596   -0.000652
  20 H :    0.092498    0.002780
  21 C :   -0.155596   -0.000652
  22 H :    0.092498    0.002780
  23 H :    0.020036    0.001598
  24 H :    0.020036    0.001598
Sum of atomic charges         :   -2.0000000

LOEWDIN ATOMIC CHARGES AND SPIN POPULATIONS
-------------------------------------------
   0 Cu:   -0.616595    0.390996
   1 Se:   -0.202834    0.123374
   2 C :    0.039086    0.011778
   3 Se:   -0.202834    0.123374
   4 C :    0.039086    0.011778
   5 Se:   -0.202834    0.123374
   6 C :    0.039086    0.011778
   7 Se:   -0.202834    0.123374
   8 C :    0.039086    0.011778
   9 C :    0.371354    0.006857
  10 C :    0.371354    0.006857
  11 C :    0.318877    0.000452
  12 H :   -0.460772    0.009395
  13 C :    0.318877    0.000452
  14 H :   -0.460772    0.009395
  15 H :   -0.411561    0.000396
  16 H :   -0.411561    0.000396
  17 C :    0.371354    0.006857
  18 C :    0.371354    0.006857
  19 C :    0.318877    0.000452
  20 H :   -0.460772    0.009395
  21 C :    0.318877    0.000452
  22 H :   -0.460772    0.009395
  23 H :   -0.411561    0.000396
  24 H :   -0.411561    0.000396

  Mayer bond orders larger than 0.100000
B(  0-Cu,  1-Se) :   0.5507 B(  0-Cu,  3-Se) :   0.5507 B(  0-Cu,  5-Se) :   0.5507
B(  0-Cu,  7-Se) :   0.5507 B(  1-Se,  2-C ) :   1.0374 B(  2-C ,  6-C ) :   1.1339
B(  2-C , 17-C ) :   1.2581 B(  3-Se,  4-C ) :   1.0374 B(  4-C ,  8-C ) :   1.1339
B(  4-C , 10-C ) :   1.2581 B(  5-Se,  6-C ) :   1.0374 B(  6-C , 18-C ) :   1.2581
B(  7-Se,  8-C ) :   1.0374 B(  8-C ,  9-C ) :   1.2581 B(  9-C , 13-C ) :   1.3786
B(  9-C , 14-H ) :   0.9598 B( 10-C , 11-C ) :   1.3786 B( 10-C , 12-H ) :   0.9598
B( 11-C , 13-C ) :   1.3128 B( 11-C , 15-H ) :   0.9960 B( 13-C , 16-H ) :   0.9960
B( 17-C , 19-C ) :   1.3786 B( 17-C , 20-H ) :   0.9598 B( 18-C , 21-C ) :   1.3786
B( 18-C , 22-H ) :   0.9598 B( 19-C , 21-C ) :   1.3128 B( 19-C , 23-H ) :   0.9960
B( 21-C , 24-H ) :   0.9960

FINAL SINGLE POINT ENERGY    -11627.147142270678

DIPOLE MOMENT
-------------
                                X             Y             Z
Electronic contribution:     -0.00000       0.00000       3.17456
Nuclear contribution   :     -0.00000       0.00000      -3.12372
                        -----------------------------------------
Total Dipole Moment    :     -0.00000       0.00000       0.05085
                        -----------------------------------------
Magnitude (a.u.)       :      0.05085
Magnitude (Debye)      :      0.12924

Rotational constants in cm-1:     0.017562     0.004095     0.003325
Rotational constants in MHz :   526.484030   122.763453    99.666041

                             ****ORCA TERMINATED NORMALLY****
TOTAL RUN TIME: 0 days 17 hours 14 minutes 17 seconds 719 msec
