                         Program Version 5.0.4 -  RELEASE  -
|  1> ! RIJCOSX nofrozencore ReducedPop printbasis
|  2> ! M06L ano-rcc-dzp autoaux
|  3>
|  4> %maxcore 7500
|  5> %basis
|  6> PCDTrimBas overlap
|  7> PCDTrimAuxJ Coulomb
|  8> PCDTrimAuxJK Coulomb
|  9> PCDTrimAuxC Coulomb
| 10> PCDThresh -1
| 11> end
| 12>
| 13> %basis
| 14> newgto Cu "ano-rcc-tzp" end
| 15> newgto Se "ano-rcc-tzp" end
| 16> end
| 17>
| 18> %pal
| 19> nprocs 8
| 20> end
| 21>
| 22> % sym SymThresh 1e-2 end
| 23> * xyz -2 2
| 24> Cu 6.526197132368285e-06 6.811926568375318e-06 -5.657420562105174e-06
| 25> Se 1.9072418577087857 -1.0684457797226095 0.9104016737328006
| 26> C 2.2363829435609905 -2.288870707630659 -0.13043050691385086
| 27> Se -0.20528932782576256 1.6188886179284596 1.7161106653757874
| 28> C -1.4914900788522916 2.531262600957209 1.2750241224331924
| 29> Se 0.20514159845431168 -1.6190428151753256 -1.7159826019466997
| 30> C 1.4936045667231788 -2.529055536749055 -1.2768571266953144
| 31> Se -1.9073878072082915 1.0682934402738986 -0.9102751532365935
| 32> C -2.2342761684685324 2.291069721380141 0.12860418869421128
| 33> C -3.338991675952264 3.109805248210474 -0.0837600639092278
| 34> C -1.926392240612148 3.566581953188445 2.096493573088599
| 35> C -2.9853653779524802 4.4143206255082825 1.8492908325819966
| 36> H -1.3944975150331973 3.693705380161405 3.0319128554913855
| 37> C -3.729357441234589 4.173432410054686 0.7020268748291123
| 38> H -3.963885861243541 2.862878639716612 -0.9337947240742532
| 39> H -3.2654613162172765 5.170047274155344 2.579344411225539
| 40> H -4.635850715218862 4.726196207960234 0.4666592917440448
| 41> C 3.3380121607291575 -3.1108290415545343 0.08460947671603114
| 42> C 1.9254364493775802 -3.567579590797686 -2.0956650181317307
| 43> C 3.7302657768546816 -4.172485698822331 -0.702813999497638
| 44> H 3.9560556189033926 -2.8710530981593108 0.9405828855383864
| 45> C 2.9862363209869303 -4.413410157851679 -1.850046126483085
| 46> H 1.3867147283075238 -3.7018289122272185 -3.0251661243155947
| 47> H 4.630735363248382 -4.7315355198577365 -0.46222490264527477
| 48> H 3.260297364444166 -5.175435534770267 -2.5748694748426777
| 49> *
| 50>
| 51> % eprnmr
| 52> gtensor true
| 53> Nuclei = all H {aiso,adip,aorb,fgrad,rho}
| 54> Nuclei = all Cu {aiso,adip,aorb,fgrad,rho}
| 55> end
| 56>
| 57>                          ****END OF INPUT****

CARTESIAN COORDINATES (ANGSTROEM)
---------------------------------
  Cu     0.000000    0.000000    0.000000
  Se     1.179909   -1.300479    1.588883
  C      2.079793   -2.334732    0.693488
  Se    -1.179863    1.300521    1.588883
  C     -2.079923    2.334614    0.693488
  Se     1.179863   -1.300521   -1.588883
  C      2.079923   -2.334614   -0.693488
  Se    -1.179909    1.300479   -1.588883
  C     -2.079793    2.334732   -0.693488
  C     -2.940689    3.231054   -1.318862
  C     -2.940963    3.230805    1.318862
  C     -3.749320    4.156819    0.694220
  H     -2.995561    3.170365    2.398900
  C     -3.749745    4.156434   -0.694220
  H     -2.995045    3.170832   -2.398898
  H     -4.413727    4.788479    1.278516
  H     -4.414760    4.787544   -1.278516
  C      2.940689   -3.231054    1.318862
  C      2.940963   -3.230805   -1.318862
  C      3.749745   -4.156434    0.694220
  H      2.995045   -3.170832    2.398898
  C      3.749320   -4.156819   -0.694220
  H      2.995561   -3.170365   -2.398900
  H      4.414760   -4.787544    1.278516
  H      4.413727   -4.788479   -1.278516

 Total Charge           Charge          ....   -2
 Multiplicity           Mult            ....    2
 Number of Electrons    NEL             ....  247
 Basis Dimension        Dim             ....  575

ORBITAL ENERGIES
----------------
                 SPIN UP ORBITALS
  NO   OCC          E(Eh)            E(eV)    Irrep
   0   1.0000    -443.561351    -12069.9180    1-Au
   1   1.0000    -443.560270    -12069.8886    1-Ag
   2   1.0000    -443.546562    -12069.5156    2-Ag
   3   1.0000    -443.546502    -12069.5139    2-Au
   4   1.0000    -318.186771     -8658.3022    3-Ag
   5   1.0000     -56.369908     -1533.9032    3-Au
   6   1.0000     -56.369618     -1533.8953    4-Ag
   7   1.0000     -56.356860     -1533.5481    5-Ag
   8   1.0000     -56.356594     -1533.5409    4-Au
   9   1.0000     -51.285980     -1395.5625    6-Ag
  10   1.0000     -51.285915     -1395.5607    5-Au
  11   1.0000     -51.285911     -1395.5606    6-Au
  12   1.0000     -51.285881     -1395.5598    7-Ag
  13   1.0000     -51.284614     -1395.5253    8-Ag
  14   1.0000     -51.284607     -1395.5251    7-Au
  15   1.0000     -51.284570     -1395.5241    8-Au
  16   1.0000     -51.284535     -1395.5232    9-Ag
  17   1.0000     -51.284183     -1395.5136    9-Au
  18   1.0000     -51.284154     -1395.5128   10-Ag
  19   1.0000     -51.284137     -1395.5123   11-Ag
  20   1.0000     -51.284102     -1395.5114   10-Au
  21   1.0000     -38.027334     -1034.7764   12-Ag
  22   1.0000     -33.529402      -912.3814   11-Au
  23   1.0000     -33.528605      -912.3597   12-Au
  24   1.0000     -33.517388      -912.0545   13-Au
  25   1.0000      -9.816046      -267.1082   14-Au
  26   1.0000      -9.816046      -267.1082   13-Ag
  27   1.0000      -9.815598      -267.0960   14-Ag
  28   1.0000      -9.815598      -267.0960   15-Au
  29   1.0000      -9.808488      -266.9025   16-Au
  30   1.0000      -9.808481      -266.9023   15-Ag
  31   1.0000      -9.808038      -266.8903   16-Ag
  32   1.0000      -9.808035      -266.8902   17-Au
  33   1.0000      -9.806688      -266.8535   18-Au
  34   1.0000      -9.806688      -266.8535   17-Ag
  35   1.0000      -9.806677      -266.8533   18-Ag
  36   1.0000      -9.806677      -266.8532   19-Au
  37   1.0000      -7.340919      -199.7566   20-Au
  38   1.0000      -7.340874      -199.7553   19-Ag
  39   1.0000      -7.333579      -199.5568   20-Ag
  40   1.0000      -7.333466      -199.5537   21-Au
  41   1.0000      -5.403806      -147.0450   21-Ag
  42   1.0000      -5.403778      -147.0443   22-Au
  43   1.0000      -5.403765      -147.0439   23-Au
  44   1.0000      -5.403756      -147.0437   22-Ag
  45   1.0000      -5.398451      -146.8993   23-Ag
  46   1.0000      -5.398447      -146.8992   24-Au
  47   1.0000      -5.398433      -146.8988   25-Au
  48   1.0000      -5.398415      -146.8983   24-Ag
  49   1.0000      -5.398093      -146.8896   26-Au
  50   1.0000      -5.398075      -146.8891   25-Ag
  51   1.0000      -5.398068      -146.8889   26-Ag
  52   1.0000      -5.398048      -146.8884   27-Au
  53   1.0000      -4.021654      -109.4348   27-Ag
  54   1.0000      -2.541246       -69.1508   28-Au
  55   1.0000      -2.540292       -69.1249   29-Au
  56   1.0000      -2.516685       -68.4825   30-Au
  57   1.0000      -1.742822       -47.4246   28-Ag
  58   1.0000      -1.742808       -47.4242   31-Au
  59   1.0000      -1.742793       -47.4238   32-Au
  60   1.0000      -1.742780       -47.4235   29-Ag
  61   1.0000      -1.740114       -47.3509   30-Ag
  62   1.0000      -1.740095       -47.3504   33-Au
  63   1.0000      -1.740028       -47.3486   34-Au
  64   1.0000      -1.740017       -47.3483   31-Ag
  65   1.0000      -1.739323       -47.3294   35-Au
  66   1.0000      -1.739321       -47.3293   32-Ag
  67   1.0000      -1.739316       -47.3292   33-Ag
  68   1.0000      -1.739314       -47.3291   36-Au
  69   1.0000      -1.735000       -47.2118   34-Ag
  70   1.0000      -1.734993       -47.2116   37-Au
  71   1.0000      -1.734938       -47.2101   35-Ag
  72   1.0000      -1.734936       -47.2100   38-Au
  73   1.0000      -1.734924       -47.2097   39-Au
  74   1.0000      -1.734923       -47.2097   36-Ag
  75   1.0000      -1.734892       -47.2088   37-Ag
  76   1.0000      -1.734892       -47.2088   40-Au
  77   1.0000      -0.602554       -16.3963   38-Ag
  78   1.0000      -0.602351       -16.3908   41-Au
  79   1.0000      -0.521542       -14.1919   39-Ag
  80   1.0000      -0.520805       -14.1718   42-Au
  81   1.0000      -0.499080       -13.5807   43-Au
  82   1.0000      -0.498842       -13.5742   40-Ag
  83   1.0000      -0.412912       -11.2359   44-Au
  84   1.0000      -0.411778       -11.2051   41-Ag
  85   1.0000      -0.383244       -10.4286   42-Ag
  86   1.0000      -0.378711       -10.3053   45-Au
  87   1.0000      -0.320488        -8.7209   43-Ag
  88   1.0000      -0.318211        -8.6590   46-Au
  89   1.0000      -0.287206        -7.8153   47-Au
  90   1.0000      -0.283997        -7.7280   44-Ag
  91   1.0000      -0.229781        -6.2527   45-Ag
  92   1.0000      -0.223139        -6.0719   48-Au
  93   1.0000      -0.200370        -5.4523   46-Ag
  94   1.0000      -0.199364        -5.4250   49-Au
  95   1.0000      -0.170107        -4.6288   50-Au
  96   1.0000      -0.165292        -4.4978   47-Ag
  97   1.0000      -0.138564        -3.7705   51-Au
  98   1.0000      -0.136902        -3.7253   48-Ag
  99   1.0000      -0.136716        -3.7202   49-Ag
 100   1.0000      -0.130471        -3.5503   52-Au
 101   1.0000      -0.130236        -3.5439   50-Ag
 102   1.0000      -0.110500        -3.0069   53-Au
 103   1.0000      -0.082027        -2.2321   51-Ag
 104   1.0000      -0.071437        -1.9439   54-Au
 105   1.0000      -0.065681        -1.7873   52-Ag
 106   1.0000      -0.062536        -1.7017   55-Au
 107   1.0000      -0.048616        -1.3229   53-Ag
 108   1.0000      -0.047795        -1.3006   56-Au
 109   1.0000      -0.032954        -0.8967   54-Ag
 110   1.0000      -0.029744        -0.8094   55-Ag
 111   1.0000      -0.029269        -0.7964   56-Ag
 112   1.0000      -0.026630        -0.7246   57-Au
 113   1.0000      -0.001586        -0.0432   57-Ag
 114   1.0000      -0.000815        -0.0222   58-Ag
 115   1.0000       0.000832         0.0226   59-Ag
 116   1.0000       0.019474         0.5299   60-Ag
 117   1.0000       0.021248         0.5782   58-Au
 118   1.0000       0.040976         1.1150   59-Au
 119   1.0000       0.055236         1.5030   60-Au
 120   1.0000       0.056189         1.5290   61-Ag
 121   1.0000       0.070585         1.9207   61-Au
 122   1.0000       0.099471         2.7068   62-Ag
 123   1.0000       0.116464         3.1691   63-Ag
 124   0.0000       0.182084         4.9547   62-Au
 125   0.0000       0.182225         4.9586   64-Ag
 126   0.0000       0.196201         5.3389   65-Ag
 127   0.0000       0.196634         5.3507   63-Au
 128   0.0000       0.201888         5.4937   64-Au

                 SPIN DOWN ORBITALS
  NO   OCC          E(Eh)            E(eV)    Irrep
   0   1.0000    -443.560898    -12069.9057    1-Au
   1   1.0000    -443.559817    -12069.8762    1-Ag
   2   1.0000    -443.546109    -12069.5032    2-Ag
   3   1.0000    -443.546049    -12069.5016    2-Au
   4   1.0000    -318.186648     -8658.2989    3-Ag
   5   1.0000     -56.369724     -1533.8982    3-Au
   6   1.0000     -56.369435     -1533.8903    4-Ag
   7   1.0000     -56.356679     -1533.5432    5-Ag
   8   1.0000     -56.356413     -1533.5360    4-Au
   9   1.0000     -51.285659     -1395.5537    6-Ag
  10   1.0000     -51.285589     -1395.5518    5-Au
  11   1.0000     -51.285585     -1395.5517    6-Au
  12   1.0000     -51.285551     -1395.5508    7-Ag
  13   1.0000     -51.283934     -1395.5068    7-Au
  14   1.0000     -51.283904     -1395.5060    8-Ag
  15   1.0000     -51.283888     -1395.5055    9-Ag
  16   1.0000     -51.283876     -1395.5052   10-Ag
  17   1.0000     -51.283871     -1395.5051    8-Au
  18   1.0000     -51.283855     -1395.5046    9-Au
  19   1.0000     -51.283839     -1395.5042   10-Au
  20   1.0000     -51.283807     -1395.5033   11-Ag
  21   1.0000     -38.013393     -1034.3970   12-Ag
  22   1.0000     -33.516155      -912.0209   11-Au
  23   1.0000     -33.515359      -911.9993   12-Au
  24   1.0000     -33.513494      -911.9485   13-Au
  25   1.0000      -9.815995      -267.1068   14-Au
  26   1.0000      -9.815995      -267.1068   13-Ag
  27   1.0000      -9.815547      -267.0946   14-Ag
  28   1.0000      -9.815547      -267.0946   15-Au
  29   1.0000      -9.808506      -266.9030   16-Au
  30   1.0000      -9.808500      -266.9029   15-Ag
  31   1.0000      -9.808054      -266.8907   16-Ag
  32   1.0000      -9.808051      -266.8906   17-Au
  33   1.0000      -9.806569      -266.8503   18-Au
  34   1.0000      -9.806568      -266.8503   17-Ag
  35   1.0000      -9.806559      -266.8500   18-Ag
  36   1.0000      -9.806558      -266.8500   19-Au
  37   1.0000      -7.340518      -199.7456   20-Au
  38   1.0000      -7.340476      -199.7445   19-Ag
  39   1.0000      -7.333173      -199.5458   20-Ag
  40   1.0000      -7.333059      -199.5427   21-Au
  41   1.0000      -5.403442      -147.0351   21-Ag
  42   1.0000      -5.403413      -147.0344   22-Au
  43   1.0000      -5.403401      -147.0340   23-Au
  44   1.0000      -5.403391      -147.0337   22-Ag
  45   1.0000      -5.397780      -146.8811   24-Au
  46   1.0000      -5.397763      -146.8806   23-Ag
  47   1.0000      -5.397755      -146.8804   24-Ag
  48   1.0000      -5.397735      -146.8798   25-Au
  49   1.0000      -5.397626      -146.8769   25-Ag
  50   1.0000      -5.397623      -146.8768   26-Au
  51   1.0000      -5.397609      -146.8764   27-Au
  52   1.0000      -5.397590      -146.8759   26-Ag
  53   1.0000      -3.993297      -108.6631   27-Ag
  54   1.0000      -2.506326       -68.2006   28-Au
  55   1.0000      -2.505851       -68.1877   29-Au
  56   1.0000      -2.504815       -68.1595   30-Au
  57   1.0000      -1.742371       -47.4123   28-Ag
  58   1.0000      -1.742357       -47.4120   31-Au
  59   1.0000      -1.742341       -47.4115   32-Au
  60   1.0000      -1.742329       -47.4112   29-Ag
  61   1.0000      -1.739225       -47.3267   30-Ag
  62   1.0000      -1.739207       -47.3262   33-Au
  63   1.0000      -1.739138       -47.3244   34-Au
  64   1.0000      -1.739127       -47.3241   31-Ag
  65   1.0000      -1.739012       -47.3209   35-Au
  66   1.0000      -1.739010       -47.3209   32-Ag
  67   1.0000      -1.739003       -47.3207   33-Ag
  68   1.0000      -1.739001       -47.3206   36-Au
  69   1.0000      -1.734200       -47.1900   34-Ag
  70   1.0000      -1.734194       -47.1898   37-Au
  71   1.0000      -1.734154       -47.1887   35-Ag
  72   1.0000      -1.734154       -47.1887   38-Au
  73   1.0000      -1.734148       -47.1886   36-Ag
  74   1.0000      -1.734146       -47.1885   39-Au
  75   1.0000      -1.734108       -47.1875   37-Ag
  76   1.0000      -1.734106       -47.1874   40-Au
  77   1.0000      -0.601744       -16.3743   38-Ag
  78   1.0000      -0.601555       -16.3691   41-Au
  79   1.0000      -0.520396       -14.1607   39-Ag
  80   1.0000      -0.519694       -14.1416   42-Au
  81   1.0000      -0.497379       -13.5344   43-Au
  82   1.0000      -0.497157       -13.5283   40-Ag
  83   1.0000      -0.410230       -11.1629   44-Au
  84   1.0000      -0.409072       -11.1314   41-Ag
  85   1.0000      -0.380749       -10.3607   42-Ag
  86   1.0000      -0.376400       -10.2424   45-Au
  87   1.0000      -0.318746        -8.6735   43-Ag
  88   1.0000      -0.316309        -8.6072   46-Au
  89   1.0000      -0.284822        -7.7504   47-Au
  90   1.0000      -0.281351        -7.6560   44-Ag
  91   1.0000      -0.228657        -6.2221   45-Ag
  92   1.0000      -0.222071        -6.0429   48-Au
  93   1.0000      -0.199062        -5.4168   46-Ag
  94   1.0000      -0.198134        -5.3915   49-Au
  95   1.0000      -0.168693        -4.5904   50-Au
  96   1.0000      -0.163241        -4.4420   47-Ag
  97   1.0000      -0.137689        -3.7467   51-Au
  98   1.0000      -0.135211        -3.6793   48-Ag
  99   1.0000      -0.134770        -3.6673   49-Ag
 100   1.0000      -0.130098        -3.5401   52-Au
 101   1.0000      -0.129831        -3.5329   50-Ag
 102   1.0000      -0.108757        -2.9594   53-Au
 103   1.0000      -0.080667        -2.1951   51-Ag
 104   1.0000      -0.069999        -1.9048   54-Au
 105   1.0000      -0.060341        -1.6420   55-Au
 106   1.0000      -0.054102        -1.4722   52-Ag
 107   1.0000      -0.047456        -1.2913   53-Ag
 108   1.0000      -0.047234        -1.2853   56-Au
 109   1.0000      -0.030498        -0.8299   54-Ag
 110   1.0000      -0.025655        -0.6981   57-Au
 111   1.0000      -0.022846        -0.6217   55-Ag
 112   1.0000      -0.001882        -0.0512   56-Ag
 113   1.0000       0.008085         0.2200   57-Ag
 114   1.0000       0.010385         0.2826   58-Ag
 115   1.0000       0.011244         0.3060   59-Ag
 116   1.0000       0.029428         0.8008   58-Au
 117   1.0000       0.032365         0.8807   60-Ag
 118   1.0000       0.052043         1.4162   59-Au
 119   1.0000       0.057293         1.5590   60-Au
 120   1.0000       0.059820         1.6278   61-Ag
 121   1.0000       0.072307         1.9676   61-Au
 122   1.0000       0.102733         2.7955   62-Ag
 123   0.0000       0.146411         3.9841   63-Ag
 124   0.0000       0.184014         5.0073   62-Au
 125   0.0000       0.184175         5.0117   64-Ag
 126   0.0000       0.199511         5.4290   65-Ag
 127   0.0000       0.200039         5.4433   63-Au

MULLIKEN ATOMIC CHARGES AND SPIN POPULATIONS
--------------------------------------------
   0 Cu:    0.637993    0.310895
   1 Se:   -0.732765    0.173311
   2 C :    0.220872   -0.003154
   3 Se:   -0.732760    0.173313
   4 C :    0.220875   -0.003151
   5 Se:   -0.732760    0.173313
   6 C :    0.220875   -0.003151
   7 Se:   -0.732765    0.173311
   8 C :    0.220872   -0.003154
   9 C :   -0.099415   -0.001492
  10 C :   -0.099335   -0.001493
  11 C :   -0.156472   -0.000700
  12 H :    0.088748    0.002698
  13 C :   -0.156320   -0.000700
  14 H :    0.088807    0.002697
  15 H :    0.019420    0.001612
  16 H :    0.019349    0.001612
  17 C :   -0.099415   -0.001492
  18 C :   -0.099335   -0.001493
  19 C :   -0.156320   -0.000700
  20 H :    0.088807    0.002697
  21 C :   -0.156472   -0.000700
  22 H :    0.088748    0.002698
  23 H :    0.019349    0.001612
  24 H :    0.019420    0.001612
Sum of atomic charges         :   -2.0000000

LOEWDIN ATOMIC CHARGES AND SPIN POPULATIONS
-------------------------------------------
   0 Cu:   -0.615761    0.391407
   1 Se:   -0.203132    0.123195
   2 C :    0.038124    0.011771
   3 Se:   -0.203142    0.123196
   4 C :    0.038111    0.011772
   5 Se:   -0.203142    0.123196
   6 C :    0.038111    0.011772
   7 Se:   -0.203132    0.123195
   8 C :    0.038124    0.011771
   9 C :    0.369373    0.006946
  10 C :    0.369387    0.006945
  11 C :    0.317679    0.000461
  12 H :   -0.457156    0.009374
  13 C :    0.317663    0.000462
  14 H :   -0.457196    0.009376
  15 H :   -0.410950    0.000398
  16 H :   -0.410880    0.000399
  17 C :    0.369373    0.006946
  18 C :    0.369387    0.006945
  19 C :    0.317663    0.000462
  20 H :   -0.457196    0.009376
  21 C :    0.317679    0.000461
  22 H :   -0.457156    0.009374
  23 H :   -0.410880    0.000399
  24 H :   -0.410950    0.000398

  Mayer bond orders larger than 0.100000
B(  0-Cu,  1-Se) :   0.5505 B(  0-Cu,  3-Se) :   0.5505 B(  0-Cu,  5-Se) :   0.5505
B(  0-Cu,  7-Se) :   0.5505 B(  1-Se,  2-C ) :   1.0400 B(  2-C ,  6-C ) :   1.1347
B(  2-C , 17-C ) :   1.2567 B(  3-Se,  4-C ) :   1.0400 B(  4-C ,  8-C ) :   1.1347
B(  4-C , 10-C ) :   1.2567 B(  5-Se,  6-C ) :   1.0400 B(  6-C , 18-C ) :   1.2567
B(  7-Se,  8-C ) :   1.0400 B(  8-C ,  9-C ) :   1.2567 B(  9-C , 13-C ) :   1.3793
B(  9-C , 14-H ) :   0.9615 B( 10-C , 11-C ) :   1.3793 B( 10-C , 12-H ) :   0.9615
B( 11-C , 13-C ) :   1.3124 B( 11-C , 15-H ) :   0.9968 B( 13-C , 16-H ) :   0.9969
B( 17-C , 19-C ) :   1.3793 B( 17-C , 20-H ) :   0.9615 B( 18-C , 21-C ) :   1.3793
B( 18-C , 22-H ) :   0.9615 B( 19-C , 21-C ) :   1.3124 B( 19-C , 23-H ) :   0.9969
B( 21-C , 24-H ) :   0.9968

FINAL SINGLE POINT ENERGY    -11627.145016706101

DIPOLE MOMENT
-------------
                                X             Y             Z
Electronic contribution:      0.00000      -0.00000      -0.00000
Nuclear contribution   :     -0.00000      -0.00000      -0.00000
                        -----------------------------------------
Total Dipole Moment    :      0.00000      -0.00000      -0.00000
                        -----------------------------------------
Magnitude (a.u.)       :      0.00000
Magnitude (Debye)      :      0.00000

Rotational constants in cm-1:     0.017614     0.004098     0.003325
Rotational constants in MHz :   528.050728   122.848436    99.666038

                             ****ORCA TERMINATED NORMALLY****
TOTAL RUN TIME: 0 days 16 hours 41 minutes 57 seconds 422 msec
