                         Program Version 5.0.4 -  RELEASE  -
|  1> ! RIJCOSX nofrozencore ReducedPop printbasis
|  2> ! M06L ano-rcc-dzp autoaux
|  3>
|  4> %maxcore 7500
|  5> %basis
|  6> PCDTrimBas overlap
|  7> PCDTrimAuxJ Coulomb
|  8> PCDTrimAuxJK Coulomb
|  9> PCDTrimAuxC Coulomb
| 10> PCDThresh -1
| 11> end
| 12>
| 13> %basis
| 14> newgto Cu "ano-rcc-tzp" end
| 15> newgto Se "ano-rcc-tzp" end
| 16> end
| 17>
| 18> %pal
| 19> nprocs 8
| 20> end
| 21>
| 22> % sym SymThresh 1e-2 end
| 23> * xyz -2 2
| 24> Cu -0.00010161016274942407 -0.00010944905935627344 2.229973614333775e-05
| 25> Se 1.2374069691115472 -0.7906982190698263 1.8579064765840554
| 26> C 0.6966556477116254 0.0982818493082684 3.1253745898554373
| 27> Se 1.11062735369494 -1.3360614437426306 -1.609254022838822
| 28> C 0.3213542061030329 -1.033878285375949 -3.015350504988927
| 29> Se -1.109436294171321 1.3373443896701842 1.608992628580718
| 30> C -0.32765470910848227 1.0270917188676523 3.0167332363101855
| 31> Se -1.2362159095879282 0.7919811649973799 -1.8581678708421594
| 32> C -0.7029500944822088 -0.1050618923626961 -3.1239931876575247
| 33> C -1.2381619180876748 0.0901066070828417 -4.393135595431407
| 34> C 0.709812040563058 -1.67632857328814 -4.186514896644159
| 35> C 0.3407205907548563 -1.3017540791314581 -5.478751677156054
| 36> H 1.48036025999903 -2.427812869560136 -4.087852983290345
| 37> C -0.6846688979468535 -0.3719614816040016 -5.58750716274272
| 38> H -2.0628075093691773 0.7852195710089983 -4.463685878292465
| 39> H 0.8312546729576471 -1.735877105582587 -6.355705594346334
| 40> H -1.0571837913748918 -0.02354165674531656 -6.555992920472145
| 41> C 1.2296199773877663 -0.09930741457664786 4.395011235999632
| 42> C -0.7184098753276235 1.6670674432789008 4.188401808754778
| 43> C 0.691511812551184 0.3793324214218675 5.586006386970247
| 44> H 2.0515301692548555 -0.797366805166932 4.466161839572098
| 45> C -0.3339107332265837 1.309089178818754 5.477256165864869
| 46> H -1.4917762627211755 2.415516159017228 4.090358380798105
| 47> H 1.0742516070568546 0.041926199404339864 6.5522471555215525
| 48> H -0.8142226294954396 1.7542244650670826 6.35196644451674
| 49> *
| 50>
| 51> % eprnmr
| 52> gtensor true
| 53> Nuclei = all H {aiso,adip,aorb,fgrad,rho}
| 54> Nuclei = all Cu {aiso,adip,aorb,fgrad,rho}
| 55> end
| 56>
| 57>                          ****END OF INPUT****

CARTESIAN COORDINATES (ANGSTROEM)
---------------------------------
  Cu    -0.000148    0.000028   -0.000000
  Se     0.306936    1.728999    1.588883
  C      0.649622    3.059415    0.693488
  Se    -0.305196   -1.729323    1.588883
  C     -0.658822   -3.057702    0.693488
  Se     0.306936    1.728999   -1.588883
  C      0.649622    3.059415   -0.693488
  Se    -0.305196   -1.729323   -1.588883
  C     -0.658822   -3.057702   -0.693488
  C     -0.917031   -4.273227   -1.318862
  C     -0.917031   -4.273227    1.318862
  C     -0.931728   -5.520626    0.694220
  H     -0.955556   -4.257753    2.398899
  C     -0.931728   -5.520626   -0.694220
  H     -0.955556   -4.257753   -2.398899
  H     -0.956646   -6.445888    1.278515
  H     -0.956646   -6.445888   -1.278515
  C      0.904511    4.275559    1.318862
  C      0.904511    4.275559   -1.318862
  C      0.941701    5.518768    0.694220
  H      0.938979    4.260840    2.398899
  C      0.941701    5.518768   -0.694220
  H      0.938979    4.260840   -2.398899
  H      0.981556    6.441248    1.278516
  H      0.981556    6.441248   -1.278516

 Total Charge           Charge          ....   -2
 Multiplicity           Mult            ....    2
 Number of Electrons    NEL             ....  247
 Basis Dimension        Dim             ....  575

ORBITAL ENERGIES
----------------
                 SPIN UP ORBITALS
  NO   OCC          E(Eh)            E(eV)    Irrep
   0   1.0000    -443.561178    -12069.9133    1-A"
   1   1.0000    -443.560073    -12069.8832    2-A"
   2   1.0000    -443.546786    -12069.5217    1-A'
   3   1.0000    -443.546622    -12069.5172    2-A'
   4   1.0000    -318.187359     -8658.3182    3-A'
   5   1.0000     -56.370130     -1533.9092    3-A"
   6   1.0000     -56.369787     -1533.8999    4-A"
   7   1.0000     -56.357362     -1533.5618    4-A'
   8   1.0000     -56.357088     -1533.5543    5-A'
   9   1.0000     -51.286636     -1395.5803    5-A"
  10   1.0000     -51.286574     -1395.5786    6-A'
  11   1.0000     -51.286565     -1395.5784    6-A"
  12   1.0000     -51.286533     -1395.5775    7-A'
  13   1.0000     -51.285266     -1395.5430    7-A"
  14   1.0000     -51.285238     -1395.5423    8-A"
  15   1.0000     -51.285216     -1395.5417    8-A'
  16   1.0000     -51.285172     -1395.5405    9-A'
  17   1.0000     -51.284830     -1395.5312    9-A"
  18   1.0000     -51.284788     -1395.5300   10-A"
  19   1.0000     -51.284783     -1395.5299   10-A'
  20   1.0000     -51.284738     -1395.5287   11-A'
  21   1.0000     -38.027903     -1034.7918   12-A'
  22   1.0000     -33.529929      -912.3958   11-A"
  23   1.0000     -33.529203      -912.3760   13-A'
  24   1.0000     -33.518017      -912.0716   14-A'
  25   1.0000      -9.818881      -267.1853   15-A'
  26   1.0000      -9.818434      -267.1732   12-A"
  27   1.0000      -9.818381      -267.1717   16-A'
  28   1.0000      -9.817934      -267.1596   13-A"
  29   1.0000      -9.809633      -266.9337   17-A'
  30   1.0000      -9.809490      -266.9298   18-A'
  31   1.0000      -9.809188      -266.9216   14-A"
  32   1.0000      -9.809044      -266.9177   15-A"
  33   1.0000      -9.808024      -266.8899   19-A'
  34   1.0000      -9.808017      -266.8897   16-A"
  35   1.0000      -9.807808      -266.8840   20-A'
  36   1.0000      -9.807802      -266.8839   17-A"
  37   1.0000      -7.341519      -199.7729   18-A"
  38   1.0000      -7.341443      -199.7708   19-A"
  39   1.0000      -7.334286      -199.5761   21-A'
  40   1.0000      -7.334177      -199.5731   22-A'
  41   1.0000      -5.404634      -147.0676   20-A"
  42   1.0000      -5.404609      -147.0669   23-A'
  43   1.0000      -5.404589      -147.0663   21-A"
  44   1.0000      -5.404578      -147.0661   24-A'
  45   1.0000      -5.399285      -146.9220   22-A"
  46   1.0000      -5.399269      -146.9216   23-A"
  47   1.0000      -5.399264      -146.9214   25-A'
  48   1.0000      -5.399241      -146.9208   26-A'
  49   1.0000      -5.398856      -146.9103   24-A"
  50   1.0000      -5.398838      -146.9099   25-A"
  51   1.0000      -5.398830      -146.9096   27-A'
  52   1.0000      -5.398811      -146.9091   28-A'
  53   1.0000      -4.022221      -109.4502   29-A'
  54   1.0000      -2.541718       -69.1637   26-A"
  55   1.0000      -2.540895       -69.1413   30-A'
  56   1.0000      -2.517338       -68.5002   31-A'
  57   1.0000      -1.743587       -47.4454   32-A'
  58   1.0000      -1.743569       -47.4449   33-A'
  59   1.0000      -1.743558       -47.4446   27-A"
  60   1.0000      -1.743541       -47.4442   28-A"
  61   1.0000      -1.740962       -47.3740   34-A'
  62   1.0000      -1.740936       -47.3733   35-A'
  63   1.0000      -1.740881       -47.3718   29-A"
  64   1.0000      -1.740860       -47.3712   30-A"
  65   1.0000      -1.740133       -47.3514   36-A'
  66   1.0000      -1.740125       -47.3512   31-A"
  67   1.0000      -1.740120       -47.3511   37-A'
  68   1.0000      -1.740112       -47.3509   32-A"
  69   1.0000      -1.735801       -47.2335   38-A'
  70   1.0000      -1.735789       -47.2332   39-A'
  71   1.0000      -1.735734       -47.2317   33-A"
  72   1.0000      -1.735723       -47.2314   34-A"
  73   1.0000      -1.735704       -47.2309   40-A'
  74   1.0000      -1.735692       -47.2306   41-A'
  75   1.0000      -1.735678       -47.2302   35-A"
  76   1.0000      -1.735667       -47.2299   36-A"
  77   1.0000      -0.601740       -16.3742   42-A'
  78   1.0000      -0.601334       -16.3631   43-A'
  79   1.0000      -0.520135       -14.1536   44-A'
  80   1.0000      -0.519265       -14.1299   45-A'
  81   1.0000      -0.498259       -13.5583   37-A"
  82   1.0000      -0.497800       -13.5458   38-A"
  83   1.0000      -0.410486       -11.1699   39-A"
  84   1.0000      -0.409092       -11.1319   40-A"
  85   1.0000      -0.384170       -10.4538   46-A'
  86   1.0000      -0.379623       -10.3301   47-A'
  87   1.0000      -0.320716        -8.7271   48-A'
  88   1.0000      -0.318344        -8.6626   49-A'
  89   1.0000      -0.286850        -7.8056   41-A"
  90   1.0000      -0.283660        -7.7188   42-A"
  91   1.0000      -0.228917        -6.2292   50-A'
  92   1.0000      -0.222270        -6.0483   51-A'
  93   1.0000      -0.198628        -5.4049   52-A'
  94   1.0000      -0.197534        -5.3752   53-A'
  95   1.0000      -0.171568        -4.6686   43-A"
  96   1.0000      -0.166710        -4.5364   44-A"
  97   1.0000      -0.138031        -3.7560   54-A'
  98   1.0000      -0.137032        -3.7288   45-A"
  99   1.0000      -0.135258        -3.6806   46-A"
 100   1.0000      -0.130499        -3.5511   55-A'
 101   1.0000      -0.130255        -3.5444   56-A'
 102   1.0000      -0.111360        -3.0303   57-A'
 103   1.0000      -0.081751        -2.2246   58-A'
 104   1.0000      -0.072089        -1.9617   47-A"
 105   1.0000      -0.066310        -1.8044   48-A"
 106   1.0000      -0.062996        -1.7142   59-A'
 107   1.0000      -0.047582        -1.2948   60-A'
 108   1.0000      -0.046385        -1.2622   61-A'
 109   1.0000      -0.033637        -0.9153   49-A"
 110   1.0000      -0.030036        -0.8173   62-A'
 111   1.0000      -0.028991        -0.7889   50-A"
 112   1.0000      -0.025645        -0.6978   51-A"
 113   1.0000      -0.001525        -0.0415   52-A"
 114   1.0000      -0.001332        -0.0363   63-A'
 115   1.0000       0.000310         0.0084   64-A'
 116   1.0000       0.018750         0.5102   65-A'
 117   1.0000       0.020175         0.5490   66-A'
 118   1.0000       0.040751         1.1089   53-A"
 119   1.0000       0.055967         1.5229   54-A"
 120   1.0000       0.056883         1.5479   55-A"
 121   1.0000       0.070112         1.9078   67-A'
 122   1.0000       0.097908         2.6642   68-A'
 123   1.0000       0.115937         3.1548   56-A"
 124   0.0000       0.181671         4.9435   69-A'
 125   0.0000       0.182024         4.9531   70-A'
 126   0.0000       0.196418         5.3448   57-A"
 127   0.0000       0.196946         5.3592   58-A"
 128   0.0000       0.197730         5.3805   71-A'

                 SPIN DOWN ORBITALS
  NO   OCC          E(Eh)            E(eV)    Irrep
   0   1.0000    -443.560727    -12069.9010    1-A"
   1   1.0000    -443.559621    -12069.8709    2-A"
   2   1.0000    -443.546335    -12069.5094    1-A'
   3   1.0000    -443.546171    -12069.5049    2-A'
   4   1.0000    -318.187236     -8658.3149    3-A'
   5   1.0000     -56.369947     -1533.9042    3-A"
   6   1.0000     -56.369604     -1533.8949    4-A"
   7   1.0000     -56.357181     -1533.5569    4-A'
   8   1.0000     -56.356908     -1533.5494    5-A'
   9   1.0000     -51.286316     -1395.5716    5-A"
  10   1.0000     -51.286245     -1395.5697    6-A'
  11   1.0000     -51.286243     -1395.5696    6-A"
  12   1.0000     -51.286204     -1395.5685    7-A'
  13   1.0000     -51.284582     -1395.5244    7-A"
  14   1.0000     -51.284542     -1395.5233    8-A"
  15   1.0000     -51.284536     -1395.5232    8-A'
  16   1.0000     -51.284529     -1395.5230    9-A"
  17   1.0000     -51.284501     -1395.5222   10-A"
  18   1.0000     -51.284498     -1395.5221    9-A'
  19   1.0000     -51.284480     -1395.5216   10-A'
  20   1.0000     -51.284443     -1395.5207   11-A'
  21   1.0000     -38.014027     -1034.4143   12-A'
  22   1.0000     -33.516746      -912.0370   11-A"
  23   1.0000     -33.516029      -912.0175   13-A'
  24   1.0000     -33.514129      -911.9658   14-A'
  25   1.0000      -9.818817      -267.1836   15-A'
  26   1.0000      -9.818370      -267.1714   12-A"
  27   1.0000      -9.818320      -267.1701   16-A'
  28   1.0000      -9.817873      -267.1579   13-A"
  29   1.0000      -9.809653      -266.9342   17-A'
  30   1.0000      -9.809509      -266.9303   18-A'
  31   1.0000      -9.809204      -266.9220   14-A"
  32   1.0000      -9.809060      -266.9181   15-A"
  33   1.0000      -9.807914      -266.8869   19-A'
  34   1.0000      -9.807909      -266.8868   16-A"
  35   1.0000      -9.807696      -266.8810   20-A'
  36   1.0000      -9.807692      -266.8809   17-A"
  37   1.0000      -7.341120      -199.7620   18-A"
  38   1.0000      -7.341046      -199.7600   19-A"
  39   1.0000      -7.333881      -199.5651   21-A'
  40   1.0000      -7.333771      -199.5621   22-A'
  41   1.0000      -5.404270      -147.0577   20-A"
  42   1.0000      -5.404243      -147.0569   23-A'
  43   1.0000      -5.404224      -147.0564   21-A"
  44   1.0000      -5.404213      -147.0561   24-A'
  45   1.0000      -5.398586      -146.9030   22-A"
  46   1.0000      -5.398567      -146.9025   23-A"
  47   1.0000      -5.398560      -146.9023   25-A'
  48   1.0000      -5.398543      -146.9018   26-A'
  49   1.0000      -5.398421      -146.8985   24-A"
  50   1.0000      -5.398412      -146.8983   25-A"
  51   1.0000      -5.398397      -146.8978   27-A'
  52   1.0000      -5.398383      -146.8975   28-A'
  53   1.0000      -3.994016      -108.6827   29-A'
  54   1.0000      -2.507070       -68.2208   30-A'
  55   1.0000      -2.506507       -68.2055   26-A"
  56   1.0000      -2.505566       -68.1799   31-A'
  57   1.0000      -1.743140       -47.4333   32-A'
  58   1.0000      -1.743123       -47.4328   33-A'
  59   1.0000      -1.743110       -47.4324   27-A"
  60   1.0000      -1.743094       -47.4320   28-A"
  61   1.0000      -1.740070       -47.3497   34-A'
  62   1.0000      -1.740044       -47.3490   35-A'
  63   1.0000      -1.739991       -47.3476   29-A"
  64   1.0000      -1.739969       -47.3470   30-A"
  65   1.0000      -1.739822       -47.3430   36-A'
  66   1.0000      -1.739810       -47.3426   31-A"
  67   1.0000      -1.739809       -47.3426   37-A'
  68   1.0000      -1.739798       -47.3423   32-A"
  69   1.0000      -1.735005       -47.2119   38-A'
  70   1.0000      -1.734992       -47.2115   39-A'
  71   1.0000      -1.734945       -47.2103   33-A"
  72   1.0000      -1.734936       -47.2100   40-A'
  73   1.0000      -1.734935       -47.2100   34-A"
  74   1.0000      -1.734924       -47.2097   41-A'
  75   1.0000      -1.734909       -47.2093   35-A"
  76   1.0000      -1.734899       -47.2090   36-A"
  77   1.0000      -0.600916       -16.3518   42-A'
  78   1.0000      -0.600513       -16.3408   43-A'
  79   1.0000      -0.518986       -14.1223   44-A'
  80   1.0000      -0.518144       -14.0994   45-A'
  81   1.0000      -0.496533       -13.5113   37-A"
  82   1.0000      -0.496076       -13.4989   38-A"
  83   1.0000      -0.407790       -11.0965   39-A"
  84   1.0000      -0.406373       -11.0580   40-A"
  85   1.0000      -0.381665       -10.3856   46-A'
  86   1.0000      -0.377306       -10.2670   47-A'
  87   1.0000      -0.318955        -8.6792   48-A'
  88   1.0000      -0.316422        -8.6103   49-A'
  89   1.0000      -0.284498        -7.7416   41-A"
  90   1.0000      -0.281059        -7.6480   42-A"
  91   1.0000      -0.227785        -6.1983   50-A'
  92   1.0000      -0.221213        -6.0195   51-A'
  93   1.0000      -0.197347        -5.3701   52-A'
  94   1.0000      -0.196318        -5.3421   53-A'
  95   1.0000      -0.170144        -4.6298   43-A"
  96   1.0000      -0.164647        -4.4803   44-A"
  97   1.0000      -0.136139        -3.7045   45-A"
  98   1.0000      -0.136059        -3.7024   54-A'
  99   1.0000      -0.133574        -3.6347   46-A"
 100   1.0000      -0.130099        -3.5402   55-A'
 101   1.0000      -0.129824        -3.5327   56-A'
 102   1.0000      -0.109584        -2.9819   57-A'
 103   1.0000      -0.080391        -2.1875   58-A'
 104   1.0000      -0.070653        -1.9226   47-A"
 105   1.0000      -0.060858        -1.6560   59-A'
 106   1.0000      -0.054793        -1.4910   48-A"
 107   1.0000      -0.046331        -1.2607   60-A'
 108   1.0000      -0.045688        -1.2432   61-A'
 109   1.0000      -0.029975        -0.8157   49-A"
 110   1.0000      -0.024577        -0.6688   50-A"
 111   1.0000      -0.023629        -0.6430   62-A'
 112   1.0000      -0.002287        -0.0622   51-A"
 113   1.0000       0.008043         0.2189   52-A"
 114   1.0000       0.009634         0.2622   63-A'
 115   1.0000       0.010829         0.2947   64-A'
 116   1.0000       0.028309         0.7703   65-A'
 117   1.0000       0.031591         0.8596   66-A'
 118   1.0000       0.051956         1.4138   53-A"
 119   1.0000       0.057839         1.5739   54-A"
 120   1.0000       0.060447         1.6448   55-A"
 121   1.0000       0.071876         1.9558   67-A'
 122   1.0000       0.101133         2.7520   68-A'
 123   0.0000       0.145587         3.9616   56-A"
 124   0.0000       0.183279         4.9873   69-A'
 125   0.0000       0.183719         4.9993   70-A'
 126   0.0000       0.197931         5.3860   71-A'
 127   0.0000       0.199242         5.4216   57-A"

MULLIKEN ATOMIC CHARGES AND SPIN POPULATIONS
--------------------------------------------
   0 Cu:    0.641521    0.309297
   1 Se:   -0.734235    0.172759
   2 C :    0.232625   -0.003074
   3 Se:   -0.734458    0.172833
   4 C :    0.235368   -0.003061
   5 Se:   -0.734235    0.172759
   6 C :    0.232625   -0.003074
   7 Se:   -0.734458    0.172833
   8 C :    0.235368   -0.003061
   9 C :   -0.124141   -0.002194
  10 C :   -0.124141   -0.002194
  11 C :   -0.145548    0.001115
  12 H :    0.094685    0.002780
  13 C :   -0.145548    0.001115
  14 H :    0.094685    0.002780
  15 H :    0.013519    0.001328
  16 H :    0.013519    0.001328
  17 C :   -0.120072   -0.002062
  18 C :   -0.120072   -0.002062
  19 C :   -0.147651    0.000756
  20 H :    0.094151    0.002791
  21 C :   -0.147651    0.000756
  22 H :    0.094151    0.002791
  23 H :    0.014997    0.001380
  24 H :    0.014997    0.001380
Sum of atomic charges         :   -2.0000000

LOEWDIN ATOMIC CHARGES AND SPIN POPULATIONS
-------------------------------------------
   0 Cu:   -0.617064    0.389819
   1 Se:   -0.202158    0.123184
   2 C :    0.037894    0.011609
   3 Se:   -0.202236    0.123300
   4 C :    0.037782    0.011577
   5 Se:   -0.202158    0.123184
   6 C :    0.037894    0.011609
   7 Se:   -0.202236    0.123300
   8 C :    0.037782    0.011577
   9 C :    0.372360    0.006649
  10 C :    0.372360    0.006649
  11 C :    0.315658    0.001455
  12 H :   -0.463596    0.009080
  13 C :    0.315658    0.001455
  14 H :   -0.463596    0.009080
  15 H :   -0.405845    0.000597
  16 H :   -0.405845    0.000597
  17 C :    0.372126    0.006695
  18 C :    0.372126    0.006695
  19 C :    0.316466    0.001248
  20 H :   -0.462855    0.009141
  21 C :    0.316466    0.001248
  22 H :   -0.462855    0.009141
  23 H :   -0.407064    0.000556
  24 H :   -0.407064    0.000556

  Mayer bond orders larger than 0.100000
B(  0-Cu,  1-Se) :   0.5482 B(  0-Cu,  3-Se) :   0.5476 B(  0-Cu,  5-Se) :   0.5482
B(  0-Cu,  7-Se) :   0.5476 B(  1-Se,  2-C ) :   1.0364 B(  2-C ,  6-C ) :   1.1299
B(  2-C , 17-C ) :   1.2641 B(  3-Se,  4-C ) :   1.0357 B(  4-C ,  8-C ) :   1.1290
B(  4-C , 10-C ) :   1.2657 B(  5-Se,  6-C ) :   1.0364 B(  6-C , 18-C ) :   1.2641
B(  7-Se,  8-C ) :   1.0357 B(  8-C ,  9-C ) :   1.2657 B(  9-C , 13-C ) :   1.3691
B(  9-C , 14-H ) :   0.9605 B( 10-C , 11-C ) :   1.3691 B( 10-C , 12-H ) :   0.9605
B( 11-C , 13-C ) :   1.3227 B( 11-C , 15-H ) :   0.9986 B( 13-C , 16-H ) :   0.9986
B( 17-C , 19-C ) :   1.3712 B( 17-C , 20-H ) :   0.9604 B( 18-C , 21-C ) :   1.3712
B( 18-C , 22-H ) :   0.9604 B( 19-C , 21-C ) :   1.3206 B( 19-C , 23-H ) :   0.9981
B( 21-C , 24-H ) :   0.9981

FINAL SINGLE POINT ENERGY    -11627.135451631153

DIPOLE MOMENT
-------------
                                X             Y             Z
Electronic contribution:      0.02347       0.00869       0.00000
Nuclear contribution   :     -0.01940       0.00361       0.00000
                        -----------------------------------------
Total Dipole Moment    :      0.00408       0.01231       0.00000
                        -----------------------------------------
Magnitude (a.u.)       :      0.01296
Magnitude (Debye)      :      0.03295

Rotational constants in cm-1:     0.017584     0.004096     0.003325
Rotational constants in MHz :   527.157075   122.800006    99.666038

                             ****ORCA TERMINATED NORMALLY****
TOTAL RUN TIME: 0 days 19 hours 33 minutes 58 seconds 790 msec
