                         Program Version 5.0.4 -  RELEASE  -
|  1> ! RIJCOSX nofrozencore ReducedPop printbasis
|  2> ! M06L ano-rcc-dzp autoaux
|  3>
|  4> %maxcore 7500
|  5> %basis
|  6> PCDTrimBas overlap
|  7> PCDTrimAuxJ Coulomb
|  8> PCDTrimAuxJK Coulomb
|  9> PCDTrimAuxC Coulomb
| 10> PCDThresh -1
| 11> end
| 12>
| 13> %basis
| 14> newgto Cu "ano-rcc-tzp" end
| 15> newgto Se "ano-rcc-tzp" end
| 16> end
| 17>
| 18> %pal
| 19> nprocs 8
| 20> end
| 21>
| 22> % sym SymThresh 1e-2 end
| 23> * xyz -2 2
| 24> Cu 0.030729539733037364 -0.0065030189705909975 0.054501539263252116
| 25> Se 2.3396017574729853 -1.0081598454643979 0.04336251830230905
| 26> C 2.429008527361027 -1.249890283652417 -1.5812820788950641
| 27> Se -0.006283531682714191 0.32223389640226563 2.5571510139301523
| 28> C -1.5261997371638245 0.9834987848605214 2.579545304769418
| 29> Se 0.01584922262509229 -0.3289293266859447 -2.577570033742849
| 30> C 1.5315506698425498 -0.9863116452364682 -2.5835044841001857
| 31> Se -2.389761935064866 1.025918245198518 -0.07515458147590963
| 32> C -2.4101956229624584 1.239794526151938 1.5657116142397673
| 33> C -3.612310250770357 1.8147753548869696 1.9994119862000108
| 34> C -1.923838833989249 1.3174207553189687 3.873324863146736
| 35> C -3.1074939066577567 1.8831101873325258 4.296684744547053
| 36> H -1.1885570463009074 1.0939322254727482 4.634103634011836
| 37> C -4.01154344757512 2.1473093456098185 3.2765471321963098
| 38> H -4.322286888119379 2.023946500460946 1.2117947515207257
| 39> H -3.2919290290584984 2.0938802368089875 5.344072201742199
| 40> H -4.987787029704502 2.5912136663901344 3.4443611079842573
| 41> C 3.631622099099971 -1.8218877418976964 -1.98937556183156
| 42> C 1.9410748449460675 -1.3233152371894283 -3.860738607358168
| 43> C 4.034957985249174 -2.1554118230001205 -3.2602096324289063
| 44> H 4.331425925892623 -2.025358118611519 -1.1914049611398465
| 45> C 3.121288862623961 -1.8852506578612325 -4.26597613393364
| 46> H 1.2202131405721983 -1.1080210872613045 -4.637092763482116
| 47> H 5.00898630959339 -2.599233067073645 -3.435030819088952
| 48> H 3.305710850871954 -2.09614449333072 -5.314399831700257
| 49> *
| 50>
| 51> % eprnmr
| 52> gtensor true
| 53> Nuclei = all H {aiso,adip,aorb,fgrad,rho}
| 54> Nuclei = all Cu {aiso,adip,aorb,fgrad,rho}
| 55> end
| 56>
| 57>                          ****END OF INPUT****

CARTESIAN COORDINATES (ANGSTROEM)
---------------------------------
  Cu     0.054083    0.032125    0.000000
  Se    -0.019167    2.547869    0.000000
  C     -1.658349    2.685636    0.000000
  Se     2.576421   -0.070372    0.000000
  C      2.639814   -1.726844    0.000000
  Se    -2.597249    0.081301    0.000000
  C     -2.643947    1.732772    0.000000
  Se    -0.011515   -2.601728    0.000000
  C      1.642156   -2.664753    0.000000
  C      2.111391   -3.985206    0.000000
  C      3.953940   -2.192203    0.000000
  C      4.412261   -3.492287    0.000000
  H      4.700648   -1.410028    0.000000
  C      3.408792   -4.451889    0.000000
  H      1.336965   -4.739145    0.000000
  H      5.472427   -3.719245    0.000000
  H      3.604086   -5.519655    0.000000
  C     -2.101799    4.005997    0.000000
  C     -3.941723    2.210669    0.000000
  C     -3.392961    4.476993    0.000000
  H     -1.316668    4.748595    0.000000
  C     -4.381694    3.506554    0.000000
  H     -4.704510    1.444591    0.000000
  H     -3.595256    5.542520    0.000000
  H     -5.442904    3.733523    0.000000

 Total Charge           Charge          ....   -2
 Multiplicity           Mult            ....    2
 Number of Electrons    NEL             ....  247
 Basis Dimension        Dim             ....  575

ORBITAL ENERGIES
----------------
                 SPIN UP ORBITALS
  NO   OCC          E(Eh)            E(eV)    Irrep
   0   1.0000    -443.563253    -12069.9697    1-A'
   1   1.0000    -443.561304    -12069.9167    2-A'
   2   1.0000    -443.547848    -12069.5505    3-A'
   3   1.0000    -443.547063    -12069.5292    4-A'
   4   1.0000    -318.173467     -8657.9402    5-A'
   5   1.0000     -56.371983     -1533.9596    6-A'
   6   1.0000     -56.370317     -1533.9143    7-A'
   7   1.0000     -56.357606     -1533.5684    8-A'
   8   1.0000     -56.357386     -1533.5624    9-A'
   9   1.0000     -51.288925     -1395.6426   10-A'
  10   1.0000     -51.288294     -1395.6254   11-A'
  11   1.0000     -51.287650     -1395.6079   12-A'
  12   1.0000     -51.287247     -1395.5969   13-A'
  13   1.0000     -51.287043     -1395.5914   14-A'
  14   1.0000     -51.286908     -1395.5877    1-A"
  15   1.0000     -51.286655     -1395.5808   15-A'
  16   1.0000     -51.286225     -1395.5691    2-A"
  17   1.0000     -51.285977     -1395.5624   16-A'
  18   1.0000     -51.285457     -1395.5482   17-A'
  19   1.0000     -51.285171     -1395.5405    3-A"
  20   1.0000     -51.284602     -1395.5250    4-A"
  21   1.0000     -38.013941     -1034.4119   18-A'
  22   1.0000     -33.516698      -912.0357   19-A'
  23   1.0000     -33.516650      -912.0344   20-A'
  24   1.0000     -33.505122      -911.7207    5-A"
  25   1.0000      -9.817493      -267.1476   21-A'
  26   1.0000      -9.816664      -267.1250   22-A'
  27   1.0000      -9.815935      -267.1052   23-A'
  28   1.0000      -9.814861      -267.0759   24-A'
  29   1.0000      -9.813235      -267.0317   25-A'
  30   1.0000      -9.812068      -267.0000   26-A'
  31   1.0000      -9.811143      -266.9748   27-A'
  32   1.0000      -9.809976      -266.9430   28-A'
  33   1.0000      -9.806990      -266.8618   29-A'
  34   1.0000      -9.806101      -266.8376   30-A'
  35   1.0000      -9.805877      -266.8315   31-A'
  36   1.0000      -9.803597      -266.7694   32-A'
  37   1.0000      -7.342632      -199.8032   33-A'
  38   1.0000      -7.341911      -199.7836   34-A'
  39   1.0000      -7.334121      -199.5716   35-A'
  40   1.0000      -7.333952      -199.5670   36-A'
  41   1.0000      -5.406342      -147.1140   37-A'
  42   1.0000      -5.405576      -147.0932   38-A'
  43   1.0000      -5.405175      -147.0823   39-A'
  44   1.0000      -5.403930      -147.0484   40-A'
  45   1.0000      -5.401122      -146.9720   41-A'
  46   1.0000      -5.400334      -146.9506   42-A'
  47   1.0000      -5.399950      -146.9401   43-A'
  48   1.0000      -5.399847      -146.9373    6-A"
  49   1.0000      -5.398928      -146.9123    7-A"
  50   1.0000      -5.398861      -146.9105   44-A'
  51   1.0000      -5.398483      -146.9002    8-A"
  52   1.0000      -5.397335      -146.8690    9-A"
  53   1.0000      -4.012146      -109.1760   45-A'
  54   1.0000      -2.531711       -68.8914   46-A'
  55   1.0000      -2.531101       -68.8748   47-A'
  56   1.0000      -2.508610       -68.2627   10-A"
  57   1.0000      -1.745165       -47.4884   48-A'
  58   1.0000      -1.744256       -47.4636   49-A'
  59   1.0000      -1.743833       -47.4521   50-A'
  60   1.0000      -1.742731       -47.4221   51-A'
  61   1.0000      -1.742681       -47.4207   52-A'
  62   1.0000      -1.741917       -47.4000   53-A'
  63   1.0000      -1.741579       -47.3908   54-A'
  64   1.0000      -1.741394       -47.3857   11-A"
  65   1.0000      -1.740513       -47.3618   12-A"
  66   1.0000      -1.740396       -47.3586   55-A'
  67   1.0000      -1.740106       -47.3507   13-A"
  68   1.0000      -1.738889       -47.3176   14-A"
  69   1.0000      -1.737032       -47.2670   15-A"
  70   1.0000      -1.737004       -47.2663   56-A'
  71   1.0000      -1.736150       -47.2430   16-A"
  72   1.0000      -1.736092       -47.2415   57-A'
  73   1.0000      -1.735754       -47.2323   17-A"
  74   1.0000      -1.735707       -47.2310   58-A'
  75   1.0000      -1.734651       -47.2022   18-A"
  76   1.0000      -1.734590       -47.2006   59-A'
  77   1.0000      -0.606477       -16.5031   60-A'
  78   1.0000      -0.603857       -16.4318   61-A'
  79   1.0000      -0.519571       -14.1382   62-A'
  80   1.0000      -0.518236       -14.1019   63-A'
  81   1.0000      -0.507808       -13.8182   64-A'
  82   1.0000      -0.505718       -13.7613   65-A'
  83   1.0000      -0.413669       -11.2565   66-A'
  84   1.0000      -0.412059       -11.2127   67-A'
  85   1.0000      -0.373172       -10.1545   68-A'
  86   1.0000      -0.369530       -10.0554   69-A'
  87   1.0000      -0.331365        -9.0169   70-A'
  88   1.0000      -0.330446        -8.9919   71-A'
  89   1.0000      -0.284042        -7.7292   72-A'
  90   1.0000      -0.280922        -7.6443   73-A'
  91   1.0000      -0.229850        -6.2545   74-A'
  92   1.0000      -0.226688        -6.1685   75-A'
  93   1.0000      -0.201693        -5.4884   76-A'
  94   1.0000      -0.199495        -5.4285   77-A'
  95   1.0000      -0.169449        -4.6109   78-A'
  96   1.0000      -0.165271        -4.4973   79-A'
  97   1.0000      -0.136085        -3.7031   80-A'
  98   1.0000      -0.134478        -3.6593   81-A'
  99   1.0000      -0.132605        -3.6084   19-A"
 100   1.0000      -0.130707        -3.5567   20-A"
 101   1.0000      -0.125449        -3.4136   82-A'
 102   1.0000      -0.110954        -3.0192   83-A'
 103   1.0000      -0.073907        -2.0111   84-A'
 104   1.0000      -0.065656        -1.7866   85-A'
 105   1.0000      -0.062360        -1.6969   86-A'
 106   1.0000      -0.052644        -1.4325   87-A'
 107   1.0000      -0.046475        -1.2646   21-A"
 108   1.0000      -0.045969        -1.2509   22-A"
 109   1.0000      -0.033792        -0.9195   23-A"
 110   1.0000      -0.030639        -0.8337   88-A'
 111   1.0000      -0.030392        -0.8270   24-A"
 112   1.0000      -0.014001        -0.3810   89-A'
 113   1.0000       0.004494         0.1223   90-A'
 114   1.0000       0.007584         0.2064   25-A"
 115   1.0000       0.008350         0.2272   26-A"
 116   1.0000       0.020198         0.5496   91-A'
 117   1.0000       0.030653         0.8341   92-A'
 118   1.0000       0.040711         1.1078   93-A'
 119   1.0000       0.054150         1.4735   27-A"
 120   1.0000       0.054520         1.4836   28-A"
 121   1.0000       0.077241         2.1018   29-A"
 122   1.0000       0.095341         2.5943   94-A'
 123   1.0000       0.096367         2.6223   30-A"
 124   0.0000       0.181770         4.9462   95-A'
 125   0.0000       0.181797         4.9470   96-A'
 126   0.0000       0.196278         5.3410   97-A'
 127   0.0000       0.196789         5.3549   98-A'
 128   0.0000       0.200169         5.4469   31-A"

                 SPIN DOWN ORBITALS
  NO   OCC          E(Eh)            E(eV)    Irrep
   0   1.0000    -443.562806    -12069.9576    1-A'
   1   1.0000    -443.560865    -12069.9048    2-A'
   2   1.0000    -443.547390    -12069.5381    3-A'
   3   1.0000    -443.546629    -12069.5174    4-A'
   4   1.0000    -318.173359     -8657.9373    5-A'
   5   1.0000     -56.371802     -1533.9547    6-A'
   6   1.0000     -56.370139     -1533.9095    7-A'
   7   1.0000     -56.357423     -1533.5634    8-A'
   8   1.0000     -56.357213     -1533.5577    9-A'
   9   1.0000     -51.288597     -1395.6337   10-A'
  10   1.0000     -51.287973     -1395.6167   11-A'
  11   1.0000     -51.286961     -1395.5892   12-A'
  12   1.0000     -51.286923     -1395.5881   13-A'
  13   1.0000     -51.286673     -1395.5813    1-A"
  14   1.0000     -51.286304     -1395.5713   14-A'
  15   1.0000     -51.286288     -1395.5708   15-A'
  16   1.0000     -51.285976     -1395.5623    2-A"
  17   1.0000     -51.285293     -1395.5438   16-A'
  18   1.0000     -51.284939     -1395.5341    3-A"
  19   1.0000     -51.284662     -1395.5266   17-A'
  20   1.0000     -51.284337     -1395.5178    4-A"
  21   1.0000     -38.000584     -1034.0485   18-A'
  22   1.0000     -33.503964      -911.6892   19-A'
  23   1.0000     -33.503926      -911.6882   20-A'
  24   1.0000     -33.501461      -911.6211    5-A"
  25   1.0000      -9.817420      -267.1456   21-A'
  26   1.0000      -9.816594      -267.1231   22-A'
  27   1.0000      -9.815865      -267.1033   23-A'
  28   1.0000      -9.814784      -267.0738   24-A'
  29   1.0000      -9.813275      -267.0328   25-A'
  30   1.0000      -9.812101      -267.0008   26-A'
  31   1.0000      -9.811171      -266.9755   27-A'
  32   1.0000      -9.810008      -266.9439   28-A'
  33   1.0000      -9.806820      -266.8571   29-A'
  34   1.0000      -9.805932      -266.8330   30-A'
  35   1.0000      -9.805708      -266.8269   31-A'
  36   1.0000      -9.803414      -266.7645   32-A'
  37   1.0000      -7.342245      -199.7926   33-A'
  38   1.0000      -7.341527      -199.7731   34-A'
  39   1.0000      -7.333735      -199.5611   35-A'
  40   1.0000      -7.333542      -199.5558   36-A'
  41   1.0000      -5.405986      -147.1044   37-A'
  42   1.0000      -5.405227      -147.0837   38-A'
  43   1.0000      -5.404824      -147.0727   39-A'
  44   1.0000      -5.403551      -147.0381   40-A'
  45   1.0000      -5.400348      -146.9509   41-A'
  46   1.0000      -5.399575      -146.9299    6-A"
  47   1.0000      -5.399499      -146.9278   42-A'
  48   1.0000      -5.399186      -146.9193   43-A'
  49   1.0000      -5.398649      -146.9047    7-A"
  50   1.0000      -5.398218      -146.8930    8-A"
  51   1.0000      -5.397976      -146.8864   44-A'
  52   1.0000      -5.397038      -146.8609    9-A"
  53   1.0000      -3.984057      -108.4117   45-A'
  54   1.0000      -2.498716       -67.9935   10-A"
  55   1.0000      -2.496590       -67.9357   46-A'
  56   1.0000      -2.495890       -67.9166   47-A'
  57   1.0000      -1.744718       -47.4762   48-A'
  58   1.0000      -1.743807       -47.4514   49-A'
  59   1.0000      -1.743386       -47.4399   50-A'
  60   1.0000      -1.742195       -47.4075   51-A'
  61   1.0000      -1.741893       -47.3993   52-A'
  62   1.0000      -1.741120       -47.3783   11-A"
  63   1.0000      -1.741065       -47.3768   53-A'
  64   1.0000      -1.740758       -47.3684   54-A'
  65   1.0000      -1.740257       -47.3548   12-A"
  66   1.0000      -1.739840       -47.3435   13-A"
  67   1.0000      -1.739485       -47.3338   55-A'
  68   1.0000      -1.738612       -47.3100   14-A"
  69   1.0000      -1.736352       -47.2485   15-A"
  70   1.0000      -1.736304       -47.2472   56-A'
  71   1.0000      -1.735437       -47.2236   16-A"
  72   1.0000      -1.735358       -47.2215   57-A'
  73   1.0000      -1.735091       -47.2142   17-A"
  74   1.0000      -1.735028       -47.2125   58-A'
  75   1.0000      -1.733893       -47.1816   18-A"
  76   1.0000      -1.733813       -47.1795   59-A'
  77   1.0000      -0.605732       -16.4828   60-A'
  78   1.0000      -0.603155       -16.4127   61-A'
  79   1.0000      -0.518564       -14.1108   62-A'
  80   1.0000      -0.517302       -14.0765   63-A'
  81   1.0000      -0.505877       -13.7656   64-A'
  82   1.0000      -0.503850       -13.7104   65-A'
  83   1.0000      -0.411282       -11.1915   66-A'
  84   1.0000      -0.409767       -11.1503   67-A'
  85   1.0000      -0.370238       -10.0747   68-A'
  86   1.0000      -0.366753        -9.9799   69-A'
  87   1.0000      -0.329736        -8.9726   70-A'
  88   1.0000      -0.328708        -8.9446   71-A'
  89   1.0000      -0.281314        -7.6549   72-A'
  90   1.0000      -0.278161        -7.5691   73-A'
  91   1.0000      -0.228725        -6.2239   74-A'
  92   1.0000      -0.225622        -6.1395   75-A'
  93   1.0000      -0.200564        -5.4576   76-A'
  94   1.0000      -0.198438        -5.3998   77-A'
  95   1.0000      -0.167757        -4.5649   78-A'
  96   1.0000      -0.163368        -4.4455   79-A'
  97   1.0000      -0.135012        -3.6739   80-A'
  98   1.0000      -0.133277        -3.6267   81-A'
  99   1.0000      -0.132327        -3.6008   19-A"
 100   1.0000      -0.130441        -3.5495   20-A"
 101   1.0000      -0.123131        -3.3506   82-A'
 102   1.0000      -0.108809        -2.9608   83-A'
 103   1.0000      -0.072822        -1.9816   84-A'
 104   1.0000      -0.063839        -1.7372   85-A'
 105   1.0000      -0.060478        -1.6457   86-A'
 106   1.0000      -0.049916        -1.3583   87-A'
 107   1.0000      -0.045982        -1.2512   21-A"
 108   1.0000      -0.045418        -1.2359   22-A"
 109   1.0000      -0.032299        -0.8789   23-A"
 110   1.0000      -0.029321        -0.7979   24-A"
 111   1.0000      -0.007144        -0.1944   88-A'
 112   1.0000       0.008063         0.2194   89-A'
 113   1.0000       0.013319         0.3624   90-A'
 114   1.0000       0.018266         0.4970   25-A"
 115   1.0000       0.020111         0.5472   26-A"
 116   1.0000       0.034898         0.9496   91-A'
 117   1.0000       0.042007         1.1431   92-A'
 118   1.0000       0.051183         1.3928   93-A'
 119   1.0000       0.056162         1.5283   27-A"
 120   1.0000       0.057392         1.5617   28-A"
 121   1.0000       0.079063         2.1514   29-A"
 122   1.0000       0.099162         2.6983   30-A"
 123   0.0000       0.124494         3.3877   94-A'
 124   0.0000       0.182970         4.9789   95-A'
 125   0.0000       0.183023         4.9803   96-A'
 126   0.0000       0.198675         5.4062   97-A'
 127   0.0000       0.199217         5.4210   98-A'

MULLIKEN ATOMIC CHARGES AND SPIN POPULATIONS
--------------------------------------------
   0 Cu:    0.407969    0.304931
   1 Se:   -0.726618    0.168645
   2 C :    0.217328   -0.005427
   3 Se:   -0.736075    0.167963
   4 C :    0.228530   -0.005396
   5 Se:   -0.741101    0.189124
   6 C :    0.243148   -0.006198
   7 Se:   -0.741651    0.176705
   8 C :    0.235395   -0.006167
   9 C :   -0.058870    0.000361
  10 C :   -0.064100    0.000729
  11 C :   -0.169429    0.000083
  12 H :    0.105788    0.001846
  13 C :   -0.154639    0.000289
  14 H :    0.109500    0.001697
  15 H :    0.016967    0.001509
  16 H :    0.021587    0.001318
  17 C :   -0.066965    0.000592
  18 C :   -0.050669    0.000425
  19 C :   -0.161431   -0.000125
  20 H :    0.102696    0.001889
  21 C :   -0.160207    0.000377
  22 H :    0.107055    0.001839
  23 H :    0.018167    0.001675
  24 H :    0.017625    0.001315
Sum of atomic charges         :   -2.0000000

LOEWDIN ATOMIC CHARGES AND SPIN POPULATIONS
-------------------------------------------
   0 Cu:   -0.474283    0.379380
   1 Se:   -0.195902    0.116709
   2 C :    0.021653    0.009097
   3 Se:   -0.201499    0.115250
   4 C :    0.029854    0.008106
   5 Se:   -0.201094    0.138660
   6 C :    0.017734    0.008417
   7 Se:   -0.197052    0.129433
   8 C :    0.021140    0.007426
   9 C :    0.372978    0.008803
  10 C :    0.372453    0.008758
  11 C :    0.325464    0.001160
  12 H :   -0.495349    0.011097
  13 C :    0.323194    0.001060
  14 H :   -0.496675    0.011857
  15 H :   -0.406253    0.000356
  16 H :   -0.409191    0.000308
  17 C :    0.371730    0.008578
  18 C :    0.365763    0.009530
  19 C :    0.323956    0.001050
  20 H :   -0.485729    0.010293
  21 C :    0.322991    0.001209
  22 H :   -0.493674    0.012750
  23 H :   -0.406960    0.000423
  24 H :   -0.405251    0.000290

  Mayer bond orders larger than 0.100000
B(  0-Cu,  1-Se) :   0.5885 B(  0-Cu,  3-Se) :   0.5910 B(  0-Cu,  5-Se) :   0.5318
B(  0-Cu,  7-Se) :   0.5380 B(  1-Se,  2-C ) :   1.0090 B(  2-C ,  6-C ) :   1.1490
B(  2-C , 17-C ) :   1.2426 B(  3-Se,  4-C ) :   0.9872 B(  4-C ,  8-C ) :   1.1554
B(  4-C , 10-C ) :   1.2468 B(  5-Se,  6-C ) :   0.9958 B(  6-C , 18-C ) :   1.2404
B(  7-Se,  8-C ) :   0.9962 B(  8-C ,  9-C ) :   1.2349 B(  9-C , 13-C ) :   1.3956
B(  9-C , 14-H ) :   0.9523 B( 10-C , 11-C ) :   1.3916 B( 10-C , 12-H ) :   0.9519
B( 11-C , 13-C ) :   1.2960 B( 11-C , 15-H ) :   0.9987 B( 13-C , 16-H ) :   0.9948
B( 17-C , 19-C ) :   1.3910 B( 17-C , 20-H ) :   0.9538 B( 18-C , 21-C ) :   1.3886
B( 18-C , 22-H ) :   0.9523 B( 19-C , 21-C ) :   1.2986 B( 19-C , 23-H ) :   0.9970
B( 21-C , 24-H ) :   0.9973

FINAL SINGLE POINT ENERGY    -11627.100309246322

DIPOLE MOMENT
-------------
                                X             Y             Z
Electronic contribution:     -0.25764      -0.30817      -0.00000
Nuclear contribution   :      0.30068       0.35108       0.00000
                        -----------------------------------------
Total Dipole Moment    :      0.04303       0.04291      -0.00000
                        -----------------------------------------
Magnitude (a.u.)       :      0.06077
Magnitude (Debye)      :      0.15447

Rotational constants in cm-1:     0.014351     0.004036     0.003150
Rotational constants in MHz :   430.245170   120.993879    94.436401

                             ****ORCA TERMINATED NORMALLY****
TOTAL RUN TIME: 0 days 16 hours 58 minutes 47 seconds 671 msec
