                         Program Version 5.0.4 -  RELEASE  -
|  1> ! RIJCOSX nofrozencore ReducedPop printbasis
|  2> ! M06L ano-rcc-dzp autoaux
|  3>
|  4> %maxcore 7500
|  5> %basis
|  6> PCDTrimBas overlap
|  7> PCDTrimAuxJ Coulomb
|  8> PCDTrimAuxJK Coulomb
|  9> PCDTrimAuxC Coulomb
| 10> PCDThresh -1
| 11> end
| 12>
| 13> %basis
| 14> newgto Cu "ano-rcc-tzp" end
| 15> newgto Se "ano-rcc-tzp" end
| 16> end
| 17>
| 18> %pal
| 19> nprocs 8
| 20> end
| 21>
| 22> % sym SymThresh 1e-2 end
| 23> * xyz -2 2
| 24> Cu -0.00023215423352645977 0.00026446876645817705 -0.00035680482539314425
| 25> Se -0.7742624632034971 -2.134133318277584 0.6739247354241865
| 26> C -2.097163612688557 -2.4191388309318422 -0.25184452683709196
| 27> Se 1.835166951452748 0.05647803863603312 1.4936789899498
| 28> C 2.564014037029783 1.609726005761394 1.1408977418203181
| 29> Se -1.8388869500838039 -0.06628602901832394 -1.4907164422546855
| 30> C -2.570447522474444 -1.4967808367668127 -1.2160535488269546
| 31> Se 0.7823327966260649 2.13480224385773 -0.6676160235099512
| 32> C 2.026260394450104 2.4753970688848863 0.1580204231864361
| 33> C 2.7590932330486364 3.4856485896359923 0.1441164227658885
| 34> C 3.7630967752042683 1.8599716332016225 1.98501458652135
| 35> C 4.348981262978863 3.0580807411414326 1.7326206783504672
| 36> H 4.269030280737107 1.2740440737008094 2.768512207677709
| 37> C 3.955600116793572 3.9812590137820982 0.8344588214186869
| 38> H 2.4443272200490713 4.222588959375437 -0.5734738051453119
| 39> H 5.19402077871581 3.018706697282828 2.4608186023232617
| 40> H 4.56783053484356 4.889406803460464 0.7831978309714055
| 41> C -2.7879206311044418 -3.595180107195423 -0.10044030334737498
| 42> C -3.6723033935619522 -1.8711891808467216 -1.9024571517817532
| 43> C -3.936906665093937 -3.9377261201958476 -0.8457904991215515
| 44> H -2.473018883197944 -4.338103209056003 0.6209601526937116
| 45> C -4.400809792052735 -3.0640867719897575 -1.7720790800475428
| 46> H -4.09546503940263 -1.2209757246848263 -2.656739332438576
| 47> H -4.3767739274876405 -4.902032422822699 -0.6162571604942394
| 48> H -5.278112765950791 -3.2689305564375317 -2.3762303531594524
| 49> *
| 50>
| 51> % eprnmr
| 52> gtensor true
| 53> Nuclei = all H {aiso,adip,aorb,fgrad,rho}
| 54> Nuclei = all Cu {aiso,adip,aorb,fgrad,rho}
| 55> end
| 56>
| 57>                          ****END OF INPUT****

CARTESIAN COORDINATES (ANGSTROEM)
---------------------------------
  Cu    -0.000351    0.000358    0.000000
  Se    -0.564553   -2.299883    0.000000
  C     -2.203771   -2.336054    0.000000
  Se     2.341986   -0.342352    0.000000
  C      2.964885    1.294795    0.000000
  Se    -2.344788    0.331818    0.000000
  C     -2.995803   -1.162543    0.000000
  Se     0.574768    2.298865    0.000000
  C      2.101557    2.416971    0.000000
  C      2.838546    3.424291    0.000000
  C      4.452301    1.318216    0.000000
  C      4.963148    2.575779    0.000000
  H      5.218678    0.527132    0.000000
  C      4.273415    3.732485    0.000000
  H      2.287003    4.347814    0.000000
  H      6.054684    2.342407    0.000000
  H      4.876241    4.648338    0.000000
  C     -2.853530   -3.544753    0.000000
  C     -4.333621   -1.351383    0.000000
  C     -4.258180   -3.686216    0.000000
  H     -2.300612   -4.475236    0.000000
  C     -5.028404   -2.571219    0.000000
  H     -5.006759   -0.504229    0.000000
  H     -4.628706   -4.705414    0.000000
  H     -6.112299   -2.613551    0.000000

 Total Charge           Charge          ....   -2
 Multiplicity           Mult            ....    2
 Number of Electrons    NEL             ....  247
 Basis Dimension        Dim             ....  575

ORBITAL ENERGIES
----------------
                 SPIN UP ORBITALS
  NO   OCC          E(Eh)            E(eV)    Irrep
   0   1.0000    -443.574000    -12070.2622    1-A'
   1   1.0000    -443.562030    -12069.9365    2-A'
   2   1.0000    -443.547856    -12069.5508    3-A'
   3   1.0000    -443.535489    -12069.2143    4-A'
   4   1.0000    -318.187591     -8658.3245    5-A'
   5   1.0000     -56.376562     -1534.0843    6-A'
   6   1.0000     -56.370810     -1533.9277    7-A'
   7   1.0000     -56.357928     -1533.5772    8-A'
   8   1.0000     -56.351649     -1533.4063    9-A'
   9   1.0000     -51.291447     -1395.7112   10-A'
  10   1.0000     -51.290239     -1395.6784   11-A'
  11   1.0000     -51.289775     -1395.6657    1-A"
  12   1.0000     -51.286989     -1395.5899   12-A'
  13   1.0000     -51.286881     -1395.5870   13-A'
  14   1.0000     -51.285673     -1395.5541   14-A'
  15   1.0000     -51.285500     -1395.5494   15-A'
  16   1.0000     -51.285212     -1395.5416    2-A"
  17   1.0000     -51.285083     -1395.5381    3-A"
  18   1.0000     -51.282789     -1395.4756   16-A'
  19   1.0000     -51.281361     -1395.4368   17-A'
  20   1.0000     -51.280976     -1395.4263    4-A"
  21   1.0000     -38.028115     -1034.7976   18-A'
  22   1.0000     -33.530174      -912.4024   19-A'
  23   1.0000     -33.529375      -912.3807   20-A'
  24   1.0000     -33.518234      -912.0775    5-A"
  25   1.0000      -9.829635      -267.4780   21-A'
  26   1.0000      -9.820896      -267.2402   22-A'
  27   1.0000      -9.814561      -267.0678   23-A'
  28   1.0000      -9.813436      -267.0372   24-A'
  29   1.0000      -9.811619      -266.9877   25-A'
  30   1.0000      -9.811532      -266.9854   26-A'
  31   1.0000      -9.809839      -266.9393   27-A'
  32   1.0000      -9.807611      -266.8787   28-A'
  33   1.0000      -9.805770      -266.8286   29-A'
  34   1.0000      -9.805163      -266.8121   30-A'
  35   1.0000      -9.804436      -266.7923   31-A'
  36   1.0000      -9.801125      -266.7022   32-A'
  37   1.0000      -7.344994      -199.8674   33-A'
  38   1.0000      -7.341858      -199.7821   34-A'
  39   1.0000      -7.334625      -199.5853   35-A'
  40   1.0000      -7.331699      -199.5057   36-A'
  41   1.0000      -5.407422      -147.1434   37-A'
  42   1.0000      -5.404965      -147.0766   38-A'
  43   1.0000      -5.404515      -147.0643   39-A'
  44   1.0000      -5.403447      -147.0353   40-A'
  45   1.0000      -5.401653      -146.9865   41-A'
  46   1.0000      -5.401033      -146.9696    6-A"
  47   1.0000      -5.399735      -146.9343   42-A'
  48   1.0000      -5.399290      -146.9221    7-A"
  49   1.0000      -5.399044      -146.9155   43-A'
  50   1.0000      -5.398713      -146.9064    8-A"
  51   1.0000      -5.398081      -146.8892   44-A'
  52   1.0000      -5.397929      -146.8851    9-A"
  53   1.0000      -4.022469      -109.4570   45-A'
  54   1.0000      -2.542045       -69.1726   46-A'
  55   1.0000      -2.541054       -69.1456   47-A'
  56   1.0000      -2.517606       -68.5075   10-A"
  57   1.0000      -1.748358       -47.5752   48-A'
  58   1.0000      -1.743997       -47.4566   49-A'
  59   1.0000      -1.743773       -47.4505   50-A'
  60   1.0000      -1.743646       -47.4470   51-A'
  61   1.0000      -1.742931       -47.4276   11-A"
  62   1.0000      -1.741315       -47.3836   52-A'
  63   1.0000      -1.741275       -47.3825   53-A'
  64   1.0000      -1.740705       -47.3670   54-A'
  65   1.0000      -1.740554       -47.3629   12-A"
  66   1.0000      -1.740039       -47.3489   13-A"
  67   1.0000      -1.739435       -47.3324   55-A'
  68   1.0000      -1.738964       -47.3196   14-A"
  69   1.0000      -1.737978       -47.2928   56-A'
  70   1.0000      -1.737888       -47.2903   15-A"
  71   1.0000      -1.736269       -47.2463   57-A'
  72   1.0000      -1.736168       -47.2435   16-A"
  73   1.0000      -1.735533       -47.2262   58-A'
  74   1.0000      -1.735520       -47.2259   17-A"
  75   1.0000      -1.734747       -47.2049   59-A'
  76   1.0000      -1.734747       -47.2049   18-A"
  77   1.0000      -0.615679       -16.7535   60-A'
  78   1.0000      -0.603587       -16.4244   61-A'
  79   1.0000      -0.536764       -14.6061   62-A'
  80   1.0000      -0.521283       -14.1848   63-A'
  81   1.0000      -0.502305       -13.6684   64-A'
  82   1.0000      -0.484124       -13.1737   65-A'
  83   1.0000      -0.417434       -11.3589   66-A'
  84   1.0000      -0.410189       -11.1618   67-A'
  85   1.0000      -0.393794       -10.7157   68-A'
  86   1.0000      -0.384649       -10.4668   69-A'
  87   1.0000      -0.321241        -8.7414   70-A'
  88   1.0000      -0.317389        -8.6366   71-A'
  89   1.0000      -0.288037        -7.8379   72-A'
  90   1.0000      -0.277969        -7.5639   73-A'
  91   1.0000      -0.230806        -6.2806   74-A'
  92   1.0000      -0.223779        -6.0893   75-A'
  93   1.0000      -0.204946        -5.5769   76-A'
  94   1.0000      -0.202541        -5.5114   77-A'
  95   1.0000      -0.172016        -4.6808   78-A'
  96   1.0000      -0.165713        -4.5093   79-A'
  97   1.0000      -0.142368        -3.8740   80-A'
  98   1.0000      -0.140236        -3.8160   19-A"
  99   1.0000      -0.133112        -3.6222   81-A'
 100   1.0000      -0.131395        -3.5754   20-A"
 101   1.0000      -0.129132        -3.5139   82-A'
 102   1.0000      -0.115796        -3.1510   83-A'
 103   1.0000      -0.076103        -2.0709   84-A'
 104   1.0000      -0.069395        -1.8883   85-A'
 105   1.0000      -0.059673        -1.6238   86-A'
 106   1.0000      -0.057512        -1.5650   21-A"
 107   1.0000      -0.048034        -1.3071   22-A"
 108   1.0000      -0.044596        -1.2135   87-A'
 109   1.0000      -0.034026        -0.9259   23-A"
 110   1.0000      -0.029625        -0.8061   88-A'
 111   1.0000      -0.026416        -0.7188   89-A'
 112   1.0000      -0.023528        -0.6402   24-A"
 113   1.0000      -0.003614        -0.0983   25-A"
 114   1.0000       0.000606         0.0165   26-A"
 115   1.0000       0.000877         0.0239   90-A'
 116   1.0000       0.019224         0.5231   91-A'
 117   1.0000       0.022744         0.6189   92-A'
 118   1.0000       0.040634         1.1057   93-A'
 119   1.0000       0.057467         1.5637   27-A"
 120   1.0000       0.058659         1.5962   28-A"
 121   1.0000       0.067407         1.8342   29-A"
 122   1.0000       0.095579         2.6008   30-A"
 123   1.0000       0.115305         3.1376   94-A'
 124   0.0000       0.182081         4.9547   95-A'
 125   0.0000       0.182895         4.9768   96-A'
 126   0.0000       0.190892         5.1944   31-A"
 127   0.0000       0.195273         5.3136   97-A'
 128   0.0000       0.196111         5.3364   98-A'

                 SPIN DOWN ORBITALS
  NO   OCC          E(Eh)            E(eV)    Irrep
   0   1.0000    -443.573580    -12070.2507    1-A'
   1   1.0000    -443.561580    -12069.9242    2-A'
   2   1.0000    -443.547398    -12069.5383    3-A'
   3   1.0000    -443.535014    -12069.2013    4-A'
   4   1.0000    -318.187468     -8658.3212    5-A'
   5   1.0000     -56.376391     -1534.0796    6-A'
   6   1.0000     -56.370626     -1533.9227    7-A'
   7   1.0000     -56.357746     -1533.5722    8-A'
   8   1.0000     -56.351459     -1533.4011    9-A'
   9   1.0000     -51.291139     -1395.7028   10-A'
  10   1.0000     -51.289568     -1395.6601   11-A'
  11   1.0000     -51.289547     -1395.6595    1-A"
  12   1.0000     -51.286643     -1395.5805   12-A'
  13   1.0000     -51.286569     -1395.5785   13-A'
  14   1.0000     -51.284947     -1395.5343    2-A"
  15   1.0000     -51.284905     -1395.5332   14-A'
  16   1.0000     -51.284846     -1395.5316    3-A"
  17   1.0000     -51.284802     -1395.5304   15-A'
  18   1.0000     -51.282440     -1395.4661   16-A'
  19   1.0000     -51.280706     -1395.4190    4-A"
  20   1.0000     -51.280592     -1395.4158   17-A'
  21   1.0000     -38.014258     -1034.4206   18-A'
  22   1.0000     -33.517009      -912.0442   19-A'
  23   1.0000     -33.516206      -912.0223   20-A'
  24   1.0000     -33.514362      -911.9721    5-A"
  25   1.0000      -9.829534      -267.4752   21-A'
  26   1.0000      -9.820873      -267.2395   22-A'
  27   1.0000      -9.814510      -267.0664   23-A'
  28   1.0000      -9.813368      -267.0353   24-A'
  29   1.0000      -9.811611      -266.9875   25-A'
  30   1.0000      -9.811531      -266.9853   26-A'
  31   1.0000      -9.809844      -266.9394   27-A'
  32   1.0000      -9.807530      -266.8764   28-A'
  33   1.0000      -9.805661      -266.8256   29-A'
  34   1.0000      -9.804990      -266.8073   30-A'
  35   1.0000      -9.804338      -266.7896   31-A'
  36   1.0000      -9.801152      -266.7029   32-A'
  37   1.0000      -7.344622      -199.8573   33-A'
  38   1.0000      -7.341458      -199.7712   34-A'
  39   1.0000      -7.334217      -199.5742   35-A'
  40   1.0000      -7.331270      -199.4940   36-A'
  41   1.0000      -5.407096      -147.1346   37-A'
  42   1.0000      -5.404571      -147.0659   38-A'
  43   1.0000      -5.404174      -147.0551   39-A'
  44   1.0000      -5.403047      -147.0244   40-A'
  45   1.0000      -5.400878      -146.9654   41-A'
  46   1.0000      -5.400736      -146.9615    6-A"
  47   1.0000      -5.398956      -146.9131    7-A"
  48   1.0000      -5.398867      -146.9106   42-A'
  49   1.0000      -5.398419      -146.8984    8-A"
  50   1.0000      -5.398261      -146.8941   43-A'
  51   1.0000      -5.397603      -146.8762    9-A"
  52   1.0000      -5.397229      -146.8661   44-A'
  53   1.0000      -3.994297      -108.6903   45-A'
  54   1.0000      -2.507301       -68.2271   10-A"
  55   1.0000      -2.506888       -68.2159   46-A'
  56   1.0000      -2.505800       -68.1863   47-A'
  57   1.0000      -1.747934       -47.5637   48-A'
  58   1.0000      -1.743511       -47.4433   49-A'
  59   1.0000      -1.743224       -47.4355   50-A'
  60   1.0000      -1.742937       -47.4277   51-A'
  61   1.0000      -1.742645       -47.4198   11-A"
  62   1.0000      -1.740821       -47.3702   52-A'
  63   1.0000      -1.740324       -47.3566   53-A'
  64   1.0000      -1.740218       -47.3537   12-A"
  65   1.0000      -1.739860       -47.3440   54-A'
  66   1.0000      -1.739752       -47.3411   13-A"
  67   1.0000      -1.738630       -47.3105   14-A"
  68   1.0000      -1.738519       -47.3075   55-A'
  69   1.0000      -1.737222       -47.2722   56-A'
  70   1.0000      -1.737151       -47.2703   15-A"
  71   1.0000      -1.735425       -47.2233   57-A'
  72   1.0000      -1.735356       -47.2214   16-A"
  73   1.0000      -1.734792       -47.2061   17-A"
  74   1.0000      -1.734774       -47.2056   58-A'
  75   1.0000      -1.733968       -47.1837   18-A"
  76   1.0000      -1.733925       -47.1825   59-A'
  77   1.0000      -0.614644       -16.7253   60-A'
  78   1.0000      -0.602733       -16.4012   61-A'
  79   1.0000      -0.535764       -14.5789   62-A'
  80   1.0000      -0.520132       -14.1535   63-A'
  81   1.0000      -0.500511       -13.6196   64-A'
  82   1.0000      -0.482567       -13.1313   65-A'
  83   1.0000      -0.414430       -11.2772   66-A'
  84   1.0000      -0.407552       -11.0900   67-A'
  85   1.0000      -0.391631       -10.6568   68-A'
  86   1.0000      -0.382245       -10.4014   69-A'
  87   1.0000      -0.318982        -8.6799   70-A'
  88   1.0000      -0.315527        -8.5859   71-A'
  89   1.0000      -0.285508        -7.7691   72-A'
  90   1.0000      -0.275523        -7.4974   73-A'
  91   1.0000      -0.229857        -6.2547   74-A'
  92   1.0000      -0.222749        -6.0613   75-A'
  93   1.0000      -0.203656        -5.5418   76-A'
  94   1.0000      -0.201197        -5.4748   77-A'
  95   1.0000      -0.170620        -4.6428   78-A'
  96   1.0000      -0.164364        -4.4726   79-A'
  97   1.0000      -0.140512        -3.8235   80-A'
  98   1.0000      -0.139775        -3.8035   19-A"
  99   1.0000      -0.131745        -3.5850   81-A'
 100   1.0000      -0.130989        -3.5644   20-A"
 101   1.0000      -0.126368        -3.4387   82-A'
 102   1.0000      -0.112944        -3.0734   83-A'
 103   1.0000      -0.074273        -2.0211   84-A'
 104   1.0000      -0.065300        -1.7769   85-A'
 105   1.0000      -0.056999        -1.5510   21-A"
 106   1.0000      -0.055970        -1.5230   86-A'
 107   1.0000      -0.047151        -1.2830   22-A"
 108   1.0000      -0.036594        -0.9958   87-A'
 109   1.0000      -0.032039        -0.8718   23-A"
 110   1.0000      -0.021361        -0.5813   88-A'
 111   1.0000      -0.021302        -0.5797   24-A"
 112   1.0000      -0.002613        -0.0711   89-A'
 113   1.0000       0.006810         0.1853   25-A"
 114   1.0000       0.010515         0.2861   26-A"
 115   1.0000       0.011362         0.3092   90-A'
 116   1.0000       0.030214         0.8222   91-A'
 117   1.0000       0.031960         0.8697   92-A'
 118   1.0000       0.051768         1.4087   93-A'
 119   1.0000       0.059468         1.6182   27-A"
 120   1.0000       0.061921         1.6849   28-A"
 121   1.0000       0.069113         1.8807   29-A"
 122   1.0000       0.098851         2.6899   30-A"
 123   0.0000       0.144953         3.9444   94-A'
 124   0.0000       0.184410         5.0181   95-A'
 125   0.0000       0.184724         5.0266   96-A'
 126   0.0000       0.191336         5.2065   31-A"
 127   0.0000       0.198879         5.4118   97-A'

MULLIKEN ATOMIC CHARGES AND SPIN POPULATIONS
--------------------------------------------
   0 Cu:    0.635363    0.308680
   1 Se:   -0.720349    0.182187
   2 C :    0.214621   -0.002206
   3 Se:   -0.716783    0.189438
   4 C :    0.178620    0.003672
   5 Se:   -0.738056    0.164997
   6 C :    0.205616   -0.001993
   7 Se:   -0.732067    0.154306
   8 C :    0.225856   -0.005161
   9 C :   -0.076798    0.001214
  10 C :   -0.101819   -0.007599
  11 C :    0.044644    0.000443
  12 H :    0.045787    0.004588
  13 C :   -0.306140   -0.001704
  14 H :    0.102850    0.000869
  15 H :    0.008134    0.003904
  16 H :    0.002703    0.000969
  17 C :   -0.107982   -0.003289
  18 C :   -0.092196   -0.002672
  19 C :   -0.126138    0.000149
  20 H :    0.083714    0.003148
  21 C :   -0.162243   -0.000635
  22 H :    0.090464    0.002831
  23 H :    0.027035    0.002130
  24 H :    0.015164    0.001735
Sum of atomic charges         :   -2.0000000

LOEWDIN ATOMIC CHARGES AND SPIN POPULATIONS
-------------------------------------------
   0 Cu:   -0.618518    0.389158
   1 Se:   -0.211596    0.131734
   2 C :    0.045553    0.013048
   3 Se:   -0.223254    0.138014
   4 C :    0.170889    0.012291
   5 Se:   -0.201738    0.116594
   6 C :    0.027860    0.012292
   7 Se:   -0.173671    0.107448
   8 C :   -0.111991    0.016611
   9 C :    0.370251    0.006485
  10 C :    0.368990    0.005834
  11 C :    0.264296    0.001685
  12 H :   -0.410077    0.007345
  13 C :    0.349341   -0.000602
  14 H :   -0.477790    0.007915
  15 H :   -0.419895    0.001490
  16 H :   -0.400391   -0.000016
  17 C :    0.372785    0.007152
  18 C :    0.364922    0.006096
  19 C :    0.318052    0.001126
  20 H :   -0.447751    0.008801
  21 C :    0.320048    0.000501
  22 H :   -0.452721    0.007858
  23 H :   -0.417016    0.000694
  24 H :   -0.406579    0.000446

  Mayer bond orders larger than 0.100000
B(  0-Cu,  1-Se) :   0.5508 B(  0-Cu,  3-Se) :   0.5464 B(  0-Cu,  5-Se) :   0.5539
B(  0-Cu,  7-Se) :   0.5474 B(  1-Se,  2-C ) :   1.0452 B(  2-C ,  6-C ) :   1.1143
B(  2-C , 17-C ) :   1.2962 B(  3-Se,  4-C ) :   1.0075 B(  4-C ,  8-C ) :   1.1029
B(  4-C , 10-C ) :   1.2950 B(  5-Se,  6-C ) :   1.0508 B(  6-C , 18-C ) :   1.2940
B(  7-Se,  8-C ) :   1.1427 B(  8-C ,  9-C ) :   1.2521 B(  9-C , 13-C ) :   1.2722
B(  9-C , 14-H ) :   0.9464 B( 10-C , 11-C ) :   1.3369 B( 10-C , 12-H ) :   0.9884
B( 11-C , 13-C ) :   1.3590 B( 11-C , 15-H ) :   0.9710 B( 13-C , 16-H ) :   1.0269
B( 17-C , 19-C ) :   1.3274 B( 17-C , 20-H ) :   0.9660 B( 18-C , 21-C ) :   1.3204
B( 18-C , 22-H ) :   0.9609 B( 19-C , 21-C ) :   1.3622 B( 19-C , 23-H ) :   0.9881
B( 21-C , 24-H ) :   1.0012

FINAL SINGLE POINT ENERGY    -11627.029152201208

DIPOLE MOMENT
-------------
                                X             Y             Z
Electronic contribution:     -0.33468       0.11758       0.00000
Nuclear contribution   :      0.28979      -0.28900       0.00000
                        -----------------------------------------
Total Dipole Moment    :     -0.04489      -0.17142       0.00000
                        -----------------------------------------
Magnitude (a.u.)       :      0.17720
Magnitude (Debye)      :      0.45042

Rotational constants in cm-1:     0.017599     0.004102     0.003327
Rotational constants in MHz :   527.612411   122.985449    99.736955

                             ****ORCA TERMINATED NORMALLY****
TOTAL RUN TIME: 0 days 19 hours 6 minutes 55 seconds 38 msec
