                         Program Version 5.0.4 -  RELEASE  -
|  1> ! RIJCOSX nofrozencore ReducedPop printbasis
|  2> ! M06L ano-rcc-dzp autoaux
|  3>
|  4> %maxcore 7500
|  5> %basis
|  6> PCDTrimBas overlap
|  7> PCDTrimAuxJ Coulomb
|  8> PCDTrimAuxJK Coulomb
|  9> PCDTrimAuxC Coulomb
| 10> PCDThresh -1
| 11> end
| 12>
| 13> %basis
| 14> newgto Cu "ano-rcc-tzp" end
| 15> newgto Se "ano-rcc-tzp" end
| 16> end
| 17>
| 18> %pal
| 19> nprocs 8
| 20> end
| 21>
| 22> % sym SymThresh 1e-2 end
| 23> * xyz -2 2
| 24> Cu 0.0015223172572959682 -0.00522979394355824 0.00709218093932046
| 25> Se 0.5267782002530282 -1.0888518138241399 2.014368443339019
| 26> C 1.2018133809475047 -0.03656332715112644 3.102396151831866
| 27> Se -0.8987849984354876 -1.8640324315692745 -1.1662261967462655
| 28> C -1.32915218858544 -1.3340121457500127 -2.5925643799186515
| 29> Se 0.8706705713878404 1.9431832529058077 1.045882935516005
| 30> C 1.2877613604895979 1.2649388128090564 2.5286266041834247
| 31> Se -0.5312098061645031 1.1103436536459268 -2.0388381762170056
| 32> C -1.1356458993714702 -0.09661215999021412 -2.8515676379991044
| 33> C -1.544071763619405 0.26152434946161135 -4.116807282645125
| 34> C -1.865479734222779 -2.1716477334435895 -3.456061881397877
| 35> C -2.2882431537671852 -1.856497012352165 -4.73182127566808
| 36> H -1.984364531967002 -3.190487885824092 -3.1391563480940388
| 37> C -2.1335766398654172 -0.5293061327881657 -5.145146924918902
| 38> H -1.3885503815547053 1.3041737982294053 -4.354344075176096
| 39> H -2.7187802326969077 -2.6277834510594587 -5.364668398173889
| 40> H -2.407424013200337 -0.10890423860286971 -6.103464793397823
| 41> C 1.6380397852071191 -0.37424305883855224 4.426404285071324
| 42> C 1.8546192823742997 2.061821944329082 3.495232388875092
| 43> C 2.213257311104196 0.45753783096470296 5.393143604633195
| 44> H 1.4890540698507853 -1.417175388974354 4.680863713325159
| 45> C 2.286631097675297 1.7341987000719905 4.8023036519942055
| 46> H 2.0088201223570974 3.1087320276188475 3.2517118200214217
| 47> H 2.5331322964421172 0.1697119576146614 6.388539898777066
| 48> H 2.7058245271949115 2.581828577092294 5.359501578009845
| 49> *
| 50>
| 51> % eprnmr
| 52> gtensor true
| 53> Nuclei = all H {aiso,adip,aorb,fgrad,rho}
| 54> Nuclei = all Cu {aiso,adip,aorb,fgrad,rho}
| 55> end
| 56>
| 57>                          ****END OF INPUT****

CARTESIAN COORDINATES (ANGSTROEM)
---------------------------------
  Cu    -0.005050    0.007380    0.000000
  Se    -1.027195    2.113207    0.000000
  C      0.102740    3.325658    0.000000
  Se    -1.967157   -1.331468    0.000000
  C     -1.487309   -2.838228    0.000000
  Se     2.043006    1.205831    0.000000
  C      1.413477    2.766665    0.000000
  Se     1.048161   -2.138520    0.000000
  C     -0.228172   -3.062418    0.000000
  C      0.082431   -4.403846    0.000000
  C     -2.386634   -3.800580    0.000000
  C     -2.120655   -5.155152    0.000000
  H     -3.418685   -3.504827    0.000000
  C     -0.776279   -5.540961    0.000000
  H      1.142523   -4.613447    0.000000
  H     -2.941408   -5.867265    0.000000
  H     -0.387848   -6.550527    0.000000
  C     -0.184196    4.731000    0.000000
  C      2.275612    3.837833    0.000000
  C      0.713785    5.803823    0.000000
  H     -1.243814    4.958738    0.000000
  C      1.998238    5.225446    0.000000
  H      3.339809    3.621999    0.000000
  H      0.463191    6.858896    0.000000
  H      2.893978    5.859733    0.000000

 Total Charge           Charge          ....   -2
 Multiplicity           Mult            ....    2
 Number of Electrons    NEL             ....  247
 Basis Dimension        Dim             ....  575

ORBITAL ENERGIES
----------------
                 SPIN UP ORBITALS
  NO   OCC          E(Eh)            E(eV)    Irrep
   0   1.0000    -443.580903    -12070.4500    1-A'
   1   1.0000    -443.556545    -12069.7872    2-A'
   2   1.0000    -443.555203    -12069.7507    3-A'
   3   1.0000    -443.538127    -12069.2860    4-A'
   4   1.0000    -318.184973     -8658.2533    5-A'
   5   1.0000     -56.382927     -1534.2574    6-A'
   6   1.0000     -56.367903     -1533.8486    7-A'
   7   1.0000     -56.360826     -1533.6560    8-A'
   8   1.0000     -56.351139     -1533.3924    9-A'
   9   1.0000     -51.293288     -1395.7613   10-A'
  10   1.0000     -51.292605     -1395.7427   11-A'
  11   1.0000     -51.292094     -1395.7288   12-A'
  12   1.0000     -51.291532     -1395.7135    1-A"
  13   1.0000     -51.291014     -1395.6994   13-A'
  14   1.0000     -51.290517     -1395.6859    2-A"
  15   1.0000     -51.283951     -1395.5072   14-A'
  16   1.0000     -51.282761     -1395.4749   15-A'
  17   1.0000     -51.282327     -1395.4630    3-A"
  18   1.0000     -51.277556     -1395.3332   16-A'
  19   1.0000     -51.276121     -1395.2942   17-A'
  20   1.0000     -51.275837     -1395.2865    4-A"
  21   1.0000     -38.025355     -1034.7225   18-A'
  22   1.0000     -33.527349      -912.3256   19-A'
  23   1.0000     -33.526613      -912.3055   20-A'
  24   1.0000     -33.515611      -912.0061    5-A"
  25   1.0000      -9.826914      -267.4039   21-A'
  26   1.0000      -9.821421      -267.2544   22-A'
  27   1.0000      -9.818576      -267.1770   23-A'
  28   1.0000      -9.817905      -267.1588   24-A'
  29   1.0000      -9.817047      -267.1354   25-A'
  30   1.0000      -9.815258      -267.0867   26-A'
  31   1.0000      -9.814064      -267.0543   27-A'
  32   1.0000      -9.806573      -266.8504   28-A'
  33   1.0000      -9.804796      -266.8021   29-A'
  34   1.0000      -9.799912      -266.6692   30-A'
  35   1.0000      -9.796856      -266.5860   31-A'
  36   1.0000      -9.790120      -266.4027   32-A'
  37   1.0000      -7.347719      -199.9416   33-A'
  38   1.0000      -7.343027      -199.8139   34-A'
  39   1.0000      -7.334423      -199.5798   35-A'
  40   1.0000      -7.328617      -199.4218   36-A'
  41   1.0000      -5.411061      -147.2424   37-A'
  42   1.0000      -5.408477      -147.1721   38-A'
  43   1.0000      -5.404957      -147.0764   39-A'
  44   1.0000      -5.404514      -147.0643    6-A"
  45   1.0000      -5.403118      -147.0263   40-A'
  46   1.0000      -5.402477      -147.0089    7-A"
  47   1.0000      -5.400447      -146.9536   41-A'
  48   1.0000      -5.397204      -146.8654   42-A'
  49   1.0000      -5.395378      -146.8157   43-A'
  50   1.0000      -5.394873      -146.8020    8-A"
  51   1.0000      -5.391759      -146.7172   44-A'
  52   1.0000      -5.391717      -146.7161    9-A"
  53   1.0000      -4.019682      -109.3811   45-A'
  54   1.0000      -2.539049       -69.0910   46-A'
  55   1.0000      -2.538275       -69.0700   47-A'
  56   1.0000      -2.515039       -68.4377   10-A"
  57   1.0000      -1.749294       -47.6007   48-A'
  58   1.0000      -1.748492       -47.5789   49-A'
  59   1.0000      -1.746776       -47.5322   50-A'
  60   1.0000      -1.746159       -47.5154   11-A"
  61   1.0000      -1.744936       -47.4821   51-A'
  62   1.0000      -1.743939       -47.4550   12-A"
  63   1.0000      -1.741263       -47.3822   52-A'
  64   1.0000      -1.741189       -47.3801   13-A"
  65   1.0000      -1.740461       -47.3604   53-A'
  66   1.0000      -1.739472       -47.3335   14-A"
  67   1.0000      -1.739427       -47.3322   54-A'
  68   1.0000      -1.737094       -47.2687   55-A'
  69   1.0000      -1.736243       -47.2456   15-A"
  70   1.0000      -1.736045       -47.2402   56-A'
  71   1.0000      -1.733397       -47.1681   57-A'
  72   1.0000      -1.732918       -47.1551   16-A"
  73   1.0000      -1.731936       -47.1284   58-A'
  74   1.0000      -1.731816       -47.1251   17-A"
  75   1.0000      -1.728509       -47.0351   18-A"
  76   1.0000      -1.728479       -47.0343   59-A'
  77   1.0000      -0.632073       -17.1996   60-A'
  78   1.0000      -0.592581       -16.1249   61-A'
  79   1.0000      -0.531248       -14.4560   62-A'
  80   1.0000      -0.517090       -14.0707   63-A'
  81   1.0000      -0.516540       -14.0558   64-A'
  82   1.0000      -0.485214       -13.2033   65-A'
  83   1.0000      -0.412978       -11.2377   66-A'
  84   1.0000      -0.408142       -11.1061   67-A'
  85   1.0000      -0.391834       -10.6623   68-A'
  86   1.0000      -0.376207       -10.2371   69-A'
  87   1.0000      -0.342004        -9.3064   70-A'
  88   1.0000      -0.313849        -8.5403   71-A'
  89   1.0000      -0.287308        -7.8180   72-A'
  90   1.0000      -0.283469        -7.7136   73-A'
  91   1.0000      -0.229278        -6.2390   74-A'
  92   1.0000      -0.222528        -6.0553   75-A'
  93   1.0000      -0.211122        -5.7449   76-A'
  94   1.0000      -0.188842        -5.1387   77-A'
  95   1.0000      -0.171633        -4.6704   78-A'
  96   1.0000      -0.166377        -4.5273   79-A'
  97   1.0000      -0.154007        -4.1907   19-A"
  98   1.0000      -0.145833        -3.9683   80-A'
  99   1.0000      -0.136377        -3.7110   81-A'
 100   1.0000      -0.125308        -3.4098   82-A'
 101   1.0000      -0.121856        -3.3159   20-A"
 102   1.0000      -0.102216        -2.7814   83-A'
 103   1.0000      -0.082926        -2.2565   84-A'
 104   1.0000      -0.072907        -1.9839   85-A'
 105   1.0000      -0.067316        -1.8317   86-A'
 106   1.0000      -0.057725        -1.5708   87-A'
 107   1.0000      -0.052597        -1.4312   21-A"
 108   1.0000      -0.045535        -1.2391   22-A"
 109   1.0000      -0.037039        -1.0079   23-A"
 110   1.0000      -0.030605        -0.8328   88-A'
 111   1.0000      -0.021813        -0.5936   89-A'
 112   1.0000      -0.021768        -0.5923   24-A"
 113   1.0000      -0.000620        -0.0169   25-A"
 114   1.0000       0.001672         0.0455   26-A"
 115   1.0000       0.001831         0.0498   90-A'
 116   1.0000       0.019402         0.5280   91-A'
 117   1.0000       0.029097         0.7918   92-A'
 118   1.0000       0.048133         1.3098   93-A'
 119   1.0000       0.054684         1.4880   27-A"
 120   1.0000       0.058839         1.6011   28-A"
 121   1.0000       0.071909         1.9568   29-A"
 122   1.0000       0.098862         2.6902   30-A"
 123   1.0000       0.118160         3.2153   94-A'
 124   0.0000       0.181172         4.9299   95-A'
 125   0.0000       0.181304         4.9335   96-A'
 126   0.0000       0.194154         5.2832   97-A'
 127   0.0000       0.197692         5.3795   31-A"
 128   0.0000       0.199655         5.4329   98-A'

                 SPIN DOWN ORBITALS
  NO   OCC          E(Eh)            E(eV)    Irrep
   0   1.0000    -443.580396    -12070.4362    1-A'
   1   1.0000    -443.556085    -12069.7747    2-A'
   2   1.0000    -443.554735    -12069.7380    3-A'
   3   1.0000    -443.537728    -12069.2752    4-A'
   4   1.0000    -318.184854     -8658.2501    5-A'
   5   1.0000     -56.382724     -1534.2519    6-A'
   6   1.0000     -56.367716     -1533.8435    7-A'
   7   1.0000     -56.360641     -1533.6510    8-A'
   8   1.0000     -56.350977     -1533.3880    9-A'
   9   1.0000     -51.292898     -1395.7507   10-A'
  10   1.0000     -51.292312     -1395.7348   11-A'
  11   1.0000     -51.291254     -1395.7060   12-A'
  12   1.0000     -51.291245     -1395.7057    1-A"
  13   1.0000     -51.290258     -1395.6789    2-A"
  14   1.0000     -51.290223     -1395.6779   13-A'
  15   1.0000     -51.283599     -1395.4977   14-A'
  16   1.0000     -51.282081     -1395.4564    3-A"
  17   1.0000     -51.282057     -1395.4557   15-A'
  18   1.0000     -51.277271     -1395.3255   16-A'
  19   1.0000     -51.275617     -1395.2805    4-A"
  20   1.0000     -51.275488     -1395.2770   17-A'
  21   1.0000     -38.011633     -1034.3491   18-A'
  22   1.0000     -33.514316      -911.9709   19-A'
  23   1.0000     -33.513576      -911.9508   20-A'
  24   1.0000     -33.511772      -911.9017    5-A"
  25   1.0000      -9.826871      -267.4027   21-A'
  26   1.0000      -9.821324      -267.2518   22-A'
  27   1.0000      -9.818515      -267.1754   23-A'
  28   1.0000      -9.817949      -267.1600   24-A'
  29   1.0000      -9.817012      -267.1345   25-A'
  30   1.0000      -9.815155      -267.0840   26-A'
  31   1.0000      -9.814065      -267.0543   27-A'
  32   1.0000      -9.806384      -266.8453   28-A'
  33   1.0000      -9.804717      -266.7999   29-A'
  34   1.0000      -9.799755      -266.6649   30-A'
  35   1.0000      -9.796872      -266.5864   31-A'
  36   1.0000      -9.790154      -266.4036   32-A'
  37   1.0000      -7.347274      -199.9295   33-A'
  38   1.0000      -7.342616      -199.8027   34-A'
  39   1.0000      -7.334012      -199.5686   35-A'
  40   1.0000      -7.328258      -199.4121   36-A'
  41   1.0000      -5.410715      -147.2330   37-A'
  42   1.0000      -5.408042      -147.1603   38-A'
  43   1.0000      -5.404194      -147.0556    6-A"
  44   1.0000      -5.404089      -147.0527   39-A'
  45   1.0000      -5.402172      -147.0006   40-A'
  46   1.0000      -5.402129      -146.9994    7-A"
  47   1.0000      -5.400077      -146.9436   41-A'
  48   1.0000      -5.396901      -146.8571   42-A'
  49   1.0000      -5.394569      -146.7937    8-A"
  50   1.0000      -5.394562      -146.7935   43-A'
  51   1.0000      -5.391429      -146.7083    9-A"
  52   1.0000      -5.391027      -146.6973   44-A'
  53   1.0000      -3.991841      -108.6235   45-A'
  54   1.0000      -2.504827       -68.1598   10-A"
  55   1.0000      -2.504277       -68.1448   46-A'
  56   1.0000      -2.503455       -68.1225   47-A'
  57   1.0000      -1.748835       -47.5882   48-A'
  58   1.0000      -1.747963       -47.5645   49-A'
  59   1.0000      -1.745895       -47.5082   50-A'
  60   1.0000      -1.745862       -47.5073   11-A"
  61   1.0000      -1.743892       -47.4537   51-A'
  62   1.0000      -1.743585       -47.4454   12-A"
  63   1.0000      -1.740432       -47.3596   52-A'
  64   1.0000      -1.740396       -47.3586   13-A"
  65   1.0000      -1.740019       -47.3483   53-A'
  66   1.0000      -1.738600       -47.3097   14-A"
  67   1.0000      -1.738507       -47.3072   54-A'
  68   1.0000      -1.736178       -47.2438   55-A'
  69   1.0000      -1.735938       -47.2373   15-A"
  70   1.0000      -1.735673       -47.2301   56-A'
  71   1.0000      -1.732644       -47.1476   16-A"
  72   1.0000      -1.732607       -47.1466   57-A'
  73   1.0000      -1.731141       -47.1067   58-A'
  74   1.0000      -1.731050       -47.1043   17-A"
  75   1.0000      -1.727808       -47.0160   18-A"
  76   1.0000      -1.727746       -47.0144   59-A'
  77   1.0000      -0.631061       -17.1720   60-A'
  78   1.0000      -0.591864       -16.1054   61-A'
  79   1.0000      -0.530234       -14.4284   62-A'
  80   1.0000      -0.516091       -14.0436   63-A'
  81   1.0000      -0.514382       -13.9970   64-A'
  82   1.0000      -0.483611       -13.1597   65-A'
  83   1.0000      -0.410643       -11.1742   66-A'
  84   1.0000      -0.405311       -11.0291   67-A'
  85   1.0000      -0.389255       -10.5922   68-A'
  86   1.0000      -0.374013       -10.1774   69-A'
  87   1.0000      -0.340052        -9.2533   70-A'
  88   1.0000      -0.312033        -8.4909   71-A'
  89   1.0000      -0.284749        -7.7484   72-A'
  90   1.0000      -0.281289        -7.6543   73-A'
  91   1.0000      -0.228050        -6.2056   74-A'
  92   1.0000      -0.221491        -6.0271   75-A'
  93   1.0000      -0.209941        -5.7128   76-A'
  94   1.0000      -0.187649        -5.1062   77-A'
  95   1.0000      -0.169933        -4.6241   78-A'
  96   1.0000      -0.163943        -4.4611   79-A'
  97   1.0000      -0.153564        -4.1787   19-A"
  98   1.0000      -0.144246        -3.9251   80-A'
  99   1.0000      -0.135030        -3.6743   81-A'
 100   1.0000      -0.123341        -3.3563   82-A'
 101   1.0000      -0.121491        -3.3059   20-A"
 102   1.0000      -0.100446        -2.7333   83-A'
 103   1.0000      -0.081005        -2.2043   84-A'
 104   1.0000      -0.070999        -1.9320   85-A'
 105   1.0000      -0.062953        -1.7130   86-A'
 106   1.0000      -0.051985        -1.4146   21-A"
 107   1.0000      -0.049713        -1.3528   87-A'
 108   1.0000      -0.044648        -1.2149   22-A"
 109   1.0000      -0.035275        -0.9599   23-A"
 110   1.0000      -0.019791        -0.5385   24-A"
 111   1.0000      -0.016464        -0.4480   88-A'
 112   1.0000      -0.001336        -0.0364   89-A'
 113   1.0000       0.009708         0.2642   25-A"
 114   1.0000       0.011714         0.3188   26-A"
 115   1.0000       0.012167         0.3311   90-A'
 116   1.0000       0.032743         0.8910   91-A'
 117   1.0000       0.037407         1.0179   92-A'
 118   1.0000       0.057203         1.5566   27-A"
 119   1.0000       0.058410         1.5894   93-A'
 120   1.0000       0.061595         1.6761   28-A"
 121   1.0000       0.073819         2.0087   29-A"
 122   1.0000       0.102120         2.7788   30-A"
 123   0.0000       0.147732         4.0200   94-A'
 124   0.0000       0.184062         5.0086   95-A'
 125   0.0000       0.184742         5.0271   96-A'
 126   0.0000       0.197910         5.3854   31-A"
 127   0.0000       0.199215         5.4209   97-A'

MULLIKEN ATOMIC CHARGES AND SPIN POPULATIONS
--------------------------------------------
   0 Cu:    0.621245    0.307052
   1 Se:   -0.719245    0.153079
   2 C :    0.159135   -0.002317
   3 Se:   -0.760695    0.172372
   4 C :    0.271520   -0.003305
   5 Se:   -0.776374    0.175953
   6 C :    0.286528   -0.004341
   7 Se:   -0.709808    0.196766
   8 C :    0.283022   -0.004919
   9 C :   -0.091721   -0.001610
  10 C :   -0.132044   -0.000789
  11 C :   -0.152164   -0.001285
  12 H :    0.092334    0.003036
  13 C :   -0.213572    0.000964
  14 H :    0.109914    0.002645
  15 H :    0.021388    0.002429
  16 H :    0.018007    0.001785
  17 C :   -0.148823   -0.000093
  18 C :   -0.049954   -0.003104
  19 C :   -0.199685   -0.001246
  20 H :    0.092823    0.001853
  21 C :   -0.124614   -0.000296
  22 H :    0.091983    0.002305
  23 H :   -0.001842    0.002491
  24 H :    0.032643    0.000576
Sum of atomic charges         :   -2.0000000

LOEWDIN ATOMIC CHARGES AND SPIN POPULATIONS
-------------------------------------------
   0 Cu:   -0.599430    0.385389
   1 Se:   -0.260227    0.106635
   2 C :    0.071230    0.012074
   3 Se:   -0.185718    0.118044
   4 C :   -0.040422    0.012033
   5 Se:   -0.158802    0.132447
   6 C :    0.056292    0.009012
   7 Se:   -0.158106    0.138812
   8 C :   -0.013696    0.009778
   9 C :    0.409104    0.010025
  10 C :    0.377745    0.008217
  11 C :    0.331264    0.000594
  12 H :   -0.454392    0.010297
  13 C :    0.345911    0.001709
  14 H :   -0.490630    0.014078
  15 H :   -0.412785    0.000667
  16 H :   -0.413397    0.000473
  17 C :    0.361532    0.005494
  18 C :    0.359525    0.005668
  19 C :    0.331067    0.000551
  20 H :   -0.470561    0.006754
  21 C :    0.315956   -0.000002
  22 H :   -0.471001    0.010562
  23 H :   -0.397484    0.000775
  24 H :   -0.432975   -0.000088

  Mayer bond orders larger than 0.100000
B(  0-Cu,  1-Se) :   0.5474 B(  0-Cu,  3-Se) :   0.5836 B(  0-Cu,  5-Se) :   0.5353
B(  0-Cu,  7-Se) :   0.5631 B(  1-Se,  2-C ) :   1.0249 B(  2-C ,  6-C ) :   1.1344
B(  2-C , 17-C ) :   1.2987 B(  3-Se,  4-C ) :   1.0629 B(  4-C ,  8-C ) :   1.0496
B(  4-C , 10-C ) :   1.2295 B(  5-Se,  6-C ) :   1.0093 B(  6-C , 18-C ) :   1.2572
B(  7-Se,  8-C ) :   1.0916 B(  8-C ,  9-C ) :   1.2263 B(  9-C , 13-C ) :   1.3725
B(  9-C , 14-H ) :   0.9447 B( 10-C , 11-C ) :   1.3840 B( 10-C , 12-H ) :   0.9591
B( 11-C , 13-C ) :   1.3123 B( 11-C , 15-H ) :   0.9948 B( 13-C , 16-H ) :   1.0026
B( 17-C , 19-C ) :   1.3634 B( 17-C , 20-H ) :   0.9602 B( 18-C , 21-C ) :   1.3475
B( 18-C , 22-H ) :   0.9595 B( 19-C , 21-C ) :   1.3180 B( 19-C , 23-H ) :   1.0146
B( 21-C , 24-H ) :   0.9902

FINAL SINGLE POINT ENERGY    -11627.067723623168

DIPOLE MOMENT
-------------
                                X             Y             Z
Electronic contribution:      1.32651      -2.77724       0.00000
Nuclear contribution   :     -1.11261       2.23070       0.00000
                        -----------------------------------------
Total Dipole Moment    :      0.21390      -0.54654       0.00000
                        -----------------------------------------
Magnitude (a.u.)       :      0.58690
Magnitude (Debye)      :      1.49179

Rotational constants in cm-1:     0.017847     0.004103     0.003336
Rotational constants in MHz :   535.052646   122.992456   100.004451

                             ****ORCA TERMINATED NORMALLY****
TOTAL RUN TIME: 0 days 17 hours 6 minutes 8 seconds 125 msec
