                         Program Version 5.0.4 -  RELEASE  -
|  1> ! RIJCOSX nofrozencore ReducedPop printbasis
|  2> ! M06L ano-rcc-dzp autoaux
|  3>
|  4> %maxcore 7500
|  5> %basis
|  6> PCDTrimBas overlap
|  7> PCDTrimAuxJ Coulomb
|  8> PCDTrimAuxJK Coulomb
|  9> PCDTrimAuxC Coulomb
| 10> PCDThresh -1
| 11> end
| 12>
| 13> %basis
| 14> newgto Cu "ano-rcc-tzp" end
| 15> newgto Se "ano-rcc-tzp" end
| 16> end
| 17>
| 18> %pal
| 19> nprocs 8
| 20> end
| 21>
| 22> % sym SymThresh 1e-2 end
| 23> * xyz -2 2
| 24> Cu -5.913907163755898e-06 7.460454352275906e-06 1.0457883290421833e-05
| 25> Se 1.083435002819842 -1.2708004806494884 1.679059950636307
| 26> C 0.5743122227078256 -0.6149111680281968 3.089810334513689
| 27> Se 0.9324516707107939 -1.1810925552144853 -1.8285421399042372
| 28> C 0.3056214053914566 -0.4553257556858062 -3.1545615350062044
| 29> Se -0.9324838080851965 1.1811301991554641 1.828490418314218
| 30> C -0.3054448231592459 0.4551438785796955 3.155780823501
| 31> Se -1.0834595728165408 1.2708320497506245 -1.6789950067596466
| 32> C -0.5744727084200782 0.6150728252796693 -3.0910548630465917
| 33> C -1.0253892836570162 1.130312761594306 -4.301462594550766
| 34> C 0.6481023213652648 -0.905118030559245 -4.425098273070837
| 35> C 0.20157845048993736 -0.39504114389820016 -5.629098709696045
| 36> H 1.3445343994590226 -1.7519677438044932 -4.468862551431735
| 37> C -0.6782195852852655 0.6753599134517244 -5.552030736741914
| 38> H -1.6966028085020124 1.9469240618908976 -4.243289809418317
| 39> H 0.5084159479515136 -0.7908753270772045 -6.499692540028266
| 40> H -1.1259316249728488 1.1932049873971398 -6.519072220537336
| 41> C 1.0210090674711663 -1.1250024208903773 4.301141138840883
| 42> C -0.6524582624056137 0.9104344710607608 4.426109596978814
| 43> C 0.6914943790361423 -0.6906847003147356 5.581807868697074
| 44> H 1.756101136658828 -2.0192749713533886 4.239478162990032
| 45> C -0.19111181547401893 0.38150164696403294 5.598013022053446
| 46> H -1.285572921268121 1.6802424628346393 4.46406673321799
| 47> H 0.9627235087069894 -1.0044301535310993 6.166569369194544
| 48> H -0.6378184277612217 0.9578110214891347 6.866872925684015
| 49> *
| 50>
| 51> % eprnmr
| 52> gtensor true
| 53> Nuclei = all H {aiso,adip,aorb,fgrad,rho}
| 54> Nuclei = all Cu {aiso,adip,aorb,fgrad,rho}
| 55> end
| 56>
| 57>                          ****END OF INPUT****

CARTESIAN COORDINATES (ANGSTROEM)
---------------------------------
  Cu     0.000010    0.000010    0.000000
  Se    -1.657945    1.690925    0.000000
  C     -0.818154    3.096046    0.000000
  Se    -1.517226   -1.818251    0.000000
  C     -0.567793   -3.151126    0.000000
  Se     1.517276    1.818199    0.000000
  C      0.567549    3.152347    0.000000
  Se     1.657985   -1.690860    0.000000
  C      0.818372   -3.097293    0.000000
  C      1.494279   -4.312626    0.000000
  C     -1.141582   -4.417868    0.000000
  C     -0.472408   -5.626746    0.000000
  H     -2.238297   -4.453979    0.000000
  C      0.913665   -5.559349    0.000000
  H      2.551722   -4.261831    0.000000
  H     -0.979094   -6.493947    0.000000
  H      1.591246   -6.531286    0.000000
  C     -1.487397    4.312256    0.000000
  C      1.148462    4.418832    0.000000
  C     -0.933725    5.589270    0.000000
  H     -2.645419    4.258673    0.000000
  C      0.455087    5.595776    0.000000
  H      2.145417    4.449830    0.000000
  H     -1.344241    6.176998    0.000000
  H      1.192779    6.859696    0.000000

 Total Charge           Charge          ....   -2
 Multiplicity           Mult            ....    2
 Number of Electrons    NEL             ....  247
 Basis Dimension        Dim             ....  575

ORBITAL ENERGIES
----------------
                 SPIN UP ORBITALS
  NO   OCC          E(Eh)            E(eV)    Irrep
   0   1.0000    -443.563772    -12069.9839    1-A'
   1   1.0000    -443.562517    -12069.9497    2-A'
   2   1.0000    -443.548960    -12069.5808    3-A'
   3   1.0000    -443.548508    -12069.5685    4-A'
   4   1.0000    -318.188923     -8658.3608    5-A'
   5   1.0000     -56.372355     -1533.9698    6-A'
   6   1.0000     -56.371673     -1533.9512    7-A'
   7   1.0000     -56.359118     -1533.6096    8-A'
   8   1.0000     -56.358591     -1533.5952    9-A'
   9   1.0000     -51.289523     -1395.6589   10-A'
  10   1.0000     -51.288136     -1395.6211   11-A'
  11   1.0000     -51.288037     -1395.6184   12-A'
  12   1.0000     -51.287751     -1395.6107    1-A"
  13   1.0000     -51.287516     -1395.6043   13-A'
  14   1.0000     -51.287110     -1395.5932   14-A'
  15   1.0000     -51.286696     -1395.5819   15-A'
  16   1.0000     -51.286256     -1395.5700    2-A"
  17   1.0000     -51.286194     -1395.5683   16-A'
  18   1.0000     -51.285777     -1395.5569   17-A'
  19   1.0000     -51.285724     -1395.5555    3-A"
  20   1.0000     -51.285289     -1395.5436    4-A"
  21   1.0000     -38.029484     -1034.8349   18-A'
  22   1.0000     -33.531562      -912.4402   19-A'
  23   1.0000     -33.530764      -912.4185   20-A'
  24   1.0000     -33.519528      -912.1127    5-A"
  25   1.0000      -9.848702      -267.9968   21-A'
  26   1.0000      -9.826285      -267.3868   22-A'
  27   1.0000      -9.819113      -267.1917   23-A'
  28   1.0000      -9.812917      -267.0231   24-A'
  29   1.0000      -9.810195      -266.9490   25-A'
  30   1.0000      -9.810051      -266.9451   26-A'
  31   1.0000      -9.809857      -266.9398   27-A'
  32   1.0000      -9.809379      -266.9268   28-A'
  33   1.0000      -9.809200      -266.9219   29-A'
  34   1.0000      -9.805567      -266.8230   30-A'
  35   1.0000      -9.801161      -266.7031   31-A'
  36   1.0000      -9.792472      -266.4667   32-A'
  37   1.0000      -7.343438      -199.8251   33-A'
  38   1.0000      -7.342752      -199.8064   34-A'
  39   1.0000      -7.335725      -199.6152   35-A'
  40   1.0000      -7.335343      -199.6048   36-A'
  41   1.0000      -5.407250      -147.1387   37-A'
  42   1.0000      -5.405811      -147.0996   38-A'
  43   1.0000      -5.405301      -147.0857   39-A'
  44   1.0000      -5.404998      -147.0775   40-A'
  45   1.0000      -5.401846      -146.9917   41-A'
  46   1.0000      -5.401633      -146.9859    6-A"
  47   1.0000      -5.400500      -146.9551   42-A'
  48   1.0000      -5.400149      -146.9455    7-A"
  49   1.0000      -5.400059      -146.9431   43-A'
  50   1.0000      -5.399674      -146.9326   44-A'
  51   1.0000      -5.399583      -146.9301    8-A"
  52   1.0000      -5.399165      -146.9188    9-A"
  53   1.0000      -4.023770      -109.4923   45-A'
  54   1.0000      -2.543373       -69.2087   46-A'
  55   1.0000      -2.542401       -69.1822   47-A'
  56   1.0000      -2.518787       -68.5397   10-A"
  57   1.0000      -1.746276       -47.5186   48-A'
  58   1.0000      -1.744861       -47.4801   49-A'
  59   1.0000      -1.744360       -47.4664   50-A'
  60   1.0000      -1.744054       -47.4581   51-A'
  61   1.0000      -1.743428       -47.4411   52-A'
  62   1.0000      -1.742899       -47.4267   11-A"
  63   1.0000      -1.742082       -47.4045   53-A'
  64   1.0000      -1.741597       -47.3913   54-A'
  65   1.0000      -1.741370       -47.3851   12-A"
  66   1.0000      -1.741293       -47.3830   55-A'
  67   1.0000      -1.740873       -47.3716   13-A"
  68   1.0000      -1.740468       -47.3605   14-A"
  69   1.0000      -1.738455       -47.3058   56-A'
  70   1.0000      -1.738379       -47.3037   15-A"
  71   1.0000      -1.737038       -47.2672   16-A"
  72   1.0000      -1.736984       -47.2657   57-A'
  73   1.0000      -1.736538       -47.2536   58-A'
  74   1.0000      -1.736467       -47.2517   17-A"
  75   1.0000      -1.736118       -47.2422   18-A"
  76   1.0000      -1.736060       -47.2406   59-A'
  77   1.0000      -0.607248       -16.5241   60-A'
  78   1.0000      -0.604233       -16.4420   61-A'
  79   1.0000      -0.533301       -14.5118   62-A'
  80   1.0000      -0.523073       -14.2336   63-A'
  81   1.0000      -0.503669       -13.7055   64-A'
  82   1.0000      -0.500956       -13.6317   65-A'
  83   1.0000      -0.429711       -11.6930   66-A'
  84   1.0000      -0.414683       -11.2841   67-A'
  85   1.0000      -0.385641       -10.4938   68-A'
  86   1.0000      -0.381231       -10.3738   69-A'
  87   1.0000      -0.324167        -8.8210   70-A'
  88   1.0000      -0.321331        -8.7439   71-A'
  89   1.0000      -0.309650        -8.4260   72-A'
  90   1.0000      -0.288234        -7.8432   73-A'
  91   1.0000      -0.232630        -6.3302   74-A'
  92   1.0000      -0.226160        -6.1541   75-A'
  93   1.0000      -0.203590        -5.5400   76-A'
  94   1.0000      -0.201474        -5.4824   77-A'
  95   1.0000      -0.169424        -4.6103   78-A'
  96   1.0000      -0.160846        -4.3768   79-A'
  97   1.0000      -0.153904        -4.1879   80-A'
  98   1.0000      -0.140076        -3.8117   81-A'
  99   1.0000      -0.133356        -3.6288   19-A"
 100   1.0000      -0.131948        -3.5905   20-A"
 101   1.0000      -0.129259        -3.5173   82-A'
 102   1.0000      -0.105211        -2.8629   83-A'
 103   1.0000      -0.084068        -2.2876   84-A'
 104   1.0000      -0.071099        -1.9347   85-A'
 105   1.0000      -0.067925        -1.8483   86-A'
 106   1.0000      -0.061916        -1.6848   87-A'
 107   1.0000      -0.051184        -1.3928   21-A"
 108   1.0000      -0.049663        -1.3514   22-A"
 109   1.0000      -0.035420        -0.9638   23-A"
 110   1.0000      -0.031864        -0.8671   88-A'
 111   1.0000      -0.031200        -0.8490   89-A'
 112   1.0000      -0.029139        -0.7929   24-A"
 113   1.0000      -0.003835        -0.1044   25-A"
 114   1.0000      -0.002956        -0.0804   26-A"
 115   1.0000      -0.001277        -0.0348   90-A'
 116   1.0000       0.017435         0.4744   91-A'
 117   1.0000       0.019201         0.5225   92-A'
 118   1.0000       0.039068         1.0631   93-A'
 119   1.0000       0.052851         1.4381   27-A"
 120   1.0000       0.054271         1.4768   28-A"
 121   1.0000       0.068650         1.8681   29-A"
 122   1.0000       0.097542         2.6542   30-A"
 123   1.0000       0.114212         3.1079   94-A'
 124   0.0000       0.172719         4.6999   95-A'
 125   0.0000       0.180564         4.9134   96-A'
 126   0.0000       0.195813         5.3283   97-A'
 127   0.0000       0.198078         5.3900   98-A'
 128   0.0000       0.199470         5.4278   31-A"

                 SPIN DOWN ORBITALS
  NO   OCC          E(Eh)            E(eV)    Irrep
   0   1.0000    -443.563324    -12069.9717    1-A'
   1   1.0000    -443.562065    -12069.9374    2-A'
   2   1.0000    -443.548511    -12069.5686    3-A'
   3   1.0000    -443.548054    -12069.5561    4-A'
   4   1.0000    -318.188800     -8658.3574    5-A'
   5   1.0000     -56.372173     -1533.9648    6-A'
   6   1.0000     -56.371489     -1533.9462    7-A'
   7   1.0000     -56.358939     -1533.6047    8-A'
   8   1.0000     -56.358410     -1533.5903    9-A'
   9   1.0000     -51.289205     -1395.6502   10-A'
  10   1.0000     -51.287714     -1395.6097   11-A'
  11   1.0000     -51.287506     -1395.6040    1-A"
  12   1.0000     -51.287424     -1395.6017   12-A'
  13   1.0000     -51.287185     -1395.5952   13-A'
  14   1.0000     -51.286786     -1395.5844   14-A'
  15   1.0000     -51.286008     -1395.5632    2-A"
  16   1.0000     -51.285970     -1395.5622   15-A'
  17   1.0000     -51.285471     -1395.5486    3-A"
  18   1.0000     -51.285451     -1395.5481   16-A'
  19   1.0000     -51.285042     -1395.5369   17-A'
  20   1.0000     -51.285039     -1395.5369    4-A"
  21   1.0000     -38.015591     -1034.4568   18-A'
  22   1.0000     -33.518360      -912.0809   19-A'
  23   1.0000     -33.517562      -912.0592   20-A'
  24   1.0000     -33.515648      -912.0072    5-A"
  25   1.0000      -9.848634      -267.9950   21-A'
  26   1.0000      -9.826237      -267.3855   22-A'
  27   1.0000      -9.818990      -267.1883   23-A'
  28   1.0000      -9.812947      -267.0239   24-A'
  29   1.0000      -9.810204      -266.9492   25-A'
  30   1.0000      -9.809958      -266.9425   26-A'
  31   1.0000      -9.809873      -266.9402   27-A'
  32   1.0000      -9.809349      -266.9260   28-A'
  33   1.0000      -9.809179      -266.9213   29-A'
  34   1.0000      -9.805451      -266.8199   30-A'
  35   1.0000      -9.801057      -266.7003   31-A'
  36   1.0000      -9.792422      -266.4654   32-A'
  37   1.0000      -7.343045      -199.8144   33-A'
  38   1.0000      -7.342352      -199.7956   34-A'
  39   1.0000      -7.335322      -199.6043   35-A'
  40   1.0000      -7.334935      -199.5937   36-A'
  41   1.0000      -5.406895      -147.1291   37-A'
  42   1.0000      -5.405450      -147.0898   38-A'
  43   1.0000      -5.404932      -147.0757   39-A'
  44   1.0000      -5.404635      -147.0676   40-A'
  45   1.0000      -5.401325      -146.9775    6-A"
  46   1.0000      -5.401043      -146.9698   41-A'
  47   1.0000      -5.399839      -146.9371    7-A"
  48   1.0000      -5.399682      -146.9328   42-A'
  49   1.0000      -5.399266      -146.9215    8-A"
  50   1.0000      -5.399221      -146.9203   43-A'
  51   1.0000      -5.398853      -146.9103    9-A"
  52   1.0000      -5.398845      -146.9101   44-A'
  53   1.0000      -3.995510      -108.7233   45-A'
  54   1.0000      -2.508464       -68.2588   10-A"
  55   1.0000      -2.508094       -68.2487   46-A'
  56   1.0000      -2.507048       -68.2202   47-A'
  57   1.0000      -1.745842       -47.5068   48-A'
  58   1.0000      -1.744417       -47.4680   49-A'
  59   1.0000      -1.743900       -47.4539   50-A'
  60   1.0000      -1.743601       -47.4458   51-A'
  61   1.0000      -1.742592       -47.4183   11-A"
  62   1.0000      -1.742558       -47.4174   52-A'
  63   1.0000      -1.741196       -47.3803   53-A'
  64   1.0000      -1.741062       -47.3767   12-A"
  65   1.0000      -1.740688       -47.3665   54-A'
  66   1.0000      -1.740557       -47.3630   13-A"
  67   1.0000      -1.740396       -47.3586   55-A'
  68   1.0000      -1.740158       -47.3521   14-A"
  69   1.0000      -1.737668       -47.2844   56-A'
  70   1.0000      -1.737630       -47.2833   15-A"
  71   1.0000      -1.736278       -47.2465   16-A"
  72   1.0000      -1.736186       -47.2440   57-A'
  73   1.0000      -1.735725       -47.2315   58-A'
  74   1.0000      -1.735689       -47.2305   17-A"
  75   1.0000      -1.735350       -47.2213   18-A"
  76   1.0000      -1.735256       -47.2187   59-A'
  77   1.0000      -0.606504       -16.5038   60-A'
  78   1.0000      -0.603429       -16.4201   61-A'
  79   1.0000      -0.532314       -14.4850   62-A'
  80   1.0000      -0.521944       -14.2028   63-A'
  81   1.0000      -0.502066       -13.6619   64-A'
  82   1.0000      -0.499263       -13.5856   65-A'
  83   1.0000      -0.427342       -11.6286   66-A'
  84   1.0000      -0.412006       -11.2112   67-A'
  85   1.0000      -0.382947       -10.4205   68-A'
  86   1.0000      -0.378782       -10.3072   69-A'
  87   1.0000      -0.322736        -8.7821   70-A'
  88   1.0000      -0.319550        -8.6954   71-A'
  89   1.0000      -0.307243        -8.3605   72-A'
  90   1.0000      -0.285746        -7.7755   73-A'
  91   1.0000      -0.230750        -6.2790   74-A'
  92   1.0000      -0.224629        -6.1125   75-A'
  93   1.0000      -0.202308        -5.5051   76-A'
  94   1.0000      -0.200221        -5.4483   77-A'
  95   1.0000      -0.167844        -4.5673   78-A'
  96   1.0000      -0.159246        -4.3333   79-A'
  97   1.0000      -0.152789        -4.1576   80-A'
  98   1.0000      -0.138632        -3.7724   81-A'
  99   1.0000      -0.132963        -3.6181   19-A"
 100   1.0000      -0.131558        -3.5799   20-A"
 101   1.0000      -0.127405        -3.4669   82-A'
 102   1.0000      -0.102891        -2.7998   83-A'
 103   1.0000      -0.082404        -2.2423   84-A'
 104   1.0000      -0.069454        -1.8900   85-A'
 105   1.0000      -0.062242        -1.6937   86-A'
 106   1.0000      -0.054831        -1.4920   87-A'
 107   1.0000      -0.050209        -1.3663   21-A"
 108   1.0000      -0.048903        -1.3307   22-A"
 109   1.0000      -0.033062        -0.8997   23-A"
 110   1.0000      -0.028151        -0.7660   24-A"
 111   1.0000      -0.024892        -0.6773   88-A'
 112   1.0000      -0.003966        -0.1079   89-A'
 113   1.0000       0.005811         0.1581   25-A"
 114   1.0000       0.008243         0.2243   26-A"
 115   1.0000       0.009100         0.2476   90-A'
 116   1.0000       0.027332         0.7437   91-A'
 117   1.0000       0.030300         0.8245   92-A'
 118   1.0000       0.050287         1.3684   93-A'
 119   1.0000       0.054825         1.4919   27-A"
 120   1.0000       0.057779         1.5723   28-A"
 121   1.0000       0.070376         1.9150   29-A"
 122   1.0000       0.100782         2.7424   30-A"
 123   0.0000       0.143844         3.9142   94-A'
 124   0.0000       0.175137         4.7657   95-A'
 125   0.0000       0.182697         4.9714   96-A'
 126   0.0000       0.198622         5.4048   97-A'
 127   0.0000       0.199395         5.4258   98-A'

MULLIKEN ATOMIC CHARGES AND SPIN POPULATIONS
--------------------------------------------
   0 Cu:    0.637847    0.310410
   1 Se:   -0.728612    0.173787
   2 C :    0.218730   -0.003077
   3 Se:   -0.729322    0.176137
   4 C :    0.222964   -0.003280
   5 Se:   -0.729124    0.167237
   6 C :    0.214511   -0.002972
   7 Se:   -0.734374    0.172156
   8 C :    0.220042   -0.003117
   9 C :   -0.105126   -0.001736
  10 C :   -0.106912   -0.001324
  11 C :   -0.204214   -0.000312
  12 H :    0.068986    0.002619
  13 C :   -0.131001   -0.001095
  14 H :    0.120949    0.003020
  15 H :    0.131161    0.001044
  16 H :   -0.066743    0.002383
  17 C :   -0.121031   -0.001100
  18 C :   -0.141121   -0.002342
  19 C :   -0.752640    0.000167
  20 H :    0.008281    0.002216
  21 C :   -0.166787   -0.000685
  22 H :    0.204684    0.003927
  23 H :    0.839074   -0.000058
  24 H :   -0.170223    0.005995
Sum of atomic charges         :   -2.0000000

LOEWDIN ATOMIC CHARGES AND SPIN POPULATIONS
-------------------------------------------
   0 Cu:   -0.614183    0.390130
   1 Se:   -0.212436    0.123077
   2 C :    0.032352    0.011954
   3 Se:   -0.203598    0.125234
   4 C :    0.036509    0.012005
   5 Se:   -0.186138    0.120222
   6 C :    0.050536    0.011536
   7 Se:   -0.198000    0.122364
   8 C :    0.041308    0.011650
   9 C :    0.367716    0.006798
  10 C :    0.376673    0.006996
  11 C :    0.352032    0.000485
  12 H :   -0.438835    0.009532
  13 C :    0.289736    0.000415
  14 H :   -0.486112    0.009345
  15 H :   -0.500419    0.000159
  16 H :   -0.323860    0.000796
  17 C :    0.415106    0.006741
  18 C :    0.379115    0.006602
  19 C :    0.572482    0.000416
  20 H :   -0.368943    0.009502
  21 C :    0.293360    0.001246
  22 H :   -0.564532    0.009092
  23 H :   -0.931148   -0.000232
  24 H :   -0.178722    0.003933

  Mayer bond orders larger than 0.100000
B(  0-Cu,  1-Se) :   0.5546 B(  0-Cu,  3-Se) :   0.5537 B(  0-Cu,  5-Se) :   0.5436
B(  0-Cu,  7-Se) :   0.5508 B(  1-Se,  2-C ) :   1.0353 B(  2-C ,  6-C ) :   1.1331
B(  2-C , 17-C ) :   1.2616 B(  3-Se,  4-C ) :   1.0372 B(  4-C ,  8-C ) :   1.1334
B(  4-C , 10-C ) :   1.2571 B(  5-Se,  6-C ) :   1.0501 B(  6-C , 18-C ) :   1.2576
B(  7-Se,  8-C ) :   1.0401 B(  8-C ,  9-C ) :   1.2586 B(  9-C , 13-C ) :   1.3807
B(  9-C , 14-H ) :   0.9436 B( 10-C , 11-C ) :   1.3856 B( 10-C , 12-H ) :   0.9719
B( 11-C , 13-C ) :   1.3213 B( 11-C , 15-H ) :   0.9338 B( 13-C , 16-H ) :   1.0187
B( 17-C , 19-C ) :   1.4650 B( 17-C , 20-H ) :   0.9959 B( 18-C , 21-C ) :   1.4133
B( 18-C , 22-H ) :   0.8876 B( 19-C , 21-C ) :   1.4317 B( 21-C , 24-H ) :   0.9674

FINAL SINGLE POINT ENERGY    -11626.891880805828

DIPOLE MOMENT
-------------
                                X             Y             Z
Electronic contribution:     -0.42158      -0.29974      -0.00000
Nuclear contribution   :      0.25619       0.00372       0.00000
                        -----------------------------------------
Total Dipole Moment    :     -0.16539      -0.29602      -0.00000
                        -----------------------------------------
Magnitude (a.u.)       :      0.33908
Magnitude (Debye)      :      0.86188

Rotational constants in cm-1:     0.017614     0.004098     0.003324
Rotational constants in MHz :   528.048653   122.842691    99.658596

                             ****ORCA TERMINATED NORMALLY****
TOTAL RUN TIME: 0 days 19 hours 24 minutes 52 seconds 133 msec
