                         Program Version 5.0.4 -  RELEASE  -
|  1> ! RIJCOSX nofrozencore ReducedPop printbasis
|  2> ! M06L ano-rcc-dzp autoaux
|  3>
|  4> %maxcore 7500
|  5> %basis
|  6> PCDTrimBas overlap
|  7> PCDTrimAuxJ Coulomb
|  8> PCDTrimAuxJK Coulomb
|  9> PCDTrimAuxC Coulomb
| 10> PCDThresh -1
| 11> end
| 12>
| 13> %basis
| 14> newgto Cu "ano-rcc-tzp" end
| 15> newgto Se "ano-rcc-tzp" end
| 16> end
| 17>
| 18> %pal
| 19> nprocs 8
| 20> end
| 21>
| 22> % sym SymThresh 1e-2 end
| 23> * xyz -2 2
| 24> Cu -0.0002348706883506368 5.889223076391852e-05 7.627230761782016e-05
| 25> Se -0.6653500603077515 -2.0761398770150348 0.9254504587747888
| 26> C 0.62331566478502 -3.095088233626079 0.7270349025631487
| 27> Se -2.028568996415162 1.1358107086078406 0.4604091338852191
| 28> C -1.8084667493914417 2.4996283066843796 -0.059855765384229306
| 29> Se 2.0294142164735844 -1.132561755719771 -0.4617781847184396
| 30> C 1.8170746683101318 -2.5512268935570206 0.07269684437455515
| 31> Se 0.6650069370263164 2.076560250763174 -0.925444773213
| 32> C -0.6206855113893803 3.1208847527116577 -0.7362562522031298
| 33> C -0.5024265552859035 4.267121447647302 -1.1465577692540994
| 34> C -2.8557705381401806 3.7027098151664157 -0.017196778123350423
| 35> C -2.767422445701892 4.853039607326322 -0.41670750804291606
| 36> H -3.6211738033110064 3.025508476657866 0.5062380305444203
| 37> C -1.6477177149380202 5.366841191120003 -1.031617388712522
| 38> H 0.3029554535506139 4.860904870260674 -1.6597632139329375
| 39> H -3.570258164741892 5.584212377093537 -0.323574078977599
| 40> H -1.3815083596922386 6.346587047030376 -1.4490414252821453
| 41> C 0.5354436478751645 -4.311082157106674 1.1471208374389328
| 42> C 2.8245569538221846 -3.6724104361008427 0.020225674830736624
| 43> C 1.6315120502928107 -5.360904305753096 1.0362875367345015
| 44> H -0.3137193302232619 -4.798408906114662 1.6443467292027436
| 45> C 2.769824001318996 -4.840035163636495 0.4116242649898957
| 46> H 3.63742606702509 -3.122440560225848 -0.48214800289110094
| 47> H 1.3811442242368597 -6.3466963793783675 1.4492231305594994
| 48> H 3.54981690442249 -5.596351676677448 0.33567254012629394
| 49> *
| 50>
| 51> % eprnmr
| 52> gtensor true
| 53> Nuclei = all H {aiso,adip,aorb,fgrad,rho}
| 54> Nuclei = all Cu {aiso,adip,aorb,fgrad,rho}
| 55> end
| 56>
| 57>                          ****END OF INPUT****

CARTESIAN COORDINATES (ANGSTROEM)
---------------------------------
  Cu    -0.000250    0.000047    0.000000
  Se    -0.839648   -2.214610    0.000000
  C      0.487546   -3.202963    0.000000
  Se    -2.116998    1.065578    0.000000
  C     -1.799066    2.507118    0.000000
  Se     2.118100   -1.062124    0.000000
  C      1.805273   -2.560623    0.000000
  Se     0.839303    2.215030    0.000000
  C     -0.483184    3.230136    0.000000
  C     -0.287828    4.437624    0.000000
  C     -2.855432    3.703011    0.000000
  C     -2.692042    4.912960    0.000000
  H     -3.719811    2.947183    0.000000
  C     -1.455841    5.519304    0.000000
  H      0.614651    5.108542    0.000000
  H     -3.513162    5.629615    0.000000
  H     -1.111049    6.561480    0.000000
  C      0.320772   -4.481642    0.000000
  C      2.823618   -3.673188    0.000000
  C      1.438742   -5.514076    0.000000
  H     -0.622534   -5.043756    0.000000
  C      2.695399   -4.899196    0.000000
  H      3.731560   -3.047693    0.000000
  H      1.110650   -6.561617    0.000000
  H      3.490430   -5.643574    0.000000

 Total Charge           Charge          ....   -2
 Multiplicity           Mult            ....    2
 Number of Electrons    NEL             ....  247
 Basis Dimension        Dim             ....  575

ORBITAL ENERGIES
----------------
                 SPIN UP ORBITALS
  NO   OCC          E(Eh)            E(eV)    Irrep
   0   1.0000    -443.603392    -12071.0620    1-A'
   1   1.0000    -443.591132    -12070.7284    2-A'
   2   1.0000    -443.545904    -12069.4977    3-A'
   3   1.0000    -443.538037    -12069.2836    4-A'
   4   1.0000    -318.196910     -8658.5781    5-A'
   5   1.0000     -56.404973     -1534.8573    6-A'
   6   1.0000     -56.394660     -1534.5767    7-A'
   7   1.0000     -56.357486     -1533.5652    8-A'
   8   1.0000     -56.350967     -1533.3878    9-A'
   9   1.0000     -51.319397     -1396.4718   10-A'
  10   1.0000     -51.319074     -1396.4630    1-A"
  11   1.0000     -51.318595     -1396.4500   11-A'
  12   1.0000     -51.310487     -1396.2293   12-A'
  13   1.0000     -51.309636     -1396.2062    2-A"
  14   1.0000     -51.309488     -1396.2021   13-A'
  15   1.0000     -51.283315     -1395.4900   14-A'
  16   1.0000     -51.282041     -1395.4553   15-A'
  17   1.0000     -51.281366     -1395.4369    3-A"
  18   1.0000     -51.277681     -1395.3366   16-A'
  19   1.0000     -51.276358     -1395.3006   17-A'
  20   1.0000     -51.275542     -1395.2784    4-A"
  21   1.0000     -38.037425     -1035.0509   18-A'
  22   1.0000     -33.539508      -912.6564   19-A'
  23   1.0000     -33.538618      -912.6322   20-A'
  24   1.0000     -33.527624      -912.3330    5-A"
  25   1.0000      -9.828005      -267.4336   21-A'
  26   1.0000      -9.823283      -267.3051   22-A'
  27   1.0000      -9.815090      -267.0822   23-A'
  28   1.0000      -9.810264      -266.9509   24-A'
  29   1.0000      -9.808646      -266.9068   25-A'
  30   1.0000      -9.808356      -266.8989   26-A'
  31   1.0000      -9.806251      -266.8416   27-A'
  32   1.0000      -9.805320      -266.8163   28-A'
  33   1.0000      -9.804920      -266.8054   29-A'
  34   1.0000      -9.801338      -266.7080   30-A'
  35   1.0000      -9.800308      -266.6799   31-A'
  36   1.0000      -9.799603      -266.6608   32-A'
  37   1.0000      -7.373565      -200.6449   33-A'
  38   1.0000      -7.363639      -200.3748   34-A'
  39   1.0000      -7.334059      -199.5699   35-A'
  40   1.0000      -7.328475      -199.4179   36-A'
  41   1.0000      -5.435301      -147.9021   37-A'
  42   1.0000      -5.432732      -147.8321    6-A"
  43   1.0000      -5.430149      -147.7619   38-A'
  44   1.0000      -5.426185      -147.6540   39-A'
  45   1.0000      -5.422806      -147.5620    7-A"
  46   1.0000      -5.421206      -147.5185   40-A'
  47   1.0000      -5.402254      -147.0028   41-A'
  48   1.0000      -5.397478      -146.8728   42-A'
  49   1.0000      -5.397245      -146.8665   43-A'
  50   1.0000      -5.395973      -146.8319    8-A"
  51   1.0000      -5.392348      -146.7332   44-A'
  52   1.0000      -5.390539      -146.6840    9-A"
  53   1.0000      -4.031588      -109.7051   45-A'
  54   1.0000      -2.551324       -69.4251   46-A'
  55   1.0000      -2.549902       -69.3863   47-A'
  56   1.0000      -2.526784       -68.7573   10-A"
  57   1.0000      -1.778279       -48.3894   48-A'
  58   1.0000      -1.773013       -48.2461   11-A"
  59   1.0000      -1.771524       -48.2056   49-A'
  60   1.0000      -1.768597       -48.1260   12-A"
  61   1.0000      -1.768384       -48.1202   50-A'
  62   1.0000      -1.767497       -48.0960   51-A'
  63   1.0000      -1.763232       -47.9800   13-A"
  64   1.0000      -1.762502       -47.9601   52-A'
  65   1.0000      -1.759001       -47.8649   14-A"
  66   1.0000      -1.758894       -47.8619   53-A'
  67   1.0000      -1.741071       -47.3770   54-A'
  68   1.0000      -1.738808       -47.3154   55-A'
  69   1.0000      -1.737466       -47.2789   15-A"
  70   1.0000      -1.736114       -47.2421   56-A'
  71   1.0000      -1.734090       -47.1870   57-A'
  72   1.0000      -1.733273       -47.1647   58-A'
  73   1.0000      -1.733255       -47.1643   16-A"
  74   1.0000      -1.732350       -47.1396   17-A"
  75   1.0000      -1.728046       -47.0225   18-A"
  76   1.0000      -1.728036       -47.0222   59-A'
  77   1.0000      -0.601728       -16.3739   60-A'
  78   1.0000      -0.598468       -16.2851   61-A'
  79   1.0000      -0.534465       -14.5435   62-A'
  80   1.0000      -0.531563       -14.4646   63-A'
  81   1.0000      -0.519795       -14.1443   64-A'
  82   1.0000      -0.511301       -13.9132   65-A'
  83   1.0000      -0.417674       -11.3655   66-A'
  84   1.0000      -0.409980       -11.1561   67-A'
  85   1.0000      -0.380056       -10.3418   68-A'
  86   1.0000      -0.372506       -10.1364   69-A'
  87   1.0000      -0.311082        -8.4650   70-A'
  88   1.0000      -0.305088        -8.3019   71-A'
  89   1.0000      -0.289336        -7.8732   72-A'
  90   1.0000      -0.282589        -7.6896   73-A'
  91   1.0000      -0.233088        -6.3426   74-A'
  92   1.0000      -0.226092        -6.1523   75-A'
  93   1.0000      -0.205693        -5.5972   76-A'
  94   1.0000      -0.203637        -5.5413   77-A'
  95   1.0000      -0.172844        -4.7033   78-A'
  96   1.0000      -0.169222        -4.6048   79-A'
  97   1.0000      -0.143660        -3.9092   80-A'
  98   1.0000      -0.132571        -3.6074   19-A"
  99   1.0000      -0.131512        -3.5786   20-A"
 100   1.0000      -0.119127        -3.2416   81-A'
 101   1.0000      -0.115283        -3.1370   82-A'
 102   1.0000      -0.106048        -2.8857   83-A'
 103   1.0000      -0.103160        -2.8071   84-A'
 104   1.0000      -0.086821        -2.3625   85-A'
 105   1.0000      -0.060407        -1.6438   21-A"
 106   1.0000      -0.057980        -1.5777   22-A"
 107   1.0000      -0.050144        -1.3645   23-A"
 108   1.0000      -0.049822        -1.3557   86-A'
 109   1.0000      -0.044370        -1.2074   87-A'
 110   1.0000      -0.041176        -1.1205   24-A"
 111   1.0000      -0.028341        -0.7712   88-A'
 112   1.0000      -0.019841        -0.5399   89-A'
 113   1.0000      -0.012444        -0.3386   25-A"
 114   1.0000      -0.007204        -0.1960   26-A"
 115   1.0000      -0.002879        -0.0783   90-A'
 116   1.0000       0.018532         0.5043   91-A'
 117   1.0000       0.027951         0.7606   92-A'
 118   1.0000       0.038234         1.0404   93-A'
 119   1.0000       0.052818         1.4372   27-A"
 120   1.0000       0.059344         1.6148   28-A"
 121   1.0000       0.075578         2.0566   29-A"
 122   1.0000       0.100651         2.7389   30-A"
 123   1.0000       0.104697         2.8489   94-A'
 124   0.0000       0.182210         4.9582   31-A"
 125   0.0000       0.183149         4.9837   95-A'
 126   0.0000       0.185997         5.0612   96-A'
 127   0.0000       0.187669         5.1067   32-A"
 128   0.0000       0.196824         5.3558   97-A'

                 SPIN DOWN ORBITALS
  NO   OCC          E(Eh)            E(eV)    Irrep
   0   1.0000    -443.602974    -12071.0506    1-A'
   1   1.0000    -443.590679    -12070.7161    2-A'
   2   1.0000    -443.545470    -12069.4859    3-A'
   3   1.0000    -443.537592    -12069.2715    4-A'
   4   1.0000    -318.196781     -8658.5746    5-A'
   5   1.0000     -56.404800     -1534.8526    6-A'
   6   1.0000     -56.394474     -1534.5717    7-A'
   7   1.0000     -56.357313     -1533.5605    8-A'
   8   1.0000     -56.350790     -1533.3830    9-A'
   9   1.0000     -51.319032     -1396.4619   10-A'
  10   1.0000     -51.318837     -1396.4566    1-A"
  11   1.0000     -51.317993     -1396.4336   11-A'
  12   1.0000     -51.310130     -1396.2196   12-A'
  13   1.0000     -51.309380     -1396.1992    2-A"
  14   1.0000     -51.308793     -1396.1832   13-A'
  15   1.0000     -51.282976     -1395.4807   14-A'
  16   1.0000     -51.281356     -1395.4366   15-A'
  17   1.0000     -51.281130     -1395.4305    3-A"
  18   1.0000     -51.277310     -1395.3265   16-A'
  19   1.0000     -51.275675     -1395.2821   17-A'
  20   1.0000     -51.275301     -1395.2719    4-A"
  21   1.0000     -38.023759     -1034.6791   18-A'
  22   1.0000     -33.526505      -912.3026   19-A'
  23   1.0000     -33.525647      -912.2792   20-A'
  24   1.0000     -33.523802      -912.2290    5-A"
  25   1.0000      -9.828088      -267.4359   21-A'
  26   1.0000      -9.823342      -267.3067   22-A'
  27   1.0000      -9.815011      -267.0800   23-A'
  28   1.0000      -9.810200      -266.9491   24-A'
  29   1.0000      -9.808595      -266.9054   25-A'
  30   1.0000      -9.808200      -266.8947   26-A'
  31   1.0000      -9.806160      -266.8392   27-A'
  32   1.0000      -9.805302      -266.8158   28-A'
  33   1.0000      -9.804841      -266.8033   29-A'
  34   1.0000      -9.801021      -266.6993   30-A'
  35   1.0000      -9.800067      -266.6734   31-A'
  36   1.0000      -9.799462      -266.6569   32-A'
  37   1.0000      -7.373192      -200.6347   33-A'
  38   1.0000      -7.363235      -200.3638   34-A'
  39   1.0000      -7.333671      -199.5593   35-A'
  40   1.0000      -7.328077      -199.4071   36-A'
  41   1.0000      -5.434952      -147.8926   37-A'
  42   1.0000      -5.432413      -147.8235    6-A"
  43   1.0000      -5.429410      -147.7417   38-A'
  44   1.0000      -5.425814      -147.6439   39-A'
  45   1.0000      -5.422471      -147.5529    7-A"
  46   1.0000      -5.420393      -147.4964   40-A'
  47   1.0000      -5.401888      -146.9928   41-A'
  48   1.0000      -5.397080      -146.8620   42-A'
  49   1.0000      -5.396463      -146.8452   43-A'
  50   1.0000      -5.395687      -146.8241    8-A"
  51   1.0000      -5.391561      -146.7118   44-A'
  52   1.0000      -5.390250      -146.6762    9-A"
  53   1.0000      -4.003716      -108.9466   45-A'
  54   1.0000      -2.517194       -68.4963   46-A'
  55   1.0000      -2.516602       -68.4802   10-A"
  56   1.0000      -2.514372       -68.4195   47-A'
  57   1.0000      -1.777898       -48.3791   48-A'
  58   1.0000      -1.772690       -48.2373   11-A"
  59   1.0000      -1.770696       -48.1831   49-A'
  60   1.0000      -1.767863       -48.1060   12-A"
  61   1.0000      -1.767591       -48.0986   50-A'
  62   1.0000      -1.767089       -48.0849   51-A'
  63   1.0000      -1.762898       -47.9709   13-A"
  64   1.0000      -1.761605       -47.9357   52-A'
  65   1.0000      -1.758212       -47.8434   14-A"
  66   1.0000      -1.758037       -47.8386   53-A'
  67   1.0000      -1.740608       -47.3644   54-A'
  68   1.0000      -1.737933       -47.2916   55-A'
  69   1.0000      -1.737167       -47.2707   15-A"
  70   1.0000      -1.735603       -47.2282   56-A'
  71   1.0000      -1.733179       -47.1622   57-A'
  72   1.0000      -1.732547       -47.1450   58-A'
  73   1.0000      -1.732543       -47.1449   16-A"
  74   1.0000      -1.732028       -47.1309   17-A"
  75   1.0000      -1.727334       -47.0031   18-A"
  76   1.0000      -1.727321       -47.0028   59-A'
  77   1.0000      -0.600580       -16.3426   60-A'
  78   1.0000      -0.597029       -16.2460   61-A'
  79   1.0000      -0.532985       -14.5033   62-A'
  80   1.0000      -0.530227       -14.4282   63-A'
  81   1.0000      -0.517418       -14.0797   64-A'
  82   1.0000      -0.508882       -13.8474   65-A'
  83   1.0000      -0.415679       -11.3112   66-A'
  84   1.0000      -0.408199       -11.1076   67-A'
  85   1.0000      -0.377330       -10.2677   68-A'
  86   1.0000      -0.369582       -10.0568   69-A'
  87   1.0000      -0.309276        -8.4158   70-A'
  88   1.0000      -0.303227        -8.2512   71-A'
  89   1.0000      -0.287012        -7.8100   72-A'
  90   1.0000      -0.280160        -7.6235   73-A'
  91   1.0000      -0.231805        -6.3077   74-A'
  92   1.0000      -0.224811        -6.1174   75-A'
  93   1.0000      -0.204348        -5.5606   76-A'
  94   1.0000      -0.202292        -5.5046   77-A'
  95   1.0000      -0.171268        -4.6605   78-A'
  96   1.0000      -0.166847        -4.5401   79-A'
  97   1.0000      -0.141294        -3.8448   80-A'
  98   1.0000      -0.131991        -3.5917   19-A"
  99   1.0000      -0.130789        -3.5590   20-A"
 100   1.0000      -0.117337        -3.1929   81-A'
 101   1.0000      -0.113008        -3.0751   82-A'
 102   1.0000      -0.103956        -2.8288   83-A'
 103   1.0000      -0.096400        -2.6232   84-A'
 104   1.0000      -0.085246        -2.3197   85-A'
 105   1.0000      -0.059491        -1.6188   21-A"
 106   1.0000      -0.057172        -1.5557   22-A"
 107   1.0000      -0.048075        -1.3082   23-A"
 108   1.0000      -0.045841        -1.2474   86-A'
 109   1.0000      -0.039593        -1.0774   24-A"
 110   1.0000      -0.026487        -0.7207   87-A'
 111   1.0000      -0.013295        -0.3618   88-A'
 112   1.0000      -0.010916        -0.2970   89-A'
 113   1.0000      -0.001695        -0.0461   25-A"
 114   1.0000       0.003846         0.1046   26-A"
 115   1.0000       0.009367         0.2549   90-A'
 116   1.0000       0.026645         0.7250   91-A'
 117   1.0000       0.033535         0.9125   92-A'
 118   1.0000       0.048166         1.3107   93-A'
 119   1.0000       0.054838         1.4922   27-A"
 120   1.0000       0.061677         1.6783   28-A"
 121   1.0000       0.076853         2.0913   29-A"
 122   1.0000       0.103293         2.8107   30-A"
 123   0.0000       0.133074         3.6211   94-A'
 124   0.0000       0.182786         4.9738   31-A"
 125   0.0000       0.184604         5.0233   95-A'
 126   0.0000       0.187781         5.1098   96-A'
 127   0.0000       0.188170         5.1204   32-A"

MULLIKEN ATOMIC CHARGES AND SPIN POPULATIONS
--------------------------------------------
   0 Cu:    0.614192    0.312481
   1 Se:   -0.768809    0.173160
   2 C :    0.227078    0.002880
   3 Se:   -0.364474    0.146166
   4 C :    0.028309   -0.009909
   5 Se:   -0.500346    0.163423
   6 C :    0.095103   -0.007936
   7 Se:   -0.797608    0.178285
   8 C :    0.230692    0.006249
   9 C :   -0.026459   -0.007860
  10 C :   -0.151775    0.013512
  11 C :   -0.052589   -0.001100
  12 H :    0.027763    0.000311
  13 C :   -0.272843    0.004251
  14 H :    0.050799    0.008292
  15 H :    0.010587    0.004293
  16 H :    0.006337    0.001663
  17 C :   -0.058153   -0.004866
  18 C :   -0.141395    0.007854
  19 C :   -0.237430    0.000162
  20 H :    0.074438    0.004964
  21 C :   -0.081876   -0.000547
  22 H :    0.064812    0.000378
  23 H :    0.009633    0.001487
  24 H :    0.014014    0.002406
Sum of atomic charges         :   -2.0000000

LOEWDIN ATOMIC CHARGES AND SPIN POPULATIONS
-------------------------------------------
   0 Cu:   -0.582976    0.386039
   1 Se:   -0.244416    0.118587
   2 C :    0.026355    0.013440
   3 Se:   -0.092734    0.107520
   4 C :    0.055923    0.015502
   5 Se:   -0.121942    0.119463
   6 C :    0.053556    0.015773
   7 Se:   -0.263978    0.121327
   8 C :    0.012829    0.015041
   9 C :    0.361224    0.007360
  10 C :    0.344855    0.011981
  11 C :    0.227526    0.001657
  12 H :   -0.478934    0.013134
  13 C :    0.356302    0.003860
  14 H :   -0.404750    0.008286
  15 H :   -0.405118    0.001973
  16 H :   -0.433688    0.000559
  17 C :    0.372540    0.006381
  18 C :    0.343303    0.009433
  19 C :    0.354925    0.001087
  20 H :   -0.435293    0.007744
  21 C :    0.258972    0.000820
  22 H :   -0.480104    0.011864
  23 H :   -0.420955    0.000155
  24 H :   -0.403424    0.001015

  Mayer bond orders larger than 0.100000
B(  0-Cu,  1-Se) :   0.5954 B(  0-Cu,  3-Se) :   0.4792 B(  0-Cu,  5-Se) :   0.5074
B(  0-Cu,  7-Se) :   0.6139 B(  1-Se,  2-C ) :   0.9734 B(  2-C ,  6-C ) :   1.0904
B(  2-C , 17-C ) :   1.3545 B(  3-Se,  4-C ) :   1.3715 B(  3-Se, 13-C ) :   0.1181
B(  4-C ,  8-C ) :   1.0450 B(  4-C , 10-C ) :   1.1126 B(  5-Se,  6-C ) :   1.2602
B(  5-Se, 19-C ) :   0.1038 B(  6-C , 18-C ) :   1.1541 B(  7-Se,  8-C ) :   0.9451
B(  8-C ,  9-C ) :   1.4247 B(  9-C , 13-C ) :   1.1999 B(  9-C , 14-H ) :   0.9569
B( 10-C , 11-C ) :   1.4849 B( 10-C , 12-H ) :   0.9498 B( 11-C , 13-C ) :   1.3097
B( 11-C , 15-H ) :   0.9836 B( 13-C , 16-H ) :   1.0076 B( 17-C , 19-C ) :   1.2801
B( 17-C , 20-H ) :   0.9621 B( 18-C , 21-C ) :   1.4717 B( 18-C , 22-H ) :   0.9505
B( 19-C , 21-C ) :   1.2891 B( 19-C , 23-H ) :   1.0033 B( 21-C , 24-H ) :   0.9865

FINAL SINGLE POINT ENERGY    -11626.861978135385

DIPOLE MOMENT
-------------
                                X             Y             Z
Electronic contribution:      0.02047      -0.24155       0.00000
Nuclear contribution   :     -0.02457      -0.08683       0.00000
                        -----------------------------------------
Total Dipole Moment    :     -0.00410      -0.32839       0.00000
                        -----------------------------------------
Magnitude (a.u.)       :      0.32841
Magnitude (Debye)      :      0.83476

Rotational constants in cm-1:     0.017597     0.004099     0.003325
Rotational constants in MHz :   527.555957   122.887338    99.670406

                             ****ORCA TERMINATED NORMALLY****
TOTAL RUN TIME: 0 days 16 hours 42 minutes 56 seconds 559 msec
