                         Program Version 5.0.4 -  RELEASE  -
|  1> ! RIJCOSX nofrozencore ReducedPop printbasis
|  2> ! M06L ano-rcc-dzp autoaux
|  3>
|  4> %maxcore 7500
|  5> %basis
|  6> PCDTrimBas overlap
|  7> PCDTrimAuxJ Coulomb
|  8> PCDTrimAuxJK Coulomb
|  9> PCDTrimAuxC Coulomb
| 10> PCDThresh -1
| 11> end
| 12>
| 13> %basis
| 14> newgto Cu "ano-rcc-tzp" end
| 15> newgto Se "ano-rcc-tzp" end
| 16> end
| 17>
| 18> %pal
| 19> nprocs 8
| 20> end
| 21>
| 22> % sym SymThresh 1e-2 end
| 23> * xyz -2 2
| 24> Cu 0.0 0.0 0.0
| 25> Se -1.7059884011021549 -0.3364865000195929 -1.6075934584653164
| 26> C -0.9613681143746347 -1.0990874506587547 -2.8503734197955883
| 27> Se -1.3857390817316335 1.0708127735922388 1.5940713659068924
| 28> C -0.3896078520905884 1.413111788898684 2.847475695459036
| 29> Se 1.3857526732497745 -1.0707560318805085 -1.594097665123317
| 30> C 0.39115558621888497 -1.4066503264754047 -2.85047051872939
| 31> Se 1.7059752343189558 0.33643153148635424 1.6076189358312278
| 32> C 0.9598114608125581 1.0925887514871524 2.8533855019267214
| 33> C 1.6815726934561963 1.446035952414474 3.988472935398865
| 34> C -0.8848166134636297 2.055225186615119 3.9774077043752505
| 35> C -0.16525044668221578 2.402385459734993 5.100942956295651
| 36> H -1.9358210598742314 2.303764393525821 3.9643397117082455
| 37> C 1.1861391357288797 2.083803145885787 5.1058015881248116
| 38> H 2.731090881576706 1.190965165675606 3.9866611871661286
| 39> H -0.6485336963688333 2.9113702555827046 5.92833382431282
| 40> H 1.8361398925247512 2.307437158022883 5.945262101734747
| 41> C -1.684847915778239 -1.459709332466027 -3.9821365577501617
| 42> C 0.888095991950067 -2.041534475481711 -3.983753212188205
| 43> C -1.2022381677843454 -2.1510132175440533 -5.074651488854217
| 44> H -2.6950318256640022 -1.0404262588013977 -4.0564355637008065
| 45> C 0.18135308898468777 -2.3351603160595484 -5.132100041295608
| 46> H 1.8997701951078707 -2.4542691241225043 -3.894582272917695
| 47> H -1.7502769632418256 -1.9489776002919101 -6.111404525020525
| 48> H 0.562638701871642 -3.2699679516099303 -5.762126380775255
| 49> *
| 50>
| 51> % eprnmr
| 52> gtensor true
| 53> Nuclei = all H {aiso,adip,aorb,fgrad,rho}
| 54> Nuclei = all Cu {aiso,adip,aorb,fgrad,rho}
| 55> end
| 56>
| 57>                          ****END OF INPUT****

CARTESIAN COORDINATES (ANGSTROEM)
---------------------------------
  Cu     0.000000    0.000000    0.000000
  Se    -1.545241    0.369838   -1.755969
  C     -0.676136    0.154335   -3.126639
  Se    -1.545226    0.369900    1.755969
  C     -0.674434    0.161444    3.126639
  Se     1.545241   -0.369838   -1.755969
  C      0.676136   -0.154335   -3.126639
  Se     1.545226   -0.369900    1.755969
  C      0.674434   -0.161444    3.126639
  C      1.282675   -0.306824    4.368893
  C     -1.282675    0.306824    4.368893
  C     -0.675445    0.160364    5.597896
  H     -2.332457    0.560685    4.360734
  C      0.675445   -0.160364    5.597896
  H      2.332457   -0.560685    4.360734
  H     -1.241679    0.304777    6.512078
  H      1.241679   -0.304777    6.512078
  C     -1.286268    0.291816   -4.368893
  C      1.286268   -0.291816   -4.368893
  C     -0.693094    0.086631   -5.597895
  H     -2.292936    0.725797   -4.360734
  C      0.693094   -0.086631   -5.597895
  H      2.292936   -0.725797   -4.360734
  H     -1.147546    0.698059   -6.512077
  H      1.147546   -0.698059   -6.512077

 Total Charge           Charge          ....   -2
 Multiplicity           Mult            ....    2
 Number of Electrons    NEL             ....  247
 Basis Dimension        Dim             ....  575

ORBITAL ENERGIES
----------------
                 SPIN UP ORBITALS
  NO   OCC          E(Eh)            E(eV)    Irrep
   0   1.0000    -443.565212    -12070.0230    1-B
   1   1.0000    -443.563764    -12069.9836    2-B
   2   1.0000    -443.551037    -12069.6373    1-A
   3   1.0000    -443.549664    -12069.6000    2-A
   4   1.0000    -318.190359     -8658.3999    3-A
   5   1.0000     -56.374191     -1534.0197    3-B
   6   1.0000     -56.372849     -1533.9832    4-B
   7   1.0000     -56.361462     -1533.6734    4-A
   8   1.0000     -56.359773     -1533.6274    5-A
   9   1.0000     -51.290699     -1395.6909    5-B
  10   1.0000     -51.290652     -1395.6896    6-A
  11   1.0000     -51.289357     -1395.6544    6-B
  12   1.0000     -51.289302     -1395.6529    7-A
  13   1.0000     -51.289001     -1395.6447    8-A
  14   1.0000     -51.288955     -1395.6434    7-B
  15   1.0000     -51.288954     -1395.6434    8-B
  16   1.0000     -51.288908     -1395.6421    9-A
  17   1.0000     -51.287634     -1395.6075    9-B
  18   1.0000     -51.287575     -1395.6059   10-A
  19   1.0000     -51.287173     -1395.5949   11-A
  20   1.0000     -51.287125     -1395.5936   10-B
  21   1.0000     -38.030926     -1034.8741   12-A
  22   1.0000     -33.532991      -912.4791   11-B
  23   1.0000     -33.532163      -912.4565   13-A
  24   1.0000     -33.521028      -912.1535   12-B
  25   1.0000      -9.821071      -267.2449   14-A
  26   1.0000      -9.820655      -267.2336   13-B
  27   1.0000      -9.818027      -267.1621   15-A
  28   1.0000      -9.817579      -267.1499   14-B
  29   1.0000      -9.813054      -267.0268   16-A
  30   1.0000      -9.812612      -267.0148   15-B
  31   1.0000      -9.811602      -266.9873   17-A
  32   1.0000      -9.811589      -266.9869   16-B
  33   1.0000      -9.810876      -266.9675   18-A
  34   1.0000      -9.810424      -266.9552   17-B
  35   1.0000      -9.808686      -266.9079   19-A
  36   1.0000      -9.808686      -266.9079   18-B
  37   1.0000      -7.345582      -199.8834   19-B
  38   1.0000      -7.343910      -199.8380   20-B
  39   1.0000      -7.338369      -199.6872   20-A
  40   1.0000      -7.336520      -199.6369   21-A
  41   1.0000      -5.408584      -147.1751   21-B
  42   1.0000      -5.408566      -147.1746   22-A
  43   1.0000      -5.406736      -147.1248   22-B
  44   1.0000      -5.406718      -147.1243   23-A
  45   1.0000      -5.403317      -147.0317   23-B
  46   1.0000      -5.403311      -147.0316   24-A
  47   1.0000      -5.403053      -147.0246   25-A
  48   1.0000      -5.403047      -147.0244   24-B
  49   1.0000      -5.401461      -146.9812   25-B
  50   1.0000      -5.401436      -146.9805   26-A
  51   1.0000      -5.401027      -146.9694   27-A
  52   1.0000      -5.401001      -146.9687   26-B
  53   1.0000      -4.025214      -109.5316   28-A
  54   1.0000      -2.544785       -69.2471   27-B
  55   1.0000      -2.543792       -69.2201   29-A
  56   1.0000      -2.520325       -68.5815   28-B
  57   1.0000      -1.747614       -47.5550   30-A
  58   1.0000      -1.747585       -47.5542   29-B
  59   1.0000      -1.745736       -47.5039   31-A
  60   1.0000      -1.745707       -47.5031   30-B
  61   1.0000      -1.744898       -47.4811   32-A
  62   1.0000      -1.744822       -47.4790   31-B
  63   1.0000      -1.744291       -47.4646   32-B
  64   1.0000      -1.744288       -47.4645   33-A
  65   1.0000      -1.743115       -47.4326   34-A
  66   1.0000      -1.743034       -47.4304   33-B
  67   1.0000      -1.742282       -47.4099   34-B
  68   1.0000      -1.742275       -47.4097   35-A
  69   1.0000      -1.739943       -47.3463   36-A
  70   1.0000      -1.739889       -47.3448   35-B
  71   1.0000      -1.739866       -47.3442   36-B
  72   1.0000      -1.739857       -47.3439   37-A
  73   1.0000      -1.737962       -47.2923   38-A
  74   1.0000      -1.737908       -47.2909   37-B
  75   1.0000      -1.737887       -47.2903   38-B
  76   1.0000      -1.737878       -47.2901   39-A
  77   1.0000      -0.605435       -16.4747   40-A
  78   1.0000      -0.604955       -16.4617   41-A
  79   1.0000      -0.523677       -14.2500   42-A
  80   1.0000      -0.519881       -14.1467   43-A
  81   1.0000      -0.501786       -13.6543   39-B
  82   1.0000      -0.501534       -13.6474   40-B
  83   1.0000      -0.415106       -11.2956   41-B
  84   1.0000      -0.411442       -11.1959   42-B
  85   1.0000      -0.384715       -10.4686   44-A
  86   1.0000      -0.378052       -10.2873   45-A
  87   1.0000      -0.322678        -8.7805   46-A
  88   1.0000      -0.319950        -8.7063   47-A
  89   1.0000      -0.288713        -7.8563   43-B
  90   1.0000      -0.278301        -7.5730   44-B
  91   1.0000      -0.229840        -6.2543   48-A
  92   1.0000      -0.209676        -5.7056   49-A
  93   1.0000      -0.202337        -5.5059   50-A
  94   1.0000      -0.199817        -5.4373   51-A
  95   1.0000      -0.170994        -4.6530   45-B
  96   1.0000      -0.162177        -4.4131   46-B
  97   1.0000      -0.150492        -4.0951   47-B
  98   1.0000      -0.140207        -3.8152   48-B
  99   1.0000      -0.136216        -3.7066   52-A
 100   1.0000      -0.132798        -3.6136   49-B
 101   1.0000      -0.116120        -3.1598   50-B
 102   1.0000      -0.107974        -2.9381   53-A
 103   1.0000      -0.081114        -2.2072   54-A
 104   1.0000      -0.076129        -2.0716   51-B
 105   1.0000      -0.069979        -1.9042   52-B
 106   1.0000      -0.065289        -1.7766   55-A
 107   1.0000      -0.050608        -1.3771   53-B
 108   1.0000      -0.037628        -1.0239   54-B
 109   1.0000      -0.036020        -0.9802   56-A
 110   1.0000      -0.032722        -0.8904   57-A
 111   1.0000      -0.032315        -0.8793   55-B
 112   1.0000      -0.028795        -0.7835   58-A
 113   1.0000      -0.005234        -0.1424   59-A
 114   1.0000      -0.003871        -0.1053   56-B
 115   1.0000      -0.002468        -0.0672   60-A
 116   1.0000       0.015878         0.4321   61-A
 117   1.0000       0.017756         0.4832   62-A
 118   1.0000       0.037754         1.0273   57-B
 119   1.0000       0.049516         1.3474   63-A
 120   1.0000       0.053136         1.4459   64-A
 121   1.0000       0.067124         1.8265   58-B
 122   1.0000       0.095862         2.6085   59-B
 123   1.0000       0.113108         3.0778   60-B
 124   0.0000       0.180892         4.9223   65-A
 125   0.0000       0.183319         4.9884   66-A
 126   0.0000       0.193951         5.2777   67-A
 127   0.0000       0.195028         5.3070   61-B
 128   0.0000       0.195140         5.3100   62-B

                 SPIN DOWN ORBITALS
  NO   OCC          E(Eh)            E(eV)    Irrep
   0   1.0000    -443.564761    -12070.0108    1-B
   1   1.0000    -443.563307    -12069.9712    2-B
   2   1.0000    -443.550587    -12069.6251    1-A
   3   1.0000    -443.549207    -12069.5875    2-A
   4   1.0000    -318.190236     -8658.3965    3-A
   5   1.0000     -56.374009     -1534.0148    3-B
   6   1.0000     -56.372663     -1533.9782    4-B
   7   1.0000     -56.361282     -1533.6685    4-A
   8   1.0000     -56.359590     -1533.6224    5-A
   9   1.0000     -51.290378     -1395.6821    5-B
  10   1.0000     -51.290322     -1395.6806    6-A
  11   1.0000     -51.288764     -1395.6382    7-A
  12   1.0000     -51.288723     -1395.6371    6-B
  13   1.0000     -51.288628     -1395.6345    7-B
  14   1.0000     -51.288609     -1395.6340    8-B
  15   1.0000     -51.288573     -1395.6330    8-A
  16   1.0000     -51.288567     -1395.6329    9-A
  17   1.0000     -51.286921     -1395.5881   10-A
  18   1.0000     -51.286891     -1395.5872    9-B
  19   1.0000     -51.286872     -1395.5867   10-B
  20   1.0000     -51.286840     -1395.5859   11-A
  21   1.0000     -38.017027     -1034.4959   12-A
  22   1.0000     -33.519785      -912.1197   11-B
  23   1.0000     -33.518958      -912.0972   13-A
  24   1.0000     -33.517141      -912.0478   12-B
  25   1.0000      -9.821022      -267.2436   14-A
  26   1.0000      -9.820606      -267.2323   13-B
  27   1.0000      -9.817977      -267.1607   15-A
  28   1.0000      -9.817528      -267.1485   14-B
  29   1.0000      -9.813072      -267.0273   16-A
  30   1.0000      -9.812626      -267.0151   15-B
  31   1.0000      -9.811486      -266.9841   17-A
  32   1.0000      -9.811477      -266.9839   16-B
  33   1.0000      -9.810895      -266.9680   18-A
  34   1.0000      -9.810441      -266.9557   17-B
  35   1.0000      -9.808566      -266.9047   18-B
  36   1.0000      -9.808566      -266.9047   19-A
  37   1.0000      -7.345185      -199.8726   19-B
  38   1.0000      -7.343507      -199.8270   20-B
  39   1.0000      -7.337964      -199.6762   20-A
  40   1.0000      -7.336109      -199.6257   21-A
  41   1.0000      -5.408220      -147.1652   21-B
  42   1.0000      -5.408201      -147.1646   22-A
  43   1.0000      -5.406367      -147.1147   22-B
  44   1.0000      -5.406348      -147.1142   23-A
  45   1.0000      -5.402879      -147.0198   24-A
  46   1.0000      -5.402856      -147.0192   23-B
  47   1.0000      -5.402377      -147.0062   24-B
  48   1.0000      -5.402356      -147.0056   25-A
  49   1.0000      -5.400714      -146.9609   26-A
  50   1.0000      -5.400689      -146.9602   25-B
  51   1.0000      -5.400626      -146.9585   26-B
  52   1.0000      -5.400602      -146.9579   27-A
  53   1.0000      -3.996976      -108.7632   28-A
  54   1.0000      -2.509993       -68.3004   27-B
  55   1.0000      -2.509532       -68.2878   28-B
  56   1.0000      -2.508465       -68.2588   29-A
  57   1.0000      -1.747176       -47.5431   30-A
  58   1.0000      -1.747147       -47.5423   29-B
  59   1.0000      -1.745282       -47.4915   31-A
  60   1.0000      -1.745252       -47.4907   30-B
  61   1.0000      -1.744111       -47.4597   32-A
  62   1.0000      -1.744086       -47.4590   31-B
  63   1.0000      -1.743876       -47.4533   33-A
  64   1.0000      -1.743826       -47.4519   32-B
  65   1.0000      -1.742212       -47.4080   34-A
  66   1.0000      -1.742132       -47.4058   33-B
  67   1.0000      -1.741966       -47.4013   34-B
  68   1.0000      -1.741961       -47.4012   35-A
  69   1.0000      -1.739142       -47.3245   36-A
  70   1.0000      -1.739122       -47.3239   35-B
  71   1.0000      -1.739089       -47.3230   37-A
  72   1.0000      -1.739068       -47.3224   36-B
  73   1.0000      -1.737155       -47.2704   38-A
  74   1.0000      -1.737129       -47.2697   37-B
  75   1.0000      -1.737100       -47.2689   39-A
  76   1.0000      -1.737086       -47.2685   38-B
  77   1.0000      -0.604590       -16.4517   40-A
  78   1.0000      -0.604141       -16.4395   41-A
  79   1.0000      -0.522531       -14.2188   42-A
  80   1.0000      -0.518726       -14.1153   43-A
  81   1.0000      -0.500044       -13.6069   39-B
  82   1.0000      -0.499796       -13.6001   40-B
  83   1.0000      -0.412393       -11.2218   41-B
  84   1.0000      -0.408705       -11.1214   42-B
  85   1.0000      -0.382197       -10.4001   44-A
  86   1.0000      -0.375594       -10.2204   45-A
  87   1.0000      -0.320923        -8.7327   46-A
  88   1.0000      -0.318108        -8.6562   47-A
  89   1.0000      -0.286210        -7.7882   43-B
  90   1.0000      -0.275578        -7.4989   44-B
  91   1.0000      -0.228694        -6.2231   48-A
  92   1.0000      -0.208417        -5.6713   49-A
  93   1.0000      -0.201069        -5.4714   50-A
  94   1.0000      -0.198632        -5.4051   51-A
  95   1.0000      -0.169374        -4.6089   45-B
  96   1.0000      -0.160939        -4.3794   46-B
  97   1.0000      -0.149564        -4.0698   47-B
  98   1.0000      -0.138888        -3.7793   48-B
  99   1.0000      -0.134256        -3.6533   52-A
 100   1.0000      -0.132404        -3.6029   49-B
 101   1.0000      -0.114602        -3.1185   50-B
 102   1.0000      -0.106160        -2.8887   53-A
 103   1.0000      -0.079803        -2.1716   54-A
 104   1.0000      -0.074627        -2.0307   51-B
 105   1.0000      -0.063340        -1.7236   55-A
 106   1.0000      -0.059838        -1.6283   52-B
 107   1.0000      -0.049708        -1.3526   53-B
 108   1.0000      -0.034773        -0.9462   54-B
 109   1.0000      -0.033301        -0.9062   56-A
 110   1.0000      -0.028659        -0.7799   57-A
 111   1.0000      -0.025609        -0.6969   58-A
 112   1.0000      -0.005405        -0.1471   55-B
 113   1.0000       0.004354         0.1185   59-A
 114   1.0000       0.007143         0.1944   56-B
 115   1.0000       0.007840         0.2133   60-A
 116   1.0000       0.025823         0.7027   61-A
 117   1.0000       0.028793         0.7835   62-A
 118   1.0000       0.048994         1.3332   57-B
 119   1.0000       0.051812         1.4099   63-A
 120   1.0000       0.056310         1.5323   64-A
 121   1.0000       0.068860         1.8738   58-B
 122   1.0000       0.099114         2.6970   59-B
 123   0.0000       0.142889         3.8882   60-B
 124   0.0000       0.182737         4.9725   65-A
 125   0.0000       0.184541         5.0216   66-A
 126   0.0000       0.194636         5.2963   67-A
 127   0.0000       0.195411         5.3174   61-B

MULLIKEN ATOMIC CHARGES AND SPIN POPULATIONS
--------------------------------------------
   0 Cu:    0.637600    0.309695
   1 Se:   -0.715323    0.172276
   2 C :    0.231063   -0.003773
   3 Se:   -0.731651    0.175390
   4 C :    0.221344   -0.003244
   5 Se:   -0.715323    0.172276
   6 C :    0.231063   -0.003773
   7 Se:   -0.731651    0.175390
   8 C :    0.221344   -0.003244
   9 C :   -0.102081   -0.001507
  10 C :   -0.102081   -0.001507
  11 C :   -0.156544   -0.000671
  12 H :    0.091913    0.002773
  13 C :   -0.156544   -0.000671
  14 H :    0.091913    0.002773
  15 H :    0.021785    0.001594
  16 H :    0.021785    0.001594
  17 C :   -0.053339   -0.001055
  18 C :   -0.053339   -0.001055
  19 C :   -0.168996   -0.000615
  20 H :    0.080685    0.002332
  21 C :   -0.168996   -0.000615
  22 H :    0.080685    0.002332
  23 H :   -0.037655    0.001652
  24 H :   -0.037655    0.001652
Sum of atomic charges         :   -2.0000000

LOEWDIN ATOMIC CHARGES AND SPIN POPULATIONS
-------------------------------------------
   0 Cu:   -0.614035    0.390434
   1 Se:   -0.194545    0.122452
   2 C :    0.035896    0.011571
   3 Se:   -0.200848    0.124730
   4 C :    0.038601    0.011880
   5 Se:   -0.194545    0.122452
   6 C :    0.035896    0.011571
   7 Se:   -0.200848    0.124730
   8 C :    0.038601    0.011880
   9 C :    0.371557    0.006963
  10 C :    0.371557    0.006963
  11 C :    0.320276    0.000445
  12 H :   -0.459417    0.009475
  13 C :    0.320276    0.000445
  14 H :   -0.459417    0.009475
  15 H :   -0.411563    0.000384
  16 H :   -0.411563    0.000384
  17 C :    0.351635    0.006893
  18 C :    0.351635    0.006893
  19 C :    0.251549    0.000358
  20 H :   -0.449653    0.009102
  21 C :    0.251549    0.000358
  22 H :   -0.449653    0.009102
  23 H :   -0.346473    0.000530
  24 H :   -0.346473    0.000530

  Mayer bond orders larger than 0.100000
B(  0-Cu,  1-Se) :   0.5474 B(  0-Cu,  3-Se) :   0.5535 B(  0-Cu,  5-Se) :   0.5474
B(  0-Cu,  7-Se) :   0.5535 B(  1-Se,  2-C ) :   1.0454 B(  2-C ,  6-C ) :   1.1310
B(  2-C , 17-C ) :   1.2473 B(  3-Se,  4-C ) :   1.0396 B(  4-C ,  8-C ) :   1.1339
B(  4-C , 10-C ) :   1.2573 B(  5-Se,  6-C ) :   1.0454 B(  6-C , 18-C ) :   1.2473
B(  7-Se,  8-C ) :   1.0396 B(  8-C ,  9-C ) :   1.2573 B(  9-C , 13-C ) :   1.3795
B(  9-C , 14-H ) :   0.9598 B( 10-C , 11-C ) :   1.3795 B( 10-C , 12-H ) :   0.9598
B( 11-C , 13-C ) :   1.3126 B( 11-C , 15-H ) :   0.9955 B( 13-C , 16-H ) :   0.9955
B( 17-C , 19-C ) :   1.3877 B( 17-C , 20-H ) :   0.9642 B( 18-C , 21-C ) :   1.3877
B( 18-C , 22-H ) :   0.9642 B( 19-C , 21-C ) :   1.2725 B( 19-C , 23-H ) :   1.0145
B( 21-C , 24-H ) :   1.0145

FINAL SINGLE POINT ENERGY    -11627.111717030437

DIPOLE MOMENT
-------------
                                X             Y             Z
Electronic contribution:      0.00000      -0.00000       0.56795
Nuclear contribution   :     -0.00000      -0.00000      -0.00000
                        -----------------------------------------
Total Dipole Moment    :      0.00000      -0.00000       0.56794
                        -----------------------------------------
Magnitude (a.u.)       :      0.56794
Magnitude (Debye)      :      1.44360

Rotational constants in cm-1:     0.017605     0.004097     0.003325
Rotational constants in MHz :   527.796868   122.834692    99.666038

                             ****ORCA TERMINATED NORMALLY****
TOTAL RUN TIME: 0 days 17 hours 3 minutes 33 seconds 671 msec
