                         Program Version 5.0.4 -  RELEASE  -
|  1> ! RIJCOSX nofrozencore ReducedPop printbasis
|  2> ! M06L ano-rcc-dzp autoaux
|  3>
|  4> %maxcore 7500
|  5> %basis
|  6> PCDTrimBas overlap
|  7> PCDTrimAuxJ Coulomb
|  8> PCDTrimAuxJK Coulomb
|  9> PCDTrimAuxC Coulomb
| 10> PCDThresh -1
| 11> end
| 12>
| 13> %basis
| 14> newgto Cu "ano-rcc-tzp" end
| 15> newgto Se "ano-rcc-tzp" end
| 16> end
| 17>
| 18> %pal
| 19> nprocs 8
| 20> end
| 21>
| 22> % sym SymThresh 1e-2 end
| 23> * xyz -2 2
| 24> Cu 7.866216082232565e-06 4.370708817240633e-06 -1.3981767599537597e-07
| 25> Se 0.677130552727121 -1.2757100869510904 -1.8767089338226386
| 26> C 0.16264275835233105 -0.41564014817329975 -3.1713871358091907
| 27> Se 0.8644290409925889 -1.491558238049559 1.6235850018074598
| 28> C 0.46139178326926 -0.8192829351408133 3.06177537482482
| 29> Se -0.8605579886561213 1.4937091124219541 -1.6236538076393467
| 30> C -0.4882619033821573 0.8043530794554323 -3.0612977731789175
| 31> Se -0.6809876206794423 1.2735669827277034 1.8767774910897683
| 32> C -0.1360671843305129 0.43040634509519077 3.170914769558489
| 33> C -0.3321414341892118 0.9214526623916834 4.458134356423101
| 34> C 0.7889200437119355 -1.463613466142275 4.250844892901358
| 35> C 0.7347278584604561 -0.893360817358953 5.522270981699002
| 36> H 1.2509199126993804 -2.437802927116185 4.1577760642961445
| 37> C -0.15079998859024532 0.19793821713439044 5.636633636187459
| 38> H -0.7908049677595782 1.8989823665366719 4.5348645183280345
| 39> H 1.1971947569758248 -1.3859849518468583 6.384564719251709
| 40> H -0.5135299232043711 0.5794270890436776 6.596603325347075
| 41> C 0.38892934392334383 -0.8898994820875915 -4.459144728001054
| 42> C -0.8455498073119369 1.4321482477326466 -4.24983832991657
| 43> C 0.07105485980907583 -0.24224694413683107 -5.635217207898458
| 44> H 0.8930884492413159 -1.842150463336599 -4.536683548738053
| 45> C -0.6552615433382013 0.9375146270155381 -5.523682454228154
| 46> H -1.351606604527948 2.381858339889818 -4.1559864135787015
| 47> H 0.34301308316580664 -0.6741714297093159 -6.593572482049225
| 48> H -1.0248647479761193 1.481737793582873 -6.387626721968732
| 49> *
| 50>
| 51> % eprnmr
| 52> gtensor true
| 53> Nuclei = all H {aiso,adip,aorb,fgrad,rho}
| 54> Nuclei = all Cu {aiso,adip,aorb,fgrad,rho}
| 55> end
| 56>
| 57>                          ****END OF INPUT****

CARTESIAN COORDINATES (ANGSTROEM)
---------------------------------
  Cu    -0.000000    0.000000    0.000000
  Se     0.772153   -1.388644   -1.755969
  C      0.326892   -0.611708   -3.126639
  Se     0.776019   -1.386499    1.755969
  C      0.300156   -0.626541    3.126639
  Se    -0.772153    1.388644   -1.755969
  C     -0.326892    0.611708   -3.126639
  Se    -0.776019    1.386499    1.755969
  C     -0.300156    0.626541    3.126639
  C     -0.563241    1.195756    4.368893
  C      0.563241   -1.195756    4.368893
  C      0.444259   -0.547427    5.597895
  H      1.025793   -2.174255    4.360734
  C     -0.444259    0.547427    5.597895
  H     -1.025793    2.174255    4.360734
  H      0.858135   -0.986002    6.512078
  H     -0.858135    0.986002    6.512078
  C      0.619976   -1.164278   -4.368893
  C     -0.619976    1.164278   -4.368893
  C      0.364616   -0.591615   -5.597895
  H      1.127325   -2.117923   -4.360735
  C     -0.364616    0.591615   -5.597895
  H     -1.127325    2.117923   -4.360735
  H      0.686632   -1.081156   -6.512078
  H     -0.686632    1.081156   -6.512078

 Total Charge           Charge          ....   -2
 Multiplicity           Mult            ....    2
 Number of Electrons    NEL             ....  247
 Basis Dimension        Dim             ....  575

ORBITAL ENERGIES
----------------
                 SPIN UP ORBITALS
  NO   OCC          E(Eh)            E(eV)    Irrep
   0   1.0000    -443.561085    -12069.9108    1-B
   1   1.0000    -443.559647    -12069.8716    2-B
   2   1.0000    -443.546604    -12069.5167    1-A
   3   1.0000    -443.546425    -12069.5118    2-A
   4   1.0000    -318.186331     -8658.2903    3-A
   5   1.0000     -56.369824     -1533.9009    3-B
   6   1.0000     -56.369264     -1533.8857    4-B
   7   1.0000     -56.357076     -1533.5540    4-A
   8   1.0000     -56.356713     -1533.5441    5-A
   9   1.0000     -51.286216     -1395.5689    5-B
  10   1.0000     -51.286167     -1395.5676    6-A
  11   1.0000     -51.285940     -1395.5614    6-B
  12   1.0000     -51.285896     -1395.5602    7-A
  13   1.0000     -51.284899     -1395.5330    7-B
  14   1.0000     -51.284852     -1395.5318    8-A
  15   1.0000     -51.284611     -1395.5252    8-B
  16   1.0000     -51.284555     -1395.5237    9-A
  17   1.0000     -51.284434     -1395.5204   10-A
  18   1.0000     -51.284397     -1395.5194    9-B
  19   1.0000     -51.284164     -1395.5130   11-A
  20   1.0000     -51.284118     -1395.5118   10-B
  21   1.0000     -38.026824     -1034.7625   12-A
  22   1.0000     -33.528857      -912.3666   11-B
  23   1.0000     -33.528066      -912.3451   13-A
  24   1.0000     -33.516999      -912.0439   12-B
  25   1.0000      -9.821488      -267.2563   14-A
  26   1.0000      -9.821118      -267.2462   13-B
  27   1.0000      -9.816202      -267.1124   15-A
  28   1.0000      -9.815759      -267.1004   14-B
  29   1.0000      -9.808779      -266.9105   16-A
  30   1.0000      -9.808716      -266.9087   15-B
  31   1.0000      -9.808331      -266.8983   17-A
  32   1.0000      -9.808289      -266.8971   18-A
  33   1.0000      -9.807909      -266.8868   16-B
  34   1.0000      -9.807883      -266.8861   17-B
  35   1.0000      -9.806472      -266.8477   19-A
  36   1.0000      -9.806468      -266.8476   18-B
  37   1.0000      -7.341042      -199.7599   19-B
  38   1.0000      -7.340894      -199.7559   20-B
  39   1.0000      -7.334034      -199.5692   20-A
  40   1.0000      -7.333535      -199.5556   21-A
  41   1.0000      -5.404274      -147.0578   21-B
  42   1.0000      -5.404256      -147.0573   22-A
  43   1.0000      -5.403769      -147.0440   22-B
  44   1.0000      -5.403752      -147.0436   23-A
  45   1.0000      -5.399144      -146.9182   23-B
  46   1.0000      -5.399137      -146.9180   24-A
  47   1.0000      -5.398510      -146.9009   24-B
  48   1.0000      -5.398494      -146.9005   25-A
  49   1.0000      -5.398406      -146.8981   26-A
  50   1.0000      -5.398398      -146.8979   25-B
  51   1.0000      -5.398004      -146.8872   27-A
  52   1.0000      -5.397988      -146.8867   26-B
  53   1.0000      -4.021145      -109.4209   28-A
  54   1.0000      -2.540651       -69.1346   27-B
  55   1.0000      -2.539701       -69.1088   29-A
  56   1.0000      -2.516375       -68.4740   28-B
  57   1.0000      -1.743327       -47.4384   30-A
  58   1.0000      -1.743299       -47.4376   29-B
  59   1.0000      -1.742823       -47.4246   31-A
  60   1.0000      -1.742795       -47.4239   30-B
  61   1.0000      -1.740627       -47.3649   32-A
  62   1.0000      -1.740554       -47.3629   31-B
  63   1.0000      -1.740085       -47.3501   33-A
  64   1.0000      -1.740005       -47.3480   32-B
  65   1.0000      -1.739791       -47.3421   34-A
  66   1.0000      -1.739788       -47.3420   33-B
  67   1.0000      -1.739297       -47.3287   34-B
  68   1.0000      -1.739293       -47.3286   35-A
  69   1.0000      -1.735533       -47.2263   36-A
  70   1.0000      -1.735482       -47.2249   35-B
  71   1.0000      -1.735423       -47.2233   36-B
  72   1.0000      -1.735415       -47.2231   37-A
  73   1.0000      -1.735001       -47.2118   38-A
  74   1.0000      -1.734950       -47.2104   37-B
  75   1.0000      -1.734893       -47.2089   38-B
  76   1.0000      -1.734886       -47.2087   39-A
  77   1.0000      -0.602373       -16.3914   40-A
  78   1.0000      -0.600939       -16.3524   41-A
  79   1.0000      -0.521020       -14.1777   42-A
  80   1.0000      -0.518160       -14.0999   43-A
  81   1.0000      -0.499065       -13.5802   39-B
  82   1.0000      -0.498058       -13.5528   40-B
  83   1.0000      -0.412417       -11.2224   41-B
  84   1.0000      -0.409867       -11.1530   42-B
  85   1.0000      -0.382610       -10.4113   44-A
  86   1.0000      -0.377702       -10.2778   45-A
  87   1.0000      -0.320037        -8.7087   46-A
  88   1.0000      -0.317211        -8.6318   47-A
  89   1.0000      -0.287744        -7.8299   43-B
  90   1.0000      -0.284576        -7.7437   44-B
  91   1.0000      -0.228928        -6.2294   48-A
  92   1.0000      -0.221811        -6.0358   49-A
  93   1.0000      -0.199579        -5.4308   50-A
  94   1.0000      -0.194503        -5.2927   51-A
  95   1.0000      -0.173763        -4.7283   45-B
  96   1.0000      -0.167278        -4.5519   46-B
  97   1.0000      -0.139314        -3.7909   47-B
  98   1.0000      -0.137728        -3.7478   48-B
  99   1.0000      -0.137040        -3.7290   52-A
 100   1.0000      -0.130020        -3.5380   49-B
 101   1.0000      -0.126941        -3.4542   50-B
 102   1.0000      -0.111750        -3.0409   53-A
 103   1.0000      -0.084397        -2.2966   54-A
 104   1.0000      -0.075382        -2.0513   51-B
 105   1.0000      -0.067477        -1.8362   52-B
 106   1.0000      -0.064201        -1.7470   55-A
 107   1.0000      -0.047191        -1.2841   53-B
 108   1.0000      -0.038564        -1.0494   54-B
 109   1.0000      -0.031762        -0.8643   56-A
 110   1.0000      -0.029541        -0.8039   55-B
 111   1.0000      -0.029275        -0.7966   57-A
 112   1.0000      -0.023464        -0.6385   58-A
 113   1.0000      -0.000344        -0.0093   59-A
 114   1.0000       0.000158         0.0043   56-B
 115   1.0000       0.001218         0.0331   60-A
 116   1.0000       0.019642         0.5345   61-A
 117   1.0000       0.021320         0.5801   62-A
 118   1.0000       0.040939         1.1140   57-B
 119   1.0000       0.055814         1.5188   63-A
 120   1.0000       0.058501         1.5919   64-A
 121   1.0000       0.071308         1.9404   58-B
 122   1.0000       0.099393         2.7046   59-B
 123   1.0000       0.117075         3.1858   60-B
 124   0.0000       0.181612         4.9419   65-A
 125   0.0000       0.182192         4.9577   66-A
 126   0.0000       0.195538         5.3209   61-B
 127   0.0000       0.196351         5.3430   62-B
 128   0.0000       0.200266         5.4495   63-B

                 SPIN DOWN ORBITALS
  NO   OCC          E(Eh)            E(eV)    Irrep
   0   1.0000    -443.560635    -12069.8985    1-B
   1   1.0000    -443.559194    -12069.8593    2-B
   2   1.0000    -443.546153    -12069.5044    1-A
   3   1.0000    -443.545971    -12069.4995    2-A
   4   1.0000    -318.186209     -8658.2869    3-A
   5   1.0000     -56.369641     -1533.8959    3-B
   6   1.0000     -56.369080     -1533.8806    4-B
   7   1.0000     -56.356894     -1533.5491    4-A
   8   1.0000     -56.356533     -1533.5392    5-A
   9   1.0000     -51.285894     -1395.5601    5-B
  10   1.0000     -51.285837     -1395.5586    6-A
  11   1.0000     -51.285620     -1395.5527    6-B
  12   1.0000     -51.285568     -1395.5512    7-A
  13   1.0000     -51.284223     -1395.5146    8-A
  14   1.0000     -51.284195     -1395.5139    7-B
  15   1.0000     -51.284110     -1395.5116    8-B
  16   1.0000     -51.284081     -1395.5108    9-A
  17   1.0000     -51.283929     -1395.5067   10-A
  18   1.0000     -51.283899     -1395.5058    9-B
  19   1.0000     -51.283848     -1395.5045   10-B
  20   1.0000     -51.283816     -1395.5036   11-A
  21   1.0000     -38.013029     -1034.3871   12-A
  22   1.0000     -33.515752      -912.0100   11-B
  23   1.0000     -33.514960      -911.9884   13-A
  24   1.0000     -33.513138      -911.9388   12-B
  25   1.0000      -9.821444      -267.2551   14-A
  26   1.0000      -9.821073      -267.2450   13-B
  27   1.0000      -9.816152      -267.1111   15-A
  28   1.0000      -9.815709      -267.0990   14-B
  29   1.0000      -9.808699      -266.9083   16-A
  30   1.0000      -9.808612      -266.9059   15-B
  31   1.0000      -9.808346      -266.8987   17-A
  32   1.0000      -9.808247      -266.8960   18-A
  33   1.0000      -9.807895      -266.8864   16-B
  34   1.0000      -9.807889      -266.8862   17-B
  35   1.0000      -9.806353      -266.8444   19-A
  36   1.0000      -9.806351      -266.8444   18-B
  37   1.0000      -7.340641      -199.7490   19-B
  38   1.0000      -7.340498      -199.7451   20-B
  39   1.0000      -7.333626      -199.5581   20-A
  40   1.0000      -7.333130      -199.5446   21-A
  41   1.0000      -5.403912      -147.0479   21-B
  42   1.0000      -5.403893      -147.0474   22-A
  43   1.0000      -5.403408      -147.0342   22-B
  44   1.0000      -5.403390      -147.0337   23-A
  45   1.0000      -5.398488      -146.9003   24-A
  46   1.0000      -5.398476      -146.9000   23-B
  47   1.0000      -5.397923      -146.8850   24-B
  48   1.0000      -5.397913      -146.8847   25-A
  49   1.0000      -5.397859      -146.8832   26-A
  50   1.0000      -5.397845      -146.8828   25-B
  51   1.0000      -5.397520      -146.8740   26-B
  52   1.0000      -5.397507      -146.8736   27-A
  53   1.0000      -3.993144      -108.6590   28-A
  54   1.0000      -2.506111       -68.1948   27-B
  55   1.0000      -2.505694       -68.1834   28-B
  56   1.0000      -2.504668       -68.1555   29-A
  57   1.0000      -1.742873       -47.4260   30-A
  58   1.0000      -1.742844       -47.4252   29-B
  59   1.0000      -1.742373       -47.4124   31-A
  60   1.0000      -1.742344       -47.4116   30-B
  61   1.0000      -1.739784       -47.3419   32-A
  62   1.0000      -1.739735       -47.3406   31-B
  63   1.0000      -1.739440       -47.3326   33-A
  64   1.0000      -1.739412       -47.3318   32-B
  65   1.0000      -1.739220       -47.3266   34-A
  66   1.0000      -1.739155       -47.3248   33-B
  67   1.0000      -1.738967       -47.3197   35-A
  68   1.0000      -1.738955       -47.3194   34-B
  69   1.0000      -1.734732       -47.2045   36-A
  70   1.0000      -1.734703       -47.2037   35-B
  71   1.0000      -1.734644       -47.2021   37-A
  72   1.0000      -1.734634       -47.2018   36-B
  73   1.0000      -1.734204       -47.1901   38-A
  74   1.0000      -1.734174       -47.1893   37-B
  75   1.0000      -1.734118       -47.1878   39-A
  76   1.0000      -1.734110       -47.1875   38-B
  77   1.0000      -0.601564       -16.3694   40-A
  78   1.0000      -0.600053       -16.3283   41-A
  79   1.0000      -0.519895       -14.1471   42-A
  80   1.0000      -0.517034       -14.0692   43-A
  81   1.0000      -0.497382       -13.5344   39-B
  82   1.0000      -0.496327       -13.5057   40-B
  83   1.0000      -0.409749       -11.1498   41-B
  84   1.0000      -0.407183       -11.0800   42-B
  85   1.0000      -0.380111       -10.3433   44-A
  86   1.0000      -0.375356       -10.2140   45-A
  87   1.0000      -0.318285        -8.6610   46-A
  88   1.0000      -0.315329        -8.5805   47-A
  89   1.0000      -0.285416        -7.7666   43-B
  90   1.0000      -0.282001        -7.6736   44-B
  91   1.0000      -0.227798        -6.1987   48-A
  92   1.0000      -0.220739        -6.0066   49-A
  93   1.0000      -0.198320        -5.3966   50-A
  94   1.0000      -0.193264        -5.2590   51-A
  95   1.0000      -0.172198        -4.6858   45-B
  96   1.0000      -0.165258        -4.4969   46-B
  97   1.0000      -0.138497        -3.7687   47-B
  98   1.0000      -0.136290        -3.7086   48-B
  99   1.0000      -0.135088        -3.6759   52-A
 100   1.0000      -0.129607        -3.5268   49-B
 101   1.0000      -0.126351        -3.4382   50-B
 102   1.0000      -0.110061        -2.9949   53-A
 103   1.0000      -0.083020        -2.2591   54-A
 104   1.0000      -0.073511        -2.0003   51-B
 105   1.0000      -0.061950        -1.6857   55-A
 106   1.0000      -0.057232        -1.5574   52-B
 107   1.0000      -0.046105        -1.2546   53-B
 108   1.0000      -0.036745        -0.9999   54-B
 109   1.0000      -0.029229        -0.7954   56-A
 110   1.0000      -0.023166        -0.6304   57-A
 111   1.0000      -0.021808        -0.5934   58-A
 112   1.0000      -0.001947        -0.0530   55-B
 113   1.0000       0.009055         0.2464   59-A
 114   1.0000       0.011243         0.3059   56-B
 115   1.0000       0.011503         0.3130   60-A
 116   1.0000       0.029327         0.7980   61-A
 117   1.0000       0.032399         0.8816   62-A
 118   1.0000       0.051867         1.4114   57-B
 119   1.0000       0.058128         1.5818   63-A
 120   1.0000       0.061582         1.6757   64-A
 121   1.0000       0.073362         1.9963   58-B
 122   1.0000       0.102909         2.8003   59-B
 123   0.0000       0.146483         3.9860   60-B
 124   0.0000       0.183247         4.9864   65-A
 125   0.0000       0.184159         5.0112   66-A
 126   0.0000       0.197865         5.3842   61-B
 127   0.0000       0.199641         5.4325   62-B

MULLIKEN ATOMIC CHARGES AND SPIN POPULATIONS
--------------------------------------------
   0 Cu:    0.638739    0.307232
   1 Se:   -0.733985    0.172247
   2 C :    0.222618   -0.002940
   3 Se:   -0.727719    0.174883
   4 C :    0.232866   -0.000823
   5 Se:   -0.733985    0.172247
   6 C :    0.222618   -0.002940
   7 Se:   -0.727719    0.174883
   8 C :    0.232866   -0.000823
   9 C :   -0.109276   -0.002158
  10 C :   -0.109276   -0.002158
  11 C :   -0.166162   -0.001122
  12 H :    0.092623    0.002470
  13 C :   -0.166162   -0.001122
  14 H :    0.092623    0.002470
  15 H :    0.018234    0.001701
  16 H :    0.018234    0.001701
  17 C :   -0.104094   -0.001494
  18 C :   -0.104094   -0.001494
  19 C :   -0.157376   -0.000686
  20 H :    0.092255    0.002683
  21 C :   -0.157376   -0.000686
  22 H :    0.092255    0.002683
  23 H :    0.020645    0.001622
  24 H :    0.020645    0.001622
Sum of atomic charges         :   -2.0000000

LOEWDIN ATOMIC CHARGES AND SPIN POPULATIONS
-------------------------------------------
   0 Cu:   -0.616260    0.387751
   1 Se:   -0.202675    0.122836
   2 C :    0.038165    0.011863
   3 Se:   -0.203356    0.125333
   4 C :    0.036001    0.013295
   5 Se:   -0.202675    0.122836
   6 C :    0.038165    0.011863
   7 Se:   -0.203356    0.125333
   8 C :    0.036001    0.013295
   9 C :    0.369820    0.006431
  10 C :    0.369820    0.006431
  11 C :    0.322747    0.000006
  12 H :   -0.462005    0.008999
  13 C :    0.322747    0.000006
  14 H :   -0.462005    0.008999
  15 H :   -0.408996    0.000389
  16 H :   -0.408996    0.000389
  17 C :    0.370865    0.006857
  18 C :    0.370865    0.006857
  19 C :    0.319769    0.000447
  20 H :   -0.460338    0.009263
  21 C :    0.319769    0.000447
  22 H :   -0.460338    0.009263
  23 H :   -0.411868    0.000406
  24 H :   -0.411868    0.000406

  Mayer bond orders larger than 0.100000
B(  0-Cu,  1-Se) :   0.5495 B(  0-Cu,  3-Se) :   0.5478 B(  0-Cu,  5-Se) :   0.5495
B(  0-Cu,  7-Se) :   0.5478 B(  1-Se,  2-C ) :   1.0397 B(  2-C ,  6-C ) :   1.1327
B(  2-C , 17-C ) :   1.2576 B(  3-Se,  4-C ) :   1.0369 B(  4-C ,  8-C ) :   1.1314
B(  4-C , 10-C ) :   1.2620 B(  5-Se,  6-C ) :   1.0397 B(  6-C , 18-C ) :   1.2576
B(  7-Se,  8-C ) :   1.0369 B(  8-C ,  9-C ) :   1.2620 B(  9-C , 13-C ) :   1.3773
B(  9-C , 14-H ) :   0.9593 B( 10-C , 11-C ) :   1.3773 B( 10-C , 12-H ) :   0.9593
B( 11-C , 13-C ) :   1.3087 B( 11-C , 15-H ) :   0.9971 B( 13-C , 16-H ) :   0.9971
B( 17-C , 19-C ) :   1.3791 B( 17-C , 20-H ) :   0.9599 B( 18-C , 21-C ) :   1.3791
B( 18-C , 22-H ) :   0.9599 B( 19-C , 21-C ) :   1.3117 B( 19-C , 23-H ) :   0.9960
B( 21-C , 24-H ) :   0.9960

FINAL SINGLE POINT ENERGY    -11627.124221270798

DIPOLE MOMENT
-------------
                                X             Y             Z
Electronic contribution:     -0.00000       0.00000      -0.02386
Nuclear contribution   :     -0.00000       0.00000      -0.00000
                        -----------------------------------------
Total Dipole Moment    :     -0.00000       0.00000      -0.02386
                        -----------------------------------------
Magnitude (a.u.)       :      0.02386
Magnitude (Debye)      :      0.06064

Rotational constants in cm-1:     0.017600     0.004097     0.003325
Rotational constants in MHz :   527.633245   122.825830    99.666039

                             ****ORCA TERMINATED NORMALLY****
TOTAL RUN TIME: 0 days 17 hours 50 minutes 10 seconds 926 msec
