                         Program Version 5.0.4 -  RELEASE  -
|  1> ! RIJCOSX nofrozencore ReducedPop printbasis
|  2> ! M06L ano-rcc-dzp autoaux
|  3>
|  4> %maxcore 7500
|  5> %basis
|  6> PCDTrimBas overlap
|  7> PCDTrimAuxJ Coulomb
|  8> PCDTrimAuxJK Coulomb
|  9> PCDTrimAuxC Coulomb
| 10> PCDThresh -1
| 11> end
| 12>
| 13> %basis
| 14> newgto Cu "ano-rcc-tzp" end
| 15> newgto Se "ano-rcc-tzp" end
| 16> end
| 17>
| 18> %pal
| 19> nprocs 8
| 20> end
| 21>
| 22> % sym SymThresh 1e-2 end
| 23> * xyz -2 2
| 24> Cu -5.343536764734087e-06 2.1280237089110565e-07 -2.720538548684487e-06
| 25> Se -0.23272150817690335 2.2695466067203394 0.6348032945464758
| 26> C -0.980688225521908 2.2193796157593995 2.0903158437909206
| 27> Se 1.0678983207258734 0.44141818428234547 -2.067056577583143
| 28> C 1.3874774647523531 -1.0378280875275874 -2.6939221737149737
| 29> Se -1.069613596027353 -0.44134987472128945 2.066183284709015
| 30> C -1.3382376640547893 1.0358671491468878 2.71899148301801
| 31> Se 0.23444034583622617 -2.2696150581496424 -0.6339281879799822
| 32> C 0.9314493154138049 -2.217418712845762 -2.1153846996708654
| 33> C 1.2277307482041064 -3.3976023990013267 -2.7889361243364124
| 34> C 2.012518664386548 -1.1509952667131829 -3.9311789938339907
| 35> C 2.241981712087496 -2.3211834937944 -4.626484363266955
| 36> H 1.8741685433781947 -0.20867063789484072 -4.625103411018851
| 37> C 1.9097345733383166 -3.506967367111653 -3.9840699478848607
| 38> H 1.3601329466660392 -4.331436539870609 -2.08240915138819
| 39> H 2.8828468173846917 -2.3045172082985728 -5.517417383677684
| 40> H 1.9471475450002282 -4.475430311052666 -4.499174135922127
| 41> C -1.2763136647112616 3.3995376832567836 2.764202210361682
| 42> C -1.9639085104377623 1.1490594035451864 3.9559277330113733
| 43> C -1.8915927462642372 3.506245388161792 3.9933073987675534
| 44> H -0.9564210996168857 4.315359522112606 2.2879506886359438
| 45> C -2.2601769745292226 2.32190760076797 4.6172197069987755
| 46> H -2.277927071910963 0.22475002050643447 4.41953906485716
| 47> H -2.089995422742404 4.4811191213666355 4.426446432323236
| 48> H -2.7396853446347307 2.2988145399282187 5.590304373576566
| 49> *
| 50>
| 51> % eprnmr
| 52> gtensor true
| 53> Nuclei = all H {aiso,adip,aorb,fgrad,rho}
| 54> Nuclei = all Cu {aiso,adip,aorb,fgrad,rho}
| 55> end
| 56>
| 57>                          ****END OF INPUT****

CARTESIAN COORDINATES (ANGSTROEM)
---------------------------------
  Cu    -0.000000    0.000000   -0.000000
  Se     0.260293    1.567417    1.755969
  C      0.109331    0.684829    3.126639
  Se     0.258391    1.567733   -1.755969
  C      0.163873    0.675774   -3.126639
  Se    -0.260293   -1.567417    1.755969
  C     -0.109331   -0.684829    3.126639
  Se    -0.258391   -1.567733   -1.755969
  C     -0.163873   -0.675774   -3.126639
  C     -0.265971   -1.292758   -4.368893
  C      0.265971    1.292758   -4.368893
  C      0.095224    0.687913   -5.597896
  H     -0.022120    2.435404   -4.360734
  C     -0.095224   -0.687913   -5.597896
  H      0.022120   -2.435404   -4.360734
  H      0.354713    1.237127   -6.512078
  H     -0.354713   -1.237127   -6.512078
  C      0.212141    1.301694    4.368893
  C     -0.212141   -1.301694    4.368893
  C      0.115349    0.684572    5.597895
  H      0.425095    2.361160    4.360734
  C     -0.115349   -0.684572    5.597895
  H     -0.425095   -2.361160    4.360734
  H      0.196308    1.263425    6.512077
  H     -0.196308   -1.263425    6.512077

 Total Charge           Charge          ....   -2
 Multiplicity           Mult            ....    2
 Number of Electrons    NEL             ....  247
 Basis Dimension        Dim             ....  575

ORBITAL ENERGIES
----------------
                 SPIN UP ORBITALS
  NO   OCC          E(Eh)            E(eV)    Irrep
   0   1.0000    -443.562244    -12069.9423    1-B
   1   1.0000    -443.558922    -12069.8519    2-B
   2   1.0000    -443.547864    -12069.5510    1-A
   3   1.0000    -443.546320    -12069.5090    2-A
   4   1.0000    -318.188139     -8658.3394    3-A
   5   1.0000     -56.371077     -1533.9350    3-B
   6   1.0000     -56.369215     -1533.8843    4-B
   7   1.0000     -56.358052     -1533.5806    4-A
   8   1.0000     -56.357555     -1533.5670    5-A
   9   1.0000     -51.287232     -1395.5965    5-B
  10   1.0000     -51.287171     -1395.5949    6-A
  11   1.0000     -51.287162     -1395.5946    6-B
  12   1.0000     -51.287133     -1395.5938    7-A
  13   1.0000     -51.285917     -1395.5608    7-B
  14   1.0000     -51.285870     -1395.5595    8-A
  15   1.0000     -51.285859     -1395.5592    8-B
  16   1.0000     -51.285797     -1395.5575    9-A
  17   1.0000     -51.285488     -1395.5491   10-A
  18   1.0000     -51.285449     -1395.5480    9-B
  19   1.0000     -51.285412     -1395.5470   11-A
  20   1.0000     -51.285363     -1395.5457   10-B
  21   1.0000     -38.028716     -1034.8140   12-A
  22   1.0000     -33.530778      -912.4189   11-B
  23   1.0000     -33.529986      -912.3973   13-A
  24   1.0000     -33.518831      -912.0938   12-B
  25   1.0000      -9.817976      -267.1607   14-A
  26   1.0000      -9.817533      -267.1486   13-B
  27   1.0000      -9.816716      -267.1264   15-A
  28   1.0000      -9.816267      -267.1142   14-B
  29   1.0000      -9.814714      -267.0719   15-B
  30   1.0000      -9.814713      -267.0719   16-A
  31   1.0000      -9.811615      -266.9876   17-A
  32   1.0000      -9.811175      -266.9756   16-B
  33   1.0000      -9.809370      -266.9265   18-A
  34   1.0000      -9.808919      -266.9143   17-B
  35   1.0000      -9.807326      -266.8709   19-A
  36   1.0000      -9.807324      -266.8709   18-B
  37   1.0000      -7.342156      -199.7902   19-B
  38   1.0000      -7.341863      -199.7823   20-B
  39   1.0000      -7.335149      -199.5996   20-A
  40   1.0000      -7.334770      -199.5892   21-A
  41   1.0000      -5.405649      -147.0952   21-B
  42   1.0000      -5.405632      -147.0947   22-A
  43   1.0000      -5.405003      -147.0776   22-B
  44   1.0000      -5.404986      -147.0771   23-A
  45   1.0000      -5.400526      -146.9558   23-B
  46   1.0000      -5.400515      -146.9555   24-A
  47   1.0000      -5.399907      -146.9389   25-A
  48   1.0000      -5.399896      -146.9386   24-B
  49   1.0000      -5.399694      -146.9332   25-B
  50   1.0000      -5.399669      -146.9325   26-A
  51   1.0000      -5.399300      -146.9224   27-A
  52   1.0000      -5.399274      -146.9217   26-B
  53   1.0000      -4.022996      -109.4713   28-A
  54   1.0000      -2.542549       -69.1863   27-B
  55   1.0000      -2.541610       -69.1607   29-A
  56   1.0000      -2.518108       -68.5212   28-B
  57   1.0000      -1.744692       -47.4755   30-A
  58   1.0000      -1.744663       -47.4747   29-B
  59   1.0000      -1.744001       -47.4567   31-A
  60   1.0000      -1.743972       -47.4559   30-B
  61   1.0000      -1.742071       -47.4042   32-A
  62   1.0000      -1.741998       -47.4022   31-B
  63   1.0000      -1.741367       -47.3850   33-A
  64   1.0000      -1.741287       -47.3828   32-B
  65   1.0000      -1.741245       -47.3817   34-A
  66   1.0000      -1.741244       -47.3816   33-B
  67   1.0000      -1.740552       -47.3628   34-B
  68   1.0000      -1.740545       -47.3627   35-A
  69   1.0000      -1.736993       -47.2660   36-A
  70   1.0000      -1.736928       -47.2642   35-B
  71   1.0000      -1.736910       -47.2637   36-B
  72   1.0000      -1.736890       -47.2632   37-A
  73   1.0000      -1.736227       -47.2451   38-A
  74   1.0000      -1.736159       -47.2433   37-B
  75   1.0000      -1.736139       -47.2427   38-B
  76   1.0000      -1.736116       -47.2421   39-A
  77   1.0000      -0.603896       -16.4328   40-A
  78   1.0000      -0.603469       -16.4212   41-A
  79   1.0000      -0.522652       -14.2221   42-A
  80   1.0000      -0.521888       -14.2013   43-A
  81   1.0000      -0.500152       -13.6098   39-B
  82   1.0000      -0.497433       -13.5358   40-B
  83   1.0000      -0.413679       -11.2568   41-B
  84   1.0000      -0.411853       -11.2071   42-B
  85   1.0000      -0.384063       -10.4509   44-A
  86   1.0000      -0.379275       -10.3206   45-A
  87   1.0000      -0.320698        -8.7266   46-A
  88   1.0000      -0.310299        -8.4437   47-A
  89   1.0000      -0.287903        -7.8342   43-B
  90   1.0000      -0.284111        -7.7310   44-B
  91   1.0000      -0.229170        -6.2360   48-A
  92   1.0000      -0.220052        -5.9879   49-A
  93   1.0000      -0.201082        -5.4717   50-A
  94   1.0000      -0.199904        -5.4397   51-A
  95   1.0000      -0.170986        -4.6528   45-B
  96   1.0000      -0.166745        -4.5374   46-B
  97   1.0000      -0.140250        -3.8164   47-B
  98   1.0000      -0.137968        -3.7543   48-B
  99   1.0000      -0.137670        -3.7462   52-A
 100   1.0000      -0.131134        -3.5683   49-B
 101   1.0000      -0.110449        -3.0055   53-A
 102   1.0000      -0.108501        -2.9525   50-B
 103   1.0000      -0.083789        -2.2800   54-A
 104   1.0000      -0.073280        -1.9941   51-B
 105   1.0000      -0.067430        -1.8349   55-A
 106   1.0000      -0.067387        -1.8337   52-B
 107   1.0000      -0.049232        -1.3397   53-B
 108   1.0000      -0.047981        -1.3056   54-B
 109   1.0000      -0.033560        -0.9132   56-A
 110   1.0000      -0.031826        -0.8660   57-A
 111   1.0000      -0.030324        -0.8252   55-B
 112   1.0000      -0.018536        -0.5044   58-A
 113   1.0000      -0.002536        -0.0690   59-A
 114   1.0000      -0.002205        -0.0600   56-B
 115   1.0000       0.001463         0.0398   60-A
 116   1.0000       0.018466         0.5025   61-A
 117   1.0000       0.020605         0.5607   62-A
 118   1.0000       0.040087         1.0908   57-B
 119   1.0000       0.054088         1.4718   63-A
 120   1.0000       0.055064         1.4984   64-A
 121   1.0000       0.068883         1.8744   58-B
 122   1.0000       0.097663         2.6575   59-B
 123   1.0000       0.115303         3.1375   60-B
 124   0.0000       0.181704         4.9444   65-A
 125   0.0000       0.182132         4.9561   66-A
 126   0.0000       0.187889         5.1127   61-B
 127   0.0000       0.195881         5.3302   62-B
 128   0.0000       0.197571         5.3762   63-B

                 SPIN DOWN ORBITALS
  NO   OCC          E(Eh)            E(eV)    Irrep
   0   1.0000    -443.561792    -12069.9300    1-B
   1   1.0000    -443.558468    -12069.8395    2-B
   2   1.0000    -443.547412    -12069.5387    1-A
   3   1.0000    -443.545866    -12069.4966    2-A
   4   1.0000    -318.188016     -8658.3361    3-A
   5   1.0000     -56.370894     -1533.9300    3-B
   6   1.0000     -56.369031     -1533.8793    4-B
   7   1.0000     -56.357871     -1533.5756    4-A
   8   1.0000     -56.357374     -1533.5621    5-A
   9   1.0000     -51.286911     -1395.5878    5-B
  10   1.0000     -51.286841     -1395.5859    6-B
  11   1.0000     -51.286840     -1395.5859    6-A
  12   1.0000     -51.286803     -1395.5848    7-A
  13   1.0000     -51.285304     -1395.5441    8-A
  14   1.0000     -51.285284     -1395.5435    7-B
  15   1.0000     -51.285166     -1395.5403    9-A
  16   1.0000     -51.285131     -1395.5394    8-B
  17   1.0000     -51.285112     -1395.5388    9-B
  18   1.0000     -51.285083     -1395.5381   10-A
  19   1.0000     -51.285083     -1395.5381   10-B
  20   1.0000     -51.285054     -1395.5373   11-A
  21   1.0000     -38.014845     -1034.4365   12-A
  22   1.0000     -33.517599      -912.0602   11-B
  23   1.0000     -33.516806      -912.0387   13-A
  24   1.0000     -33.514953      -911.9882   12-B
  25   1.0000      -9.817925      -267.1593   14-A
  26   1.0000      -9.817481      -267.1473   13-B
  27   1.0000      -9.816666      -267.1251   15-A
  28   1.0000      -9.816218      -267.1129   14-B
  29   1.0000      -9.814612      -267.0692   15-B
  30   1.0000      -9.814611      -267.0692   16-A
  31   1.0000      -9.811625      -266.9879   17-A
  32   1.0000      -9.811183      -266.9759   16-B
  33   1.0000      -9.809388      -266.9270   18-A
  34   1.0000      -9.808935      -266.9147   17-B
  35   1.0000      -9.807207      -266.8677   19-A
  36   1.0000      -9.807206      -266.8677   18-B
  37   1.0000      -7.341757      -199.7794   19-B
  38   1.0000      -7.341462      -199.7713   20-B
  39   1.0000      -7.334741      -199.5884   20-A
  40   1.0000      -7.334364      -199.5782   21-A
  41   1.0000      -5.405285      -147.0853   21-B
  42   1.0000      -5.405266      -147.0848   22-A
  43   1.0000      -5.404639      -147.0677   22-B
  44   1.0000      -5.404620      -147.0672   23-A
  45   1.0000      -5.399943      -146.9399   24-A
  46   1.0000      -5.399933      -146.9397   23-B
  47   1.0000      -5.399344      -146.9236   24-B
  48   1.0000      -5.399335      -146.9234   25-A
  49   1.0000      -5.398996      -146.9142   26-A
  50   1.0000      -5.398972      -146.9135   25-B
  51   1.0000      -5.398863      -146.9105   26-B
  52   1.0000      -5.398840      -146.9099   27-A
  53   1.0000      -3.994811      -108.7043   28-A
  54   1.0000      -2.507793       -68.2405   27-B
  55   1.0000      -2.507369       -68.2290   28-B
  56   1.0000      -2.506347       -68.2012   29-A
  57   1.0000      -1.744247       -47.4634   30-A
  58   1.0000      -1.744217       -47.4626   29-B
  59   1.0000      -1.743554       -47.4445   31-A
  60   1.0000      -1.743524       -47.4437   30-B
  61   1.0000      -1.741259       -47.3821   32-A
  62   1.0000      -1.741215       -47.3809   31-B
  63   1.0000      -1.740847       -47.3709   33-A
  64   1.0000      -1.740815       -47.3700   32-B
  65   1.0000      -1.740473       -47.3607   34-A
  66   1.0000      -1.740391       -47.3584   33-B
  67   1.0000      -1.740246       -47.3545   34-B
  68   1.0000      -1.740238       -47.3543   35-A
  69   1.0000      -1.736183       -47.2439   36-A
  70   1.0000      -1.736145       -47.2429   35-B
  71   1.0000      -1.736112       -47.2420   37-A
  72   1.0000      -1.736110       -47.2419   36-B
  73   1.0000      -1.735427       -47.2234   38-A
  74   1.0000      -1.735372       -47.2219   37-B
  75   1.0000      -1.735364       -47.2216   38-B
  76   1.0000      -1.735348       -47.2212   39-A
  77   1.0000      -0.603067       -16.4103   40-A
  78   1.0000      -0.602668       -16.3994   41-A
  79   1.0000      -0.521494       -14.1906   42-A
  80   1.0000      -0.520770       -14.1709   43-A
  81   1.0000      -0.498463       -13.5639   39-B
  82   1.0000      -0.495656       -13.4875   40-B
  83   1.0000      -0.411010       -11.1841   41-B
  84   1.0000      -0.409215       -11.1353   42-B
  85   1.0000      -0.381505       -10.3813   44-A
  86   1.0000      -0.376846       -10.2545   45-A
  87   1.0000      -0.318892        -8.6775   46-A
  88   1.0000      -0.308458        -8.3936   47-A
  89   1.0000      -0.285477        -7.7682   43-B
  90   1.0000      -0.281401        -7.6573   44-B
  91   1.0000      -0.228036        -6.2052   48-A
  92   1.0000      -0.219010        -5.9596   49-A
  93   1.0000      -0.199815        -5.4372   50-A
  94   1.0000      -0.198735        -5.4079   51-A
  95   1.0000      -0.169651        -4.6164   45-B
  96   1.0000      -0.164943        -4.4883   46-B
  97   1.0000      -0.139301        -3.7906   47-B
  98   1.0000      -0.136105        -3.7036   48-B
  99   1.0000      -0.135665        -3.6916   52-A
 100   1.0000      -0.130740        -3.5576   49-B
 101   1.0000      -0.108638        -2.9562   53-A
 102   1.0000      -0.107856        -2.9349   50-B
 103   1.0000      -0.082621        -2.2482   54-A
 104   1.0000      -0.071807        -1.9540   51-B
 105   1.0000      -0.065360        -1.7785   55-A
 106   1.0000      -0.057051        -1.5524   52-B
 107   1.0000      -0.048278        -1.3137   53-B
 108   1.0000      -0.045624        -1.2415   54-B
 109   1.0000      -0.029943        -0.8148   56-A
 110   1.0000      -0.027719        -0.7543   57-A
 111   1.0000      -0.014954        -0.4069   58-A
 112   1.0000      -0.003070        -0.0835   55-B
 113   1.0000       0.007041         0.1916   59-A
 114   1.0000       0.008980         0.2443   56-B
 115   1.0000       0.011231         0.3056   60-A
 116   1.0000       0.028549         0.7769   61-A
 117   1.0000       0.031089         0.8460   62-A
 118   1.0000       0.051300         1.3959   57-B
 119   1.0000       0.055862         1.5201   63-A
 120   1.0000       0.058571         1.5938   64-A
 121   1.0000       0.070657         1.9227   58-B
 122   1.0000       0.100920         2.7462   59-B
 123   0.0000       0.144950         3.9443   60-B
 124   0.0000       0.183596         4.9959   65-A
 125   0.0000       0.183934         5.0051   66-A
 126   0.0000       0.188172         5.1204   61-B
 127   0.0000       0.199156         5.4193   62-B

MULLIKEN ATOMIC CHARGES AND SPIN POPULATIONS
--------------------------------------------
   0 Cu:    0.640793    0.308332
   1 Se:   -0.732547    0.173091
   2 C :    0.221460   -0.003254
   3 Se:   -0.703564    0.174706
   4 C :    0.246337   -0.003006
   5 Se:   -0.732547    0.173091
   6 C :    0.221460   -0.003254
   7 Se:   -0.703564    0.174706
   8 C :    0.246337   -0.003006
   9 C :   -0.102827   -0.001695
  10 C :   -0.102827   -0.001695
  11 C :   -0.131233   -0.000302
  12 H :    0.006895    0.002449
  13 C :   -0.131233   -0.000302
  14 H :    0.006895    0.002449
  15 H :    0.021641    0.001668
  16 H :    0.021641    0.001668
  17 C :   -0.102761   -0.001464
  18 C :   -0.102761   -0.001464
  19 C :   -0.156515   -0.000673
  20 H :    0.091330    0.002721
  21 C :   -0.156515   -0.000673
  22 H :    0.091330    0.002721
  23 H :    0.021386    0.001594
  24 H :    0.021386    0.001594
Sum of atomic charges         :   -2.0000000

LOEWDIN ATOMIC CHARGES AND SPIN POPULATIONS
-------------------------------------------
   0 Cu:   -0.616340    0.389600
   1 Se:   -0.201911    0.123064
   2 C :    0.038393    0.011748
   3 Se:   -0.210246    0.124404
   4 C :    0.027699    0.012465
   5 Se:   -0.201911    0.123064
   6 C :    0.038393    0.011748
   7 Se:   -0.210246    0.124404
   8 C :    0.027699    0.012465
   9 C :    0.326563    0.006304
  10 C :    0.326563    0.006304
  11 C :    0.297097    0.000591
  12 H :   -0.381032    0.008994
  13 C :    0.297097    0.000591
  14 H :   -0.381032    0.008994
  15 H :   -0.407884    0.000502
  16 H :   -0.407884    0.000502
  17 C :    0.370961    0.006902
  18 C :    0.370961    0.006902
  19 C :    0.319775    0.000444
  20 H :   -0.459286    0.009395
  21 C :    0.319775    0.000444
  22 H :   -0.459286    0.009395
  23 H :   -0.411960    0.000388
  24 H :   -0.411960    0.000388

  Mayer bond orders larger than 0.100000
B(  0-Cu,  1-Se) :   0.5506 B(  0-Cu,  3-Se) :   0.5454 B(  0-Cu,  5-Se) :   0.5506
B(  0-Cu,  7-Se) :   0.5454 B(  1-Se,  2-C ) :   1.0401 B(  2-C ,  6-C ) :   1.1336
B(  2-C , 17-C ) :   1.2572 B(  3-Se,  4-C ) :   1.0389 B(  4-C ,  8-C ) :   1.1332
B(  4-C , 10-C ) :   1.2585 B(  5-Se,  6-C ) :   1.0401 B(  6-C , 18-C ) :   1.2572
B(  7-Se,  8-C ) :   1.0389 B(  8-C ,  9-C ) :   1.2585 B(  9-C , 13-C ) :   1.3501
B(  9-C , 14-H ) :   1.0045 B( 10-C , 11-C ) :   1.3501 B( 10-C , 12-H ) :   1.0045
B( 11-C , 13-C ) :   1.3261 B( 11-C , 15-H ) :   0.9938 B( 13-C , 16-H ) :   0.9938
B( 17-C , 19-C ) :   1.3792 B( 17-C , 20-H ) :   0.9603 B( 18-C , 21-C ) :   1.3792
B( 18-C , 22-H ) :   0.9603 B( 19-C , 21-C ) :   1.3125 B( 19-C , 23-H ) :   0.9955
B( 21-C , 24-H ) :   0.9955

FINAL SINGLE POINT ENERGY    -11627.099572155794

DIPOLE MOMENT
-------------
                                X             Y             Z
Electronic contribution:     -0.00000      -0.00000       0.18098
Nuclear contribution   :      0.00000       0.00000       0.00000
                        -----------------------------------------
Total Dipole Moment    :     -0.00000      -0.00000       0.18098
                        -----------------------------------------
Magnitude (a.u.)       :      0.18098
Magnitude (Debye)      :      0.46002

Rotational constants in cm-1:     0.017606     0.004097     0.003325
Rotational constants in MHz :   527.804916   122.835127    99.666038

                             ****ORCA TERMINATED NORMALLY****
TOTAL RUN TIME: 0 days 17 hours 21 minutes 24 seconds 369 msec
