                         Program Version 5.0.4 -  RELEASE  -
|  1> ! RIJCOSX nofrozencore ReducedPop printbasis
|  2> ! M06L ano-rcc-dzp autoaux
|  3>
|  4> %maxcore 7500
|  5> %basis
|  6> PCDTrimBas overlap
|  7> PCDTrimAuxJ Coulomb
|  8> PCDTrimAuxJK Coulomb
|  9> PCDTrimAuxC Coulomb
| 10> PCDThresh -1
| 11> end
| 12>
| 13> %basis
| 14> newgto Cu "ano-rcc-tzp" end
| 15> newgto Se "ano-rcc-tzp" end
| 16> end
| 17>
| 18> %pal
| 19> nprocs 8
| 20> end
| 21>
| 22> % sym SymThresh 1e-2 end
| 23> * xyz -2 2
| 24> Cu -0.007555720939921689 0.010079083802684128 -0.000898120134781182
| 25> Se -0.9870024770724463 1.6957624690103648 1.2792450262266908
| 26> C -0.48302965069877246 1.4298366593237872 2.8359977381897914
| 27> Se -0.9434093676991129 0.7514996549109011 -1.979628344993665
| 28> C -0.4305715093893877 -0.2780623127477501 -3.1911710905177926
| 29> Se 0.9397830704526233 -0.7215190642130156 2.0718142329737996
| 30> C 0.3605943437563954 0.36271779900799594 3.150836444256618
| 31> Se 0.9821761043788866 -1.7145352858003196 -1.3726854359935239
| 32> C 0.40896963468465763 -1.3303721095833725 -2.8423295959681707
| 33> C 0.8434204545191845 -2.193085533000596 -3.833766617174178
| 34> C -0.7298483264817194 -0.2400429932034734 -4.557274338780336
| 35> C -0.2704059988998011 -1.1413382173218263 -5.565057186523121
| 36> H -1.381882016412467 0.5516450803453282 -4.922479014490931
| 37> C 0.5718124110256216 -2.1939587535230167 -5.203886628399662
| 38> H 1.4944027476273811 -2.9808963823669457 -3.459571194978416
| 39> H -0.5878209266524659 -0.9870029623689175 -6.59399089880608
| 40> H 0.9854273971523829 -2.9415469354192085 -5.876110454133698
| 41> C -0.8534884284095164 2.2316537427675605 3.925167040488926
| 42> C 0.7399551936810698 0.20307398316498096 4.47196042091116
| 43> C -0.46493746250867857 2.0652318421554337 5.267573919206095
| 44> H -1.5073341729304552 3.0689232481760533 3.718745513990653
| 45> C 0.3761866300786293 0.9915933063437183 5.545815834346955
| 46> H 1.3931626316099024 -0.6358198717141872 4.669186174332003
| 47> H -0.8163307477905017 2.752184853330069 6.0295825852893286
| 48> H 0.7408032872637471 0.7642962859251118 6.543532158322851
| 49> *
| 50>
| 51> % eprnmr
| 52> gtensor true
| 53> Nuclei = all H {aiso,adip,aorb,fgrad,rho}
| 54> Nuclei = all Cu {aiso,adip,aorb,fgrad,rho}
| 55> end
| 56>
| 57>                          ****END OF INPUT****

CARTESIAN COORDINATES (ANGSTROEM)
---------------------------------
  Cu     0.012523   -0.001634    0.000000
  Se     2.022782    1.180934    0.000000
  C      1.602280    2.784481    0.000000
  Se     1.046103   -2.068664    0.000000
  C     -0.156444   -3.228283    0.000000
  Se    -1.014430    2.160354    0.000000
  C      0.263550    3.181180    0.000000
  Se    -2.040515   -1.274702    0.000000
  C     -1.478851   -2.798032    0.000000
  C     -2.487913   -3.745535    0.000000
  C     -0.029111   -4.621494    0.000000
  C     -1.084945   -5.582878    0.000000
  H      0.971820   -5.049780    0.000000
  C     -2.408461   -5.140056    0.000000
  H     -3.484576   -3.308375    0.000000
  H     -0.833526   -6.641209    0.000000
  H     -3.293855   -5.770872    0.000000
  C      2.530257    3.835812    0.000000
  C     -0.011612    4.537297    0.000000
  C      2.245459    5.214077    0.000000
  H      3.578248    3.565887    0.000000
  C      0.900814    5.573991    0.000000
  H     -1.061072    4.797978    0.000000
  H      3.050558    5.940613    0.000000
  H      0.560962    6.605761    0.000000

 Total Charge           Charge          ....   -2
 Multiplicity           Mult            ....    2
 Number of Electrons    NEL             ....  247
 Basis Dimension        Dim             ....  575

ORBITAL ENERGIES
----------------
                 SPIN UP ORBITALS
  NO   OCC          E(Eh)            E(eV)    Irrep
   0   1.0000    -443.560471    -12069.8940    1-A'
   1   1.0000    -443.559329    -12069.8630    2-A'
   2   1.0000    -443.547035    -12069.5284    3-A'
   3   1.0000    -443.546271    -12069.5076    4-A'
   4   1.0000    -318.188256     -8658.3426    5-A'
   5   1.0000     -56.369771     -1533.8994    6-A'
   6   1.0000     -56.369225     -1533.8846    7-A'
   7   1.0000     -56.358124     -1533.5825    8-A'
   8   1.0000     -56.357093     -1533.5545    9-A'
   9   1.0000     -51.287790     -1395.6117   10-A'
  10   1.0000     -51.286976     -1395.5896   11-A'
  11   1.0000     -51.286901     -1395.5875   12-A'
  12   1.0000     -51.286205     -1395.5686   13-A'
  13   1.0000     -51.286183     -1395.5680   14-A'
  14   1.0000     -51.285847     -1395.5588    1-A"
  15   1.0000     -51.285771     -1395.5568   15-A'
  16   1.0000     -51.285424     -1395.5473   16-A'
  17   1.0000     -51.285203     -1395.5413    2-A"
  18   1.0000     -51.285023     -1395.5364    3-A"
  19   1.0000     -51.284913     -1395.5334   17-A'
  20   1.0000     -51.284436     -1395.5205    4-A"
  21   1.0000     -38.028777     -1034.8156   18-A'
  22   1.0000     -33.530805      -912.4196   19-A'
  23   1.0000     -33.529989      -912.3974   20-A'
  24   1.0000     -33.518862      -912.0946    5-A"
  25   1.0000      -9.822604      -267.2866   21-A'
  26   1.0000      -9.821104      -267.2458   22-A'
  27   1.0000      -9.819497      -267.2021   23-A'
  28   1.0000      -9.817364      -267.1441   24-A'
  29   1.0000      -9.815834      -267.1024   25-A'
  30   1.0000      -9.815387      -267.0903   26-A'
  31   1.0000      -9.813239      -267.0318   27-A'
  32   1.0000      -9.811727      -266.9907   28-A'
  33   1.0000      -9.808852      -266.9124   29-A'
  34   1.0000      -9.808499      -266.9028   30-A'
  35   1.0000      -9.805539      -266.8223   31-A'
  36   1.0000      -9.805129      -266.8111   32-A'
  37   1.0000      -7.341885      -199.7829   33-A'
  38   1.0000      -7.341198      -199.7641   34-A'
  39   1.0000      -7.335201      -199.6010   35-A'
  40   1.0000      -7.334203      -199.5738   36-A'
  41   1.0000      -5.406608      -147.1213   37-A'
  42   1.0000      -5.405325      -147.0864   38-A'
  43   1.0000      -5.404657      -147.0682   39-A'
  44   1.0000      -5.404059      -147.0519   40-A'
  45   1.0000      -5.400703      -146.9606   41-A'
  46   1.0000      -5.400556      -146.9566    6-A"
  47   1.0000      -5.399751      -146.9347   42-A'
  48   1.0000      -5.399522      -146.9285   43-A'
  49   1.0000      -5.399423      -146.9258    7-A"
  50   1.0000      -5.398830      -146.9096    8-A"
  51   1.0000      -5.398799      -146.9088   44-A'
  52   1.0000      -5.398374      -146.8972    9-A"
  53   1.0000      -4.022971      -109.4706   45-A'
  54   1.0000      -2.542624       -69.1883   46-A'
  55   1.0000      -2.541469       -69.1569   47-A'
  56   1.0000      -2.518051       -68.5196   10-A"
  57   1.0000      -1.745103       -47.4867   48-A'
  58   1.0000      -1.744026       -47.4574   49-A'
  59   1.0000      -1.743946       -47.4552   50-A'
  60   1.0000      -1.743175       -47.4342   51-A'
  61   1.0000      -1.742517       -47.4163   52-A'
  62   1.0000      -1.741956       -47.4010   11-A"
  63   1.0000      -1.741399       -47.3859   53-A'
  64   1.0000      -1.741082       -47.3772   54-A'
  65   1.0000      -1.740803       -47.3697   12-A"
  66   1.0000      -1.740366       -47.3578   55-A'
  67   1.0000      -1.740210       -47.3535   13-A"
  68   1.0000      -1.739608       -47.3372   14-A"
  69   1.0000      -1.737260       -47.2733   15-A"
  70   1.0000      -1.737223       -47.2722   56-A'
  71   1.0000      -1.736279       -47.2466   57-A'
  72   1.0000      -1.736166       -47.2435   16-A"
  73   1.0000      -1.735926       -47.2370   58-A'
  74   1.0000      -1.735825       -47.2342   17-A"
  75   1.0000      -1.735315       -47.2203   18-A"
  76   1.0000      -1.735258       -47.2188   59-A'
  77   1.0000      -0.600081       -16.3290   60-A'
  78   1.0000      -0.599286       -16.3074   61-A'
  79   1.0000      -0.519273       -14.1301   62-A'
  80   1.0000      -0.518537       -14.1101   63-A'
  81   1.0000      -0.496843       -13.5198   64-A'
  82   1.0000      -0.496354       -13.5065   65-A'
  83   1.0000      -0.410729       -11.1765   66-A'
  84   1.0000      -0.408756       -11.1228   67-A'
  85   1.0000      -0.383784       -10.4433   68-A'
  86   1.0000      -0.378988       -10.3128   69-A'
  87   1.0000      -0.319050        -8.6818   70-A'
  88   1.0000      -0.316381        -8.6092   71-A'
  89   1.0000      -0.289342        -7.8734   72-A'
  90   1.0000      -0.285916        -7.7802   73-A'
  91   1.0000      -0.229359        -6.2412   74-A'
  92   1.0000      -0.222751        -6.0614   75-A'
  93   1.0000      -0.197505        -5.3744   76-A'
  94   1.0000      -0.195820        -5.3285   77-A'
  95   1.0000      -0.172664        -4.6984   78-A'
  96   1.0000      -0.166796        -4.5388   79-A'
  97   1.0000      -0.143014        -3.8916   80-A'
  98   1.0000      -0.135290        -3.6814   81-A'
  99   1.0000      -0.129443        -3.5223   82-A'
 100   1.0000      -0.128644        -3.5006   19-A"
 101   1.0000      -0.128034        -3.4840   20-A"
 102   1.0000      -0.110436        -3.0051   83-A'
 103   1.0000      -0.082849        -2.2544   84-A'
 104   1.0000      -0.072265        -1.9664   85-A'
 105   1.0000      -0.069410        -1.8887   86-A'
 106   1.0000      -0.059807        -1.6274   87-A'
 107   1.0000      -0.047412        -1.2901   21-A"
 108   1.0000      -0.046544        -1.2665   22-A"
 109   1.0000      -0.032757        -0.8914   23-A"
 110   1.0000      -0.031502        -0.8572   88-A'
 111   1.0000      -0.029304        -0.7974   89-A'
 112   1.0000      -0.025371        -0.6904   24-A"
 113   1.0000      -0.002707        -0.0737   25-A"
 114   1.0000      -0.001725        -0.0469   26-A"
 115   1.0000      -0.000502        -0.0137   90-A'
 116   1.0000       0.018342         0.4991   91-A'
 117   1.0000       0.021291         0.5793   92-A'
 118   1.0000       0.040311         1.0969   93-A'
 119   1.0000       0.056042         1.5250   27-A"
 120   1.0000       0.056610         1.5404   28-A"
 121   1.0000       0.068869         1.8740   29-A"
 122   1.0000       0.097477         2.6525   30-A"
 123   1.0000       0.116315         3.1651   94-A'
 124   0.0000       0.181988         4.9521   95-A'
 125   0.0000       0.182310         4.9609   96-A'
 126   0.0000       0.195955         5.3322   97-A'
 127   0.0000       0.196432         5.3452   98-A'
 128   0.0000       0.199527         5.4294   31-A"

                 SPIN DOWN ORBITALS
  NO   OCC          E(Eh)            E(eV)    Irrep
   0   1.0000    -443.560005    -12069.8814    1-A'
   1   1.0000    -443.558873    -12069.8506    2-A'
   2   1.0000    -443.546584    -12069.5162    3-A'
   3   1.0000    -443.545825    -12069.4955    4-A'
   4   1.0000    -318.188134     -8658.3393    5-A'
   5   1.0000     -56.369583     -1533.8943    6-A'
   6   1.0000     -56.369043     -1533.8796    7-A'
   7   1.0000     -56.357941     -1533.5775    8-A'
   8   1.0000     -56.356914     -1533.5496    9-A'
   9   1.0000     -51.287494     -1395.6037   10-A'
  10   1.0000     -51.286614     -1395.5797   11-A'
  11   1.0000     -51.286592     -1395.5791   12-A'
  12   1.0000     -51.285869     -1395.5594   13-A'
  13   1.0000     -51.285612     -1395.5525    1-A"
  14   1.0000     -51.285500     -1395.5494   14-A'
  15   1.0000     -51.284962     -1395.5348   15-A'
  16   1.0000     -51.284928     -1395.5338    2-A"
  17   1.0000     -51.284784     -1395.5299    3-A"
  18   1.0000     -51.284722     -1395.5282   16-A'
  19   1.0000     -51.284179     -1395.5135    4-A"
  20   1.0000     -51.284161     -1395.5130   17-A'
  21   1.0000     -38.014946     -1034.4393   18-A'
  22   1.0000     -33.517661      -912.0619   19-A'
  23   1.0000     -33.516850      -912.0399   20-A'
  24   1.0000     -33.514995      -911.9894    5-A"
  25   1.0000      -9.822577      -267.2859   21-A'
  26   1.0000      -9.821019      -267.2435   22-A'
  27   1.0000      -9.819459      -267.2011   23-A'
  28   1.0000      -9.817302      -267.1424   24-A'
  29   1.0000      -9.815786      -267.1011   25-A'
  30   1.0000      -9.815375      -267.0899   26-A'
  31   1.0000      -9.813269      -267.0326   27-A'
  32   1.0000      -9.811621      -266.9878   28-A'
  33   1.0000      -9.808861      -266.9127   29-A'
  34   1.0000      -9.808500      -266.9029   30-A'
  35   1.0000      -9.805384      -266.8181   31-A'
  36   1.0000      -9.805005      -266.8078   32-A'
  37   1.0000      -7.341482      -199.7719   33-A'
  38   1.0000      -7.340803      -199.7534   34-A'
  39   1.0000      -7.334784      -199.5896   35-A'
  40   1.0000      -7.333799      -199.5628   36-A'
  41   1.0000      -5.406274      -147.1122   37-A'
  42   1.0000      -5.404981      -147.0770   38-A'
  43   1.0000      -5.404252      -147.0572   39-A'
  44   1.0000      -5.403684      -147.0417   40-A'
  45   1.0000      -5.400251      -146.9483    6-A"
  46   1.0000      -5.399938      -146.9398   41-A'
  47   1.0000      -5.399120      -146.9175    7-A"
  48   1.0000      -5.398966      -146.9133   42-A'
  49   1.0000      -5.398611      -146.9037   43-A'
  50   1.0000      -5.398497      -146.9006    8-A"
  51   1.0000      -5.398056      -146.8886    9-A"
  52   1.0000      -5.397951      -146.8857   44-A'
  53   1.0000      -3.994919      -108.7073   45-A'
  54   1.0000      -2.507765       -68.2398   10-A"
  55   1.0000      -2.507582       -68.2348   46-A'
  56   1.0000      -2.506397       -68.2025   47-A'
  57   1.0000      -1.744689       -47.4754   48-A'
  58   1.0000      -1.743597       -47.4457   49-A'
  59   1.0000      -1.743438       -47.4414   50-A'
  60   1.0000      -1.742709       -47.4215   51-A'
  61   1.0000      -1.741690       -47.3938   52-A'
  62   1.0000      -1.741657       -47.3929   11-A"
  63   1.0000      -1.740550       -47.3628   53-A'
  64   1.0000      -1.740502       -47.3615   12-A"
  65   1.0000      -1.740096       -47.3504   54-A'
  66   1.0000      -1.739878       -47.3445   13-A"
  67   1.0000      -1.739450       -47.3328   55-A'
  68   1.0000      -1.739293       -47.3286   14-A"
  69   1.0000      -1.736533       -47.2535   15-A"
  70   1.0000      -1.736469       -47.2517   56-A'
  71   1.0000      -1.735518       -47.2258   57-A'
  72   1.0000      -1.735432       -47.2235   16-A"
  73   1.0000      -1.735055       -47.2132   58-A'
  74   1.0000      -1.734992       -47.2115   17-A"
  75   1.0000      -1.734531       -47.1990   18-A"
  76   1.0000      -1.734434       -47.1963   59-A'
  77   1.0000      -0.599181       -16.3045   60-A'
  78   1.0000      -0.598474       -16.2853   61-A'
  79   1.0000      -0.518166       -14.1000   62-A'
  80   1.0000      -0.517465       -14.0809   63-A'
  81   1.0000      -0.495125       -13.4730   64-A'
  82   1.0000      -0.494511       -13.4563   65-A'
  83   1.0000      -0.408087       -11.1046   66-A'
  84   1.0000      -0.406159       -11.0521   67-A'
  85   1.0000      -0.381182       -10.3725   68-A'
  86   1.0000      -0.376584       -10.2474   69-A'
  87   1.0000      -0.317292        -8.6340   70-A'
  88   1.0000      -0.314431        -8.5561   71-A'
  89   1.0000      -0.286994        -7.8095   72-A'
  90   1.0000      -0.283326        -7.7097   73-A'
  91   1.0000      -0.228212        -6.2100   74-A'
  92   1.0000      -0.221674        -6.0321   75-A'
  93   1.0000      -0.196223        -5.3395   76-A'
  94   1.0000      -0.194570        -5.2945   77-A'
  95   1.0000      -0.171166        -4.6577   78-A'
  96   1.0000      -0.164557        -4.4778   79-A'
  97   1.0000      -0.141415        -3.8481   80-A'
  98   1.0000      -0.133952        -3.6450   81-A'
  99   1.0000      -0.128230        -3.4893   19-A"
 100   1.0000      -0.127988        -3.4827   82-A'
 101   1.0000      -0.127636        -3.4731   20-A"
 102   1.0000      -0.108590        -2.9549   83-A'
 103   1.0000      -0.081241        -2.2107   84-A'
 104   1.0000      -0.070746        -1.9251   85-A'
 105   1.0000      -0.060408        -1.6438   86-A'
 106   1.0000      -0.055310        -1.5051   87-A'
 107   1.0000      -0.046232        -1.2580   21-A"
 108   1.0000      -0.045985        -1.2513   22-A"
 109   1.0000      -0.030026        -0.8170   23-A"
 110   1.0000      -0.024345        -0.6625   24-A"
 111   1.0000      -0.023967        -0.6522   88-A'
 112   1.0000      -0.002902        -0.0790   89-A'
 113   1.0000       0.006865         0.1868   25-A"
 114   1.0000       0.009032         0.2458   26-A"
 115   1.0000       0.009820         0.2672   90-A'
 116   1.0000       0.029541         0.8039   91-A'
 117   1.0000       0.031101         0.8463   92-A'
 118   1.0000       0.051498         1.4013   93-A'
 119   1.0000       0.058074         1.5803   27-A"
 120   1.0000       0.059959         1.6316   28-A"
 121   1.0000       0.070659         1.9227   29-A"
 122   1.0000       0.100753         2.7416   30-A"
 123   0.0000       0.146032         3.9737   94-A'
 124   0.0000       0.184041         5.0080   95-A'
 125   0.0000       0.184238         5.0134   96-A'
 126   0.0000       0.199317         5.4237   97-A'
 127   0.0000       0.199603         5.4315   31-A"

MULLIKEN ATOMIC CHARGES AND SPIN POPULATIONS
--------------------------------------------
   0 Cu:    0.652794    0.308184
   1 Se:   -0.762919    0.167906
   2 C :    0.199808   -0.003405
   3 Se:   -0.791464    0.163988
   4 C :    0.187040   -0.003604
   5 Se:   -0.711906    0.176161
   6 C :    0.247159   -0.003032
   7 Se:   -0.675544    0.188406
   8 C :    0.276509   -0.003340
   9 C :   -0.065983   -0.001186
  10 C :   -0.148688   -0.001257
  11 C :   -0.147509   -0.001610
  12 H :    0.079683    0.002119
  13 C :   -0.180002    0.000887
  14 H :    0.101211    0.002374
  15 H :    0.029398    0.002176
  16 H :    0.011448    0.001251
  17 C :   -0.126085   -0.001542
  18 C :   -0.086591   -0.001667
  19 C :   -0.165033   -0.001083
  20 H :    0.090481    0.002502
  21 C :   -0.154751   -0.000104
  22 H :    0.096094    0.002683
  23 H :    0.024473    0.001793
  24 H :    0.020377    0.001400
Sum of atomic charges         :   -2.0000000

LOEWDIN ATOMIC CHARGES AND SPIN POPULATIONS
-------------------------------------------
   0 Cu:   -0.621077    0.388614
   1 Se:   -0.210776    0.118317
   2 C :    0.051560    0.012308
   3 Se:   -0.211596    0.116211
   4 C :    0.050468    0.012874
   5 Se:   -0.196939    0.126495
   6 C :    0.038385    0.010872
   7 Se:   -0.190773    0.134345
   8 C :    0.037921    0.009954
   9 C :    0.373745    0.009090
  10 C :    0.370381    0.005042
  11 C :    0.321175   -0.000138
  12 H :   -0.446340    0.006056
  13 C :    0.326938    0.001457
  14 H :   -0.492045    0.013923
  15 H :   -0.427439    0.000622
  16 H :   -0.402559    0.000258
  17 C :    0.374036    0.005852
  18 C :    0.368401    0.007495
  19 C :    0.323484    0.000161
  20 H :   -0.457154    0.007691
  21 C :    0.320002    0.000762
  22 H :   -0.470548    0.010948
  23 H :   -0.419076    0.000462
  24 H :   -0.410174    0.000326

  Mayer bond orders larger than 0.100000
B(  0-Cu,  1-Se) :   0.5478 B(  0-Cu,  3-Se) :   0.5496 B(  0-Cu,  5-Se) :   0.5459
B(  0-Cu,  7-Se) :   0.5469 B(  1-Se,  2-C ) :   1.0271 B(  2-C ,  6-C ) :   1.1332
B(  2-C , 17-C ) :   1.2740 B(  3-Se,  4-C ) :   1.0209 B(  4-C ,  8-C ) :   1.1219
B(  4-C , 10-C ) :   1.2800 B(  5-Se,  6-C ) :   1.0392 B(  6-C , 18-C ) :   1.2595
B(  7-Se,  8-C ) :   1.0437 B(  8-C ,  9-C ) :   1.2604 B(  9-C , 13-C ) :   1.3570
B(  9-C , 14-H ) :   0.9501 B( 10-C , 11-C ) :   1.3640 B( 10-C , 12-H ) :   0.9719
B( 11-C , 13-C ) :   1.3259 B( 11-C , 15-H ) :   0.9922 B( 13-C , 16-H ) :   1.0036
B( 17-C , 19-C ) :   1.3692 B( 17-C , 20-H ) :   0.9632 B( 18-C , 21-C ) :   1.3701
B( 18-C , 22-H ) :   0.9559 B( 19-C , 21-C ) :   1.3206 B( 19-C , 23-H ) :   0.9956
B( 21-C , 24-H ) :   0.9963

FINAL SINGLE POINT ENERGY    -11627.127374693264

DIPOLE MOMENT
-------------
                                X             Y             Z
Electronic contribution:      0.53060      -0.09878      -0.00000
Nuclear contribution   :     -0.68821       0.16121       0.00000
                        -----------------------------------------
Total Dipole Moment    :     -0.15761       0.06243      -0.00000
                        -----------------------------------------
Magnitude (a.u.)       :      0.16953
Magnitude (Debye)      :      0.43090

Rotational constants in cm-1:     0.017524     0.004092     0.003318
Rotational constants in MHz :   525.360551   122.688038    99.460837

                             ****ORCA TERMINATED NORMALLY****
TOTAL RUN TIME: 0 days 17 hours 1 minutes 22 seconds 982 msec
