                         Program Version 5.0.4 -  RELEASE  -
|  1> ! RIJCOSX nofrozencore ReducedPop printbasis
|  2> ! M06L ano-rcc-dzp autoaux
|  3>
|  4> %maxcore 7500
|  5> %basis
|  6> PCDTrimBas overlap
|  7> PCDTrimAuxJ Coulomb
|  8> PCDTrimAuxJK Coulomb
|  9> PCDTrimAuxC Coulomb
| 10> PCDThresh -1
| 11> end
| 12>
| 13> %basis
| 14> newgto Cu "ano-rcc-tzp" end
| 15> newgto Se "ano-rcc-tzp" end
| 16> end
| 17>
| 18> %pal
| 19> nprocs 8
| 20> end
| 21>
| 22> % sym SymThresh 1e-2 end
| 23> * xyz -2 2
| 24> Cu 7.93606907990913e-06 4.132117786392448e-06 -1.590422617288529e-05
| 25> Se -1.35021887616494 -1.5157686111063353 1.2195903200131009
| 26> C -1.4556112031429191 -0.8662336945974602 2.718994486853708
| 27> Se -0.061973953588500566 -1.212107242039708 -2.033437535352513
| 28> C 0.8385025049319244 -0.32512199328652946 -3.0733757830810866
| 29> Se 0.06188026126733455 1.212005263931667 2.033528018579881
| 30> C -0.8388530979077322 0.3251222333407936 3.07441265602783
| 31> Se 1.3502217712360458 1.5158544568159646 -1.2194418877635673
| 32> C 1.4550928197104873 0.8658115161688523 -2.7182340863070236
| 33> C 2.1966212053005405 1.5255294117553924 -3.7039013100047966
| 34> C 1.008944618444215 -0.7688963849814056 -4.38879663051445
| 35> C 1.7455199198252334 -0.11575530577520983 -5.371848775605862
| 36> H 0.6204678737054707 -1.5144476504115196 -4.603799918921265
| 37> C 2.367903319391397 1.085887911083852 -5.014247349380978
| 38> H 2.57366176160603 2.2584397866171813 -3.478207091528118
| 39> H 1.8136692535140253 -0.4935937371554248 -6.26428779957944
| 40> H 2.895155234571935 1.6002606624497946 -5.632264376868639
| 41> C -2.17506197117904 -1.4833505230760429 3.71730206934408
| 42> C -1.0296806132073628 0.7294431281300037 4.377946697334931
| 43> C -2.3524022398829145 -1.0707338167201381 4.996135694263695
| 44> H -2.823402118911189 -2.7415190285056457 3.333063905675118
| 45> C -1.743800649675008 0.10499978167864067 5.347096999476488
| 46> H -0.3862625846421774 1.9662403163523832 4.737652886078615
| 47> H -3.0583186887800746 -1.759928672308235 5.822619663553073
| 48> H -1.8329924944983216 0.605747386956704 6.526513290497304
| 49> *
| 50>
| 51> % eprnmr
| 52> gtensor true
| 53> Nuclei = all H {aiso,adip,aorb,fgrad,rho}
| 54> Nuclei = all Cu {aiso,adip,aorb,fgrad,rho}
| 55> end
| 56>
| 57>                          ****END OF INPUT****

CARTESIAN COORDINATES (ANGSTROEM)
---------------------------------
  Cu     0.000006   -0.000017    0.000000
  Se    -1.884872    1.433633    0.000000
  C     -1.257735    2.946218    0.000000
  Se    -1.238592   -2.018366    0.000000
  C     -0.106482   -3.200483    0.000000
  Se     1.238464    2.018472    0.000000
  C      0.106390    3.201573    0.000000
  Se     1.884959   -1.433485    0.000000
  C      1.257172   -2.945376    0.000000
  C      2.118155   -4.047800    0.000000
  C     -0.508969   -4.540006    0.000000
  C      0.344076   -5.639026    0.000000
  H     -1.363301   -4.692006    0.000000
  C      1.720058   -5.382397    0.000000
  H      2.956722   -3.883298    0.000000
  H     -0.018928   -6.540182    0.000000
  H      2.377916   -6.083640    0.000000
  C     -2.069933    4.057701    0.000000
  C      0.463711    4.532518    0.000000
  C     -1.700686    5.361838    0.000000
  H     -3.509765    3.778676    0.000000
  C     -0.354468    5.614059    0.000000
  H      1.880694    4.787864    0.000000
  H     -2.581991    6.299752    0.000000
  H      0.126917    6.804855    0.000000

 Total Charge           Charge          ....   -2
 Multiplicity           Mult            ....    2
 Number of Electrons    NEL             ....  247
 Basis Dimension        Dim             ....  575

ORBITAL ENERGIES
----------------
                 SPIN UP ORBITALS
  NO   OCC          E(Eh)            E(eV)    Irrep
   0   1.0000    -443.564716    -12070.0095    1-A'
   1   1.0000    -443.562553    -12069.9507    2-A'
   2   1.0000    -443.550206    -12069.6147    3-A'
   3   1.0000    -443.548432    -12069.5664    4-A'
   4   1.0000    -318.189098     -8658.3655    5-A'
   5   1.0000     -56.373962     -1534.0135    6-A'
   6   1.0000     -56.371192     -1533.9381    7-A'
   7   1.0000     -56.360865     -1533.6571    8-A'
   8   1.0000     -56.358149     -1533.5832    9-A'
   9   1.0000     -51.290488     -1395.6851   10-A'
  10   1.0000     -51.290374     -1395.6820   11-A'
  11   1.0000     -51.289062     -1395.6463   12-A'
  12   1.0000     -51.288946     -1395.6432   13-A'
  13   1.0000     -51.288634     -1395.6347    1-A"
  14   1.0000     -51.288519     -1395.6315    2-A"
  15   1.0000     -51.287046     -1395.5915   14-A'
  16   1.0000     -51.286975     -1395.5895   15-A'
  17   1.0000     -51.285749     -1395.5562   16-A'
  18   1.0000     -51.285665     -1395.5539   17-A'
  19   1.0000     -51.285294     -1395.5438    3-A"
  20   1.0000     -51.285219     -1395.5418    4-A"
  21   1.0000     -38.029654     -1034.8395   18-A'
  22   1.0000     -33.531719      -912.4445   19-A'
  23   1.0000     -33.530916      -912.4226   20-A'
  24   1.0000     -33.519720      -912.1180    5-A"
  25   1.0000      -9.843212      -267.8474   21-A'
  26   1.0000      -9.842704      -267.8336   22-A'
  27   1.0000      -9.842268      -267.8217   23-A'
  28   1.0000      -9.841449      -267.7995   24-A'
  29   1.0000      -9.819384      -267.1990   25-A'
  30   1.0000      -9.818932      -267.1867   26-A'
  31   1.0000      -9.806531      -266.8493   27-A'
  32   1.0000      -9.806072      -266.8368   28-A'
  33   1.0000      -9.802865      -266.7495   29-A'
  34   1.0000      -9.801841      -266.7217   30-A'
  35   1.0000      -9.785377      -266.2737   31-A'
  36   1.0000      -9.784358      -266.2459   32-A'
  37   1.0000      -7.345417      -199.8790   33-A'
  38   1.0000      -7.341952      -199.7847   34-A'
  39   1.0000      -7.338052      -199.6786   35-A'
  40   1.0000      -7.334521      -199.5825   36-A'
  41   1.0000      -5.408798      -147.1809   37-A'
  42   1.0000      -5.408709      -147.1785   38-A'
  43   1.0000      -5.404544      -147.0651   39-A'
  44   1.0000      -5.404480      -147.0634   40-A'
  45   1.0000      -5.403061      -147.0248   41-A'
  46   1.0000      -5.402974      -147.0224   42-A'
  47   1.0000      -5.402737      -147.0160    6-A"
  48   1.0000      -5.402638      -147.0133    7-A"
  49   1.0000      -5.399408      -146.9254   43-A'
  50   1.0000      -5.399358      -146.9240   44-A'
  51   1.0000      -5.398974      -146.9135    8-A"
  52   1.0000      -5.398913      -146.9119    9-A"
  53   1.0000      -4.023936      -109.4969   45-A'
  54   1.0000      -2.543517       -69.2126   46-A'
  55   1.0000      -2.542558       -69.1865   47-A'
  56   1.0000      -2.518990       -68.5452   10-A"
  57   1.0000      -1.747744       -47.5585   48-A'
  58   1.0000      -1.747660       -47.5563   49-A'
  59   1.0000      -1.744964       -47.4829   50-A'
  60   1.0000      -1.744838       -47.4795   51-A'
  61   1.0000      -1.744230       -47.4629   11-A"
  62   1.0000      -1.744147       -47.4606   12-A"
  63   1.0000      -1.743551       -47.4444   52-A'
  64   1.0000      -1.743487       -47.4427   53-A'
  65   1.0000      -1.740968       -47.3741   54-A'
  66   1.0000      -1.740865       -47.3713   55-A'
  67   1.0000      -1.740132       -47.3514   13-A"
  68   1.0000      -1.740078       -47.3499   14-A"
  69   1.0000      -1.739567       -47.3360   56-A'
  70   1.0000      -1.739487       -47.3339   15-A"
  71   1.0000      -1.739464       -47.3332   57-A'
  72   1.0000      -1.739388       -47.3312   16-A"
  73   1.0000      -1.735930       -47.2371   58-A'
  74   1.0000      -1.735852       -47.2349   59-A'
  75   1.0000      -1.735848       -47.2348   17-A"
  76   1.0000      -1.735789       -47.2332   18-A"
  77   1.0000      -0.618384       -16.8271   60-A'
  78   1.0000      -0.599942       -16.3252   61-A'
  79   1.0000      -0.532868       -14.5001   62-A'
  80   1.0000      -0.520819       -14.1722   63-A'
  81   1.0000      -0.510284       -13.8855   64-A'
  82   1.0000      -0.499721       -13.5981   65-A'
  83   1.0000      -0.419531       -11.4160   66-A'
  84   1.0000      -0.413900       -11.2628   67-A'
  85   1.0000      -0.392431       -10.6786   68-A'
  86   1.0000      -0.384557       -10.4643   69-A'
  87   1.0000      -0.341189        -9.2842   70-A'
  88   1.0000      -0.303068        -8.2469   71-A'
  89   1.0000      -0.302739        -8.2380   72-A'
  90   1.0000      -0.280948        -7.6450   73-A'
  91   1.0000      -0.238343        -6.4856   74-A'
  92   1.0000      -0.218278        -5.9396   75-A'
  93   1.0000      -0.203632        -5.5411   76-A'
  94   1.0000      -0.197663        -5.3787   77-A'
  95   1.0000      -0.196038        -5.3345   78-A'
  96   1.0000      -0.147763        -4.0208   79-A'
  97   1.0000      -0.143713        -3.9106   19-A"
  98   1.0000      -0.140765        -3.8304   80-A'
  99   1.0000      -0.139401        -3.7933   81-A'
 100   1.0000      -0.126377        -3.4389   20-A"
 101   1.0000      -0.115017        -3.1298   82-A'
 102   1.0000      -0.107147        -2.9156   83-A'
 103   1.0000      -0.081759        -2.2248   84-A'
 104   1.0000      -0.076412        -2.0793   85-A'
 105   1.0000      -0.066788        -1.8174   86-A'
 106   1.0000      -0.059486        -1.6187   21-A"
 107   1.0000      -0.052547        -1.4299   87-A'
 108   1.0000      -0.044957        -1.2233   22-A"
 109   1.0000      -0.038899        -1.0585   23-A"
 110   1.0000      -0.031970        -0.8699   88-A'
 111   1.0000      -0.031730        -0.8634   89-A'
 112   1.0000      -0.028382        -0.7723   24-A"
 113   1.0000      -0.004230        -0.1151   25-A"
 114   1.0000      -0.003259        -0.0887   26-A"
 115   1.0000      -0.001667        -0.0454   90-A'
 116   1.0000       0.015843         0.4311   91-A'
 117   1.0000       0.019763         0.5378   92-A'
 118   1.0000       0.039320         1.0699   93-A'
 119   1.0000       0.049437         1.3453   27-A"
 120   1.0000       0.055969         1.5230   28-A"
 121   1.0000       0.067266         1.8304   29-A"
 122   1.0000       0.096924         2.6374   30-A"
 123   1.0000       0.114348         3.1116   94-A'
 124   0.0000       0.162801         4.4300   95-A'
 125   0.0000       0.184581         5.0227   96-A'
 126   0.0000       0.187256         5.0955   97-A'
 127   0.0000       0.198584         5.4038   98-A'
 128   0.0000       0.200468         5.4550   31-A"

                 SPIN DOWN ORBITALS
  NO   OCC          E(Eh)            E(eV)    Irrep
   0   1.0000    -443.564258    -12069.9971    1-A'
   1   1.0000    -443.562103    -12069.9384    2-A'
   2   1.0000    -443.549748    -12069.6023    3-A'
   3   1.0000    -443.547982    -12069.5542    4-A'
   4   1.0000    -318.188975     -8658.3622    5-A'
   5   1.0000     -56.373776     -1534.0084    6-A'
   6   1.0000     -56.371009     -1533.9331    7-A'
   7   1.0000     -56.360682     -1533.6521    8-A'
   8   1.0000     -56.357969     -1533.5783    9-A'
   9   1.0000     -51.290177     -1395.6767   10-A'
  10   1.0000     -51.290060     -1395.6735   11-A'
  11   1.0000     -51.288381     -1395.6278    1-A"
  12   1.0000     -51.288303     -1395.6257   12-A'
  13   1.0000     -51.288266     -1395.6247    2-A"
  14   1.0000     -51.288188     -1395.6225   13-A'
  15   1.0000     -51.286715     -1395.5825   14-A'
  16   1.0000     -51.286639     -1395.5804   15-A'
  17   1.0000     -51.285045     -1395.5370    3-A"
  18   1.0000     -51.285026     -1395.5365   16-A'
  19   1.0000     -51.284970     -1395.5350    4-A"
  20   1.0000     -51.284949     -1395.5344   17-A'
  21   1.0000     -38.015768     -1034.4616   18-A'
  22   1.0000     -33.518524      -912.0854   19-A'
  23   1.0000     -33.517722      -912.0636   20-A'
  24   1.0000     -33.515840      -912.0124    5-A"
  25   1.0000      -9.843122      -267.8450   21-A'
  26   1.0000      -9.842635      -267.8317   22-A'
  27   1.0000      -9.842206      -267.8200   23-A'
  28   1.0000      -9.841348      -267.7967   24-A'
  29   1.0000      -9.819413      -267.1998   25-A'
  30   1.0000      -9.818960      -267.1875   26-A'
  31   1.0000      -9.806543      -266.8496   27-A'
  32   1.0000      -9.806083      -266.8371   28-A'
  33   1.0000      -9.802820      -266.7483   29-A'
  34   1.0000      -9.801797      -266.7204   30-A'
  35   1.0000      -9.785257      -266.2704   31-A'
  36   1.0000      -9.784239      -266.2427   32-A'
  37   1.0000      -7.345013      -199.8680   33-A'
  38   1.0000      -7.341556      -199.7739   34-A'
  39   1.0000      -7.337641      -199.6674   35-A'
  40   1.0000      -7.334116      -199.5715   36-A'
  41   1.0000      -5.408446      -147.1713   37-A'
  42   1.0000      -5.408357      -147.1689   38-A'
  43   1.0000      -5.404172      -147.0550   39-A'
  44   1.0000      -5.404107      -147.0532   40-A'
  45   1.0000      -5.402422      -147.0074    6-A"
  46   1.0000      -5.402322      -147.0047    7-A"
  47   1.0000      -5.402211      -147.0016   41-A'
  48   1.0000      -5.402122      -146.9992   42-A'
  49   1.0000      -5.398663      -146.9051    8-A"
  50   1.0000      -5.398603      -146.9034    9-A"
  51   1.0000      -5.398598      -146.9033   43-A'
  52   1.0000      -5.398549      -146.9020   44-A'
  53   1.0000      -3.995736      -108.7295   45-A'
  54   1.0000      -2.508663       -68.2642   10-A"
  55   1.0000      -2.508313       -68.2547   46-A'
  56   1.0000      -2.507278       -68.2265   47-A'
  57   1.0000      -1.747305       -47.5466   48-A'
  58   1.0000      -1.747222       -47.5443   49-A'
  59   1.0000      -1.744058       -47.4582   50-A'
  60   1.0000      -1.743934       -47.4549   11-A"
  61   1.0000      -1.743928       -47.4547   51-A'
  62   1.0000      -1.743851       -47.4526   12-A"
  63   1.0000      -1.743098       -47.4321   52-A'
  64   1.0000      -1.743035       -47.4304   53-A'
  65   1.0000      -1.740076       -47.3499   54-A'
  66   1.0000      -1.739970       -47.3470   55-A'
  67   1.0000      -1.739820       -47.3429   13-A"
  68   1.0000      -1.739767       -47.3415   14-A"
  69   1.0000      -1.738739       -47.3135   56-A'
  70   1.0000      -1.738694       -47.3123   15-A"
  71   1.0000      -1.738639       -47.3108   57-A'
  72   1.0000      -1.738593       -47.3095   16-A"
  73   1.0000      -1.735144       -47.2157   58-A'
  74   1.0000      -1.735089       -47.2142   17-A"
  75   1.0000      -1.735073       -47.2137   59-A'
  76   1.0000      -1.735032       -47.2126   18-A"
  77   1.0000      -0.617719       -16.8090   60-A'
  78   1.0000      -0.599080       -16.3018   61-A'
  79   1.0000      -0.531642       -14.4667   62-A'
  80   1.0000      -0.519745       -14.1430   63-A'
  81   1.0000      -0.508877       -13.8473   64-A'
  82   1.0000      -0.497887       -13.5482   65-A'
  83   1.0000      -0.416657       -11.3378   66-A'
  84   1.0000      -0.411266       -11.1911   67-A'
  85   1.0000      -0.390703       -10.6316   68-A'
  86   1.0000      -0.381823       -10.3899   69-A'
  87   1.0000      -0.338857        -9.2208   70-A'
  88   1.0000      -0.301083        -8.1929   71-A'
  89   1.0000      -0.301007        -8.1908   72-A'
  90   1.0000      -0.278023        -7.5654   73-A'
  91   1.0000      -0.237077        -6.4512   74-A'
  92   1.0000      -0.216998        -5.9048   75-A'
  93   1.0000      -0.202860        -5.5201   76-A'
  94   1.0000      -0.196182        -5.3384   77-A'
  95   1.0000      -0.194103        -5.2818   78-A'
  96   1.0000      -0.146503        -3.9866   79-A'
  97   1.0000      -0.143397        -3.9020   19-A"
  98   1.0000      -0.138314        -3.7637   80-A'
  99   1.0000      -0.137461        -3.7405   81-A'
 100   1.0000      -0.125948        -3.4272   20-A"
 101   1.0000      -0.113352        -3.0845   82-A'
 102   1.0000      -0.106321        -2.8931   83-A'
 103   1.0000      -0.079478        -2.1627   84-A'
 104   1.0000      -0.074133        -2.0173   85-A'
 105   1.0000      -0.058670        -1.5965   21-A"
 106   1.0000      -0.056259        -1.5309   86-A'
 107   1.0000      -0.051138        -1.3915   87-A'
 108   1.0000      -0.044051        -1.1987   22-A"
 109   1.0000      -0.037179        -1.0117   23-A"
 110   1.0000      -0.026768        -0.7284   24-A"
 111   1.0000      -0.025593        -0.6964   88-A'
 112   1.0000      -0.003884        -0.1057   89-A'
 113   1.0000       0.005331         0.1451   25-A"
 114   1.0000       0.007928         0.2157   26-A"
 115   1.0000       0.008601         0.2340   90-A'
 116   1.0000       0.026435         0.7193   91-A'
 117   1.0000       0.030383         0.8268   92-A'
 118   1.0000       0.050579         1.3763   93-A'
 119   1.0000       0.052139         1.4188   27-A"
 120   1.0000       0.058850         1.6014   28-A"
 121   1.0000       0.069063         1.8793   29-A"
 122   1.0000       0.100173         2.7258   30-A"
 123   0.0000       0.144101         3.9212   94-A'
 124   0.0000       0.164294         4.4707   95-A'
 125   0.0000       0.185358         5.0438   96-A'
 126   0.0000       0.190620         5.1870   97-A'
 127   0.0000       0.199628         5.4321   98-A'

MULLIKEN ATOMIC CHARGES AND SPIN POPULATIONS
--------------------------------------------
   0 Cu:    0.643270    0.309484
   1 Se:   -0.683598    0.172006
   2 C :    0.251795   -0.003231
   3 Se:   -0.760417    0.174536
   4 C :    0.177190   -0.002873
   5 Se:   -0.685943    0.171687
   6 C :    0.252611   -0.003249
   7 Se:   -0.761230    0.174537
   8 C :    0.175496   -0.002846
   9 C :   -0.369495   -0.003003
  10 C :   -0.346585   -0.002852
  11 C :   -0.310842   -0.000307
  12 H :    0.424557    0.003663
  13 C :   -0.322073   -0.000290
  14 H :    0.452006    0.003768
  15 H :    0.155105    0.001076
  16 H :    0.172287    0.001028
  17 C :    0.005149   -0.000279
  18 C :    0.004142   -0.000233
  19 C :   -0.042231   -0.001382
  20 H :   -0.112640    0.002557
  21 C :   -0.041792   -0.001347
  22 H :   -0.105293    0.002436
  23 H :   -0.085792    0.002582
  24 H :   -0.085678    0.002534
Sum of atomic charges         :   -2.0000000

LOEWDIN ATOMIC CHARGES AND SPIN POPULATIONS
-------------------------------------------
   0 Cu:   -0.615115    0.389824
   1 Se:   -0.235998    0.123804
   2 C :   -0.007385    0.011544
   3 Se:   -0.179155    0.123342
   4 C :    0.080416    0.012301
   5 Se:   -0.233414    0.123577
   6 C :   -0.005158    0.011522
   7 Se:   -0.178135    0.123415
   8 C :    0.082995    0.012278
   9 C :    0.546080    0.007208
  10 C :    0.533573    0.007218
  11 C :    0.457421    0.000386
  12 H :   -0.709939    0.008827
  13 C :    0.465489    0.000378
  14 H :   -0.728332    0.008799
  15 H :   -0.518791    0.000240
  16 H :   -0.530539    0.000228
  17 C :    0.224469    0.006111
  18 C :    0.228320    0.006178
  19 C :    0.156655    0.000522
  20 H :   -0.216439    0.009974
  21 C :    0.159087    0.000515
  22 H :   -0.226447    0.009917
  23 H :   -0.274459    0.000959
  24 H :   -0.275199    0.000933

  Mayer bond orders larger than 0.100000
B(  0-Cu,  1-Se) :   0.5477 B(  0-Cu,  3-Se) :   0.5494 B(  0-Cu,  5-Se) :   0.5468
B(  0-Cu,  7-Se) :   0.5492 B(  1-Se,  2-C ) :   1.0442 B(  2-C ,  6-C ) :   1.1142
B(  2-C , 17-C ) :   1.2630 B(  3-Se,  4-C ) :   1.0508 B(  4-C ,  8-C ) :   1.1408
B(  4-C , 10-C ) :   1.3065 B(  5-Se,  6-C ) :   1.0434 B(  6-C , 18-C ) :   1.2611
B(  7-Se,  8-C ) :   1.0512 B(  8-C ,  9-C ) :   1.3113 B(  9-C , 13-C ) :   1.4546
B(  9-C , 14-H ) :   0.6330 B( 10-C , 11-C ) :   1.4476 B( 10-C , 12-H ) :   0.6661
B( 11-C , 13-C ) :   1.3470 B( 11-C , 15-H ) :   0.9199 B( 13-C , 16-H ) :   0.9065
B( 17-C , 19-C ) :   1.3832 B( 17-C , 20-H ) :   0.9619 B( 18-C , 21-C ) :   1.3817
B( 18-C , 22-H ) :   0.9674 B( 19-C , 21-C ) :   1.2982 B( 19-C , 23-H ) :   0.9995
B( 21-C , 24-H ) :   0.9997

FINAL SINGLE POINT ENERGY    -11626.897654683944

DIPOLE MOMENT
-------------
                                X             Y             Z
Electronic contribution:      0.26371      -1.04461       0.00000
Nuclear contribution   :     -0.12320       0.44033       0.00000
                        -----------------------------------------
Total Dipole Moment    :      0.14050      -0.60428       0.00000
                        -----------------------------------------
Magnitude (a.u.)       :      0.62040
Magnitude (Debye)      :      1.57693

Rotational constants in cm-1:     0.017596     0.004098     0.003324
Rotational constants in MHz :   527.523487   122.842518    99.639761

                             ****ORCA TERMINATED NORMALLY****
TOTAL RUN TIME: 0 days 18 hours 59 minutes 18 seconds 866 msec
