                         Program Version 5.0.4 -  RELEASE  -
|  1> ! RIJCOSX nofrozencore ReducedPop printbasis
|  2> ! M06L ano-rcc-dzp autoaux
|  3>
|  4> %maxcore 7500
|  5> %basis
|  6> PCDTrimBas overlap
|  7> PCDTrimAuxJ Coulomb
|  8> PCDTrimAuxJK Coulomb
|  9> PCDTrimAuxC Coulomb
| 10> PCDThresh -1
| 11> end
| 12>
| 13> %basis
| 14> newgto Cu "ano-rcc-tzp" end
| 15> newgto Se "ano-rcc-tzp" end
| 16> end
| 17>
| 18> %pal
| 19> nprocs 8
| 20> end
| 21>
| 22> % sym SymThresh 1e-2 end
| 23> * xyz -2 2
| 24> Cu -1.6862922782430785e-06 4.7018404520895155e-06 -2.2161840048253555e-07
| 25> Se -1.4417204396601115 -0.43091175668175014 1.8285878566693763
| 26> C -0.5575347150088361 -0.05166334561808356 3.1532971762854136
| 27> Se -1.5482948444649347 -0.6342981426129549 -1.6758356894075443
| 28> C -0.7497246331542172 -0.4070444454112505 -3.0869195790910435
| 29> Se 1.548288773812733 0.6343150692385824 1.6758348915813026
| 30> C 0.7473172822977974 0.4137567928406535 3.0866031966625145
| 31> Se 1.4417221259523898 0.43090705484129804 -1.828587635050976
| 32> C 0.560029415805269 0.04470744285326233 -3.1529693140237396
| 33> C 1.1135399646144728 0.17463470376502435 -4.422260639051174
| 34> C -1.3786983481409822 -0.6806685152744586 -4.296829049443367
| 35> C -0.848249517099024 -0.48671610456234043 -5.555855721935725
| 36> H -2.337502169251247 -1.2016492514435841 -4.229257134041839
| 37> C 0.50844973780046 -0.16152845106710087 -5.6159861699587115
| 38> H 2.072838617825832 0.6965614635795069 -4.473549517099244
| 39> H -1.2589500991483102 -1.2006438094008556 -6.418071773858553
| 40> H 0.8642152482954708 0.444985366796539 -6.578150995470273
| 41> C -1.1082581295955813 -0.18936175051244697 4.422955790065301
| 42> C 1.373403390387299 0.6954322942940196 4.296133167665852
| 43> C -0.4829135089691352 0.09032665828154066 5.619343223904713
| 44> H -2.1259382450304494 -0.5485051516670479 4.466571973146583
| 45> C 0.8226330207552548 0.5581417049534201 5.55248811895386
| 46> H 2.3905343751097137 1.053781071065821 4.236226811118614
| 47> H -1.0076097866927822 -0.04516248321692625 6.559305586137881
| 48> H 1.4029458681746045 0.7991473478954536 6.436995033413065
| 49> *
| 50>
| 51> % eprnmr
| 52> gtensor true
| 53> Nuclei = all H {aiso,adip,aorb,fgrad,rho}
| 54> Nuclei = all Cu {aiso,adip,aorb,fgrad,rho}
| 55> end
| 56>
| 57>                          ****END OF INPUT****

CARTESIAN COORDINATES (ANGSTROEM)
---------------------------------
  Cu     0.000000    0.000000   -0.000000
  Se    -1.496165   -0.534827    1.755969
  C     -0.652933   -0.233677    3.126639
  Se    -1.496169   -0.534816   -1.755969
  C     -0.655379   -0.226833   -3.126639
  Se     1.496165    0.534827    1.755969
  C      0.652933    0.233677    3.126639
  Se     1.496169    0.534816   -1.755969
  C      0.655379    0.226833   -3.126639
  C      1.247072    0.429469   -4.368893
  C     -1.247072   -0.429469   -4.368893
  C     -0.678806   -0.163465   -5.597896
  H     -2.207026   -0.952646   -4.360734
  C      0.678806    0.163465   -5.597896
  H      2.207026    0.952646   -4.360734
  H     -1.062799   -0.825135   -6.512078
  H      1.062799    0.825135   -6.512078
  C     -1.241794   -0.444235    4.368893
  C      1.241794    0.444235    4.368893
  C     -0.653281   -0.234876    5.597895
  H     -2.259986   -0.804481    4.360734
  C      0.653281    0.234876    5.597895
  H      2.259986    0.804481    4.360734
  H     -1.206207   -0.423928    6.512077
  H      1.206207    0.423928    6.512077

 Total Charge           Charge          ....   -2
 Multiplicity           Mult            ....    2
 Number of Electrons    NEL             ....  247
 Basis Dimension        Dim             ....  575

ORBITAL ENERGIES
----------------
                 SPIN UP ORBITALS
  NO   OCC          E(Eh)            E(eV)    Irrep
   0   1.0000    -443.565203    -12070.0228    1-B
   1   1.0000    -443.563706    -12069.9821    2-B
   2   1.0000    -443.551015    -12069.6367    1-A
   3   1.0000    -443.549598    -12069.5982    2-A
   4   1.0000    -318.190345     -8658.3995    3-A
   5   1.0000     -56.374171     -1534.0192    3-B
   6   1.0000     -56.372788     -1533.9815    4-B
   7   1.0000     -56.361424     -1533.6723    4-A
   8   1.0000     -56.359712     -1533.6257    5-A
   9   1.0000     -51.290642     -1395.6893    5-B
  10   1.0000     -51.290594     -1395.6880    6-A
  11   1.0000     -51.289300     -1395.6528    6-B
  12   1.0000     -51.289244     -1395.6513    7-A
  13   1.0000     -51.288942     -1395.6431    8-A
  14   1.0000     -51.288896     -1395.6418    7-B
  15   1.0000     -51.288893     -1395.6417    8-B
  16   1.0000     -51.288846     -1395.6405    9-A
  17   1.0000     -51.287574     -1395.6058    9-B
  18   1.0000     -51.287515     -1395.6042   10-A
  19   1.0000     -51.287111     -1395.5932   11-A
  20   1.0000     -51.287062     -1395.5919   10-B
  21   1.0000     -38.030916     -1034.8738   12-A
  22   1.0000     -33.532977      -912.4787   11-B
  23   1.0000     -33.532154      -912.4563   13-A
  24   1.0000     -33.521020      -912.1533   12-B
  25   1.0000      -9.821168      -267.2476   14-A
  26   1.0000      -9.820749      -267.2362   13-B
  27   1.0000      -9.818041      -267.1625   15-A
  28   1.0000      -9.817593      -267.1503   14-B
  29   1.0000      -9.812981      -267.0248   16-A
  30   1.0000      -9.812535      -267.0127   15-B
  31   1.0000      -9.811312      -266.9794   17-A
  32   1.0000      -9.811304      -266.9792   16-B
  33   1.0000      -9.810850      -266.9668   18-A
  34   1.0000      -9.810398      -266.9545   17-B
  35   1.0000      -9.808680      -266.9078   19-A
  36   1.0000      -9.808680      -266.9077   18-B
  37   1.0000      -7.345530      -199.8820   19-B
  38   1.0000      -7.343847      -199.8362   20-B
  39   1.0000      -7.338310      -199.6856   20-A
  40   1.0000      -7.336456      -199.6351   21-A
  41   1.0000      -5.408500      -147.1728   21-B
  42   1.0000      -5.408482      -147.1723   22-A
  43   1.0000      -5.406657      -147.1226   22-B
  44   1.0000      -5.406639      -147.1221   23-A
  45   1.0000      -5.403242      -147.0297   23-B
  46   1.0000      -5.403237      -147.0296   24-A
  47   1.0000      -5.403004      -147.0232   25-A
  48   1.0000      -5.402997      -147.0230   24-B
  49   1.0000      -5.401402      -146.9796   25-B
  50   1.0000      -5.401377      -146.9789   26-A
  51   1.0000      -5.400979      -146.9681   27-A
  52   1.0000      -5.400953      -146.9674   26-B
  53   1.0000      -4.025203      -109.5313   28-A
  54   1.0000      -2.544778       -69.2469   27-B
  55   1.0000      -2.543766       -69.2194   29-A
  56   1.0000      -2.520327       -68.5816   28-B
  57   1.0000      -1.747567       -47.5537   30-A
  58   1.0000      -1.747538       -47.5529   29-B
  59   1.0000      -1.745696       -47.5028   31-A
  60   1.0000      -1.745667       -47.5020   30-B
  61   1.0000      -1.744762       -47.4774   32-A
  62   1.0000      -1.744684       -47.4753   31-B
  63   1.0000      -1.744246       -47.4634   32-B
  64   1.0000      -1.744243       -47.4633   33-A
  65   1.0000      -1.742990       -47.4292   34-A
  66   1.0000      -1.742908       -47.4269   33-B
  67   1.0000      -1.742243       -47.4088   34-B
  68   1.0000      -1.742236       -47.4086   35-A
  69   1.0000      -1.739882       -47.3446   36-A
  70   1.0000      -1.739843       -47.3435   35-B
  71   1.0000      -1.739803       -47.3424   37-A
  72   1.0000      -1.739798       -47.3423   36-B
  73   1.0000      -1.737910       -47.2909   38-A
  74   1.0000      -1.737873       -47.2899   37-B
  75   1.0000      -1.737832       -47.2888   39-A
  76   1.0000      -1.737826       -47.2887   38-B
  77   1.0000      -0.605425       -16.4745   40-A
  78   1.0000      -0.604939       -16.4612   41-A
  79   1.0000      -0.523674       -14.2499   42-A
  80   1.0000      -0.519892       -14.1470   43-A
  81   1.0000      -0.501819       -13.6552   39-B
  82   1.0000      -0.501562       -13.6482   40-B
  83   1.0000      -0.415102       -11.2955   41-B
  84   1.0000      -0.411446       -11.1960   42-B
  85   1.0000      -0.384696       -10.4681   44-A
  86   1.0000      -0.378046       -10.2871   45-A
  87   1.0000      -0.322736        -8.7821   46-A
  88   1.0000      -0.320212        -8.7134   47-A
  89   1.0000      -0.288700        -7.8559   43-B
  90   1.0000      -0.278180        -7.5697   44-B
  91   1.0000      -0.229835        -6.2541   48-A
  92   1.0000      -0.209550        -5.7022   49-A
  93   1.0000      -0.202314        -5.5053   50-A
  94   1.0000      -0.199933        -5.4405   51-A
  95   1.0000      -0.170993        -4.6529   45-B
  96   1.0000      -0.162364        -4.4182   46-B
  97   1.0000      -0.150318        -4.0904   47-B
  98   1.0000      -0.140210        -3.8153   48-B
  99   1.0000      -0.136182        -3.7057   52-A
 100   1.0000      -0.132769        -3.6128   49-B
 101   1.0000      -0.116559        -3.1717   50-B
 102   1.0000      -0.107989        -2.9385   53-A
 103   1.0000      -0.081046        -2.2054   54-A
 104   1.0000      -0.076247        -2.0748   51-B
 105   1.0000      -0.069998        -1.9047   52-B
 106   1.0000      -0.065006        -1.7689   55-A
 107   1.0000      -0.050599        -1.3769   53-B
 108   1.0000      -0.037422        -1.0183   54-B
 109   1.0000      -0.036062        -0.9813   56-A
 110   1.0000      -0.032706        -0.8900   57-A
 111   1.0000      -0.032175        -0.8755   55-B
 112   1.0000      -0.029110        -0.7921   58-A
 113   1.0000      -0.005203        -0.1416   59-A
 114   1.0000      -0.003893        -0.1059   56-B
 115   1.0000      -0.002541        -0.0691   60-A
 116   1.0000       0.015917         0.4331   61-A
 117   1.0000       0.017797         0.4843   62-A
 118   1.0000       0.037779         1.0280   57-B
 119   1.0000       0.049562         1.3487   63-A
 120   1.0000       0.053157         1.4465   64-A
 121   1.0000       0.067190         1.8283   58-B
 122   1.0000       0.095893         2.6094   59-B
 123   1.0000       0.113141         3.0787   60-B
 124   0.0000       0.180865         4.9216   65-A
 125   0.0000       0.183188         4.9848   66-A
 126   0.0000       0.193896         5.2762   67-A
 127   0.0000       0.195078         5.3083   61-B
 128   0.0000       0.195299         5.3143   62-B

                 SPIN DOWN ORBITALS
  NO   OCC          E(Eh)            E(eV)    Irrep
   0   1.0000    -443.564752    -12070.0105    1-B
   1   1.0000    -443.563249    -12069.9696    2-B
   2   1.0000    -443.550564    -12069.6245    1-A
   3   1.0000    -443.549140    -12069.5857    2-A
   4   1.0000    -318.190222     -8658.3961    3-A
   5   1.0000     -56.373988     -1534.0142    3-B
   6   1.0000     -56.372602     -1533.9765    4-B
   7   1.0000     -56.361244     -1533.6674    4-A
   8   1.0000     -56.359529     -1533.6208    5-A
   9   1.0000     -51.290321     -1395.6806    5-B
  10   1.0000     -51.290265     -1395.6791    6-A
  11   1.0000     -51.288703     -1395.6366    7-A
  12   1.0000     -51.288661     -1395.6354    6-B
  13   1.0000     -51.288567     -1395.6329    7-B
  14   1.0000     -51.288553     -1395.6325    8-B
  15   1.0000     -51.288512     -1395.6314    8-A
  16   1.0000     -51.288510     -1395.6313    9-A
  17   1.0000     -51.286858     -1395.5864   10-A
  18   1.0000     -51.286830     -1395.5856    9-B
  19   1.0000     -51.286810     -1395.5850   10-B
  20   1.0000     -51.286779     -1395.5842   11-A
  21   1.0000     -38.017019     -1034.4957   12-A
  22   1.0000     -33.519772      -912.1194   11-B
  23   1.0000     -33.518951      -912.0970   13-A
  24   1.0000     -33.517134      -912.0476   12-B
  25   1.0000      -9.821119      -267.2462   14-A
  26   1.0000      -9.820700      -267.2348   13-B
  27   1.0000      -9.817991      -267.1611   15-A
  28   1.0000      -9.817543      -267.1489   14-B
  29   1.0000      -9.813000      -267.0253   16-A
  30   1.0000      -9.812551      -267.0131   15-B
  31   1.0000      -9.811195      -266.9762   17-A
  32   1.0000      -9.811189      -266.9760   16-B
  33   1.0000      -9.810869      -266.9673   18-A
  34   1.0000      -9.810415      -266.9550   17-B
  35   1.0000      -9.808560      -266.9045   19-A
  36   1.0000      -9.808560      -266.9045   18-B
  37   1.0000      -7.345132      -199.8712   19-B
  38   1.0000      -7.343443      -199.8252   20-B
  39   1.0000      -7.337905      -199.6745   20-A
  40   1.0000      -7.336045      -199.6239   21-A
  41   1.0000      -5.408137      -147.1629   21-B
  42   1.0000      -5.408118      -147.1624   22-A
  43   1.0000      -5.406289      -147.1126   22-B
  44   1.0000      -5.406270      -147.1121   23-A
  45   1.0000      -5.402815      -147.0181   24-A
  46   1.0000      -5.402791      -147.0174   23-B
  47   1.0000      -5.402316      -147.0045   24-B
  48   1.0000      -5.402294      -147.0039   25-A
  49   1.0000      -5.400664      -146.9595   26-A
  50   1.0000      -5.400637      -146.9588   25-B
  51   1.0000      -5.400567      -146.9569   26-B
  52   1.0000      -5.400542      -146.9562   27-A
  53   1.0000      -3.996969      -108.7631   28-A
  54   1.0000      -2.509995       -68.3004   27-B
  55   1.0000      -2.509529       -68.2878   28-B
  56   1.0000      -2.508446       -68.2583   29-A
  57   1.0000      -1.747128       -47.5418   30-A
  58   1.0000      -1.747098       -47.5410   29-B
  59   1.0000      -1.745240       -47.4904   31-A
  60   1.0000      -1.745211       -47.4896   30-B
  61   1.0000      -1.744005       -47.4568   32-A
  62   1.0000      -1.743994       -47.4565   31-B
  63   1.0000      -1.743800       -47.4512   33-A
  64   1.0000      -1.743734       -47.4494   32-B
  65   1.0000      -1.742087       -47.4046   34-A
  66   1.0000      -1.742004       -47.4023   33-B
  67   1.0000      -1.741926       -47.4002   34-B
  68   1.0000      -1.741920       -47.4001   35-A
  69   1.0000      -1.739074       -47.3226   36-A
  70   1.0000      -1.739072       -47.3226   35-B
  71   1.0000      -1.739039       -47.3217   37-A
  72   1.0000      -1.739003       -47.3207   36-B
  73   1.0000      -1.737100       -47.2689   38-A
  74   1.0000      -1.737092       -47.2687   37-B
  75   1.0000      -1.737055       -47.2677   39-A
  76   1.0000      -1.737024       -47.2668   38-B
  77   1.0000      -0.604581       -16.4515   40-A
  78   1.0000      -0.604125       -16.4391   41-A
  79   1.0000      -0.522530       -14.2188   42-A
  80   1.0000      -0.518739       -14.1156   43-A
  81   1.0000      -0.500068       -13.6075   39-B
  82   1.0000      -0.499834       -13.6012   40-B
  83   1.0000      -0.412389       -11.2217   41-B
  84   1.0000      -0.408707       -11.1215   42-B
  85   1.0000      -0.382184       -10.3998   44-A
  86   1.0000      -0.375600       -10.2206   45-A
  87   1.0000      -0.320990        -8.7346   46-A
  88   1.0000      -0.318357        -8.6629   47-A
  89   1.0000      -0.286200        -7.7879   43-B
  90   1.0000      -0.275463        -7.4957   44-B
  91   1.0000      -0.228692        -6.2230   48-A
  92   1.0000      -0.208294        -5.6680   49-A
  93   1.0000      -0.201047        -5.4708   50-A
  94   1.0000      -0.198743        -5.4081   51-A
  95   1.0000      -0.169381        -4.6091   45-B
  96   1.0000      -0.161070        -4.3829   46-B
  97   1.0000      -0.149463        -4.0671   47-B
  98   1.0000      -0.138904        -3.7798   48-B
  99   1.0000      -0.134228        -3.6525   52-A
 100   1.0000      -0.132373        -3.6020   49-B
 101   1.0000      -0.115019        -3.1298   50-B
 102   1.0000      -0.106178        -2.8893   53-A
 103   1.0000      -0.079728        -2.1695   54-A
 104   1.0000      -0.074730        -2.0335   51-B
 105   1.0000      -0.063054        -1.7158   55-A
 106   1.0000      -0.059891        -1.6297   52-B
 107   1.0000      -0.049703        -1.3525   53-B
 108   1.0000      -0.034414        -0.9365   54-B
 109   1.0000      -0.033418        -0.9093   56-A
 110   1.0000      -0.028769        -0.7829   57-A
 111   1.0000      -0.025768        -0.7012   58-A
 112   1.0000      -0.005394        -0.1468   55-B
 113   1.0000       0.004387         0.1194   59-A
 114   1.0000       0.007122         0.1938   56-B
 115   1.0000       0.007789         0.2119   60-A
 116   1.0000       0.025854         0.7035   61-A
 117   1.0000       0.028819         0.7842   62-A
 118   1.0000       0.049014         1.3337   57-B
 119   1.0000       0.051856         1.4111   63-A
 120   1.0000       0.056335         1.5329   64-A
 121   1.0000       0.068917         1.8753   58-B
 122   1.0000       0.099141         2.6978   59-B
 123   0.0000       0.142918         3.8890   60-B
 124   0.0000       0.182715         4.9719   65-A
 125   0.0000       0.184398         5.0177   66-A
 126   0.0000       0.194593         5.2951   67-A
 127   0.0000       0.195665         5.3243   61-B

MULLIKEN ATOMIC CHARGES AND SPIN POPULATIONS
--------------------------------------------
   0 Cu:    0.636155    0.309817
   1 Se:   -0.731428    0.175360
   2 C :    0.221569   -0.003204
   3 Se:   -0.715648    0.172203
   4 C :    0.230781   -0.003751
   5 Se:   -0.731428    0.175360
   6 C :    0.221569   -0.003204
   7 Se:   -0.715648    0.172203
   8 C :    0.230781   -0.003751
   9 C :   -0.054246   -0.001034
  10 C :   -0.054246   -0.001034
  11 C :   -0.168583   -0.000650
  12 H :    0.083483    0.002323
  13 C :   -0.168583   -0.000650
  14 H :    0.083483    0.002323
  15 H :   -0.039031    0.001665
  16 H :   -0.039031    0.001665
  17 C :   -0.102411   -0.001529
  18 C :   -0.102411   -0.001529
  19 C :   -0.156506   -0.000665
  20 H :    0.092222    0.002780
  21 C :   -0.156506   -0.000665
  22 H :    0.092222    0.002780
  23 H :    0.021720    0.001593
  24 H :    0.021720    0.001593
Sum of atomic charges         :   -2.0000000

LOEWDIN ATOMIC CHARGES AND SPIN POPULATIONS
-------------------------------------------
   0 Cu:   -0.613938    0.390347
   1 Se:   -0.200850    0.124749
   2 C :    0.038613    0.011890
   3 Se:   -0.194273    0.122421
   4 C :    0.036326    0.011566
   5 Se:   -0.200850    0.124749
   6 C :    0.038613    0.011890
   7 Se:   -0.194273    0.122421
   8 C :    0.036326    0.011566
   9 C :    0.352641    0.006916
  10 C :    0.352641    0.006916
  11 C :    0.250636    0.000341
  12 H :   -0.452525    0.009122
  13 C :    0.250636    0.000341
  14 H :   -0.452525    0.009122
  15 H :   -0.344422    0.000538
  16 H :   -0.344422    0.000538
  17 C :    0.371533    0.006968
  18 C :    0.371533    0.006968
  19 C :    0.320264    0.000452
  20 H :   -0.459432    0.009478
  21 C :    0.320264    0.000452
  22 H :   -0.459432    0.009478
  23 H :   -0.411542    0.000385
  24 H :   -0.411542    0.000385

  Mayer bond orders larger than 0.100000
B(  0-Cu,  1-Se) :   0.5541 B(  0-Cu,  3-Se) :   0.5479 B(  0-Cu,  5-Se) :   0.5541
B(  0-Cu,  7-Se) :   0.5479 B(  1-Se,  2-C ) :   1.0387 B(  2-C ,  6-C ) :   1.1341
B(  2-C , 17-C ) :   1.2574 B(  3-Se,  4-C ) :   1.0445 B(  4-C ,  8-C ) :   1.1309
B(  4-C , 10-C ) :   1.2479 B(  5-Se,  6-C ) :   1.0387 B(  6-C , 18-C ) :   1.2574
B(  7-Se,  8-C ) :   1.0445 B(  8-C ,  9-C ) :   1.2479 B(  9-C , 13-C ) :   1.3879
B(  9-C , 14-H ) :   0.9623 B( 10-C , 11-C ) :   1.3879 B( 10-C , 12-H ) :   0.9623
B( 11-C , 13-C ) :   1.2718 B( 11-C , 15-H ) :   1.0148 B( 13-C , 16-H ) :   1.0148
B( 17-C , 19-C ) :   1.3794 B( 17-C , 20-H ) :   0.9598 B( 18-C , 21-C ) :   1.3794
B( 18-C , 22-H ) :   0.9598 B( 19-C , 21-C ) :   1.3128 B( 19-C , 23-H ) :   0.9955
B( 21-C , 24-H ) :   0.9955

FINAL SINGLE POINT ENERGY    -11627.112164935790

DIPOLE MOMENT
-------------
                                X             Y             Z
Electronic contribution:      0.00000       0.00000       0.56767
Nuclear contribution   :     -0.00000      -0.00000       0.00000
                        -----------------------------------------
Total Dipole Moment    :      0.00000       0.00000       0.56767
                        -----------------------------------------
Magnitude (a.u.)       :      0.56767
Magnitude (Debye)      :      1.44289

Rotational constants in cm-1:     0.017606     0.004097     0.003325
Rotational constants in MHz :   527.801694   122.834953    99.666038

                             ****ORCA TERMINATED NORMALLY****
TOTAL RUN TIME: 0 days 19 hours 31 minutes 49 seconds 57 msec
