                         Program Version 5.0.4 -  RELEASE  -
|  1> ! RIJCOSX nofrozencore ReducedPop printbasis
|  2> ! M06L ano-rcc-dzp autoaux
|  3>
|  4> %maxcore 7500
|  5> %basis
|  6> PCDTrimBas overlap
|  7> PCDTrimAuxJ Coulomb
|  8> PCDTrimAuxJK Coulomb
|  9> PCDTrimAuxC Coulomb
| 10> PCDThresh -1
| 11> end
| 12>
| 13> %basis
| 14> newgto Cu "ano-rcc-tzp" end
| 15> newgto Se "ano-rcc-tzp" end
| 16> end
| 17>
| 18> %pal
| 19> nprocs 8
| 20> end
| 21>
| 22> % sym SymThresh 1e-2 end
| 23> * xyz -2 2
| 24> Cu -0.0008362539630193312 0.0009222947610423155 0.001640137702477557
| 25> Se -1.8273072020555026 1.4776720583074627 -0.3351392693783831
| 26> C -2.1506700527984117 1.5409698794515447 -1.839125510611271
| 27> Se 0.11554268832628137 0.2269630872385649 2.356652731573635
| 28> C 1.3098461263989847 -0.7038283251841557 2.830784044610263
| 29> Se -0.08021948489704855 -0.2551041412121974 -2.347087659396691
| 30> C -1.408449193926307 0.7981137743393866 -2.742817156221514
| 31> Se 1.8229630053235024 -1.4801172459808587 0.2909119122224829
| 32> C 2.078641332020708 -1.4642144457579347 1.9608289810697315
| 33> C 3.093691183531372 -2.2400776296712634 2.4747786778077008
| 34> C 1.6712895730819912 -0.8189430661887579 4.188515265519008
| 35> C 2.698939458354377 -1.6106739115919182 4.663383824939244
| 36> H 1.1191738485219205 -0.2570464256677815 4.928595337855609
| 37> C 3.460728580497593 -2.3665280834809845 3.7838807230969804
| 38> H 3.6417244574714123 -2.799587225181393 1.727285488511871
| 39> H 2.902512117057357 -1.6341403924334075 5.7296331455305936
| 40> H 4.280078089430078 -3.0081742962965543 4.086716826257637
| 41> C -3.1193632503857622 2.274032942756867 -2.383303118920737
| 42> C -1.7467433551842413 0.8874294618069016 -4.147904217001378
| 43> C -3.3379736979033376 2.2708729422695537 -3.735038357889185
| 44> H -3.8056245207020916 2.921256050485193 -1.836585490154931
| 45> C -2.7398118043941806 1.619610251870347 -4.846664256040413
| 46> H -1.044491301232145 0.22730199055810676 -4.691493982143929
| 47> H -4.182393176159797 2.9513887586031267 -3.9069083435176792
| 48> H -3.0224612321711253 1.7113444294538065 -5.895926520372097
| 49> *
| 50>
| 51> % eprnmr
| 52> gtensor true
| 53> Nuclei = all H {aiso,adip,aorb,fgrad,rho}
| 54> Nuclei = all Cu {aiso,adip,aorb,fgrad,rho}
| 55> end
| 56>
| 57>                          ****END OF INPUT****

CARTESIAN COORDINATES (ANGSTROEM)
---------------------------------
  Cu     0.001702   -0.001160    0.000000
  Se    -0.234315   -2.362198    0.000000
  C     -1.732607   -2.716694    0.000000
  Se     2.369915    0.046675    0.000000
  C      2.780294    1.579359    0.000000
  Se    -2.362272   -0.001147    0.000000
  C     -2.685994   -1.711489    0.000000
  Se     0.189963    2.358492    0.000000
  C      1.859419    2.617649    0.000000
  C      2.320118    3.915412    0.000000
  C      4.128941    1.989821    0.000000
  C      4.549516    3.305693    0.000000
  H      4.906559    1.239095    0.000000
  C      3.619410    4.335288    0.000000
  H      1.535256    4.661153    0.000000
  H      5.613184    3.523614    0.000000
  H      3.878320    5.387770    0.000000
  C     -2.226417   -3.952828    0.000000
  C     -4.083708   -2.089755    0.000000
  C     -3.577119   -4.177758    0.000000
  H     -1.636179   -4.869546    0.000000
  C     -4.732018   -3.350800    0.000000
  H     -4.671699   -1.152375    0.000000
  H     -3.702540   -5.268609    0.000000
  H     -5.774072   -3.672331    0.000000

 Total Charge           Charge          ....   -2
 Multiplicity           Mult            ....    2
 Number of Electrons    NEL             ....  247
 Basis Dimension        Dim             ....  575

ORBITAL ENERGIES
----------------
                 SPIN UP ORBITALS
  NO   OCC          E(Eh)            E(eV)    Irrep
   0   1.0000    -443.574098    -12070.2648    1-A'
   1   1.0000    -443.566064    -12070.0462    2-A'
   2   1.0000    -443.542056    -12069.3929    3-A'
   3   1.0000    -443.537262    -12069.2625    4-A'
   4   1.0000    -318.187000     -8658.3084    5-A'
   5   1.0000     -56.377689     -1534.1149    6-A'
   6   1.0000     -56.372895     -1533.9845    7-A'
   7   1.0000     -56.354226     -1533.4765    8-A'
   8   1.0000     -56.352009     -1533.4161    9-A'
   9   1.0000     -51.292613     -1395.7430   10-A'
  10   1.0000     -51.291550     -1395.7140   11-A'
  11   1.0000     -51.291448     -1395.7112    1-A"
  12   1.0000     -51.289940     -1395.6702   12-A'
  13   1.0000     -51.288709     -1395.6367   13-A'
  14   1.0000     -51.288470     -1395.6302    2-A"
  15   1.0000     -51.282580     -1395.4700   14-A'
  16   1.0000     -51.282400     -1395.4650   15-A'
  17   1.0000     -51.281144     -1395.4309   16-A'
  18   1.0000     -51.280812     -1395.4218   17-A'
  19   1.0000     -51.280521     -1395.4139    3-A"
  20   1.0000     -51.280045     -1395.4010    4-A"
  21   1.0000     -38.027461     -1034.7798   18-A'
  22   1.0000     -33.529491      -912.3838   19-A'
  23   1.0000     -33.528695      -912.3622   20-A'
  24   1.0000     -33.517635      -912.0612    5-A"
  25   1.0000      -9.830732      -267.5078   21-A'
  26   1.0000      -9.820696      -267.2347   22-A'
  27   1.0000      -9.817916      -267.1591   23-A'
  28   1.0000      -9.816342      -267.1162   24-A'
  29   1.0000      -9.815536      -267.0943   25-A'
  30   1.0000      -9.813485      -267.0385   26-A'
  31   1.0000      -9.809609      -266.9330   27-A'
  32   1.0000      -9.809065      -266.9182   28-A'
  33   1.0000      -9.807359      -266.8718   29-A'
  34   1.0000      -9.804188      -266.7855   30-A'
  35   1.0000      -9.804030      -266.7812   31-A'
  36   1.0000      -9.801659      -266.7167   32-A'
  37   1.0000      -7.346537      -199.9094   33-A'
  38   1.0000      -7.343361      -199.8230   34-A'
  39   1.0000      -7.331754      -199.5072   35-A'
  40   1.0000      -7.331112      -199.4897   36-A'
  41   1.0000      -5.408409      -147.1703   37-A'
  42   1.0000      -5.406722      -147.1244   38-A'
  43   1.0000      -5.403935      -147.0485    6-A"
  44   1.0000      -5.403330      -147.0321   39-A'
  45   1.0000      -5.402890      -147.0201   40-A'
  46   1.0000      -5.401714      -146.9881    7-A"
  47   1.0000      -5.401667      -146.9868   41-A'
  48   1.0000      -5.401480      -146.9817   42-A'
  49   1.0000      -5.396913      -146.8575   43-A'
  50   1.0000      -5.396194      -146.8379   44-A'
  51   1.0000      -5.395534      -146.8200    8-A"
  52   1.0000      -5.395245      -146.8121    9-A"
  53   1.0000      -4.021779      -109.4382   45-A'
  54   1.0000      -2.541283       -69.1518   46-A'
  55   1.0000      -2.540335       -69.1260   47-A'
  56   1.0000      -2.517005       -68.4912   10-A"
  57   1.0000      -1.749401       -47.6036   48-A'
  58   1.0000      -1.746665       -47.5292   49-A'
  59   1.0000      -1.744924       -47.4818   50-A'
  60   1.0000      -1.744906       -47.4813   11-A"
  61   1.0000      -1.743040       -47.4305   51-A'
  62   1.0000      -1.742778       -47.4234   12-A"
  63   1.0000      -1.740546       -47.3627   52-A'
  64   1.0000      -1.740510       -47.3617   13-A"
  65   1.0000      -1.740496       -47.3613   53-A'
  66   1.0000      -1.739970       -47.3470   54-A'
  67   1.0000      -1.738824       -47.3158   55-A'
  68   1.0000      -1.738370       -47.3034   56-A'
  69   1.0000      -1.738357       -47.3031   14-A"
  70   1.0000      -1.737857       -47.2895   57-A'
  71   1.0000      -1.737429       -47.2779   15-A"
  72   1.0000      -1.736753       -47.2595   16-A"
  73   1.0000      -1.732668       -47.1483   17-A"
  74   1.0000      -1.732654       -47.1479   58-A'
  75   1.0000      -1.732317       -47.1387   18-A"
  76   1.0000      -1.732304       -47.1384   59-A'
  77   1.0000      -0.609514       -16.5857   60-A'
  78   1.0000      -0.603256       -16.4154   61-A'
  79   1.0000      -0.528573       -14.3832   62-A'
  80   1.0000      -0.524192       -14.2640   63-A'
  81   1.0000      -0.497647       -13.5417   64-A'
  82   1.0000      -0.489584       -13.3223   65-A'
  83   1.0000      -0.421742       -11.4762   66-A'
  84   1.0000      -0.414599       -11.2818   67-A'
  85   1.0000      -0.380125       -10.3437   68-A'
  86   1.0000      -0.371322       -10.1042   69-A'
  87   1.0000      -0.320079        -8.7098   70-A'
  88   1.0000      -0.316793        -8.6204   71-A'
  89   1.0000      -0.291476        -7.9315   72-A'
  90   1.0000      -0.285310        -7.7637   73-A'
  91   1.0000      -0.234590        -6.3835   74-A'
  92   1.0000      -0.226533        -6.1643   75-A'
  93   1.0000      -0.200898        -5.4667   76-A'
  94   1.0000      -0.194867        -5.3026   77-A'
  95   1.0000      -0.169237        -4.6052   78-A'
  96   1.0000      -0.161479        -4.3941   79-A'
  97   1.0000      -0.157523        -4.2864   80-A'
  98   1.0000      -0.139634        -3.7996   81-A'
  99   1.0000      -0.135614        -3.6902   19-A"
 100   1.0000      -0.131011        -3.5650   20-A"
 101   1.0000      -0.124959        -3.4003   82-A'
 102   1.0000      -0.094476        -2.5708   83-A'
 103   1.0000      -0.079626        -2.1667   84-A'
 104   1.0000      -0.070254        -1.9117   85-A'
 105   1.0000      -0.065500        -1.7823   86-A'
 106   1.0000      -0.051882        -1.4118   21-A"
 107   1.0000      -0.051774        -1.4088   87-A'
 108   1.0000      -0.050285        -1.3683   22-A"
 109   1.0000      -0.032328        -0.8797   88-A'
 110   1.0000      -0.030488        -0.8296   23-A"
 111   1.0000      -0.026770        -0.7285   89-A'
 112   1.0000      -0.023756        -0.6464   24-A"
 113   1.0000      -0.002485        -0.0676   25-A"
 114   1.0000       0.000411         0.0112   26-A"
 115   1.0000       0.000498         0.0135   90-A'
 116   1.0000       0.018831         0.5124   91-A'
 117   1.0000       0.021256         0.5784   92-A'
 118   1.0000       0.042707         1.1621   93-A'
 119   1.0000       0.053739         1.4623   27-A"
 120   1.0000       0.055344         1.5060   28-A"
 121   1.0000       0.070861         1.9282   29-A"
 122   1.0000       0.099444         2.7060   30-A"
 123   1.0000       0.116630         3.1737   94-A'
 124   0.0000       0.180310         4.9065   95-A'
 125   0.0000       0.182053         4.9539   96-A'
 126   0.0000       0.196357         5.3432   97-A'
 127   0.0000       0.197769         5.3816   98-A'
 128   0.0000       0.199805         5.4370   31-A"

                 SPIN DOWN ORBITALS
  NO   OCC          E(Eh)            E(eV)    Irrep
   0   1.0000    -443.573659    -12070.2529    1-A'
   1   1.0000    -443.565634    -12070.0345    2-A'
   2   1.0000    -443.541584    -12069.3801    3-A'
   3   1.0000    -443.536790    -12069.2496    4-A'
   4   1.0000    -318.186878     -8658.3051    5-A'
   5   1.0000     -56.377512     -1534.1101    6-A'
   6   1.0000     -56.372720     -1533.9797    7-A'
   7   1.0000     -56.354038     -1533.4713    8-A'
   8   1.0000     -56.351819     -1533.4109    9-A'
   9   1.0000     -51.292275     -1395.7338   10-A'
  10   1.0000     -51.291206     -1395.7047    1-A"
  11   1.0000     -51.290871     -1395.6956   11-A'
  12   1.0000     -51.289624     -1395.6616   12-A'
  13   1.0000     -51.288235     -1395.6238    2-A"
  14   1.0000     -51.288032     -1395.6183   13-A'
  15   1.0000     -51.282245     -1395.4608   14-A'
  16   1.0000     -51.282081     -1395.4564   15-A'
  17   1.0000     -51.280363     -1395.4096   16-A'
  18   1.0000     -51.280258     -1395.4068    3-A"
  19   1.0000     -51.280017     -1395.4002   17-A'
  20   1.0000     -51.279783     -1395.3938    4-A"
  21   1.0000     -38.013631     -1034.4035   18-A'
  22   1.0000     -33.516351      -912.0263   19-A'
  23   1.0000     -33.515556      -912.0046   20-A'
  24   1.0000     -33.513767      -911.9560    5-A"
  25   1.0000      -9.830676      -267.5063   21-A'
  26   1.0000      -9.820599      -267.2321   22-A'
  27   1.0000      -9.817864      -267.1577   23-A'
  28   1.0000      -9.816295      -267.1150   24-A'
  29   1.0000      -9.815507      -267.0935   25-A'
  30   1.0000      -9.813433      -267.0371   26-A'
  31   1.0000      -9.809635      -266.9337   27-A'
  32   1.0000      -9.808940      -266.9148   28-A'
  33   1.0000      -9.807351      -266.8716   29-A'
  34   1.0000      -9.804028      -266.7812   30-A'
  35   1.0000      -9.803923      -266.7783   31-A'
  36   1.0000      -9.801700      -266.7178   32-A'
  37   1.0000      -7.346150      -199.8989   33-A'
  38   1.0000      -7.342981      -199.8127   34-A'
  39   1.0000      -7.331331      -199.4957   35-A'
  40   1.0000      -7.330687      -199.4781   36-A'
  41   1.0000      -5.408060      -147.1608   37-A'
  42   1.0000      -5.406379      -147.1150   38-A'
  43   1.0000      -5.403622      -147.0400    6-A"
  44   1.0000      -5.402537      -147.0105   39-A'
  45   1.0000      -5.402521      -147.0101   40-A'
  46   1.0000      -5.401417      -146.9800    7-A"
  47   1.0000      -5.401287      -146.9765   41-A'
  48   1.0000      -5.400708      -146.9607   42-A'
  49   1.0000      -5.396032      -146.8335   43-A'
  50   1.0000      -5.395321      -146.8142   44-A'
  51   1.0000      -5.395216      -146.8113    8-A"
  52   1.0000      -5.394920      -146.8032    9-A"
  53   1.0000      -3.993703      -108.6742   45-A'
  54   1.0000      -2.506717       -68.2112   10-A"
  55   1.0000      -2.506234       -68.1981   46-A'
  56   1.0000      -2.505209       -68.1702   47-A'
  57   1.0000      -1.748997       -47.5926   48-A'
  58   1.0000      -1.746261       -47.5182   49-A'
  59   1.0000      -1.744601       -47.4730   11-A"
  60   1.0000      -1.744055       -47.4582   50-A'
  61   1.0000      -1.742483       -47.4154   12-A"
  62   1.0000      -1.742193       -47.4075   51-A'
  63   1.0000      -1.740044       -47.3490   52-A'
  64   1.0000      -1.739743       -47.3408   13-A"
  65   1.0000      -1.739679       -47.3391   53-A'
  66   1.0000      -1.739474       -47.3335   54-A'
  67   1.0000      -1.737901       -47.2907   55-A'
  68   1.0000      -1.737628       -47.2833   14-A"
  69   1.0000      -1.737598       -47.2824   56-A'
  70   1.0000      -1.737125       -47.2696   15-A"
  71   1.0000      -1.736922       -47.2641   57-A'
  72   1.0000      -1.736433       -47.2507   16-A"
  73   1.0000      -1.731871       -47.1266   17-A"
  74   1.0000      -1.731852       -47.1261   58-A'
  75   1.0000      -1.731515       -47.1169   18-A"
  76   1.0000      -1.731482       -47.1160   59-A'
  77   1.0000      -0.608581       -16.5603   60-A'
  78   1.0000      -0.602452       -16.3936   61-A'
  79   1.0000      -0.527459       -14.3529   62-A'
  80   1.0000      -0.522994       -14.2314   63-A'
  81   1.0000      -0.496062       -13.4985   64-A'
  82   1.0000      -0.488001       -13.2792   65-A'
  83   1.0000      -0.419239       -11.4081   66-A'
  84   1.0000      -0.412040       -11.2122   67-A'
  85   1.0000      -0.377488       -10.2720   68-A'
  86   1.0000      -0.368517       -10.0279   69-A'
  87   1.0000      -0.318309        -8.6616   70-A'
  88   1.0000      -0.315022        -8.5722   71-A'
  89   1.0000      -0.289001        -7.8641   72-A'
  90   1.0000      -0.282723        -7.6933   73-A'
  91   1.0000      -0.233376        -6.3505   74-A'
  92   1.0000      -0.225375        -6.1328   75-A'
  93   1.0000      -0.199566        -5.4305   76-A'
  94   1.0000      -0.193588        -5.2678   77-A'
  95   1.0000      -0.167662        -4.5623   78-A'
  96   1.0000      -0.159118        -4.3298   79-A'
  97   1.0000      -0.156678        -4.2634   80-A'
  98   1.0000      -0.138215        -3.7610   81-A'
  99   1.0000      -0.135209        -3.6792   19-A"
 100   1.0000      -0.130630        -3.5546   20-A"
 101   1.0000      -0.123054        -3.3485   82-A'
 102   1.0000      -0.092519        -2.5176   83-A'
 103   1.0000      -0.077767        -2.1161   84-A'
 104   1.0000      -0.064648        -1.7592   85-A'
 105   1.0000      -0.060731        -1.6526   86-A'
 106   1.0000      -0.051167        -1.3923   21-A"
 107   1.0000      -0.049410        -1.3445   22-A"
 108   1.0000      -0.048172        -1.3108   87-A'
 109   1.0000      -0.028280        -0.7695   23-A"
 110   1.0000      -0.022856        -0.6220   88-A'
 111   1.0000      -0.022064        -0.6004   24-A"
 112   1.0000      -0.001611        -0.0438   89-A'
 113   1.0000       0.007334         0.1996   25-A"
 114   1.0000       0.010847         0.2951   26-A"
 115   1.0000       0.010866         0.2957   90-A'
 116   1.0000       0.029501         0.8028   91-A'
 117   1.0000       0.031838         0.8664   92-A'
 118   1.0000       0.053657         1.4601   93-A'
 119   1.0000       0.055705         1.5158   27-A"
 120   1.0000       0.058885         1.6023   28-A"
 121   1.0000       0.072575         1.9749   29-A"
 122   1.0000       0.102672         2.7938   30-A"
 123   0.0000       0.146281         3.9805   94-A'
 124   0.0000       0.182341         4.9617   95-A'
 125   0.0000       0.183969         5.0060   96-A'
 126   0.0000       0.199444         5.4272   97-A'
 127   0.0000       0.199969         5.4414   31-A"

MULLIKEN ATOMIC CHARGES AND SPIN POPULATIONS
--------------------------------------------
   0 Cu:    0.639042    0.307693
   1 Se:   -0.653031    0.165637
   2 C :    0.215672   -0.005543
   3 Se:   -0.671661    0.163022
   4 C :    0.180496   -0.004705
   5 Se:   -0.776186    0.183255
   6 C :    0.230846   -0.000377
   7 Se:   -0.782924    0.182936
   8 C :    0.245836   -0.001675
   9 C :   -0.070672   -0.001910
  10 C :   -0.131392   -0.000412
  11 C :   -0.126849   -0.000846
  12 H :    0.084054    0.002434
  13 C :   -0.182379   -0.000588
  14 H :    0.094466    0.002725
  15 H :    0.028515    0.001984
  16 H :    0.012689    0.001230
  17 C :   -0.089137   -0.000329
  18 C :   -0.082495   -0.001239
  19 C :   -0.054335   -0.000256
  20 H :    0.055108    0.002318
  21 C :   -0.280078   -0.000613
  22 H :    0.091277    0.001817
  23 H :    0.037643    0.002171
  24 H :   -0.014506    0.001272
Sum of atomic charges         :   -2.0000000

LOEWDIN ATOMIC CHARGES AND SPIN POPULATIONS
-------------------------------------------
   0 Cu:   -0.615554    0.388295
   1 Se:   -0.197868    0.117184
   2 C :   -0.071052    0.014731
   3 Se:   -0.202845    0.114862
   4 C :    0.005411    0.012724
   5 Se:   -0.187463    0.130454
   6 C :    0.129667    0.009234
   7 Se:   -0.200047    0.130771
   8 C :    0.071757    0.010755
   9 C :    0.358049    0.006898
  10 C :    0.380955    0.007202
  11 C :    0.319752    0.000442
  12 H :   -0.448222    0.007384
  13 C :    0.317114    0.000469
  14 H :   -0.468231    0.011492
  15 H :   -0.417535    0.000613
  16 H :   -0.406177    0.000188
  17 C :    0.360277    0.007695
  18 C :    0.366383    0.006349
  19 C :    0.317067    0.000527
  20 H :   -0.407064    0.006352
  21 C :    0.340743    0.000597
  22 H :   -0.503391    0.013924
  23 H :   -0.449490    0.000723
  24 H :   -0.392236    0.000138

  Mayer bond orders larger than 0.100000
B(  0-Cu,  1-Se) :   0.5535 B(  0-Cu,  3-Se) :   0.5489 B(  0-Cu,  5-Se) :   0.5482
B(  0-Cu,  7-Se) :   0.5504 B(  1-Se,  2-C ) :   1.1505 B(  2-C ,  6-C ) :   1.1254
B(  2-C , 17-C ) :   1.1879 B(  3-Se,  4-C ) :   1.1047 B(  4-C ,  8-C ) :   1.1361
B(  4-C , 10-C ) :   1.2323 B(  5-Se,  6-C ) :   0.9519 B(  6-C , 18-C ) :   1.3088
B(  7-Se,  8-C ) :   0.9841 B(  8-C ,  9-C ) :   1.2754 B(  9-C , 13-C ) :   1.3668
B(  9-C , 14-H ) :   0.9549 B( 10-C , 11-C ) :   1.3962 B( 10-C , 12-H ) :   0.9683
B( 11-C , 13-C ) :   1.3091 B( 11-C , 15-H ) :   0.9887 B( 13-C , 16-H ) :   1.0030
B( 17-C , 19-C ) :   1.3819 B( 17-C , 20-H ) :   0.9848 B( 18-C , 21-C ) :   1.3402
B( 18-C , 22-H ) :   0.9563 B( 19-C , 21-C ) :   1.2891 B( 19-C , 23-H ) :   0.9808
B( 21-C , 24-H ) :   1.0299

FINAL SINGLE POINT ENERGY    -11627.071946495398

DIPOLE MOMENT
-------------
                                X             Y             Z
Electronic contribution:     -0.39473       0.53799      -0.00000
Nuclear contribution   :      0.50845      -0.56609       0.00000
                        -----------------------------------------
Total Dipole Moment    :      0.11371      -0.02809      -0.00000
                        -----------------------------------------
Magnitude (a.u.)       :      0.11713
Magnitude (Debye)      :      0.29772

Rotational constants in cm-1:     0.017604     0.004096     0.003323
Rotational constants in MHz :   527.763792   122.792097    99.615150

                             ****ORCA TERMINATED NORMALLY****
TOTAL RUN TIME: 0 days 17 hours 11 minutes 11 seconds 376 msec
