                         Program Version 5.0.4 -  RELEASE  -
|  1> ! RIJCOSX nofrozencore ReducedPop printbasis
|  2> ! M06L ano-rcc-dzp autoaux
|  3>
|  4> %maxcore 7500
|  5> %basis
|  6> PCDTrimBas overlap
|  7> PCDTrimAuxJ Coulomb
|  8> PCDTrimAuxJK Coulomb
|  9> PCDTrimAuxC Coulomb
| 10> PCDThresh -1
| 11> end
| 12>
| 13> %basis
| 14> newgto Cu "ano-rcc-tzp" end
| 15> newgto Se "ano-rcc-tzp" end
| 16> end
| 17>
| 18> %pal
| 19> nprocs 8
| 20> end
| 21>
| 22> % sym SymThresh 1e-2 end
| 23> * xyz -2 2
| 24> Cu 2.3148465290512858e-05 -3.1433913631378975e-05 2.238431657453337e-05
| 25> Se -1.5587991442050537 0.158298171046706 1.7759241739113918
| 26> C -0.9226653973038832 1.2781844677922773 2.7878489335160612
| 27> Se -1.1490532150143982 -1.7076032292059005 -1.1713698683407627
| 28> C -0.2532203012454371 -1.962532934927861 -2.51819077135264
| 29> Se 1.1737819488687433 1.6740234270706194 1.195282287593451
| 30> C 0.23711359909629826 1.9844046520325747 2.5026157638800797
| 31> Se 1.5340467474750783 -0.12468623646637948 -1.7998594749099117
| 32> C 0.9387530662704499 -1.3000303392346717 -2.7722923309260175
| 33> C 1.637911330264358 -1.6841026964797314 -3.913171840356022
| 34> C -0.6800131021072653 -2.8747115138679207 -3.479293794452354
| 35> C -0.0061196977156415915 -3.2207390452060554 -4.631246212984692
| 36> H -1.631413011305558 -3.3560402363410575 -3.29610248408568
| 37> C 1.2334990309685578 -2.6205271798159813 -4.840759117325539
| 38> H 2.5875146271637006 -1.1942498128571646 -4.082565027301527
| 39> H -0.42779853931126227 -3.949972467123926 -5.31672961035222
| 40> H 1.8556264613194668 -2.8452291377242465 -5.702126141922583
| 41> C -1.5420119778859902 1.5538788008233562 4.005906433095124
| 42> C 0.5840946069191564 3.004961776922317 3.38654164286486
| 43> C -1.158284118353113 2.518391232317778 4.913492079632152
| 44> H -2.4095519076891057 0.952589899251895 4.25465401201438
| 45> C -0.06903091360732969 3.3227876762775046 4.55857542933523
| 46> H 1.4533951402974368 3.59777541454333 3.1239611204764315
| 47> H -1.715976399914861 2.6555946235688634 5.837166246953428
| 48> H 0.2882626083165954 4.139453272372983 5.181797901915618
| 49> *
| 50>
| 51> % eprnmr
| 52> gtensor true
| 53> Nuclei = all H {aiso,adip,aorb,fgrad,rho}
| 54> Nuclei = all Cu {aiso,adip,aorb,fgrad,rho}
| 55> end
| 56>
| 57>                          ****END OF INPUT****

CARTESIAN COORDINATES (ANGSTROEM)
---------------------------------
  Cu    -0.000000    0.000000   -0.000000
  Se    -1.346883   -0.843385    1.755969
  C     -0.570406   -0.394887    3.126639
  Se    -1.320618   -0.883675   -1.755969
  C     -0.587495   -0.368673   -3.126639
  Se     1.346883    0.843385    1.755969
  C      0.570406    0.394887    3.126639
  Se     1.320618    0.883675   -1.755969
  C      0.587495    0.368673   -3.126639
  C      1.144385    0.659565   -4.368893
  C     -1.144385   -0.659565   -4.368893
  C     -0.612738   -0.331291   -5.597896
  H     -2.083036   -1.197399   -4.360734
  C      0.612738    0.331291   -5.597896
  H      2.083036    1.197399   -4.360734
  H     -1.128703   -0.609741   -6.512078
  H      1.128703    0.609741   -6.512078
  C     -1.042566   -0.815752    4.368893
  C      1.042566    0.815752    4.368893
  C     -0.532922   -0.453726    5.597895
  H     -1.894078   -1.487255    4.360734
  C      0.532922    0.453726    5.597895
  H      1.894078    1.487255    4.360734
  H     -0.980508   -0.837068    6.512077
  H      0.980508    0.837068    6.512077

 Total Charge           Charge          ....   -2
 Multiplicity           Mult            ....    2
 Number of Electrons    NEL             ....  247
 Basis Dimension        Dim             ....  575

ORBITAL ENERGIES
----------------
                 SPIN UP ORBITALS
  NO   OCC          E(Eh)            E(eV)    Irrep
   0   1.0000    -443.561295    -12069.9164    1-B
   1   1.0000    -443.560205    -12069.8868    2-B
   2   1.0000    -443.546717    -12069.5198    1-A
   3   1.0000    -443.546662    -12069.5183    2-A
   4   1.0000    -318.186772     -8658.3022    3-A
   5   1.0000     -56.369934     -1533.9039    3-B
   6   1.0000     -56.369627     -1533.8955    4-B
   7   1.0000     -56.357076     -1533.5540    4-A
   8   1.0000     -56.356803     -1533.5466    5-A
   9   1.0000     -51.286179     -1395.5679    5-B
  10   1.0000     -51.286125     -1395.5664    6-A
  11   1.0000     -51.286065     -1395.5648    6-B
  12   1.0000     -51.286026     -1395.5637    7-A
  13   1.0000     -51.284848     -1395.5317    7-B
  14   1.0000     -51.284796     -1395.5302    8-A
  15   1.0000     -51.284745     -1395.5289    8-B
  16   1.0000     -51.284686     -1395.5272    9-A
  17   1.0000     -51.284388     -1395.5191   10-A
  18   1.0000     -51.284344     -1395.5180    9-B
  19   1.0000     -51.284296     -1395.5166   11-A
  20   1.0000     -51.284248     -1395.5153   10-B
  21   1.0000     -38.027302     -1034.7755   12-A
  22   1.0000     -33.529367      -912.3805   11-B
  23   1.0000     -33.528573      -912.3589   13-A
  24   1.0000     -33.517398      -912.0548   12-B
  25   1.0000      -9.817320      -267.1429   14-A
  26   1.0000      -9.816916      -267.1319   13-B
  27   1.0000      -9.816394      -267.1176   15-A
  28   1.0000      -9.815964      -267.1060   14-B
  29   1.0000      -9.808876      -266.9131   16-A
  30   1.0000      -9.808539      -266.9039   17-A
  31   1.0000      -9.808442      -266.9013   15-B
  32   1.0000      -9.808092      -266.8918   16-B
  33   1.0000      -9.807626      -266.8791   18-A
  34   1.0000      -9.807609      -266.8786   17-B
  35   1.0000      -9.806830      -266.8574   19-A
  36   1.0000      -9.806824      -266.8573   18-B
  37   1.0000      -7.341061      -199.7604   19-B
  38   1.0000      -7.340992      -199.7586   20-B
  39   1.0000      -7.333834      -199.5638   20-A
  40   1.0000      -7.333658      -199.5590   21-A
  41   1.0000      -5.404054      -147.0518   21-B
  42   1.0000      -5.404035      -147.0513   22-A
  43   1.0000      -5.403902      -147.0476   22-B
  44   1.0000      -5.403886      -147.0472   23-A
  45   1.0000      -5.398851      -146.9102   23-B
  46   1.0000      -5.398837      -146.9098   24-A
  47   1.0000      -5.398626      -146.9041   24-B
  48   1.0000      -5.398606      -146.9035   25-A
  49   1.0000      -5.398249      -146.8938   26-A
  50   1.0000      -5.398235      -146.8934   25-B
  51   1.0000      -5.398184      -146.8920   27-A
  52   1.0000      -5.398163      -146.8915   26-B
  53   1.0000      -4.021619      -109.4338   28-A
  54   1.0000      -2.541185       -69.1491   27-B
  55   1.0000      -2.540238       -69.1234   29-A
  56   1.0000      -2.516715       -68.4833   28-B
  57   1.0000      -1.743100       -47.4322   30-A
  58   1.0000      -1.743071       -47.4314   29-B
  59   1.0000      -1.742940       -47.4278   31-A
  60   1.0000      -1.742911       -47.4270   30-B
  61   1.0000      -1.740389       -47.3584   32-A
  62   1.0000      -1.740311       -47.3563   31-B
  63   1.0000      -1.740225       -47.3539   33-A
  64   1.0000      -1.740146       -47.3518   32-B
  65   1.0000      -1.739570       -47.3361   33-B
  66   1.0000      -1.739568       -47.3360   34-A
  67   1.0000      -1.739465       -47.3332   34-B
  68   1.0000      -1.739460       -47.3331   35-A
  69   1.0000      -1.735279       -47.2193   36-A
  70   1.0000      -1.735256       -47.2187   35-B
  71   1.0000      -1.735199       -47.2172   37-A
  72   1.0000      -1.735178       -47.2166   36-B
  73   1.0000      -1.735111       -47.2148   37-B
  74   1.0000      -1.735104       -47.2146   38-A
  75   1.0000      -1.735075       -47.2138   39-A
  76   1.0000      -1.735025       -47.2124   38-B
  77   1.0000      -0.602063       -16.3830   40-A
  78   1.0000      -0.601477       -16.3670   41-A
  79   1.0000      -0.520741       -14.1701   42-A
  80   1.0000      -0.519663       -14.1408   43-A
  81   1.0000      -0.498995       -13.5784   39-B
  82   1.0000      -0.498663       -13.5693   40-B
  83   1.0000      -0.413320       -11.2470   41-B
  84   1.0000      -0.412153       -11.2152   42-B
  85   1.0000      -0.382564       -10.4101   44-A
  86   1.0000      -0.377934       -10.2841   45-A
  87   1.0000      -0.320283        -8.7153   46-A
  88   1.0000      -0.317970        -8.6524   47-A
  89   1.0000      -0.287607        -7.8262   43-B
  90   1.0000      -0.284412        -7.7393   44-B
  91   1.0000      -0.229248        -6.2382   48-A
  92   1.0000      -0.222550        -6.0559   49-A
  93   1.0000      -0.199954        -5.4410   50-A
  94   1.0000      -0.198830        -5.4104   51-A
  95   1.0000      -0.170656        -4.6438   45-B
  96   1.0000      -0.165774        -4.5109   46-B
  97   1.0000      -0.139205        -3.7880   47-B
  98   1.0000      -0.137582        -3.7438   48-B
  99   1.0000      -0.136395        -3.7115   52-A
 100   1.0000      -0.130094        -3.5400   49-B
 101   1.0000      -0.129771        -3.5313   50-B
 102   1.0000      -0.110213        -2.9990   53-A
 103   1.0000      -0.082411        -2.2425   54-A
 104   1.0000      -0.071630        -1.9492   51-B
 105   1.0000      -0.065758        -1.7894   52-B
 106   1.0000      -0.062900        -1.7116   55-A
 107   1.0000      -0.047868        -1.3026   53-B
 108   1.0000      -0.046754        -1.2722   54-B
 109   1.0000      -0.033084        -0.9003   56-A
 110   1.0000      -0.030022        -0.8169   57-A
 111   1.0000      -0.029870        -0.8128   55-B
 112   1.0000      -0.025983        -0.7070   58-A
 113   1.0000      -0.001739        -0.0473   59-A
 114   1.0000      -0.000706        -0.0192   56-B
 115   1.0000       0.000813         0.0221   60-A
 116   1.0000       0.019411         0.5282   61-A
 117   1.0000       0.021155         0.5757   62-A
 118   1.0000       0.040963         1.1147   57-B
 119   1.0000       0.054709         1.4887   63-A
 120   1.0000       0.055891         1.5209   64-A
 121   1.0000       0.070645         1.9223   58-B
 122   1.0000       0.099546         2.7088   59-B
 123   1.0000       0.116573         3.1721   60-B
 124   0.0000       0.182270         4.9598   65-A
 125   0.0000       0.182455         4.9649   66-A
 126   0.0000       0.196132         5.3370   61-B
 127   0.0000       0.196600         5.3497   62-B
 128   0.0000       0.202122         5.5000   63-B

                 SPIN DOWN ORBITALS
  NO   OCC          E(Eh)            E(eV)    Irrep
   0   1.0000    -443.560842    -12069.9041    1-B
   1   1.0000    -443.559752    -12069.8745    2-B
   2   1.0000    -443.546264    -12069.5075    1-A
   3   1.0000    -443.546209    -12069.5060    2-A
   4   1.0000    -318.186649     -8658.2989    3-A
   5   1.0000     -56.369751     -1533.8989    3-B
   6   1.0000     -56.369444     -1533.8905    4-B
   7   1.0000     -56.356895     -1533.5491    4-A
   8   1.0000     -56.356622     -1533.5417    5-A
   9   1.0000     -51.285859     -1395.5592    5-B
  10   1.0000     -51.285796     -1395.5574    6-A
  11   1.0000     -51.285743     -1395.5560    6-B
  12   1.0000     -51.285696     -1395.5547    7-A
  13   1.0000     -51.284167     -1395.5131    8-A
  14   1.0000     -51.284145     -1395.5125    7-B
  15   1.0000     -51.284062     -1395.5103    8-B
  16   1.0000     -51.284060     -1395.5102    9-A
  17   1.0000     -51.284034     -1395.5095   10-A
  18   1.0000     -51.284025     -1395.5093    9-B
  19   1.0000     -51.283982     -1395.5081   10-B
  20   1.0000     -51.283950     -1395.5072   11-A
  21   1.0000     -38.013408     -1034.3974   12-A
  22   1.0000     -33.516165      -912.0212   11-B
  23   1.0000     -33.515371      -911.9996   13-A
  24   1.0000     -33.513516      -911.9491   12-B
  25   1.0000      -9.817272      -267.1416   14-A
  26   1.0000      -9.816868      -267.1306   13-B
  27   1.0000      -9.816344      -267.1163   15-A
  28   1.0000      -9.815915      -267.1046   14-B
  29   1.0000      -9.808887      -266.9134   16-A
  30   1.0000      -9.808555      -266.9043   17-A
  31   1.0000      -9.808448      -266.9014   15-B
  32   1.0000      -9.808105      -266.8921   16-B
  33   1.0000      -9.807509      -266.8759   18-A
  34   1.0000      -9.807497      -266.8756   17-B
  35   1.0000      -9.806712      -266.8542   19-A
  36   1.0000      -9.806708      -266.8541   18-B
  37   1.0000      -7.340661      -199.7495   19-B
  38   1.0000      -7.340594      -199.7477   20-B
  39   1.0000      -7.333427      -199.5527   20-A
  40   1.0000      -7.333252      -199.5479   21-A
  41   1.0000      -5.403691      -147.0419   21-B
  42   1.0000      -5.403670      -147.0413   22-A
  43   1.0000      -5.403538      -147.0378   22-B
  44   1.0000      -5.403521      -147.0373   23-A
  45   1.0000      -5.398202      -146.8926   24-A
  46   1.0000      -5.398192      -146.8923   23-B
  47   1.0000      -5.397979      -146.8865   25-A
  48   1.0000      -5.397963      -146.8860   24-B
  49   1.0000      -5.397754      -146.8803   25-B
  50   1.0000      -5.397745      -146.8801   26-A
  51   1.0000      -5.397690      -146.8786   26-B
  52   1.0000      -5.397676      -146.8782   27-A
  53   1.0000      -3.993379      -108.6654   28-A
  54   1.0000      -2.506385       -68.2022   27-B
  55   1.0000      -2.505929       -68.1898   28-B
  56   1.0000      -2.504912       -68.1621   29-A
  57   1.0000      -1.742647       -47.4198   30-A
  58   1.0000      -1.742618       -47.4190   29-B
  59   1.0000      -1.742490       -47.4156   31-A
  60   1.0000      -1.742460       -47.4148   30-B
  61   1.0000      -1.739535       -47.3352   32-A
  62   1.0000      -1.739477       -47.3336   31-B
  63   1.0000      -1.739366       -47.3306   33-A
  64   1.0000      -1.739307       -47.3290   32-B
  65   1.0000      -1.739224       -47.3267   34-A
  66   1.0000      -1.739205       -47.3262   33-B
  67   1.0000      -1.739119       -47.3238   35-A
  68   1.0000      -1.739101       -47.3233   34-B
  69   1.0000      -1.734481       -47.1976   36-A
  70   1.0000      -1.734480       -47.1976   35-B
  71   1.0000      -1.734425       -47.1961   37-A
  72   1.0000      -1.734387       -47.1951   36-B
  73   1.0000      -1.734344       -47.1939   37-B
  74   1.0000      -1.734327       -47.1934   38-A
  75   1.0000      -1.734282       -47.1922   39-A
  76   1.0000      -1.734226       -47.1907   38-B
  77   1.0000      -0.601247       -16.3608   40-A
  78   1.0000      -0.600651       -16.3445   41-A
  79   1.0000      -0.519601       -14.1391   42-A
  80   1.0000      -0.518546       -14.1104   43-A
  81   1.0000      -0.497309       -13.5325   39-B
  82   1.0000      -0.496993       -13.5239   40-B
  83   1.0000      -0.410637       -11.1740   41-B
  84   1.0000      -0.409451       -11.1417   42-B
  85   1.0000      -0.380059       -10.3419   44-A
  86   1.0000      -0.375613       -10.2209   45-A
  87   1.0000      -0.318548        -8.6681   46-A
  88   1.0000      -0.316079        -8.6009   47-A
  89   1.0000      -0.285233        -7.7616   43-B
  90   1.0000      -0.281790        -7.6679   44-B
  91   1.0000      -0.228121        -6.2075   48-A
  92   1.0000      -0.221485        -6.0269   49-A
  93   1.0000      -0.198647        -5.4055   50-A
  94   1.0000      -0.197597        -5.3769   51-A
  95   1.0000      -0.169223        -4.6048   45-B
  96   1.0000      -0.163716        -4.4549   46-B
  97   1.0000      -0.138346        -3.7646   47-B
  98   1.0000      -0.136025        -3.7014   48-B
  99   1.0000      -0.134421        -3.6578   52-A
 100   1.0000      -0.129638        -3.5276   49-B
 101   1.0000      -0.129224        -3.5164   50-B
 102   1.0000      -0.108478        -2.9518   53-A
 103   1.0000      -0.081041        -2.2052   54-A
 104   1.0000      -0.070182        -1.9098   51-B
 105   1.0000      -0.060697        -1.6517   55-A
 106   1.0000      -0.054435        -1.4813   52-B
 107   1.0000      -0.046776        -1.2728   53-B
 108   1.0000      -0.045940        -1.2501   54-B
 109   1.0000      -0.030617        -0.8331   56-A
 110   1.0000      -0.026287        -0.7153   57-A
 111   1.0000      -0.022343        -0.6080   58-A
 112   1.0000      -0.002000        -0.0544   55-B
 113   1.0000       0.007892         0.2147   59-A
 114   1.0000       0.010473         0.2850   56-B
 115   1.0000       0.011146         0.3033   60-A
 116   1.0000       0.029254         0.7961   61-A
 117   1.0000       0.032256         0.8777   62-A
 118   1.0000       0.052170         1.4196   57-B
 119   1.0000       0.056590         1.5399   63-A
 120   1.0000       0.059517         1.6195   64-A
 121   1.0000       0.072478         1.9722   58-B
 122   1.0000       0.102836         2.7983   59-B
 123   0.0000       0.146341         3.9821   60-B
 124   0.0000       0.184167         5.0114   65-A
 125   0.0000       0.184356         5.0166   66-A
 126   0.0000       0.199203         5.4206   61-B
 127   0.0000       0.199888         5.4392   62-B

MULLIKEN ATOMIC CHARGES AND SPIN POPULATIONS
--------------------------------------------
   0 Cu:    0.637559    0.309703
   1 Se:   -0.731448    0.173654
   2 C :    0.221335   -0.002779
   3 Se:   -0.733114    0.173058
   4 C :    0.221825   -0.002989
   5 Se:   -0.731448    0.173654
   6 C :    0.221335   -0.002779
   7 Se:   -0.733114    0.173058
   8 C :    0.221825   -0.002989
   9 C :   -0.101400   -0.001502
  10 C :   -0.101400   -0.001502
  11 C :   -0.157790   -0.000725
  12 H :    0.090177    0.002744
  13 C :   -0.157790   -0.000725
  14 H :    0.090177    0.002744
  15 H :    0.020802    0.001596
  16 H :    0.020802    0.001596
  17 C :   -0.097387   -0.001406
  18 C :   -0.097387   -0.001406
  19 C :   -0.159319   -0.000749
  20 H :    0.087281    0.002676
  21 C :   -0.159319   -0.000749
  22 H :    0.087281    0.002676
  23 H :    0.020259    0.001570
  24 H :    0.020259    0.001570
Sum of atomic charges         :   -2.0000000

LOEWDIN ATOMIC CHARGES AND SPIN POPULATIONS
-------------------------------------------
   0 Cu:   -0.616726    0.390439
   1 Se:   -0.203550    0.123889
   2 C :    0.037891    0.012137
   3 Se:   -0.202990    0.123281
   4 C :    0.038111    0.011897
   5 Se:   -0.203550    0.123889
   6 C :    0.037891    0.012137
   7 Se:   -0.202990    0.123281
   8 C :    0.038111    0.011897
   9 C :    0.369785    0.006868
  10 C :    0.369785    0.006868
  11 C :    0.319674    0.000407
  12 H :   -0.458175    0.009265
  13 C :    0.319674    0.000407
  14 H :   -0.458175    0.009265
  15 H :   -0.412378    0.000386
  16 H :   -0.412378    0.000386
  17 C :    0.368088    0.006851
  18 C :    0.368088    0.006851
  19 C :    0.319623    0.000380
  20 H :   -0.455335    0.009038
  21 C :    0.319623    0.000380
  22 H :   -0.455335    0.009038
  23 H :   -0.412380    0.000381
  24 H :   -0.412380    0.000381

  Mayer bond orders larger than 0.100000
B(  0-Cu,  1-Se) :   0.5499 B(  0-Cu,  3-Se) :   0.5508 B(  0-Cu,  5-Se) :   0.5499
B(  0-Cu,  7-Se) :   0.5508 B(  1-Se,  2-C ) :   1.0392 B(  2-C ,  6-C ) :   1.1354
B(  2-C , 17-C ) :   1.2538 B(  3-Se,  4-C ) :   1.0392 B(  4-C ,  8-C ) :   1.1342
B(  4-C , 10-C ) :   1.2558 B(  5-Se,  6-C ) :   1.0392 B(  6-C , 18-C ) :   1.2538
B(  7-Se,  8-C ) :   1.0392 B(  8-C ,  9-C ) :   1.2558 B(  9-C , 13-C ) :   1.3812
B(  9-C , 14-H ) :   0.9609 B( 10-C , 11-C ) :   1.3812 B( 10-C , 12-H ) :   0.9609
B( 11-C , 13-C ) :   1.3098 B( 11-C , 15-H ) :   0.9958 B( 13-C , 16-H ) :   0.9958
B( 17-C , 19-C ) :   1.3836 B( 17-C , 20-H ) :   0.9622 B( 18-C , 21-C ) :   1.3836
B( 18-C , 22-H ) :   0.9622 B( 19-C , 21-C ) :   1.3076 B( 19-C , 23-H ) :   0.9962
B( 21-C , 24-H ) :   0.9962

FINAL SINGLE POINT ENERGY    -11627.145002043098

DIPOLE MOMENT
-------------
                                X             Y             Z
Electronic contribution:     -0.00000       0.00000      -0.00861
Nuclear contribution   :      0.00000       0.00000       0.00000
                        -----------------------------------------
Total Dipole Moment    :     -0.00000       0.00000      -0.00861
                        -----------------------------------------
Magnitude (a.u.)       :      0.00861
Magnitude (Debye)      :      0.02187

Rotational constants in cm-1:     0.017595     0.004097     0.003325
Rotational constants in MHz :   527.486728   122.817886    99.666038

                             ****ORCA TERMINATED NORMALLY****
TOTAL RUN TIME: 0 days 19 hours 8 minutes 40 seconds 18 msec
