                         Program Version 5.0.4 -  RELEASE  -
|  1> ! RIJCOSX nofrozencore ReducedPop printbasis
|  2> ! M06L ano-rcc-dzp autoaux
|  3>
|  4> %maxcore 7500
|  5> %basis
|  6> PCDTrimBas overlap
|  7> PCDTrimAuxJ Coulomb
|  8> PCDTrimAuxJK Coulomb
|  9> PCDTrimAuxC Coulomb
| 10> PCDThresh -1
| 11> end
| 12>
| 13> %basis
| 14> newgto Cu "ano-rcc-tzp" end
| 15> newgto Se "ano-rcc-tzp" end
| 16> end
| 17>
| 18> %pal
| 19> nprocs 8
| 20> end
| 21>
| 22> % sym SymThresh 1e-2 end
| 23> * xyz -2 2
| 24> Cu 3.63251590224436e-06 -9.850815029112786e-07 -3.2915714563964586e-06
| 25> Se -0.3794367095257232 -0.25147981598512337 2.3239547842626758
| 26> C -1.8804825887041652 0.3551957239956948 2.568735167084504
| 27> Se 2.1720476227361476 -0.9434033557918138 0.011955300414209787
| 28> C 2.6639146043382103 -0.8771139487538153 -1.5494632816633913
| 29> Se -2.1720635120656206 0.9434107873092421 -0.011958350292505516
| 30> C -2.6627656613225876 0.8768068342048165 1.5483972518323619
| 31> Se 0.3794935994146429 0.2514597044673046 -2.3239801627454857
| 32> C 1.880047918903922 -0.355188922967095 -2.5677206500019634
| 33> C 2.443184628285113 -0.37347729362357424 -3.829123134312207
| 34> C 3.904627651912101 -1.347537718253391 -1.9251939583584405
| 35> C 4.444199433067463 -1.3581553912059623 -3.1723969146678384
| 36> H 4.67943289232902 -1.8666987399235848 -0.9004392716929727
| 37> C 3.671331331442663 -0.8424921641824491 -4.1822978146474235
| 38> H 1.666552471128239 0.14157000850987334 -4.826468103124362
| 39> H 5.600578212505281 -1.8234847575461752 -3.372384474364233
| 40> H 4.054204083633693 -0.796645758357001 -5.3655673067664225
| 41> C -2.4395047281266162 0.3710465442188498 3.8337946969153336
| 42> C -3.911982914154996 1.3524990241678854 1.9152821584229576
| 43> C -3.6722904558790574 0.8421183800358877 4.186708830259194
| 44> H -1.7093412200733573 -0.11311402899071324 4.771075937872254
| 45> C -4.451430512274881 1.3610381769554596 3.1737984369896504
| 46> H -4.594662802385858 1.8101750257251972 1.0110093048540751
| 47> H -4.039670914975048 0.7986386070785059 5.31924105981383
| 48> H -5.527724051090433 1.7941671782160253 3.3597899141194403
| 49> *
| 50>
| 51> % eprnmr
| 52> gtensor true
| 53> Nuclei = all H {aiso,adip,aorb,fgrad,rho}
| 54> Nuclei = all Cu {aiso,adip,aorb,fgrad,rho}
| 55> end
| 56>
| 57>                          ****END OF INPUT****

CARTESIAN COORDINATES (ANGSTROEM)
---------------------------------
  Cu    -0.000003    0.000004    0.000000
  Se     2.344936   -0.330540    0.000000
  C      2.536120   -1.956751    0.000000
  Se     0.095099    2.366200    0.000000
  C     -1.471367    2.846346    0.000000
  Se    -0.095103   -2.366217    0.000000
  C      1.470328   -2.845132    0.000000
  Se    -2.344959    0.330602    0.000000
  C     -2.535107    1.956314    0.000000
  C     -3.794255    2.524768    0.000000
  C     -1.805444    4.184342    0.000000
  C     -3.051076    4.727635    0.000000
  H     -0.735454    5.064737    0.000000
  C     -4.105912    3.849880    0.000000
  H     -4.836487    1.643359    0.000000
  H     -3.209948    5.980032    0.000000
  H     -5.292619    4.224774    0.000000
  C      3.799138   -2.520593    0.000000
  C      1.795100   -4.192706    0.000000
  C      4.110353   -3.850767    0.000000
  H      4.778615   -1.691936    0.000000
  C      3.052222   -4.735461    0.000000
  H      0.850949   -4.968469    0.000000
  H      5.246141   -4.210593    0.000000
  H      3.199944   -5.901128    0.000000

 Total Charge           Charge          ....   -2
 Multiplicity           Mult            ....    2
 Number of Electrons    NEL             ....  247
 Basis Dimension        Dim             ....  575

ORBITAL ENERGIES
----------------
                 SPIN UP ORBITALS
  NO   OCC          E(Eh)            E(eV)    Irrep
   0   1.0000    -443.565947    -12070.0430    1-A'
   1   1.0000    -443.564768    -12070.0110    2-A'
   2   1.0000    -443.551292    -12069.6443    3-A'
   3   1.0000    -443.550691    -12069.6279    4-A'
   4   1.0000    -318.191166     -8658.4218    5-A'
   5   1.0000     -56.374994     -1534.0416    6-A'
   6   1.0000     -56.374189     -1534.0197    7-A'
   7   1.0000     -56.361898     -1533.6852    8-A'
   8   1.0000     -56.361091     -1533.6633    9-A'
   9   1.0000     -51.291519     -1395.7132   10-A'
  10   1.0000     -51.291279     -1395.7067   11-A'
  11   1.0000     -51.290576     -1395.6875   12-A'
  12   1.0000     -51.290391     -1395.6825   13-A'
  13   1.0000     -51.290127     -1395.6753   14-A'
  14   1.0000     -51.289881     -1395.6686   15-A'
  15   1.0000     -51.289683     -1395.6632    1-A"
  16   1.0000     -51.289432     -1395.6564    2-A"
  17   1.0000     -51.289219     -1395.6506   16-A'
  18   1.0000     -51.289031     -1395.6455   17-A'
  19   1.0000     -51.288766     -1395.6383    3-A"
  20   1.0000     -51.288577     -1395.6331    4-A"
  21   1.0000     -38.031759     -1034.8968   18-A'
  22   1.0000     -33.533803      -912.5012   19-A'
  23   1.0000     -33.532997      -912.4792   20-A'
  24   1.0000     -33.521834      -912.1755    5-A"
  25   1.0000      -9.840228      -267.7662   21-A'
  26   1.0000      -9.838869      -267.7292   22-A'
  27   1.0000      -9.838345      -267.7150   23-A'
  28   1.0000      -9.837228      -267.6846   24-A'
  29   1.0000      -9.831466      -267.5278   25-A'
  30   1.0000      -9.830029      -267.4887   26-A'
  31   1.0000      -9.829239      -267.4672   27-A'
  32   1.0000      -9.824483      -267.3378   28-A'
  33   1.0000      -9.818611      -267.1780   29-A'
  34   1.0000      -9.818145      -267.1653   30-A'
  35   1.0000      -9.815275      -267.0872   31-A'
  36   1.0000      -9.814820      -267.0748   32-A'
  37   1.0000      -7.346392      -199.9055   33-A'
  38   1.0000      -7.345482      -199.8807   34-A'
  39   1.0000      -7.339020      -199.7049   35-A'
  40   1.0000      -7.338102      -199.6799   36-A'
  41   1.0000      -5.409710      -147.2057   37-A'
  42   1.0000      -5.409531      -147.2008   38-A'
  43   1.0000      -5.408587      -147.1751   39-A'
  44   1.0000      -5.408483      -147.1723   40-A'
  45   1.0000      -5.404116      -147.0535   41-A'
  46   1.0000      -5.403928      -147.0484   42-A'
  47   1.0000      -5.403748      -147.0435    6-A"
  48   1.0000      -5.403542      -147.0378    7-A"
  49   1.0000      -5.403161      -147.0275   43-A'
  50   1.0000      -5.403030      -147.0239   44-A'
  51   1.0000      -5.402756      -147.0165    8-A"
  52   1.0000      -5.402616      -147.0127    9-A"
  53   1.0000      -4.026030      -109.5539   45-A'
  54   1.0000      -2.545602       -69.2693   46-A'
  55   1.0000      -2.544602       -69.2421   47-A'
  56   1.0000      -2.521134       -68.6035   10-A"
  57   1.0000      -1.748709       -47.5848   48-A'
  58   1.0000      -1.748514       -47.5795   49-A'
  59   1.0000      -1.747611       -47.5549   50-A'
  60   1.0000      -1.747484       -47.5515   51-A'
  61   1.0000      -1.745896       -47.5082   52-A'
  62   1.0000      -1.745691       -47.5027   53-A'
  63   1.0000      -1.745187       -47.4889   11-A"
  64   1.0000      -1.744993       -47.4837   12-A"
  65   1.0000      -1.744844       -47.4796   54-A'
  66   1.0000      -1.744713       -47.4761   55-A'
  67   1.0000      -1.744106       -47.4596   13-A"
  68   1.0000      -1.743990       -47.4564   14-A"
  69   1.0000      -1.740590       -47.3639   56-A'
  70   1.0000      -1.740562       -47.3631   15-A"
  71   1.0000      -1.740376       -47.3580   57-A'
  72   1.0000      -1.740369       -47.3579   16-A"
  73   1.0000      -1.739633       -47.3378   58-A'
  74   1.0000      -1.739614       -47.3373   17-A"
  75   1.0000      -1.739487       -47.3338   59-A'
  76   1.0000      -1.739470       -47.3334   18-A"
  77   1.0000      -0.616546       -16.7771   60-A'
  78   1.0000      -0.611271       -16.6335   61-A'
  79   1.0000      -0.531886       -14.4733   62-A'
  80   1.0000      -0.527987       -14.3672   63-A'
  81   1.0000      -0.500484       -13.6189   64-A'
  82   1.0000      -0.500055       -13.6072   65-A'
  83   1.0000      -0.414911       -11.2903   66-A'
  84   1.0000      -0.413710       -11.2576   67-A'
  85   1.0000      -0.387022       -10.5314   68-A'
  86   1.0000      -0.381759       -10.3882   69-A'
  87   1.0000      -0.311429        -8.4744   70-A'
  88   1.0000      -0.306109        -8.3296   71-A'
  89   1.0000      -0.284775        -7.7491   72-A'
  90   1.0000      -0.280692        -7.6380   73-A'
  91   1.0000      -0.224170        -6.1000   74-A'
  92   1.0000      -0.217120        -5.9081   75-A'
  93   1.0000      -0.206355        -5.6152   76-A'
  94   1.0000      -0.205848        -5.6014   77-A'
  95   1.0000      -0.154803        -4.2124   78-A'
  96   1.0000      -0.144620        -3.9353   79-A'
  97   1.0000      -0.142613        -3.8807   19-A"
  98   1.0000      -0.141088        -3.8392   80-A'
  99   1.0000      -0.138427        -3.7668   20-A"
 100   1.0000      -0.129179        -3.5151   81-A'
 101   1.0000      -0.116980        -3.1832   82-A'
 102   1.0000      -0.109046        -2.9673   83-A'
 103   1.0000      -0.078251        -2.1293   84-A'
 104   1.0000      -0.072176        -1.9640   85-A'
 105   1.0000      -0.071021        -1.9326   86-A'
 106   1.0000      -0.058935        -1.6037   21-A"
 107   1.0000      -0.056529        -1.5382   87-A'
 108   1.0000      -0.055414        -1.5079   22-A"
 109   1.0000      -0.039921        -1.0863   23-A"
 110   1.0000      -0.034618        -0.9420   88-A'
 111   1.0000      -0.033990        -0.9249   24-A"
 112   1.0000      -0.033815        -0.9202   89-A'
 113   1.0000      -0.007087        -0.1928   25-A"
 114   1.0000      -0.005799        -0.1578   26-A"
 115   1.0000      -0.004024        -0.1095   90-A'
 116   1.0000       0.014286         0.3887   91-A'
 117   1.0000       0.015272         0.4156   92-A'
 118   1.0000       0.037792         1.0284   93-A'
 119   1.0000       0.048769         1.3271   27-A"
 120   1.0000       0.050815         1.3827   28-A"
 121   1.0000       0.064496         1.7550   29-A"
 122   1.0000       0.093681         2.5492   30-A"
 123   1.0000       0.112621         3.0646   94-A'
 124   0.0000       0.167719         4.5639   95-A'
 125   0.0000       0.175124         4.7654   96-A'
 126   0.0000       0.189057         5.1445   97-A'
 127   0.0000       0.192021         5.2252   98-A'
 128   0.0000       0.199529         5.4295   31-A"

                 SPIN DOWN ORBITALS
  NO   OCC          E(Eh)            E(eV)    Irrep
   0   1.0000    -443.565490    -12070.0306    1-A'
   1   1.0000    -443.564312    -12069.9985    2-A'
   2   1.0000    -443.550834    -12069.6318    3-A'
   3   1.0000    -443.550235    -12069.6155    4-A'
   4   1.0000    -318.191043     -8658.4185    5-A'
   5   1.0000     -56.374809     -1534.0365    6-A'
   6   1.0000     -56.374004     -1534.0146    7-A'
   7   1.0000     -56.361715     -1533.6802    8-A'
   8   1.0000     -56.360909     -1533.6583    9-A'
   9   1.0000     -51.291204     -1395.7046   10-A'
  10   1.0000     -51.290963     -1395.6980   11-A'
  11   1.0000     -51.290257     -1395.6788   12-A'
  12   1.0000     -51.290070     -1395.6738   13-A'
  13   1.0000     -51.289431     -1395.6564    1-A"
  14   1.0000     -51.289373     -1395.6548   14-A'
  15   1.0000     -51.289180     -1395.6495    2-A"
  16   1.0000     -51.289126     -1395.6481   15-A'
  17   1.0000     -51.288515     -1395.6315    3-A"
  18   1.0000     -51.288474     -1395.6303   16-A'
  19   1.0000     -51.288325     -1395.6263    4-A"
  20   1.0000     -51.288284     -1395.6252   17-A'
  21   1.0000     -38.017913     -1034.5200   18-A'
  22   1.0000     -33.520645      -912.1431   19-A'
  23   1.0000     -33.519840      -912.1212   20-A'
  24   1.0000     -33.517965      -912.0702    5-A"
  25   1.0000      -9.840171      -267.7647   21-A'
  26   1.0000      -9.838812      -267.7277   22-A'
  27   1.0000      -9.838237      -267.7120   23-A'
  28   1.0000      -9.837118      -267.6816   24-A'
  29   1.0000      -9.831412      -267.5263   25-A'
  30   1.0000      -9.829976      -267.4872   26-A'
  31   1.0000      -9.829123      -267.4640   27-A'
  32   1.0000      -9.824366      -267.3346   28-A'
  33   1.0000      -9.818640      -267.1788   29-A'
  34   1.0000      -9.818173      -267.1661   30-A'
  35   1.0000      -9.815301      -267.0879   31-A'
  36   1.0000      -9.814845      -267.0755   32-A'
  37   1.0000      -7.345988      -199.8945   33-A'
  38   1.0000      -7.345079      -199.8698   34-A'
  39   1.0000      -7.338609      -199.6937   35-A'
  40   1.0000      -7.337692      -199.6688   36-A'
  41   1.0000      -5.409355      -147.1960   37-A'
  42   1.0000      -5.409176      -147.1912   38-A'
  43   1.0000      -5.408228      -147.1654   39-A'
  44   1.0000      -5.408123      -147.1625   40-A'
  45   1.0000      -5.403433      -147.0349    6-A"
  46   1.0000      -5.403268      -147.0304   41-A'
  47   1.0000      -5.403226      -147.0293    7-A"
  48   1.0000      -5.403078      -147.0252   42-A'
  49   1.0000      -5.402442      -147.0079    8-A"
  50   1.0000      -5.402323      -147.0047   43-A'
  51   1.0000      -5.402302      -147.0041    9-A"
  52   1.0000      -5.402188      -147.0010   44-A'
  53   1.0000      -3.997954      -108.7898   45-A'
  54   1.0000      -2.510841       -68.3234   10-A"
  55   1.0000      -2.510542       -68.3153   46-A'
  56   1.0000      -2.509469       -68.2861   47-A'
  57   1.0000      -1.748266       -47.5727   48-A'
  58   1.0000      -1.748070       -47.5674   49-A'
  59   1.0000      -1.747165       -47.5428   50-A'
  60   1.0000      -1.747037       -47.5393   51-A'
  61   1.0000      -1.744992       -47.4837   52-A'
  62   1.0000      -1.744885       -47.4807   11-A"
  63   1.0000      -1.744783       -47.4780   53-A'
  64   1.0000      -1.744692       -47.4755   12-A"
  65   1.0000      -1.743943       -47.4551   54-A'
  66   1.0000      -1.743808       -47.4514   55-A'
  67   1.0000      -1.743801       -47.4512   13-A"
  68   1.0000      -1.743685       -47.4481   14-A"
  69   1.0000      -1.739776       -47.3417   15-A"
  70   1.0000      -1.739765       -47.3414   56-A'
  71   1.0000      -1.739580       -47.3364   16-A"
  72   1.0000      -1.739552       -47.3356   57-A'
  73   1.0000      -1.738835       -47.3161   17-A"
  74   1.0000      -1.738818       -47.3156   58-A'
  75   1.0000      -1.738689       -47.3121   18-A"
  76   1.0000      -1.738671       -47.3116   59-A'
  77   1.0000      -0.615854       -16.7582   60-A'
  78   1.0000      -0.610529       -16.6133   61-A'
  79   1.0000      -0.530673       -14.4403   62-A'
  80   1.0000      -0.526809       -14.3352   63-A'
  81   1.0000      -0.498649       -13.5689   64-A'
  82   1.0000      -0.498252       -13.5581   65-A'
  83   1.0000      -0.412290       -11.2190   66-A'
  84   1.0000      -0.411065       -11.1857   67-A'
  85   1.0000      -0.384192       -10.4544   68-A'
  86   1.0000      -0.379102       -10.3159   69-A'
  87   1.0000      -0.309713        -8.4277   70-A'
  88   1.0000      -0.304343        -8.2816   71-A'
  89   1.0000      -0.282125        -7.6770   72-A'
  90   1.0000      -0.277691        -7.5564   73-A'
  91   1.0000      -0.222900        -6.0654   74-A'
  92   1.0000      -0.215975        -5.8770   75-A'
  93   1.0000      -0.205494        -5.5918   76-A'
  94   1.0000      -0.204870        -5.5748   77-A'
  95   1.0000      -0.153175        -4.1681   78-A'
  96   1.0000      -0.142283        -3.8717   19-A"
  97   1.0000      -0.142188        -3.8691   79-A'
  98   1.0000      -0.139004        -3.7825   80-A'
  99   1.0000      -0.138072        -3.7571   20-A"
 100   1.0000      -0.128262        -3.4902   81-A'
 101   1.0000      -0.116183        -3.1615   82-A'
 102   1.0000      -0.106708        -2.9037   83-A'
 103   1.0000      -0.076831        -2.0907   84-A'
 104   1.0000      -0.069647        -1.8952   85-A'
 105   1.0000      -0.061217        -1.6658   86-A'
 106   1.0000      -0.058090        -1.5807   21-A"
 107   1.0000      -0.055046        -1.4979   87-A'
 108   1.0000      -0.054596        -1.4856   22-A"
 109   1.0000      -0.037859        -1.0302   23-A"
 110   1.0000      -0.032983        -0.8975   24-A"
 111   1.0000      -0.028268        -0.7692   88-A'
 112   1.0000      -0.005716        -0.1555   89-A'
 113   1.0000       0.002636         0.0717   25-A"
 114   1.0000       0.005433         0.1478   26-A"
 115   1.0000       0.006190         0.1684   90-A'
 116   1.0000       0.023469         0.6386   91-A'
 117   1.0000       0.027580         0.7505   92-A'
 118   1.0000       0.049071         1.3353   93-A'
 119   1.0000       0.050894         1.3849   27-A"
 120   1.0000       0.054377         1.4797   28-A"
 121   1.0000       0.066265         1.8031   29-A"
 122   1.0000       0.096992         2.6393   30-A"
 123   0.0000       0.142279         3.8716   94-A'
 124   0.0000       0.169546         4.6136   95-A'
 125   0.0000       0.177303         4.8247   96-A'
 126   0.0000       0.192975         5.2511   97-A'
 127   0.0000       0.196183         5.3384   98-A'

MULLIKEN ATOMIC CHARGES AND SPIN POPULATIONS
--------------------------------------------
   0 Cu:    0.638483    0.309234
   1 Se:   -0.705154    0.173598
   2 C :    0.240287   -0.003368
   3 Se:   -0.692678    0.172868
   4 C :    0.249512   -0.003348
   5 Se:   -0.709791    0.173154
   6 C :    0.239260   -0.003367
   7 Se:   -0.693382    0.172471
   8 C :    0.248247   -0.003397
   9 C :   -0.002291   -0.000145
  10 C :   -0.000243   -0.000187
  11 C :   -0.050579   -0.001275
  12 H :   -0.090484    0.002321
  13 C :   -0.052101   -0.001190
  14 H :   -0.083990    0.002228
  15 H :   -0.080680    0.002485
  16 H :   -0.073306    0.002300
  17 C :   -0.016081   -0.000433
  18 C :   -0.030384   -0.000819
  19 C :   -0.078335   -0.001059
  20 H :   -0.054329    0.002317
  21 C :   -0.084181   -0.001009
  22 H :   -0.022550    0.002468
  23 H :   -0.052551    0.002137
  24 H :   -0.042699    0.002017
Sum of atomic charges         :   -2.0000000

LOEWDIN ATOMIC CHARGES AND SPIN POPULATIONS
-------------------------------------------
   0 Cu:   -0.615513    0.388647
   1 Se:   -0.220163    0.123863
   2 C :    0.010898    0.011589
   3 Se:   -0.228742    0.123953
   4 C :   -0.000086    0.011504
   5 Se:   -0.213894    0.123695
   6 C :    0.017348    0.011547
   7 Se:   -0.226690    0.123725
   8 C :    0.001354    0.011479
   9 C :    0.248056    0.006419
  10 C :    0.241214    0.006358
  11 C :    0.177034    0.000516
  12 H :   -0.249045    0.009905
  13 C :    0.183241    0.000499
  14 H :   -0.258672    0.009832
  15 H :   -0.286221    0.000864
  16 H :   -0.297290    0.000751
  17 C :    0.275969    0.006611
  18 C :    0.296391    0.006629
  19 C :    0.225195    0.000484
  20 H :   -0.302714    0.009758
  21 C :    0.237096    0.000457
  22 H :   -0.342658    0.009733
  23 H :   -0.330706    0.000611
  24 H :   -0.341404    0.000570

  Mayer bond orders larger than 0.100000
B(  0-Cu,  1-Se) :   0.5520 B(  0-Cu,  3-Se) :   0.5503 B(  0-Cu,  5-Se) :   0.5511
B(  0-Cu,  7-Se) :   0.5495 B(  1-Se,  2-C ) :   1.0370 B(  2-C ,  6-C ) :   1.1263
B(  2-C , 17-C ) :   1.2548 B(  3-Se,  4-C ) :   1.0380 B(  4-C ,  8-C ) :   1.1195
B(  4-C , 10-C ) :   1.2584 B(  5-Se,  6-C ) :   1.0370 B(  6-C , 18-C ) :   1.2524
B(  7-Se,  8-C ) :   1.0398 B(  8-C ,  9-C ) :   1.2575 B(  9-C , 13-C ) :   1.3760
B(  9-C , 14-H ) :   0.9814 B( 10-C , 11-C ) :   1.3794 B( 10-C , 12-H ) :   0.9781
B( 11-C , 13-C ) :   1.2991 B( 11-C , 15-H ) :   1.0036 B( 13-C , 16-H ) :   1.0053
B( 17-C , 19-C ) :   1.3727 B( 17-C , 20-H ) :   0.9929 B( 18-C , 21-C ) :   1.3712
B( 18-C , 22-H ) :   0.9952 B( 19-C , 21-C ) :   1.3011 B( 19-C , 23-H ) :   1.0103
B( 21-C , 24-H ) :   1.0088

FINAL SINGLE POINT ENERGY    -11627.016053169678

DIPOLE MOMENT
-------------
                                X             Y             Z
Electronic contribution:      0.05207      -0.29149       0.00000
Nuclear contribution   :      0.00137       0.13160       0.00000
                        -----------------------------------------
Total Dipole Moment    :      0.05344      -0.15990       0.00000
                        -----------------------------------------
Magnitude (a.u.)       :      0.16859
Magnitude (Debye)      :      0.42852

Rotational constants in cm-1:     0.017574     0.004097     0.003323
Rotational constants in MHz :   526.867115   122.834127    99.610803

                             ****ORCA TERMINATED NORMALLY****
TOTAL RUN TIME: 0 days 16 hours 46 minutes 11 seconds 49 msec
