                         Program Version 5.0.4 -  RELEASE  -
|  1> ! RIJCOSX nofrozencore ReducedPop printbasis
|  2> ! M06L ano-rcc-dzp autoaux
|  3>
|  4> %maxcore 7500
|  5> %basis
|  6> PCDTrimBas overlap
|  7> PCDTrimAuxJ Coulomb
|  8> PCDTrimAuxJK Coulomb
|  9> PCDTrimAuxC Coulomb
| 10> PCDThresh -1
| 11> end
| 12>
| 13> %basis
| 14> newgto Cu "ano-rcc-tzp" end
| 15> newgto Se "ano-rcc-tzp" end
| 16> end
| 17>
| 18> %pal
| 19> nprocs 8
| 20> end
| 21>
| 22> % sym SymThresh 1e-2 end
| 23> * xyz -2 2
| 24> Cu 0.0010581931393733048 0.005784061887624853 0.004127305338826883
| 25> Se -0.6165381767118546 -1.862680961646595 -1.3533865388222015
| 26> C -2.2362305323901377 -1.6673429730073945 -1.3595292793121392
| 27> Se 2.311674627429243 -0.47423606832714926 -0.12755136376958265
| 28> C 3.010226568606751 0.7513862091196354 0.7887080220264328
| 29> Se -2.3356350081827273 0.38054846917468105 0.06009958276126197
| 30> C -3.0925996472839463 -0.749442459717076 -0.7945937256802545
| 31> Se 0.615048410838941 1.841118437391294 1.338216099494896
| 32> C 2.306097782077419 1.8478163484460297 1.4915482639466249
| 33> C 3.0567107842734753 2.787625734989185 2.213034985901091
| 34> C 4.448534845514482 0.8190921263800534 0.962373655323983
| 35> C 5.146257603211915 1.7634430298613912 1.6823784117673486
| 36> H 5.020180757275723 0.03958077195658803 0.46893198219983956
| 37> C 4.40266991931284 2.747077176132892 2.303076633124833
| 38> H 2.5236072843769253 3.5817928540832504 2.720087063081416
| 39> H 6.227457098327495 1.7260240440578989 1.7513290290035455
| 40> H 4.9185057561179715 3.5133828179322633 2.8829095211675875
| 41> C -2.9380995233321454 -2.588912285051546 -2.0640087807665934
| 42> C -4.4934196243934545 -0.7494735089236876 -0.9177617489933869
| 43> C -4.296051033033554 -2.596522046917399 -2.188694244526451
| 44> H -2.394829388802161 -3.3749533990589513 -2.564499364324137
| 45> C -5.1798163420653145 -1.6732284367730206 -1.6224055075816324
| 46> H -5.0026134814685 0.05164014647000175 -0.4037626858777036
| 47> H -4.706133135095717 -3.407014963255186 -2.7900501314025554
| 48> H -6.259415068604351 -1.7070739927331406 -1.7409211399009177
| 49> *
| 50>
| 51> % eprnmr
| 52> gtensor true
| 53> Nuclei = all H {aiso,adip,aorb,fgrad,rho}
| 54> Nuclei = all Cu {aiso,adip,aorb,fgrad,rho}
| 55> end
| 56>
| 57>                          ****END OF INPUT****

CARTESIAN COORDINATES (ANGSTROEM)
---------------------------------
  Cu     0.001239    0.007076    0.000000
  Se    -0.675626   -2.285801    0.000000
  C     -2.295087   -2.088458    0.000000
  Se     2.305374   -0.519867    0.000000
  C      3.043842    0.991530    0.000000
  Se    -2.332281    0.405075    0.000000
  C     -3.126447   -0.991233    0.000000
  Se     0.673472    2.259482    0.000000
  C      2.370715    2.310181    0.000000
  C      3.152697    3.474530    0.000000
  C      4.489312    1.110231    0.000000
  C      5.218356    2.278785    0.000000
  H      5.039169    0.174517    0.000000
  C      4.502184    3.458964    0.000000
  H      2.641967    4.429076    0.000000
  H      6.302241    2.260374    0.000000
  H      5.043258    4.405937    0.000000
  C     -3.027595   -3.229349    0.000000
  C     -4.532229   -1.026507    0.000000
  C     -4.390588   -3.272781    0.000000
  H     -2.506414   -4.173735    0.000000
  C     -5.249277   -2.169673    0.000000
  H     -5.018752   -0.062893    0.000000
  H     -4.826883   -4.270951    0.000000
  H     -6.333733   -2.238081    0.000000

 Total Charge           Charge          ....   -2
 Multiplicity           Mult            ....    2
 Number of Electrons    NEL             ....  247
 Basis Dimension        Dim             ....  575

ORBITAL ENERGIES
----------------
                 SPIN UP ORBITALS
  NO   OCC          E(Eh)            E(eV)    Irrep
   0   1.0000    -443.567376    -12070.0819    1-A'
   1   1.0000    -443.551593    -12069.6524    2-A'
   2   1.0000    -443.546891    -12069.5245    3-A'
   3   1.0000    -443.538662    -12069.3006    4-A'
   4   1.0000    -318.187680     -8658.3270    5-A'
   5   1.0000     -56.374778     -1534.0357    6-A'
   6   1.0000     -56.364227     -1533.7486    7-A'
   7   1.0000     -56.356704     -1533.5439    8-A'
   8   1.0000     -56.352732     -1533.4358    9-A'
   9   1.0000     -51.293891     -1395.7777   10-A'
  10   1.0000     -51.292580     -1395.7421   11-A'
  11   1.0000     -51.292009     -1395.7265    1-A"
  12   1.0000     -51.288905     -1395.6421   12-A'
  13   1.0000     -51.287415     -1395.6015   13-A'
  14   1.0000     -51.286956     -1395.5890    2-A"
  15   1.0000     -51.281796     -1395.4486   14-A'
  16   1.0000     -51.281073     -1395.4289   15-A'
  17   1.0000     -51.280270     -1395.4071   16-A'
  18   1.0000     -51.279908     -1395.3972   17-A'
  19   1.0000     -51.279879     -1395.3964    3-A"
  20   1.0000     -51.279523     -1395.3868    4-A"
  21   1.0000     -38.028192     -1034.7997   18-A'
  22   1.0000     -33.530302      -912.4059   19-A'
  23   1.0000     -33.529434      -912.3823   20-A'
  24   1.0000     -33.518269      -912.0785    5-A"
  25   1.0000      -9.823410      -267.3086   21-A'
  26   1.0000      -9.820445      -267.2279   22-A'
  27   1.0000      -9.819455      -267.2010   23-A'
  28   1.0000      -9.814621      -267.0694   24-A'
  29   1.0000      -9.812728      -267.0179   25-A'
  30   1.0000      -9.811470      -266.9837   26-A'
  31   1.0000      -9.810016      -266.9441   27-A'
  32   1.0000      -9.809480      -266.9295   28-A'
  33   1.0000      -9.809203      -266.9220   29-A'
  34   1.0000      -9.806968      -266.8612   30-A'
  35   1.0000      -9.804445      -266.7925   31-A'
  36   1.0000      -9.801117      -266.7019   32-A'
  37   1.0000      -7.345765      -199.8884   33-A'
  38   1.0000      -7.339978      -199.7310   34-A'
  39   1.0000      -7.332426      -199.5254   35-A'
  40   1.0000      -7.331425      -199.4982   36-A'
  41   1.0000      -5.410589      -147.2296   37-A'
  42   1.0000      -5.408050      -147.1605   38-A'
  43   1.0000      -5.405185      -147.0826   39-A'
  44   1.0000      -5.404527      -147.0647    6-A"
  45   1.0000      -5.402350      -147.0054   40-A'
  46   1.0000      -5.401936      -146.9942    7-A"
  47   1.0000      -5.401684      -146.9873   41-A'
  48   1.0000      -5.399427      -146.9259   42-A'
  49   1.0000      -5.396060      -146.8342   43-A'
  50   1.0000      -5.395717      -146.8249    8-A"
  51   1.0000      -5.394543      -146.7930   44-A'
  52   1.0000      -5.394199      -146.7836    9-A"
  53   1.0000      -4.022548      -109.4591   45-A'
  54   1.0000      -2.542251       -69.1782   46-A'
  55   1.0000      -2.541102       -69.1469   47-A'
  56   1.0000      -2.517579       -68.5068   10-A"
  57   1.0000      -1.749642       -47.6102   48-A'
  58   1.0000      -1.746802       -47.5329   49-A'
  59   1.0000      -1.746389       -47.5217   50-A'
  60   1.0000      -1.745927       -47.5091   11-A"
  61   1.0000      -1.744027       -47.4574   51-A'
  62   1.0000      -1.743336       -47.4386   12-A"
  63   1.0000      -1.741494       -47.3885   52-A'
  64   1.0000      -1.741411       -47.3862   13-A"
  65   1.0000      -1.739885       -47.3447   53-A'
  66   1.0000      -1.739099       -47.3233   54-A'
  67   1.0000      -1.738778       -47.3146   55-A'
  68   1.0000      -1.738702       -47.3125   14-A"
  69   1.0000      -1.737700       -47.2852   56-A'
  70   1.0000      -1.737037       -47.2672   15-A"
  71   1.0000      -1.736097       -47.2416   57-A'
  72   1.0000      -1.735311       -47.2202   16-A"
  73   1.0000      -1.732561       -47.1454   58-A'
  74   1.0000      -1.732491       -47.1435   17-A"
  75   1.0000      -1.731231       -47.1092   59-A'
  76   1.0000      -1.731201       -47.1084   18-A"
  77   1.0000      -0.613298       -16.6887   60-A'
  78   1.0000      -0.586846       -15.9689   61-A'
  79   1.0000      -0.528797       -14.3893   62-A'
  80   1.0000      -0.510123       -13.8812   63-A'
  81   1.0000      -0.506662       -13.7870   64-A'
  82   1.0000      -0.489943       -13.3320   65-A'
  83   1.0000      -0.419912       -11.4264   66-A'
  84   1.0000      -0.410428       -11.1683   67-A'
  85   1.0000      -0.381191       -10.3727   68-A'
  86   1.0000      -0.374253       -10.1839   69-A'
  87   1.0000      -0.326594        -8.8871   70-A'
  88   1.0000      -0.306608        -8.3432   71-A'
  89   1.0000      -0.286854        -7.8057   72-A'
  90   1.0000      -0.283611        -7.7175   73-A'
  91   1.0000      -0.230145        -6.2626   74-A'
  92   1.0000      -0.223208        -6.0738   75-A'
  93   1.0000      -0.205914        -5.6032   76-A'
  94   1.0000      -0.189681        -5.1615   77-A'
  95   1.0000      -0.171891        -4.6774   78-A'
  96   1.0000      -0.166725        -4.5368   79-A'
  97   1.0000      -0.151723        -4.1286   80-A'
  98   1.0000      -0.143001        -3.8913   81-A'
  99   1.0000      -0.138256        -3.7621   19-A"
 100   1.0000      -0.124516        -3.3883   82-A'
 101   1.0000      -0.117480        -3.1968   20-A"
 102   1.0000      -0.103086        -2.8051   83-A'
 103   1.0000      -0.084489        -2.2991   84-A'
 104   1.0000      -0.075138        -2.0446   85-A'
 105   1.0000      -0.068953        -1.8763   86-A'
 106   1.0000      -0.061443        -1.6719   87-A'
 107   1.0000      -0.052374        -1.4252   21-A"
 108   1.0000      -0.044255        -1.2042   22-A"
 109   1.0000      -0.034944        -0.9509   23-A"
 110   1.0000      -0.032000        -0.8708   88-A'
 111   1.0000      -0.025179        -0.6851   24-A"
 112   1.0000      -0.024422        -0.6646   89-A'
 113   1.0000      -0.003348        -0.0911   25-A"
 114   1.0000      -0.000554        -0.0151   26-A"
 115   1.0000       0.000053         0.0015   90-A'
 116   1.0000       0.018395         0.5006   91-A'
 117   1.0000       0.026703         0.7266   92-A'
 118   1.0000       0.043251         1.1769   93-A'
 119   1.0000       0.051078         1.3899   27-A"
 120   1.0000       0.053466         1.4549   28-A"
 121   1.0000       0.073424         1.9980   29-A"
 122   1.0000       0.101296         2.7564   30-A"
 123   1.0000       0.114741         3.1223   94-A'
 124   0.0000       0.180008         4.8983   95-A'
 125   0.0000       0.182490         4.9658   96-A'
 126   0.0000       0.196842         5.3563   97-A'
 127   0.0000       0.197571         5.3762   98-A'
 128   0.0000       0.201619         5.4863   31-A"

                 SPIN DOWN ORBITALS
  NO   OCC          E(Eh)            E(eV)    Irrep
   0   1.0000    -443.566882    -12070.0685    1-A'
   1   1.0000    -443.551144    -12069.6402    2-A'
   2   1.0000    -443.546441    -12069.5123    3-A'
   3   1.0000    -443.538246    -12069.2893    4-A'
   4   1.0000    -318.187558     -8658.3236    5-A'
   5   1.0000     -56.374578     -1534.0303    6-A'
   6   1.0000     -56.364045     -1533.7436    7-A'
   7   1.0000     -56.356525     -1533.5390    8-A'
   8   1.0000     -56.352563     -1533.4312    9-A'
   9   1.0000     -51.293557     -1395.7686   10-A'
  10   1.0000     -51.291737     -1395.7191   11-A'
  11   1.0000     -51.291733     -1395.7190    1-A"
  12   1.0000     -51.288598     -1395.6337   12-A'
  13   1.0000     -51.286702     -1395.5821    2-A"
  14   1.0000     -51.286665     -1395.5811   13-A'
  15   1.0000     -51.281511     -1395.4409   14-A'
  16   1.0000     -51.280731     -1395.4196   15-A'
  17   1.0000     -51.279651     -1395.3902    3-A"
  18   1.0000     -51.279598     -1395.3888   16-A'
  19   1.0000     -51.279280     -1395.3801    4-A"
  20   1.0000     -51.279217     -1395.3784   17-A'
  21   1.0000     -38.014330     -1034.4225   18-A'
  22   1.0000     -33.517128      -912.0474   19-A'
  23   1.0000     -33.516266      -912.0240   20-A'
  24   1.0000     -33.514398      -911.9731    5-A"
  25   1.0000      -9.823413      -267.3087   21-A'
  26   1.0000      -9.820468      -267.2285   22-A'
  27   1.0000      -9.819400      -267.1995   23-A'
  28   1.0000      -9.814577      -267.0682   24-A'
  29   1.0000      -9.812701      -267.0172   25-A'
  30   1.0000      -9.811377      -266.9811   26-A'
  31   1.0000      -9.809879      -266.9404   27-A'
  32   1.0000      -9.809424      -266.9280   28-A'
  33   1.0000      -9.809118      -266.9197   29-A'
  34   1.0000      -9.807009      -266.8623   30-A'
  35   1.0000      -9.804434      -266.7922   31-A'
  36   1.0000      -9.800995      -266.6986   32-A'
  37   1.0000      -7.345327      -199.8765   33-A'
  38   1.0000      -7.339577      -199.7200   34-A'
  39   1.0000      -7.332026      -199.5146   35-A'
  40   1.0000      -7.331051      -199.4880   36-A'
  41   1.0000      -5.410200      -147.2190   37-A'
  42   1.0000      -5.407696      -147.1509   38-A'
  43   1.0000      -5.404255      -147.0573   39-A'
  44   1.0000      -5.404191      -147.0555    6-A"
  45   1.0000      -5.401617      -146.9855    7-A"
  46   1.0000      -5.401516      -146.9827   40-A'
  47   1.0000      -5.401367      -146.9787   41-A'
  48   1.0000      -5.399072      -146.9162   42-A'
  49   1.0000      -5.395429      -146.8171    8-A"
  50   1.0000      -5.395304      -146.8137   43-A'
  51   1.0000      -5.393889      -146.7752    9-A"
  52   1.0000      -5.393733      -146.7709   44-A'
  53   1.0000      -3.994352      -108.6918   45-A'
  54   1.0000      -2.507271       -68.2263   10-A"
  55   1.0000      -2.507052       -68.2203   46-A'
  56   1.0000      -2.505834       -68.1872   47-A'
  57   1.0000      -1.749142       -47.5966   48-A'
  58   1.0000      -1.745937       -47.5094   49-A'
  59   1.0000      -1.745825       -47.5063   50-A'
  60   1.0000      -1.745610       -47.5005   11-A"
  61   1.0000      -1.743147       -47.4334   51-A'
  62   1.0000      -1.743031       -47.4303   12-A"
  63   1.0000      -1.740613       -47.3645   52-A'
  64   1.0000      -1.740562       -47.3631   13-A"
  65   1.0000      -1.739488       -47.3339   53-A'
  66   1.0000      -1.738670       -47.3116   54-A'
  67   1.0000      -1.737975       -47.2927   55-A'
  68   1.0000      -1.737924       -47.2913   14-A"
  69   1.0000      -1.736895       -47.2633   56-A'
  70   1.0000      -1.736764       -47.2598   15-A"
  71   1.0000      -1.735202       -47.2173   57-A'
  72   1.0000      -1.735007       -47.2119   16-A"
  73   1.0000      -1.731832       -47.1256   58-A'
  74   1.0000      -1.731783       -47.1242   17-A"
  75   1.0000      -1.730430       -47.0874   18-A"
  76   1.0000      -1.730425       -47.0873   59-A'
  77   1.0000      -0.612428       -16.6650   60-A'
  78   1.0000      -0.586302       -15.9541   61-A'
  79   1.0000      -0.527656       -14.3582   62-A'
  80   1.0000      -0.508694       -13.8423   63-A'
  81   1.0000      -0.504857       -13.7379   64-A'
  82   1.0000      -0.488735       -13.2991   65-A'
  83   1.0000      -0.417096       -11.3498   66-A'
  84   1.0000      -0.407326       -11.0839   67-A'
  85   1.0000      -0.378877       -10.3098   68-A'
  86   1.0000      -0.372074       -10.1246   69-A'
  87   1.0000      -0.324659        -8.8344   70-A'
  88   1.0000      -0.304829        -8.2948   71-A'
  89   1.0000      -0.284575        -7.7437   72-A'
  90   1.0000      -0.281087        -7.6488   73-A'
  91   1.0000      -0.228977        -6.2308   74-A'
  92   1.0000      -0.221968        -6.0401   75-A'
  93   1.0000      -0.204609        -5.5677   76-A'
  94   1.0000      -0.188396        -5.1265   77-A'
  95   1.0000      -0.170440        -4.6379   78-A'
  96   1.0000      -0.164974        -4.4892   79-A'
  97   1.0000      -0.150069        -4.0836   80-A'
  98   1.0000      -0.141695        -3.8557   81-A'
  99   1.0000      -0.137848        -3.7510   19-A"
 100   1.0000      -0.122656        -3.3376   82-A'
 101   1.0000      -0.117215        -3.1896   20-A"
 102   1.0000      -0.101482        -2.7615   83-A'
 103   1.0000      -0.083050        -2.2599   84-A'
 104   1.0000      -0.073000        -1.9864   85-A'
 105   1.0000      -0.063812        -1.7364   86-A'
 106   1.0000      -0.053446        -1.4543   87-A'
 107   1.0000      -0.051536        -1.4024   21-A"
 108   1.0000      -0.043010        -1.1704   22-A"
 109   1.0000      -0.033050        -0.8993   23-A"
 110   1.0000      -0.023772        -0.6469   24-A"
 111   1.0000      -0.018715        -0.5093   88-A'
 112   1.0000      -0.003174        -0.0864   89-A'
 113   1.0000       0.006082         0.1655   25-A"
 114   1.0000       0.010441         0.2841   26-A"
 115   1.0000       0.010448         0.2843   90-A'
 116   1.0000       0.031231         0.8498   91-A'
 117   1.0000       0.034730         0.9450   92-A'
 118   1.0000       0.053344         1.4516   27-A"
 119   1.0000       0.054052         1.4708   93-A'
 120   1.0000       0.056958         1.5499   28-A"
 121   1.0000       0.075096         2.0435   29-A"
 122   1.0000       0.104415         2.8413   30-A"
 123   0.0000       0.144575         3.9341   94-A'
 124   0.0000       0.183414         4.9910   95-A'
 125   0.0000       0.183937         5.0052   96-A'
 126   0.0000       0.199492         5.4285   97-A'
 127   0.0000       0.200083         5.4445   98-A'

MULLIKEN ATOMIC CHARGES AND SPIN POPULATIONS
--------------------------------------------
   0 Cu:    0.649637    0.310168
   1 Se:   -0.746774    0.190707
   2 C :    0.278539   -0.004499
   3 Se:   -0.711874    0.173035
   4 C :    0.197217   -0.002351
   5 Se:   -0.686921    0.169269
   6 C :    0.139541   -0.002952
   7 Se:   -0.745801    0.161673
   8 C :    0.186058   -0.002358
   9 C :   -0.122076   -0.001590
  10 C :   -0.096207   -0.002276
  11 C :   -0.158875   -0.000310
  12 H :    0.087233    0.002484
  13 C :   -0.104970   -0.001523
  14 H :    0.069828    0.002456
  15 H :    0.020122    0.001249
  16 H :    0.022907    0.001543
  17 C :   -0.039846   -0.002734
  18 C :   -0.129321   -0.000036
  19 C :   -0.134965   -0.000145
  20 H :    0.087290    0.003249
  21 C :   -0.178535   -0.001492
  22 H :    0.084106    0.002893
  23 H :    0.035919    0.000670
  24 H :   -0.002229    0.002872
Sum of atomic charges         :   -2.0000000

LOEWDIN ATOMIC CHARGES AND SPIN POPULATIONS
-------------------------------------------
   0 Cu:   -0.628197    0.388835
   1 Se:   -0.162528    0.139240
   2 C :    0.025913    0.009958
   3 Se:   -0.213825    0.127450
   4 C :    0.093291    0.011523
   5 Se:   -0.247514    0.116916
   6 C :    0.040844    0.013189
   7 Se:   -0.234247    0.115199
   8 C :    0.083430    0.011997
   9 C :    0.344114    0.005081
  10 C :    0.365544    0.005843
  11 C :    0.311403    0.000396
  12 H :   -0.464337    0.008686
  13 C :    0.297654   -0.000159
  14 H :   -0.438381    0.006853
  15 H :   -0.410853    0.000303
  16 H :   -0.412089    0.000345
  17 C :    0.365411    0.008131
  18 C :    0.367026    0.007426
  19 C :    0.318744    0.000416
  20 H :   -0.454610    0.012233
  21 C :    0.324485    0.000722
  22 H :   -0.451767    0.008543
  23 H :   -0.428841   -0.000008
  24 H :   -0.390669    0.000882

  Mayer bond orders larger than 0.100000
B(  0-Cu,  1-Se) :   0.5511 B(  0-Cu,  3-Se) :   0.5276 B(  0-Cu,  5-Se) :   0.5628
B(  0-Cu,  7-Se) :   0.5399 B(  1-Se,  2-C ) :   1.0373 B(  2-C ,  6-C ) :   1.1316
B(  2-C , 17-C ) :   1.2278 B(  3-Se,  4-C ) :   1.0254 B(  4-C ,  8-C ) :   1.1667
B(  4-C , 10-C ) :   1.2699 B(  5-Se,  6-C ) :   1.0565 B(  6-C , 18-C ) :   1.2664
B(  7-Se,  8-C ) :   1.0000 B(  8-C ,  9-C ) :   1.2795 B(  9-C , 13-C ) :   1.3778
B(  9-C , 14-H ) :   0.9746 B( 10-C , 11-C ) :   1.3763 B( 10-C , 12-H ) :   0.9637
B( 11-C , 13-C ) :   1.3106 B( 11-C , 15-H ) :   0.9970 B( 13-C , 16-H ) :   0.9897
B( 17-C , 19-C ) :   1.3813 B( 17-C , 20-H ) :   0.9598 B( 18-C , 21-C ) :   1.3941
B( 18-C , 22-H ) :   0.9627 B( 19-C , 21-C ) :   1.2953 B( 19-C , 23-H ) :   0.9871
B( 21-C , 24-H ) :   1.0106

FINAL SINGLE POINT ENERGY    -11627.098217064458

DIPOLE MOMENT
-------------
                                X             Y             Z
Electronic contribution:     -0.73132      -2.28409       0.00000
Nuclear contribution   :      0.61231       1.90677       0.00000
                        -----------------------------------------
Total Dipole Moment    :     -0.11901      -0.37732       0.00000
                        -----------------------------------------
Magnitude (a.u.)       :      0.39564
Magnitude (Debye)      :      1.00564

Rotational constants in cm-1:     0.017394     0.004091     0.003312
Rotational constants in MHz :   521.444781   122.631804    99.282781

                             ****ORCA TERMINATED NORMALLY****
TOTAL RUN TIME: 0 days 16 hours 54 minutes 15 seconds 522 msec
