                         Program Version 5.0.4 -  RELEASE  -
|  1> ! RIJCOSX nofrozencore ReducedPop printbasis
|  2> ! M06L ano-rcc-dzp autoaux
|  3>
|  4> %maxcore 7500
|  5> %basis
|  6> PCDTrimBas overlap
|  7> PCDTrimAuxJ Coulomb
|  8> PCDTrimAuxJK Coulomb
|  9> PCDTrimAuxC Coulomb
| 10> PCDThresh -1
| 11> end
| 12>
| 13> %basis
| 14> newgto Cu "ano-rcc-tzp" end
| 15> newgto Se "ano-rcc-tzp" end
| 16> end
| 17>
| 18> %pal
| 19> nprocs 8
| 20> end
| 21>
| 22> % sym SymThresh 1e-2 end
| 23> * xyz -2 2
| 24> Cu 5.104324423691442e-06 2.2277511774374676e-05 2.5803761974380476e-06
| 25> Se 2.2553122495123152 -0.45131653813320793 -0.5637875234812812
| 26> C 2.31923253083742 -0.2801307705265633 -2.190773856236797
| 27> Se 0.2690644209427892 -0.3275925690529804 2.3298665616586263
| 28> C -1.2326576835612841 -0.12626569622531383 2.9539065901241806
| 29> Se -0.2681935788106777 0.3313933062791824 -2.3294263270412894
| 30> C 1.2178140862100406 0.06148172339796382 -2.9614104362966
| 31> Se -2.2544418512345015 0.45511533818447303 0.5642275337180791
| 32> C -2.334072577354282 0.21536229509870852 2.183271805108689
| 33> C -3.4985706639555954 0.5646141375560031 2.8768950814331404
| 34> C -1.403921556585205 -0.08508878083509122 4.342473170489988
| 35> C -2.621242816921509 -0.0022733106044747656 4.994798993802783
| 36> H -0.6581319312113053 -0.8598399020478795 4.876951447985142
| 37> C -3.7238246090907805 0.3396939323474726 4.223347485142232
| 38> H -4.468109185667354 0.32197020354130423 2.2111937977872023
| 39> H -2.6529721924511662 -0.020984286517417013 6.0834569249463915
| 40> H -4.683559008637551 0.6087687271198388 4.662705059537856
| 41> C 3.5200351358868986 -0.47093626617327183 -2.866045311163186
| 42> C 1.4253819118795947 0.17875118903430995 -4.331624371433803
| 43> C 3.718396836832291 -0.36338561604176867 -4.2260924829636135
| 44> H 4.368613718625739 -0.7562170917039392 -2.261493708952521
| 45> C 2.6158179077466355 -0.02140087008342357 -4.997540324538231
| 46> H 0.5586295624587574 0.42556789904303033 -4.927252628436382
| 47> H 4.700472520506176 -0.5349507389742456 -4.654154814722241
| 48> H 2.6698954407614637 0.09485098456031733 -6.074900802409458
| 49> *
| 50>
| 51> % eprnmr
| 52> gtensor true
| 53> Nuclei = all H {aiso,adip,aorb,fgrad,rho}
| 54> Nuclei = all Cu {aiso,adip,aorb,fgrad,rho}
| 55> end
| 56>
| 57>                          ****END OF INPUT****

CARTESIAN COORDINATES (ANGSTROEM)
---------------------------------
  Cu     0.000023    0.000001    0.000000
  Se     0.087910   -1.753767    1.588883
  C      0.153893   -3.122850    0.693488
  Se    -0.083992    1.753963    1.588883
  C     -0.220686    3.119507    0.693488
  Se     0.087910   -1.753767   -1.588883
  C      0.153893   -3.122850   -0.693488
  Se    -0.083992    1.753963   -1.588883
  C     -0.220686    3.119507   -0.693488
  C     -0.125325    4.368090   -1.318862
  C     -0.125325    4.368090    1.318862
  C     -0.303392    5.589718    0.694220
  H     -0.649168    4.333699    2.398899
  C     -0.303392    5.589718   -0.694220
  H     -0.649168    4.333699   -2.398899
  H     -0.252269    6.507604    1.278515
  H     -0.252269    6.507604   -1.278515
  C      0.221912   -4.363255    1.318862
  C      0.221912   -4.363255   -1.318862
  C      0.278972   -5.590940    0.694220
  H      0.201385   -4.356114    2.398899
  C      0.278972   -5.590940   -0.694220
  H      0.201385   -4.356114   -2.398899
  H      0.328410   -6.503792    1.278516
  H      0.328410   -6.503792   -1.278516

 Total Charge           Charge          ....   -2
 Multiplicity           Mult            ....    2
 Number of Electrons    NEL             ....  247
 Basis Dimension        Dim             ....  575

ORBITAL ENERGIES
----------------
                 SPIN UP ORBITALS
  NO   OCC          E(Eh)            E(eV)    Irrep
   0   1.0000    -443.562379    -12069.9460    1-A"
   1   1.0000    -443.557896    -12069.8240    2-A"
   2   1.0000    -443.547990    -12069.5544    1-A'
   3   1.0000    -443.545577    -12069.4887    2-A'
   4   1.0000    -318.188246     -8658.3423    3-A'
   5   1.0000     -56.371217     -1533.9388    3-A"
   6   1.0000     -56.368846     -1533.8743    4-A"
   7   1.0000     -56.358159     -1533.5835    4-A'
   8   1.0000     -56.357420     -1533.5634    5-A'
   9   1.0000     -51.287555     -1395.6053    5-A"
  10   1.0000     -51.287506     -1395.6040    6-A'
  11   1.0000     -51.287305     -1395.5985    6-A"
  12   1.0000     -51.287261     -1395.5973    7-A'
  13   1.0000     -51.286228     -1395.5692    7-A"
  14   1.0000     -51.286169     -1395.5676    8-A'
  15   1.0000     -51.285973     -1395.5623    8-A"
  16   1.0000     -51.285913     -1395.5606    9-A'
  17   1.0000     -51.285866     -1395.5594    9-A"
  18   1.0000     -51.285819     -1395.5581   10-A'
  19   1.0000     -51.285537     -1395.5504   10-A"
  20   1.0000     -51.285488     -1395.5491   11-A'
  21   1.0000     -38.028814     -1034.8166   12-A'
  22   1.0000     -33.530850      -912.4208   11-A"
  23   1.0000     -33.530076      -912.3998   13-A'
  24   1.0000     -33.518979      -912.0978   14-A'
  25   1.0000      -9.818184      -267.1664   15-A'
  26   1.0000      -9.817748      -267.1545   12-A"
  27   1.0000      -9.816907      -267.1316   16-A'
  28   1.0000      -9.816458      -267.1194   13-A"
  29   1.0000      -9.816254      -267.1138   17-A'
  30   1.0000      -9.816250      -267.1137   14-A"
  31   1.0000      -9.812785      -267.0195   18-A'
  32   1.0000      -9.812330      -267.0071   15-A"
  33   1.0000      -9.809536      -266.9310   19-A'
  34   1.0000      -9.809085      -266.9188   16-A"
  35   1.0000      -9.807494      -266.8755   20-A'
  36   1.0000      -9.807492      -266.8754   17-A"
  37   1.0000      -7.342287      -199.7938   18-A"
  38   1.0000      -7.342159      -199.7903   19-A"
  39   1.0000      -7.335497      -199.6090   21-A'
  40   1.0000      -7.334882      -199.5923   22-A'
  41   1.0000      -5.406355      -147.1144   20-A"
  42   1.0000      -5.406337      -147.1139   23-A'
  43   1.0000      -5.405095      -147.0801   21-A"
  44   1.0000      -5.405076      -147.0796   24-A'
  45   1.0000      -5.401003      -146.9688   22-A"
  46   1.0000      -5.400978      -146.9681   25-A'
  47   1.0000      -5.400824      -146.9639   23-A"
  48   1.0000      -5.400797      -146.9632   26-A'
  49   1.0000      -5.399782      -146.9355   24-A"
  50   1.0000      -5.399757      -146.9348   27-A'
  51   1.0000      -5.399446      -146.9264   25-A"
  52   1.0000      -5.399420      -146.9257   28-A'
  53   1.0000      -4.023107      -109.4743   29-A'
  54   1.0000      -2.542611       -69.1880   26-A"
  55   1.0000      -2.541688       -69.1629   30-A'
  56   1.0000      -2.518323       -68.5271   31-A'
  57   1.0000      -1.745404       -47.4949   32-A'
  58   1.0000      -1.745375       -47.4941   27-A"
  59   1.0000      -1.744139       -47.4604   33-A'
  60   1.0000      -1.744110       -47.4596   28-A"
  61   1.0000      -1.742632       -47.4194   34-A'
  62   1.0000      -1.742553       -47.4173   29-A"
  63   1.0000      -1.742107       -47.4051   35-A'
  64   1.0000      -1.742099       -47.4049   30-A"
  65   1.0000      -1.741398       -47.3859   36-A'
  66   1.0000      -1.741317       -47.3836   31-A"
  67   1.0000      -1.740689       -47.3666   37-A'
  68   1.0000      -1.740682       -47.3664   32-A"
  69   1.0000      -1.737674       -47.2845   38-A'
  70   1.0000      -1.737651       -47.2839   39-A'
  71   1.0000      -1.737628       -47.2832   33-A"
  72   1.0000      -1.737606       -47.2827   34-A"
  73   1.0000      -1.736322       -47.2477   40-A'
  74   1.0000      -1.736291       -47.2469   41-A'
  75   1.0000      -1.736272       -47.2464   35-A"
  76   1.0000      -1.736250       -47.2458   36-A"
  77   1.0000      -0.603807       -16.4304   42-A'
  78   1.0000      -0.603591       -16.4245   43-A'
  79   1.0000      -0.523091       -14.2340   44-A'
  80   1.0000      -0.522177       -14.2092   45-A'
  81   1.0000      -0.500347       -13.6151   37-A"
  82   1.0000      -0.496394       -13.5076   38-A"
  83   1.0000      -0.413833       -11.2610   39-A"
  84   1.0000      -0.411643       -11.2014   40-A"
  85   1.0000      -0.384179       -10.4541   46-A'
  86   1.0000      -0.379340       -10.3224   47-A'
  87   1.0000      -0.320908        -8.7323   48-A'
  88   1.0000      -0.309652        -8.4260   49-A'
  89   1.0000      -0.287912        -7.8345   41-A"
  90   1.0000      -0.283662        -7.7188   42-A"
  91   1.0000      -0.229449        -6.2436   50-A'
  92   1.0000      -0.220866        -6.0101   51-A'
  93   1.0000      -0.201156        -5.4737   52-A'
  94   1.0000      -0.198555        -5.4030   53-A'
  95   1.0000      -0.169848        -4.6218   43-A"
  96   1.0000      -0.157884        -4.2963   44-A"
  97   1.0000      -0.143006        -3.8914   54-A'
  98   1.0000      -0.138925        -3.7803   45-A"
  99   1.0000      -0.135523        -3.6878   55-A'
 100   1.0000      -0.131532        -3.5792   56-A'
 101   1.0000      -0.121592        -3.3087   46-A"
 102   1.0000      -0.107506        -2.9254   57-A'
 103   1.0000      -0.076313        -2.0766   58-A'
 104   1.0000      -0.072618        -1.9760   47-A"
 105   1.0000      -0.066828        -1.8185   48-A"
 106   1.0000      -0.061789        -1.6814   59-A'
 107   1.0000      -0.049322        -1.3421   60-A'
 108   1.0000      -0.039861        -1.0847   61-A'
 109   1.0000      -0.035420        -0.9638   49-A"
 110   1.0000      -0.031460        -0.8561   50-A"
 111   1.0000      -0.029530        -0.8035   62-A'
 112   1.0000      -0.024568        -0.6685   51-A"
 113   1.0000      -0.003111        -0.0846   52-A"
 114   1.0000      -0.002590        -0.0705   63-A'
 115   1.0000      -0.000545        -0.0148   64-A'
 116   1.0000       0.017915         0.4875   65-A'
 117   1.0000       0.019932         0.5424   66-A'
 118   1.0000       0.039766         1.0821   53-A"
 119   1.0000       0.052051         1.4164   54-A"
 120   1.0000       0.054567         1.4848   55-A"
 121   1.0000       0.068546         1.8652   67-A'
 122   1.0000       0.097145         2.6435   68-A'
 123   1.0000       0.115502         3.1430   56-A"
 124   0.0000       0.177230         4.8227   69-A'
 125   0.0000       0.181544         4.9401   70-A'
 126   0.0000       0.182029         4.9533   71-A'
 127   0.0000       0.195720         5.3258   57-A"
 128   0.0000       0.197005         5.3608   58-A"

                 SPIN DOWN ORBITALS
  NO   OCC          E(Eh)            E(eV)    Irrep
   0   1.0000    -443.561928    -12069.9337    1-A"
   1   1.0000    -443.557436    -12069.8114    2-A"
   2   1.0000    -443.547538    -12069.5421    1-A'
   3   1.0000    -443.545116    -12069.4762    2-A'
   4   1.0000    -318.188123     -8658.3390    3-A'
   5   1.0000     -56.371034     -1533.9338    3-A"
   6   1.0000     -56.368660     -1533.8692    4-A"
   7   1.0000     -56.357978     -1533.5786    4-A'
   8   1.0000     -56.357236     -1533.5584    5-A'
   9   1.0000     -51.287228     -1395.5964    5-A"
  10   1.0000     -51.287170     -1395.5949    6-A'
  11   1.0000     -51.286984     -1395.5898    6-A"
  12   1.0000     -51.286932     -1395.5884    7-A'
  13   1.0000     -51.285612     -1395.5525    7-A"
  14   1.0000     -51.285564     -1395.5511    8-A'
  15   1.0000     -51.285476     -1395.5488    8-A"
  16   1.0000     -51.285427     -1395.5474    9-A'
  17   1.0000     -51.285288     -1395.5436    9-A"
  18   1.0000     -51.285239     -1395.5423   10-A"
  19   1.0000     -51.285239     -1395.5423   10-A'
  20   1.0000     -51.285188     -1395.5409   11-A'
  21   1.0000     -38.014947     -1034.4393   12-A'
  22   1.0000     -33.517677      -912.0624   11-A"
  23   1.0000     -33.516903      -912.0413   13-A'
  24   1.0000     -33.515098      -911.9922   14-A'
  25   1.0000      -9.818127      -267.1648   15-A'
  26   1.0000      -9.817689      -267.1529   12-A"
  27   1.0000      -9.816857      -267.1302   16-A'
  28   1.0000      -9.816408      -267.1181   13-A"
  29   1.0000      -9.816138      -267.1107   17-A'
  30   1.0000      -9.816135      -267.1106   14-A"
  31   1.0000      -9.812807      -267.0200   18-A'
  32   1.0000      -9.812350      -267.0076   15-A"
  33   1.0000      -9.809554      -266.9315   19-A'
  34   1.0000      -9.809101      -266.9192   16-A"
  35   1.0000      -9.807375      -266.8722   20-A'
  36   1.0000      -9.807374      -266.8722   17-A"
  37   1.0000      -7.341887      -199.7829   18-A"
  38   1.0000      -7.341753      -199.7793   19-A"
  39   1.0000      -7.335082      -199.5977   21-A'
  40   1.0000      -7.334476      -199.5812   22-A'
  41   1.0000      -5.405988      -147.1044   20-A"
  42   1.0000      -5.405969      -147.1039   23-A'
  43   1.0000      -5.404732      -147.0702   21-A"
  44   1.0000      -5.404713      -147.0697   24-A'
  45   1.0000      -5.400523      -146.9557   22-A"
  46   1.0000      -5.400498      -146.9550   25-A'
  47   1.0000      -5.400142      -146.9453   23-A"
  48   1.0000      -5.400117      -146.9446   26-A'
  49   1.0000      -5.399136      -146.9180   24-A"
  50   1.0000      -5.399109      -146.9172   27-A'
  51   1.0000      -5.398959      -146.9131   25-A"
  52   1.0000      -5.398934      -146.9125   28-A'
  53   1.0000      -3.994962      -108.7084   29-A'
  54   1.0000      -2.508011       -68.2464   30-A'
  55   1.0000      -2.507473       -68.2318   26-A"
  56   1.0000      -2.506476       -68.2047   31-A'
  57   1.0000      -1.744958       -47.4827   32-A'
  58   1.0000      -1.744929       -47.4819   27-A"
  59   1.0000      -1.743692       -47.4483   33-A'
  60   1.0000      -1.743663       -47.4475   28-A"
  61   1.0000      -1.741791       -47.3966   34-A'
  62   1.0000      -1.741783       -47.3963   29-A"
  63   1.0000      -1.741721       -47.3946   35-A'
  64   1.0000      -1.741638       -47.3924   30-A"
  65   1.0000      -1.740512       -47.3617   36-A'
  66   1.0000      -1.740432       -47.3596   31-A"
  67   1.0000      -1.740375       -47.3580   37-A'
  68   1.0000      -1.740363       -47.3577   32-A"
  69   1.0000      -1.736870       -47.2626   38-A'
  70   1.0000      -1.736847       -47.2620   33-A"
  71   1.0000      -1.736843       -47.2619   39-A'
  72   1.0000      -1.736782       -47.2602   34-A"
  73   1.0000      -1.735535       -47.2263   40-A'
  74   1.0000      -1.735509       -47.2256   41-A'
  75   1.0000      -1.735508       -47.2256   35-A"
  76   1.0000      -1.735452       -47.2241   36-A"
  77   1.0000      -0.602996       -16.4084   42-A'
  78   1.0000      -0.602795       -16.4029   43-A'
  79   1.0000      -0.521945       -14.2028   44-A'
  80   1.0000      -0.521068       -14.1790   45-A'
  81   1.0000      -0.498661       -13.5693   37-A"
  82   1.0000      -0.494581       -13.4582   38-A"
  83   1.0000      -0.411165       -11.1884   39-A"
  84   1.0000      -0.408989       -11.1291   40-A"
  85   1.0000      -0.381630       -10.3847   46-A'
  86   1.0000      -0.376909       -10.2562   47-A'
  87   1.0000      -0.319106        -8.6833   48-A'
  88   1.0000      -0.307782        -8.3752   49-A'
  89   1.0000      -0.285488        -7.7685   41-A"
  90   1.0000      -0.280969        -7.6456   42-A"
  91   1.0000      -0.228320        -6.2129   50-A'
  92   1.0000      -0.219842        -5.9822   51-A'
  93   1.0000      -0.199893        -5.4394   52-A'
  94   1.0000      -0.197400        -5.3715   53-A'
  95   1.0000      -0.168260        -4.5786   43-A"
  96   1.0000      -0.155493        -4.2312   44-A"
  97   1.0000      -0.142326        -3.8729   54-A'
  98   1.0000      -0.137576        -3.7436   45-A"
  99   1.0000      -0.133821        -3.6415   55-A'
 100   1.0000      -0.131137        -3.5684   56-A'
 101   1.0000      -0.120788        -3.2868   46-A"
 102   1.0000      -0.105481        -2.8703   57-A'
 103   1.0000      -0.074583        -2.0295   58-A'
 104   1.0000      -0.071170        -1.9366   47-A"
 105   1.0000      -0.060152        -1.6368   59-A'
 106   1.0000      -0.055763        -1.5174   48-A"
 107   1.0000      -0.048461        -1.3187   60-A'
 108   1.0000      -0.038616        -1.0508   61-A'
 109   1.0000      -0.031087        -0.8459   49-A"
 110   1.0000      -0.025680        -0.6988   50-A"
 111   1.0000      -0.023469        -0.6386   62-A'
 112   1.0000      -0.003076        -0.0837   51-A"
 113   1.0000       0.006417         0.1746   52-A"
 114   1.0000       0.008510         0.2316   63-A'
 115   1.0000       0.009862         0.2683   64-A'
 116   1.0000       0.028142         0.7658   65-A'
 117   1.0000       0.030702         0.8355   66-A'
 118   1.0000       0.050218         1.3665   53-A"
 119   1.0000       0.055009         1.4969   54-A"
 120   1.0000       0.058011         1.5786   55-A"
 121   1.0000       0.070298         1.9129   67-A'
 122   1.0000       0.100393         2.7318   68-A'
 123   0.0000       0.145214         3.9515   56-A"
 124   0.0000       0.177495         4.8299   69-A'
 125   0.0000       0.183476         4.9926   70-A'
 126   0.0000       0.184022         5.0075   71-A'
 127   0.0000       0.199040         5.4162   57-A"

MULLIKEN ATOMIC CHARGES AND SPIN POPULATIONS
--------------------------------------------
   0 Cu:    0.640006    0.307747
   1 Se:   -0.732765    0.172385
   2 C :    0.221763   -0.003227
   3 Se:   -0.688309    0.176572
   4 C :    0.253028   -0.003465
   5 Se:   -0.732765    0.172385
   6 C :    0.221763   -0.003227
   7 Se:   -0.688309    0.176572
   8 C :    0.253028   -0.003465
   9 C :   -0.143506   -0.001383
  10 C :   -0.143506   -0.001383
  11 C :   -0.112573   -0.000741
  12 H :    0.000636    0.001948
  13 C :   -0.112573   -0.000741
  14 H :    0.000636    0.001948
  15 H :    0.027830    0.001825
  16 H :    0.027830    0.001825
  17 C :   -0.103196   -0.001459
  18 C :   -0.103196   -0.001459
  19 C :   -0.156202   -0.000671
  20 H :    0.091942    0.002745
  21 C :   -0.156202   -0.000671
  22 H :    0.091942    0.002745
  23 H :    0.021349    0.001599
  24 H :    0.021349    0.001599
Sum of atomic charges         :   -2.0000000

LOEWDIN ATOMIC CHARGES AND SPIN POPULATIONS
-------------------------------------------
   0 Cu:   -0.616554    0.389472
   1 Se:   -0.202000    0.122701
   2 C :    0.038458    0.011737
   3 Se:   -0.210196    0.126372
   4 C :    0.028725    0.011545
   5 Se:   -0.202000    0.122701
   6 C :    0.038458    0.011737
   7 Se:   -0.210196    0.126372
   8 C :    0.028725    0.011545
   9 C :    0.322120    0.006641
  10 C :    0.322120    0.006641
  11 C :    0.300260    0.000539
  12 H :   -0.372966    0.008164
  13 C :    0.300260    0.000539
  14 H :   -0.372966    0.008164
  15 H :   -0.415762    0.000427
  16 H :   -0.415762    0.000427
  17 C :    0.371233    0.006916
  18 C :    0.371233    0.006916
  19 C :    0.319997    0.000454
  20 H :   -0.459678    0.009376
  21 C :    0.319997    0.000454
  22 H :   -0.459678    0.009376
  23 H :   -0.411916    0.000392
  24 H :   -0.411916    0.000392

  Mayer bond orders larger than 0.100000
B(  0-Cu,  1-Se) :   0.5508 B(  0-Cu,  3-Se) :   0.5428 B(  0-Cu,  5-Se) :   0.5508
B(  0-Cu,  7-Se) :   0.5428 B(  1-Se,  2-C ) :   1.0390 B(  2-C ,  6-C ) :   1.1334
B(  2-C , 17-C ) :   1.2573 B(  3-Se,  4-C ) :   1.0401 B(  4-C ,  8-C ) :   1.1258
B(  4-C , 10-C ) :   1.2662 B(  5-Se,  6-C ) :   1.0390 B(  6-C , 18-C ) :   1.2573
B(  7-Se,  8-C ) :   1.0401 B(  8-C ,  9-C ) :   1.2662 B(  9-C , 13-C ) :   1.3468
B(  9-C , 14-H ) :   1.0061 B( 10-C , 11-C ) :   1.3468 B( 10-C , 12-H ) :   1.0061
B( 11-C , 13-C ) :   1.3349 B( 11-C , 15-H ) :   0.9850 B( 13-C , 16-H ) :   0.9850
B( 17-C , 19-C ) :   1.3795 B( 17-C , 20-H ) :   0.9600 B( 18-C , 21-C ) :   1.3795
B( 18-C , 22-H ) :   0.9600 B( 19-C , 21-C ) :   1.3125 B( 19-C , 23-H ) :   0.9953
B( 21-C , 24-H ) :   0.9953

FINAL SINGLE POINT ENERGY    -11627.081593068722

DIPOLE MOMENT
-------------
                                X             Y             Z
Electronic contribution:      0.70006      -0.17336      -0.00000
Nuclear contribution   :     -0.77806      -0.03895       0.00000
                        -----------------------------------------
Total Dipole Moment    :     -0.07800      -0.21231      -0.00000
                        -----------------------------------------
Magnitude (a.u.)       :      0.22619
Magnitude (Debye)      :      0.57492

Rotational constants in cm-1:     0.017602     0.004097     0.003325
Rotational constants in MHz :   527.708609   122.829911    99.666038

                             ****ORCA TERMINATED NORMALLY****
TOTAL RUN TIME: 0 days 17 hours 22 minutes 34 seconds 845 msec
