                         Program Version 5.0.4 -  RELEASE  -
|  1> ! RIJCOSX nofrozencore ReducedPop printbasis
|  2> ! M06L ano-rcc-dzp autoaux
|  3>
|  4> %maxcore 7500
|  5> %basis
|  6> PCDTrimBas overlap
|  7> PCDTrimAuxJ Coulomb
|  8> PCDTrimAuxJK Coulomb
|  9> PCDTrimAuxC Coulomb
| 10> PCDThresh -1
| 11> end
| 12>
| 13> %basis
| 14> newgto Cu "ano-rcc-tzp" end
| 15> newgto Se "ano-rcc-tzp" end
| 16> end
| 17>
| 18> %pal
| 19> nprocs 8
| 20> end
| 21>
| 22> % sym SymThresh 1e-2 end
| 23> * xyz -2 2
| 24> Cu 4.3401772885586997e-07 -8.635265050301913e-07 2.5680846198896037e-07
| 25> Se -0.7543806185874415 -0.9778463534962824 -2.0205708071304143
| 26> C 0.47147768865368445 -0.7394104305637229 -3.080662429874515
| 27> Se -1.910995908370291 -0.5820303267846271 1.2717357035838803
| 28> C -1.610174371190578 0.009557635749413124 2.768403696415844
| 29> Se 1.911733304491617 0.5805631952525808 -1.2712993860069612
| 30> C 1.589315479141765 0.03194344808233787 -2.780745911099033
| 31> Se 0.7536414863951999 0.9793169391343487 2.020133462319647
| 32> C -0.45058711331066487 0.6978463092971047 3.0930233915754295
| 33> C -0.3357534580723111 1.1459924030859905 4.404612524040075
| 34> C -2.54377384632357 -0.15753032602682457 3.7856359097540104
| 35> C -2.4275420797163325 0.2934425057245669 5.083238579546075
| 36> H -3.463206974660812 -0.6563174084092348 3.513874662996062
| 37> C -1.2620144126331518 0.973074380681418 5.410990500376865
| 38> H 0.5890802480529179 1.6428877511973758 4.661091917703462
| 39> H -3.213215406862915 0.09874928543785655 5.805805879573421
| 40> H -1.0788832742928727 1.3746167112498684 6.402212840251149
| 41> C 0.3559538407573697 -1.1861827668077145 -4.39266108193911
| 42> C 2.523527787307901 0.19781211043347294 -3.7976155108888716
| 43> C 1.2530991499956432 -0.9553359323396967 -5.4162667971399685
| 44> H -0.754900297973214 -1.3129697913366547 -4.759208839219428
| 45> C 2.4364712309211645 -0.3112085869144493 -5.077954064912189
| 46> H 3.629217887912725 0.3260202472881967 -3.4156459399022085
| 47> H 1.1428092819895028 -1.5018024481445251 -6.364388056834273
| 48> H 3.1492300136376894 0.02855622269082821 -5.843664929745218
| 49> *
| 50>
| 51> % eprnmr
| 52> gtensor true
| 53> Nuclei = all H {aiso,adip,aorb,fgrad,rho}
| 54> Nuclei = all Cu {aiso,adip,aorb,fgrad,rho}
| 55> end
| 56>
| 57>                          ****END OF INPUT****

CARTESIAN COORDINATES (ANGSTROEM)
---------------------------------
  Cu    -0.000000   -0.000000    0.000000
  Se    -1.397168   -0.756621   -1.755969
  C     -0.584618   -0.376624   -3.126639
  Se    -1.396356   -0.758115    1.755969
  C     -0.607573   -0.334359    3.126639
  Se     1.397168    0.756621   -1.755969
  C      0.584618    0.376624   -3.126639
  Se     1.396356    0.758115    1.755969
  C      0.607573    0.334359    3.126639
  C      1.156977    0.633103    4.368893
  C     -1.156977   -0.633103    4.368893
  C     -0.610807   -0.329937    5.597896
  H     -2.124283   -1.115031    4.360734
  C      0.610807    0.329937    5.597896
  H      2.124283    1.115031    4.360734
  H     -1.118206   -0.619954    6.512078
  H      1.118206    0.619954    6.512078
  C     -1.134739   -0.674049   -4.368893
  C      1.134739    0.674049   -4.368893
  C     -0.620619   -0.311872   -5.597895
  H     -2.306727   -0.779099   -4.360734
  C      0.620619    0.311872   -5.597895
  H      2.306727    0.779099   -4.360734
  H     -1.047879   -0.749445   -6.512077
  H      1.047879    0.749445   -6.512077

 Total Charge           Charge          ....   -2
 Multiplicity           Mult            ....    2
 Number of Electrons    NEL             ....  247
 Basis Dimension        Dim             ....  575

ORBITAL ENERGIES
----------------
                 SPIN UP ORBITALS
  NO   OCC          E(Eh)            E(eV)    Irrep
   0   1.0000    -443.562230    -12069.9419    1-B
   1   1.0000    -443.558898    -12069.8512    2-B
   2   1.0000    -443.547852    -12069.5507    1-A
   3   1.0000    -443.546330    -12069.5092    2-A
   4   1.0000    -318.188201     -8658.3411    3-A
   5   1.0000     -56.371070     -1533.9348    3-B
   6   1.0000     -56.369208     -1533.8841    4-B
   7   1.0000     -56.358047     -1533.5804    4-A
   8   1.0000     -56.357578     -1533.5677    5-A
   9   1.0000     -51.287242     -1395.5968    5-B
  10   1.0000     -51.287185     -1395.5953    6-A
  11   1.0000     -51.287164     -1395.5947    6-B
  12   1.0000     -51.287131     -1395.5938    7-A
  13   1.0000     -51.285936     -1395.5613    7-B
  14   1.0000     -51.285888     -1395.5600    8-A
  15   1.0000     -51.285853     -1395.5590    8-B
  16   1.0000     -51.285791     -1395.5573    9-A
  17   1.0000     -51.285508     -1395.5496   10-A
  18   1.0000     -51.285469     -1395.5485    9-B
  19   1.0000     -51.285406     -1395.5469   11-A
  20   1.0000     -51.285357     -1395.5455   10-B
  21   1.0000     -38.028787     -1034.8159   12-A
  22   1.0000     -33.530845      -912.4207   11-B
  23   1.0000     -33.530058      -912.3993   13-A
  24   1.0000     -33.518904      -912.0957   12-B
  25   1.0000      -9.818061      -267.1630   14-A
  26   1.0000      -9.817618      -267.1510   13-B
  27   1.0000      -9.816772      -267.1279   15-A
  28   1.0000      -9.816323      -267.1157   14-B
  29   1.0000      -9.814598      -267.0688   15-B
  30   1.0000      -9.814598      -267.0688   16-A
  31   1.0000      -9.811682      -266.9894   17-A
  32   1.0000      -9.811242      -266.9775   16-B
  33   1.0000      -9.809403      -266.9274   18-A
  34   1.0000      -9.808953      -266.9152   17-B
  35   1.0000      -9.807390      -266.8726   19-A
  36   1.0000      -9.807388      -266.8726   18-B
  37   1.0000      -7.342151      -199.7901   19-B
  38   1.0000      -7.341878      -199.7827   20-B
  39   1.0000      -7.335179      -199.6004   20-A
  40   1.0000      -7.334765      -199.5891   21-A
  41   1.0000      -5.405675      -147.0959   21-B
  42   1.0000      -5.405658      -147.0954   22-A
  43   1.0000      -5.404997      -147.0774   22-B
  44   1.0000      -5.404979      -147.0770   23-A
  45   1.0000      -5.400542      -146.9562   23-B
  46   1.0000      -5.400531      -146.9559   24-A
  47   1.0000      -5.399949      -146.9401   25-A
  48   1.0000      -5.399939      -146.9398   24-B
  49   1.0000      -5.399687      -146.9330   25-B
  50   1.0000      -5.399662      -146.9323   26-A
  51   1.0000      -5.399302      -146.9225   27-A
  52   1.0000      -5.399276      -146.9218   26-B
  53   1.0000      -4.023069      -109.4733   28-A
  54   1.0000      -2.542628       -69.1884   27-B
  55   1.0000      -2.541668       -69.1623   29-A
  56   1.0000      -2.518189       -68.5234   28-B
  57   1.0000      -1.744765       -47.4775   30-A
  58   1.0000      -1.744737       -47.4767   29-B
  59   1.0000      -1.744049       -47.4580   31-A
  60   1.0000      -1.744020       -47.4572   30-B
  61   1.0000      -1.742048       -47.4035   32-A
  62   1.0000      -1.741974       -47.4015   31-B
  63   1.0000      -1.741311       -47.3835   33-A
  64   1.0000      -1.741259       -47.3821   34-A
  65   1.0000      -1.741258       -47.3820   32-B
  66   1.0000      -1.741229       -47.3813   33-B
  67   1.0000      -1.740528       -47.3622   34-B
  68   1.0000      -1.740521       -47.3620   35-A
  69   1.0000      -1.737046       -47.2674   36-A
  70   1.0000      -1.736988       -47.2659   35-B
  71   1.0000      -1.736929       -47.2643   36-B
  72   1.0000      -1.736916       -47.2639   37-A
  73   1.0000      -1.736240       -47.2455   38-A
  74   1.0000      -1.736186       -47.2440   37-B
  75   1.0000      -1.736129       -47.2425   38-B
  76   1.0000      -1.736119       -47.2422   39-A
  77   1.0000      -0.603875       -16.4323   40-A
  78   1.0000      -0.603488       -16.4217   41-A
  79   1.0000      -0.522615       -14.2211   42-A
  80   1.0000      -0.521872       -14.2009   43-A
  81   1.0000      -0.500185       -13.6107   39-B
  82   1.0000      -0.497469       -13.5368   40-B
  83   1.0000      -0.413712       -11.2577   41-B
  84   1.0000      -0.411794       -11.2055   42-B
  85   1.0000      -0.384045       -10.4504   44-A
  86   1.0000      -0.379224       -10.3192   45-A
  87   1.0000      -0.320723        -8.7273   46-A
  88   1.0000      -0.310429        -8.4472   47-A
  89   1.0000      -0.287878        -7.8336   43-B
  90   1.0000      -0.283963        -7.7270   44-B
  91   1.0000      -0.229140        -6.2352   48-A
  92   1.0000      -0.219662        -5.9773   49-A
  93   1.0000      -0.201076        -5.4716   50-A
  94   1.0000      -0.199833        -5.4377   51-A
  95   1.0000      -0.171069        -4.6550   45-B
  96   1.0000      -0.166864        -4.5406   46-B
  97   1.0000      -0.139953        -3.8083   47-B
  98   1.0000      -0.137627        -3.7450   48-B
  99   1.0000      -0.137624        -3.7449   52-A
 100   1.0000      -0.131139        -3.5685   49-B
 101   1.0000      -0.110411        -3.0044   53-A
 102   1.0000      -0.108928        -2.9641   50-B
 103   1.0000      -0.083692        -2.2774   54-A
 104   1.0000      -0.073343        -1.9958   51-B
 105   1.0000      -0.067466        -1.8358   52-B
 106   1.0000      -0.067342        -1.8325   55-A
 107   1.0000      -0.049300        -1.3415   53-B
 108   1.0000      -0.047726        -1.2987   54-B
 109   1.0000      -0.034550        -0.9402   56-A
 110   1.0000      -0.030927        -0.8416   57-A
 111   1.0000      -0.030346        -0.8258   55-B
 112   1.0000      -0.018692        -0.5086   58-A
 113   1.0000      -0.002807        -0.0764   59-A
 114   1.0000      -0.002292        -0.0624   56-B
 115   1.0000       0.001518         0.0413   60-A
 116   1.0000       0.018433         0.5016   61-A
 117   1.0000       0.020547         0.5591   62-A
 118   1.0000       0.040039         1.0895   57-B
 119   1.0000       0.054031         1.4703   63-A
 120   1.0000       0.055004         1.4967   64-A
 121   1.0000       0.068845         1.8734   58-B
 122   1.0000       0.097602         2.6559   59-B
 123   1.0000       0.115257         3.1363   60-B
 124   0.0000       0.181653         4.9430   65-A
 125   0.0000       0.182193         4.9577   66-A
 126   0.0000       0.187925         5.1137   61-B
 127   0.0000       0.195832         5.3289   62-B
 128   0.0000       0.197644         5.3782   63-B

                 SPIN DOWN ORBITALS
  NO   OCC          E(Eh)            E(eV)    Irrep
   0   1.0000    -443.561778    -12069.9296    1-B
   1   1.0000    -443.558443    -12069.8389    2-B
   2   1.0000    -443.547400    -12069.5384    1-A
   3   1.0000    -443.545875    -12069.4969    2-A
   4   1.0000    -318.188078     -8658.3378    3-A
   5   1.0000     -56.370887     -1533.9298    3-B
   6   1.0000     -56.369024     -1533.8791    4-B
   7   1.0000     -56.357866     -1533.5755    4-A
   8   1.0000     -56.357396     -1533.5627    5-A
   9   1.0000     -51.286921     -1395.5881    5-B
  10   1.0000     -51.286855     -1395.5863    6-A
  11   1.0000     -51.286842     -1395.5859    6-B
  12   1.0000     -51.286800     -1395.5848    7-A
  13   1.0000     -51.285323     -1395.5446    8-A
  14   1.0000     -51.285303     -1395.5440    7-B
  15   1.0000     -51.285158     -1395.5401    9-A
  16   1.0000     -51.285122     -1395.5391    8-B
  17   1.0000     -51.285114     -1395.5389    9-B
  18   1.0000     -51.285096     -1395.5384   10-B
  19   1.0000     -51.285093     -1395.5383   10-A
  20   1.0000     -51.285058     -1395.5374   11-A
  21   1.0000     -38.014915     -1034.4384   12-A
  22   1.0000     -33.517664      -912.0620   11-B
  23   1.0000     -33.516877      -912.0406   13-A
  24   1.0000     -33.515025      -911.9902   12-B
  25   1.0000      -9.818011      -267.1616   14-A
  26   1.0000      -9.817568      -267.1496   13-B
  27   1.0000      -9.816722      -267.1266   15-A
  28   1.0000      -9.816273      -267.1144   14-B
  29   1.0000      -9.814496      -267.0660   15-B
  30   1.0000      -9.814495      -267.0660   16-A
  31   1.0000      -9.811691      -266.9897   17-A
  32   1.0000      -9.811250      -266.9777   16-B
  33   1.0000      -9.809422      -266.9279   18-A
  34   1.0000      -9.808969      -266.9156   17-B
  35   1.0000      -9.807271      -266.8694   19-A
  36   1.0000      -9.807270      -266.8694   18-B
  37   1.0000      -7.341752      -199.7792   19-B
  38   1.0000      -7.341476      -199.7717   20-B
  39   1.0000      -7.334770      -199.5892   20-A
  40   1.0000      -7.334359      -199.5781   21-A
  41   1.0000      -5.405311      -147.0860   21-B
  42   1.0000      -5.405293      -147.0855   22-A
  43   1.0000      -5.404633      -147.0676   22-B
  44   1.0000      -5.404615      -147.0670   23-A
  45   1.0000      -5.399962      -146.9404   24-A
  46   1.0000      -5.399952      -146.9402   23-B
  47   1.0000      -5.399381      -146.9246   24-B
  48   1.0000      -5.399372      -146.9244   25-A
  49   1.0000      -5.398990      -146.9140   26-A
  50   1.0000      -5.398964      -146.9133   25-B
  51   1.0000      -5.398863      -146.9105   26-B
  52   1.0000      -5.398838      -146.9099   27-A
  53   1.0000      -3.994881      -108.7063   28-A
  54   1.0000      -2.507870       -68.2426   27-B
  55   1.0000      -2.507445       -68.2311   28-B
  56   1.0000      -2.506407       -68.2028   29-A
  57   1.0000      -1.744316       -47.4652   30-A
  58   1.0000      -1.744287       -47.4645   29-B
  59   1.0000      -1.743597       -47.4457   31-A
  60   1.0000      -1.743568       -47.4449   30-B
  61   1.0000      -1.741246       -47.3817   32-A
  62   1.0000      -1.741204       -47.3806   31-B
  63   1.0000      -1.740856       -47.3711   33-A
  64   1.0000      -1.740821       -47.3701   32-B
  65   1.0000      -1.740424       -47.3593   34-A
  66   1.0000      -1.740340       -47.3571   33-B
  67   1.0000      -1.740218       -47.3537   34-B
  68   1.0000      -1.740212       -47.3536   35-A
  69   1.0000      -1.736228       -47.2452   36-A
  70   1.0000      -1.736185       -47.2440   35-B
  71   1.0000      -1.736146       -47.2429   36-B
  72   1.0000      -1.736142       -47.2428   37-A
  73   1.0000      -1.735437       -47.2237   38-A
  74   1.0000      -1.735400       -47.2226   37-B
  75   1.0000      -1.735349       -47.2212   39-A
  76   1.0000      -1.735347       -47.2212   38-B
  77   1.0000      -0.603045       -16.4097   40-A
  78   1.0000      -0.602686       -16.3999   41-A
  79   1.0000      -0.521459       -14.1896   42-A
  80   1.0000      -0.520752       -14.1704   43-A
  81   1.0000      -0.498493       -13.5647   39-B
  82   1.0000      -0.495690       -13.4884   40-B
  83   1.0000      -0.411039       -11.1849   41-B
  84   1.0000      -0.409153       -11.1336   42-B
  85   1.0000      -0.381493       -10.3810   44-A
  86   1.0000      -0.376795       -10.2531   45-A
  87   1.0000      -0.318916        -8.6782   46-A
  88   1.0000      -0.308589        -8.3971   47-A
  89   1.0000      -0.285455        -7.7676   43-B
  90   1.0000      -0.281256        -7.6534   44-B
  91   1.0000      -0.228009        -6.2044   48-A
  92   1.0000      -0.218617        -5.9489   49-A
  93   1.0000      -0.199805        -5.4370   50-A
  94   1.0000      -0.198662        -5.4059   51-A
  95   1.0000      -0.169746        -4.6190   45-B
  96   1.0000      -0.165061        -4.4915   46-B
  97   1.0000      -0.139037        -3.7834   47-B
  98   1.0000      -0.135713        -3.6929   48-B
  99   1.0000      -0.135628        -3.6906   52-A
 100   1.0000      -0.130744        -3.5577   49-B
 101   1.0000      -0.108601        -2.9552   53-A
 102   1.0000      -0.108292        -2.9468   50-B
 103   1.0000      -0.082524        -2.2456   54-A
 104   1.0000      -0.071880        -1.9560   51-B
 105   1.0000      -0.065279        -1.7763   55-A
 106   1.0000      -0.057222        -1.5571   52-B
 107   1.0000      -0.048307        -1.3145   53-B
 108   1.0000      -0.045310        -1.2329   54-B
 109   1.0000      -0.030852        -0.8395   56-A
 110   1.0000      -0.026885        -0.7316   57-A
 111   1.0000      -0.015174        -0.4129   58-A
 112   1.0000      -0.003116        -0.0848   55-B
 113   1.0000       0.006835         0.1860   59-A
 114   1.0000       0.008902         0.2422   56-B
 115   1.0000       0.011278         0.3069   60-A
 116   1.0000       0.028489         0.7752   61-A
 117   1.0000       0.031025         0.8442   62-A
 118   1.0000       0.051254         1.3947   57-B
 119   1.0000       0.055803         1.5185   63-A
 120   1.0000       0.058511         1.5922   64-A
 121   1.0000       0.070607         1.9213   58-B
 122   1.0000       0.100850         2.7443   59-B
 123   0.0000       0.144921         3.9435   60-B
 124   0.0000       0.183558         4.9949   65-A
 125   0.0000       0.183982         5.0064   66-A
 126   0.0000       0.188201         5.1212   61-B
 127   0.0000       0.199124         5.4184   62-B

MULLIKEN ATOMIC CHARGES AND SPIN POPULATIONS
--------------------------------------------
   0 Cu:    0.639521    0.308410
   1 Se:   -0.703540    0.174663
   2 C :    0.247067   -0.002981
   3 Se:   -0.732426    0.173179
   4 C :    0.222000   -0.003233
   5 Se:   -0.703540    0.174663
   6 C :    0.247067   -0.002981
   7 Se:   -0.732426    0.173179
   8 C :    0.222000   -0.003233
   9 C :   -0.103517   -0.001491
  10 C :   -0.103517   -0.001491
  11 C :   -0.156249   -0.000680
  12 H :    0.091548    0.002693
  13 C :   -0.156249   -0.000680
  14 H :    0.091548    0.002693
  15 H :    0.021430    0.001592
  16 H :    0.021430    0.001592
  17 C :   -0.102265   -0.001708
  18 C :   -0.102265   -0.001708
  19 C :   -0.132622   -0.000344
  20 H :    0.008360    0.002424
  21 C :   -0.132622   -0.000344
  22 H :    0.008360    0.002424
  23 H :    0.020455    0.001679
  24 H :    0.020455    0.001679
Sum of atomic charges         :   -2.0000000

LOEWDIN ATOMIC CHARGES AND SPIN POPULATIONS
-------------------------------------------
   0 Cu:   -0.616160    0.389541
   1 Se:   -0.209956    0.124387
   2 C :    0.028054    0.012459
   3 Se:   -0.201921    0.123127
   4 C :    0.038415    0.011766
   5 Se:   -0.209956    0.124387
   6 C :    0.028054    0.012459
   7 Se:   -0.201921    0.123127
   8 C :    0.038415    0.011766
   9 C :    0.370921    0.006902
  10 C :    0.370921    0.006902
  11 C :    0.319818    0.000445
  12 H :   -0.459245    0.009385
  13 C :    0.319818    0.000445
  14 H :   -0.459245    0.009385
  15 H :   -0.411955    0.000386
  16 H :   -0.411955    0.000386
  17 C :    0.326817    0.006314
  18 C :    0.326817    0.006314
  19 C :    0.295856    0.000568
  20 H :   -0.382583    0.008985
  21 C :    0.295856    0.000568
  22 H :   -0.382583    0.008985
  23 H :   -0.406140    0.000505
  24 H :   -0.406140    0.000505

  Mayer bond orders larger than 0.100000
B(  0-Cu,  1-Se) :   0.5456 B(  0-Cu,  3-Se) :   0.5511 B(  0-Cu,  5-Se) :   0.5456
B(  0-Cu,  7-Se) :   0.5511 B(  1-Se,  2-C ) :   1.0383 B(  2-C ,  6-C ) :   1.1325
B(  2-C , 17-C ) :   1.2584 B(  3-Se,  4-C ) :   1.0392 B(  4-C ,  8-C ) :   1.1331
B(  4-C , 10-C ) :   1.2574 B(  5-Se,  6-C ) :   1.0383 B(  6-C , 18-C ) :   1.2584
B(  7-Se,  8-C ) :   1.0392 B(  8-C ,  9-C ) :   1.2574 B(  9-C , 13-C ) :   1.3792
B(  9-C , 14-H ) :   0.9605 B( 10-C , 11-C ) :   1.3792 B( 10-C , 12-H ) :   0.9605
B( 11-C , 13-C ) :   1.3121 B( 11-C , 15-H ) :   0.9954 B( 13-C , 16-H ) :   0.9954
B( 17-C , 19-C ) :   1.3501 B( 17-C , 20-H ) :   1.0041 B( 18-C , 21-C ) :   1.3501
B( 18-C , 22-H ) :   1.0041 B( 19-C , 21-C ) :   1.3253 B( 19-C , 23-H ) :   0.9947
B( 21-C , 24-H ) :   0.9947

FINAL SINGLE POINT ENERGY    -11627.099581916871

DIPOLE MOMENT
-------------
                                X             Y             Z
Electronic contribution:      0.00000       0.00000       0.19194
Nuclear contribution   :      0.00000       0.00000      -0.00000
                        -----------------------------------------
Total Dipole Moment    :      0.00000       0.00000       0.19194
                        -----------------------------------------
Magnitude (a.u.)       :      0.19194
Magnitude (Debye)      :      0.48787

Rotational constants in cm-1:     0.017606     0.004097     0.003325
Rotational constants in MHz :   527.801884   122.834963    99.666038

                             ****ORCA TERMINATED NORMALLY****
TOTAL RUN TIME: 0 days 17 hours 23 minutes 18 seconds 92 msec
