                         Program Version 5.0.4 -  RELEASE  -
|  1> ! RIJCOSX nofrozencore ReducedPop printbasis
|  2> ! M06L ano-rcc-dzp autoaux
|  3>
|  4> %maxcore 7500
|  5> %basis
|  6> PCDTrimBas overlap
|  7> PCDTrimAuxJ Coulomb
|  8> PCDTrimAuxJK Coulomb
|  9> PCDTrimAuxC Coulomb
| 10> PCDThresh -1
| 11> end
| 12>
| 13> %basis
| 14> newgto Cu "ano-rcc-tzp" end
| 15> newgto Se "ano-rcc-tzp" end
| 16> end
| 17>
| 18> %pal
| 19> nprocs 8
| 20> end
| 21>
| 22> % sym SymThresh 1e-2 end
| 23> * xyz -2 2
| 24> Cu 0.0016353641830803881 0.0007723545314742925 -0.00022886997708074512
| 25> Se -0.9192279160370027 1.4252859175696673 -1.652795271437712
| 26> C -0.6548281082930058 0.6431817218322841 -3.069082567829556
| 27> Se -0.4388992969183456 1.4425151319364367 1.826097962007785
| 28> C 0.1914164751632411 0.669600732093171 3.126618704521767
| 29> Se 0.4163935280619985 -1.453144221615881 -1.8229482692019694
| 30> C -0.07188059323255276 -0.6131459796666866 -3.143347806724721
| 31> Se 0.896707794011742 -1.4359217860052846 1.6559469729761844
| 32> C 0.7743711668081509 -0.5867235800277132 3.052352461260273
| 33> C 1.226996349898895 -1.1377078607694346 4.24665057004367
| 34> C 0.11829628579823277 1.2515225526046392 4.387895408308784
| 35> C 0.41076266237413933 0.6264972881848091 5.591223998016301
| 36> H -0.31047920577705324 2.2421959412559573 4.43396539776489
| 37> C 0.9943782900723109 -0.631131517246602 5.516871971677871
| 38> H 1.706153933332624 -2.103612654741194 4.177052780062076
| 39> H 0.19651609711558088 1.1159858862288368 6.541203433526777
| 40> H 1.2714012259075997 -1.200105099473436 6.404265225372736
| 41> C -1.0644244215324585 1.2144878615029748 -4.269403596668183
| 42> C 0.04421118971332047 -1.17477305154037 -4.410638404994526
| 43> C -1.1236206388859722 0.5700926262245406 -5.498785454657591
| 44> H -1.4876163081533318 2.2068242968104923 -4.20763823195271
| 45> C -0.5400729159296845 -0.6875683688316767 -5.57312595823227
| 46> H 0.5289030390833223 -2.1390381008302755 -4.464533914698245
| 47> H -1.598558387391044 1.0455943679860604 -6.358479428652229
| 48> H -0.5238628813801716 -1.2705873373051824 -6.49539008400156
| 49> *
| 50>
| 51> % eprnmr
| 52> gtensor true
| 53> Nuclei = all H {aiso,adip,aorb,fgrad,rho}
| 54> Nuclei = all Cu {aiso,adip,aorb,fgrad,rho}
| 55> end
| 56>
| 57>                          ****END OF INPUT****

CARTESIAN COORDINATES (ANGSTROEM)
---------------------------------
  Cu    -0.000252    0.001805    0.000000
  Se    -1.737329   -0.255522    1.588883
  C     -3.106423   -0.361889    0.693488
  Se     1.740793    0.230666    1.588883
  C      3.088028    0.493868    0.693488
  Se    -1.737329   -0.255522   -1.588883
  C     -3.106423   -0.361889   -0.693488
  Se     1.740793    0.230666   -1.588883
  C      3.088028    0.493868   -0.693488
  C      4.315266    0.687762   -1.318862
  C      4.315266    0.687762    1.318862
  C      5.553695    0.705361    0.694220
  H      4.303138    0.715677    2.398899
  C      5.553695    0.705361   -0.694220
  H      4.303138    0.715677   -2.398899
  H      6.473484    0.728531    1.278516
  H      6.473484    0.728531   -1.278516
  C     -4.340278   -0.508307    1.318862
  C     -4.340278   -0.508307   -1.318862
  C     -5.533802   -0.848090    0.694220
  H     -4.336757   -0.474460    2.398899
  C     -5.533802   -0.848090   -0.694220
  H     -4.336757   -0.474460   -2.398899
  H     -6.423127   -1.089839    1.278516
  H     -6.423127   -1.089839   -1.278516

 Total Charge           Charge          ....   -2
 Multiplicity           Mult            ....    2
 Number of Electrons    NEL             ....  247
 Basis Dimension        Dim             ....  575

ORBITAL ENERGIES
----------------
                 SPIN UP ORBITALS
  NO   OCC          E(Eh)            E(eV)    Irrep
   0   1.0000    -443.561257    -12069.9154    1-A"
   1   1.0000    -443.560197    -12069.8866    2-A"
   2   1.0000    -443.546719    -12069.5198    1-A'
   3   1.0000    -443.546596    -12069.5165    2-A'
   4   1.0000    -318.187129     -8658.3120    3-A'
   5   1.0000     -56.370044     -1533.9069    3-A"
   6   1.0000     -56.369749     -1533.8988    4-A"
   7   1.0000     -56.357168     -1533.5565    4-A'
   8   1.0000     -56.356906     -1533.5494    5-A'
   9   1.0000     -51.286379     -1395.5733    5-A"
  10   1.0000     -51.286317     -1395.5716    6-A'
  11   1.0000     -51.286305     -1395.5713    6-A"
  12   1.0000     -51.286273     -1395.5704    7-A'
  13   1.0000     -51.285014     -1395.5362    7-A"
  14   1.0000     -51.284984     -1395.5354    8-A"
  15   1.0000     -51.284963     -1395.5348    8-A'
  16   1.0000     -51.284918     -1395.5336    9-A'
  17   1.0000     -51.284575     -1395.5242    9-A"
  18   1.0000     -51.284532     -1395.5231   10-A"
  19   1.0000     -51.284528     -1395.5230   10-A'
  20   1.0000     -51.284481     -1395.5217   11-A'
  21   1.0000     -38.027687     -1034.7860   12-A'
  22   1.0000     -33.529731      -912.3904   11-A"
  23   1.0000     -33.528977      -912.3699   13-A'
  24   1.0000     -33.517774      -912.0650   14-A'
  25   1.0000      -9.817750      -267.1546   15-A'
  26   1.0000      -9.817427      -267.1458   16-A'
  27   1.0000      -9.817303      -267.1424   12-A"
  28   1.0000      -9.816979      -267.1336   13-A"
  29   1.0000      -9.809148      -266.9205   17-A'
  30   1.0000      -9.809055      -266.9180   18-A'
  31   1.0000      -9.808700      -266.9083   14-A"
  32   1.0000      -9.808607      -266.9058   15-A"
  33   1.0000      -9.807393      -266.8727   19-A'
  34   1.0000      -9.807388      -266.8726   16-A"
  35   1.0000      -9.807240      -266.8686   20-A'
  36   1.0000      -9.807236      -266.8685   17-A"
  37   1.0000      -7.341281      -199.7664   18-A"
  38   1.0000      -7.341221      -199.7648   19-A"
  39   1.0000      -7.334004      -199.5684   21-A'
  40   1.0000      -7.333895      -199.5654   22-A'
  41   1.0000      -5.404296      -147.0584   20-A"
  42   1.0000      -5.404269      -147.0576   23-A'
  43   1.0000      -5.404255      -147.0572   21-A"
  44   1.0000      -5.404246      -147.0570   24-A'
  45   1.0000      -5.398950      -146.9129   22-A"
  46   1.0000      -5.398946      -146.9128   23-A"
  47   1.0000      -5.398932      -146.9124   25-A'
  48   1.0000      -5.398914      -146.9119   26-A'
  49   1.0000      -5.398542      -146.9018   24-A"
  50   1.0000      -5.398522      -146.9013   25-A"
  51   1.0000      -5.398516      -146.9011   27-A'
  52   1.0000      -5.398495      -146.9005   28-A'
  53   1.0000      -4.022001      -109.4442   29-A'
  54   1.0000      -2.541535       -69.1587   26-A"
  55   1.0000      -2.540664       -69.1350   30-A'
  56   1.0000      -2.517081       -68.4933   31-A'
  57   1.0000      -1.743261       -47.4366   32-A'
  58   1.0000      -1.743247       -47.4362   33-A'
  59   1.0000      -1.743231       -47.4357   27-A"
  60   1.0000      -1.743219       -47.4354   28-A"
  61   1.0000      -1.740626       -47.3648   34-A'
  62   1.0000      -1.740602       -47.3642   35-A'
  63   1.0000      -1.740543       -47.3626   29-A"
  64   1.0000      -1.740525       -47.3621   30-A"
  65   1.0000      -1.739819       -47.3429   36-A'
  66   1.0000      -1.739812       -47.3427   31-A"
  67   1.0000      -1.739805       -47.3425   37-A'
  68   1.0000      -1.739798       -47.3423   32-A"
  69   1.0000      -1.735473       -47.2246   38-A'
  70   1.0000      -1.735464       -47.2244   39-A'
  71   1.0000      -1.735408       -47.2228   33-A"
  72   1.0000      -1.735401       -47.2227   34-A"
  73   1.0000      -1.735383       -47.2222   40-A'
  74   1.0000      -1.735373       -47.2219   41-A'
  75   1.0000      -1.735353       -47.2213   35-A"
  76   1.0000      -1.735349       -47.2213   36-A"
  77   1.0000      -0.601976       -16.3806   42-A'
  78   1.0000      -0.601684       -16.3726   43-A'
  79   1.0000      -0.520578       -14.1656   44-A'
  80   1.0000      -0.519786       -14.1441   45-A'
  81   1.0000      -0.498549       -13.5662   37-A"
  82   1.0000      -0.498205       -13.5568   38-A"
  83   1.0000      -0.411314       -11.1924   39-A"
  84   1.0000      -0.410057       -11.1582   40-A"
  85   1.0000      -0.383875       -10.4458   46-A'
  86   1.0000      -0.379336       -10.3223   47-A'
  87   1.0000      -0.320698        -8.7266   48-A'
  88   1.0000      -0.318355        -8.6629   49-A'
  89   1.0000      -0.287072        -7.8116   41-A"
  90   1.0000      -0.283877        -7.7247   42-A"
  91   1.0000      -0.229319        -6.2401   50-A'
  92   1.0000      -0.222666        -6.0591   51-A'
  93   1.0000      -0.199208        -5.4207   52-A'
  94   1.0000      -0.198186        -5.3929   53-A'
  95   1.0000      -0.171170        -4.6578   43-A"
  96   1.0000      -0.166308        -4.5255   44-A"
  97   1.0000      -0.137588        -3.7440   45-A"
  98   1.0000      -0.137572        -3.7435   54-A'
  99   1.0000      -0.135871        -3.6972   46-A"
 100   1.0000      -0.130442        -3.5495   55-A'
 101   1.0000      -0.130226        -3.5436   56-A'
 102   1.0000      -0.111054        -3.0219   57-A'
 103   1.0000      -0.081883        -2.2281   58-A'
 104   1.0000      -0.071913        -1.9569   47-A"
 105   1.0000      -0.066089        -1.7984   48-A"
 106   1.0000      -0.062824        -1.7095   59-A'
 107   1.0000      -0.047702        -1.2980   60-A'
 108   1.0000      -0.046984        -1.2785   61-A'
 109   1.0000      -0.032703        -0.8899   49-A"
 110   1.0000      -0.030619        -0.8332   50-A"
 111   1.0000      -0.029712        -0.8085   62-A'
 112   1.0000      -0.025351        -0.6898   51-A"
 113   1.0000      -0.001631        -0.0444   52-A"
 114   1.0000      -0.001108        -0.0302   63-A'
 115   1.0000       0.000455         0.0124   64-A'
 116   1.0000       0.019032         0.5179   65-A'
 117   1.0000       0.020720         0.5638   66-A'
 118   1.0000       0.040921         1.1135   53-A"
 119   1.0000       0.055746         1.5169   54-A"
 120   1.0000       0.056659         1.5418   55-A"
 121   1.0000       0.070021         1.9054   67-A'
 122   1.0000       0.098841         2.6896   68-A'
 123   1.0000       0.116138         3.1603   56-A"
 124   0.0000       0.182022         4.9531   69-A'
 125   0.0000       0.182065         4.9542   70-A'
 126   0.0000       0.196388         5.3440   57-A"
 127   0.0000       0.196848         5.3565   58-A"
 128   0.0000       0.199020         5.4156   71-A'

                 SPIN DOWN ORBITALS
  NO   OCC          E(Eh)            E(eV)    Irrep
   0   1.0000    -443.560805    -12069.9031    1-A"
   1   1.0000    -443.559745    -12069.8743    2-A"
   2   1.0000    -443.546267    -12069.5075    1-A'
   3   1.0000    -443.546144    -12069.5042    2-A'
   4   1.0000    -318.187006     -8658.3086    3-A'
   5   1.0000     -56.369861     -1533.9019    3-A"
   6   1.0000     -56.369566     -1533.8939    4-A"
   7   1.0000     -56.356987     -1533.5516    4-A'
   8   1.0000     -56.356725     -1533.5445    5-A'
   9   1.0000     -51.286059     -1395.5646    5-A"
  10   1.0000     -51.285988     -1395.5627    6-A'
  11   1.0000     -51.285983     -1395.5626    6-A"
  12   1.0000     -51.285943     -1395.5615    7-A'
  13   1.0000     -51.284326     -1395.5174    7-A"
  14   1.0000     -51.284283     -1395.5163    8-A"
  15   1.0000     -51.284279     -1395.5162    8-A'
  16   1.0000     -51.284278     -1395.5162    9-A"
  17   1.0000     -51.284248     -1395.5153   10-A"
  18   1.0000     -51.284236     -1395.5150    9-A'
  19   1.0000     -51.284233     -1395.5149   10-A'
  20   1.0000     -51.284190     -1395.5138   11-A'
  21   1.0000     -38.013794     -1034.4079   12-A'
  22   1.0000     -33.516531      -912.0312   11-A"
  23   1.0000     -33.515774      -912.0106   13-A'
  24   1.0000     -33.513893      -911.9594   14-A'
  25   1.0000      -9.817691      -267.1530   15-A'
  26   1.0000      -9.817369      -267.1442   16-A'
  27   1.0000      -9.817244      -267.1408   12-A"
  28   1.0000      -9.816922      -267.1320   13-A"
  29   1.0000      -9.809167      -266.9210   17-A'
  30   1.0000      -9.809074      -266.9185   18-A'
  31   1.0000      -9.808716      -266.9087   14-A"
  32   1.0000      -9.808623      -266.9062   15-A"
  33   1.0000      -9.807280      -266.8697   19-A'
  34   1.0000      -9.807277      -266.8696   16-A"
  35   1.0000      -9.807126      -266.8655   20-A'
  36   1.0000      -9.807124      -266.8654   17-A"
  37   1.0000      -7.340881      -199.7555   18-A"
  38   1.0000      -7.340824      -199.7540   19-A"
  39   1.0000      -7.333598      -199.5574   21-A'
  40   1.0000      -7.333489      -199.5544   22-A'
  41   1.0000      -5.403932      -147.0485   20-A"
  42   1.0000      -5.403904      -147.0477   23-A'
  43   1.0000      -5.403890      -147.0473   21-A"
  44   1.0000      -5.403880      -147.0471   24-A'
  45   1.0000      -5.398251      -146.8939   22-A"
  46   1.0000      -5.398227      -146.8932   23-A"
  47   1.0000      -5.398227      -146.8932   25-A'
  48   1.0000      -5.398200      -146.8925   26-A'
  49   1.0000      -5.398113      -146.8901   24-A"
  50   1.0000      -5.398103      -146.8898   25-A"
  51   1.0000      -5.398093      -146.8896   27-A'
  52   1.0000      -5.398072      -146.8890   28-A'
  53   1.0000      -3.993761      -108.6758   29-A'
  54   1.0000      -2.506756       -68.2123   30-A'
  55   1.0000      -2.506279       -68.1993   26-A"
  56   1.0000      -2.505335       -68.1736   31-A'
  57   1.0000      -1.742813       -47.4244   32-A'
  58   1.0000      -1.742800       -47.4240   33-A'
  59   1.0000      -1.742783       -47.4235   27-A"
  60   1.0000      -1.742771       -47.4232   28-A"
  61   1.0000      -1.739731       -47.3405   34-A'
  62   1.0000      -1.739710       -47.3399   35-A'
  63   1.0000      -1.739648       -47.3382   29-A"
  64   1.0000      -1.739635       -47.3379   30-A"
  65   1.0000      -1.739507       -47.3344   36-A'
  66   1.0000      -1.739499       -47.3342   37-A'
  67   1.0000      -1.739494       -47.3340   31-A"
  68   1.0000      -1.739490       -47.3339   32-A"
  69   1.0000      -1.734678       -47.2030   38-A'
  70   1.0000      -1.734669       -47.2027   39-A'
  71   1.0000      -1.734627       -47.2016   33-A"
  72   1.0000      -1.734610       -47.2011   34-A"
  73   1.0000      -1.734610       -47.2011   40-A'
  74   1.0000      -1.734603       -47.2010   41-A'
  75   1.0000      -1.734581       -47.2003   35-A"
  76   1.0000      -1.734574       -47.2002   36-A"
  77   1.0000      -0.601157       -16.3583   42-A'
  78   1.0000      -0.600873       -16.3506   43-A'
  79   1.0000      -0.519431       -14.1344   44-A'
  80   1.0000      -0.518672       -14.1138   45-A'
  81   1.0000      -0.496834       -13.5195   37-A"
  82   1.0000      -0.496496       -13.5104   38-A"
  83   1.0000      -0.408625       -11.1192   39-A"
  84   1.0000      -0.407346       -11.0844   40-A"
  85   1.0000      -0.381375       -10.3777   46-A'
  86   1.0000      -0.377024       -10.2594   47-A'
  87   1.0000      -0.318940        -8.6788   48-A'
  88   1.0000      -0.316438        -8.6107   49-A'
  89   1.0000      -0.284704        -7.7472   41-A"
  90   1.0000      -0.281259        -7.6535   42-A"
  91   1.0000      -0.228183        -6.2092   50-A'
  92   1.0000      -0.221602        -6.0301   51-A'
  93   1.0000      -0.197920        -5.3857   52-A'
  94   1.0000      -0.196970        -5.3598   53-A'
  95   1.0000      -0.169742        -4.6189   43-A"
  96   1.0000      -0.164244        -4.4693   44-A"
  97   1.0000      -0.136700        -3.7198   45-A"
  98   1.0000      -0.135596        -3.6897   54-A'
  99   1.0000      -0.134187        -3.6514   46-A"
 100   1.0000      -0.130050        -3.5388   55-A'
 101   1.0000      -0.129809        -3.5323   56-A'
 102   1.0000      -0.109291        -2.9740   57-A'
 103   1.0000      -0.080524        -2.1912   58-A'
 104   1.0000      -0.070464        -1.9174   47-A"
 105   1.0000      -0.060640        -1.6501   59-A'
 106   1.0000      -0.054528        -1.4838   48-A"
 107   1.0000      -0.046556        -1.2668   60-A'
 108   1.0000      -0.046274        -1.2592   61-A'
 109   1.0000      -0.030148        -0.8204   49-A"
 110   1.0000      -0.025127        -0.6837   50-A"
 111   1.0000      -0.023301        -0.6340   62-A'
 112   1.0000      -0.002055        -0.0559   51-A"
 113   1.0000       0.007974         0.2170   52-A"
 114   1.0000       0.010041         0.2732   63-A'
 115   1.0000       0.010820         0.2944   64-A'
 116   1.0000       0.028906         0.7866   65-A'
 117   1.0000       0.031880         0.8675   66-A'
 118   1.0000       0.052142         1.4189   53-A"
 119   1.0000       0.057639         1.5684   54-A"
 120   1.0000       0.060224         1.6388   55-A"
 121   1.0000       0.071767         1.9529   67-A'
 122   1.0000       0.102077         2.7777   68-A'
 123   0.0000       0.145868         3.9693   56-A"
 124   0.0000       0.183798         5.0014   69-A'
 125   0.0000       0.183803         5.0015   70-A'
 126   0.0000       0.199175         5.4198   71-A'
 127   0.0000       0.199382         5.4255   57-A"

MULLIKEN ATOMIC CHARGES AND SPIN POPULATIONS
--------------------------------------------
   0 Cu:    0.640905    0.309743
   1 Se:   -0.734362    0.172993
   2 C :    0.230601   -0.003065
   3 Se:   -0.734325    0.172943
   4 C :    0.228976   -0.003077
   5 Se:   -0.734362    0.172993
   6 C :    0.230601   -0.003065
   7 Se:   -0.734325    0.172943
   8 C :    0.228976   -0.003077
   9 C :   -0.114372   -0.001903
  10 C :   -0.114372   -0.001903
  11 C :   -0.150747    0.000260
  12 H :    0.093364    0.002805
  13 C :   -0.150747    0.000260
  14 H :    0.093364    0.002805
  15 H :    0.017046    0.001459
  16 H :    0.017046    0.001459
  17 C :   -0.117130   -0.001990
  18 C :   -0.117130   -0.001990
  19 C :   -0.149406    0.000491
  20 H :    0.093777    0.002787
  21 C :   -0.149406    0.000491
  22 H :    0.093777    0.002787
  23 H :    0.016126    0.001425
  24 H :    0.016126    0.001425
Sum of atomic charges         :   -2.0000000

LOEWDIN ATOMIC CHARGES AND SPIN POPULATIONS
-------------------------------------------
   0 Cu:   -0.616332    0.390280
   1 Se:   -0.202416    0.123291
   2 C :    0.037947    0.011646
   3 Se:   -0.202349    0.123222
   4 C :    0.038023    0.011668
   5 Se:   -0.202416    0.123291
   6 C :    0.037947    0.011646
   7 Se:   -0.202349    0.123222
   8 C :    0.038023    0.011668
   9 C :    0.371752    0.006764
  10 C :    0.371752    0.006764
  11 C :    0.317593    0.000968
  12 H :   -0.461910    0.009244
  13 C :    0.317593    0.000968
  14 H :   -0.461910    0.009244
  15 H :   -0.408931    0.000500
  16 H :   -0.408931    0.000500
  17 C :    0.371895    0.006730
  18 C :    0.371895    0.006730
  19 C :    0.317019    0.001098
  20 H :   -0.462377    0.009202
  21 C :    0.317019    0.001098
  22 H :   -0.462377    0.009202
  23 H :   -0.408082    0.000527
  24 H :   -0.408082    0.000527

  Mayer bond orders larger than 0.100000
B(  0-Cu,  1-Se) :   0.5485 B(  0-Cu,  3-Se) :   0.5490 B(  0-Cu,  5-Se) :   0.5485
B(  0-Cu,  7-Se) :   0.5490 B(  1-Se,  2-C ) :   1.0376 B(  2-C ,  6-C ) :   1.1302
B(  2-C , 17-C ) :   1.2629 B(  3-Se,  4-C ) :   1.0381 B(  4-C ,  8-C ) :   1.1309
B(  4-C , 10-C ) :   1.2617 B(  5-Se,  6-C ) :   1.0376 B(  6-C , 18-C ) :   1.2629
B(  7-Se,  8-C ) :   1.0381 B(  8-C ,  9-C ) :   1.2617 B(  9-C , 13-C ) :   1.3741
B(  9-C , 14-H ) :   0.9603 B( 10-C , 11-C ) :   1.3741 B( 10-C , 12-H ) :   0.9603
B( 11-C , 13-C ) :   1.3177 B( 11-C , 15-H ) :   0.9972 B( 13-C , 16-H ) :   0.9972
B( 17-C , 19-C ) :   1.3728 B( 17-C , 20-H ) :   0.9603 B( 18-C , 21-C ) :   1.3728
B( 18-C , 22-H ) :   0.9603 B( 19-C , 21-C ) :   1.3190 B( 19-C , 23-H ) :   0.9976
B( 21-C , 24-H ) :   0.9976

FINAL SINGLE POINT ENERGY    -11627.139628791630

DIPOLE MOMENT
-------------
                                X             Y             Z
Electronic contribution:      0.04959      -0.29562       0.00000
Nuclear contribution   :     -0.03857       0.27670       0.00000
                        -----------------------------------------
Total Dipole Moment    :      0.01103      -0.01892       0.00000
                        -----------------------------------------
Magnitude (a.u.)       :      0.02190
Magnitude (Debye)      :      0.05566

Rotational constants in cm-1:     0.017595     0.004097     0.003325
Rotational constants in MHz :   527.492318   122.818189    99.666038

                             ****ORCA TERMINATED NORMALLY****
TOTAL RUN TIME: 0 days 17 hours 11 minutes 57 seconds 838 msec
