                         Program Version 5.0.4 -  RELEASE  -
|  1> ! RIJCOSX nofrozencore ReducedPop printbasis
|  2> ! M06L ano-rcc-dzp autoaux
|  3>
|  4> %maxcore 7500
|  5> %basis
|  6> PCDTrimBas overlap
|  7> PCDTrimAuxJ Coulomb
|  8> PCDTrimAuxJK Coulomb
|  9> PCDTrimAuxC Coulomb
| 10> PCDThresh -1
| 11> end
| 12>
| 13> %basis
| 14> newgto Cu "ano-rcc-tzp" end
| 15> newgto Se "ano-rcc-tzp" end
| 16> end
| 17>
| 18> %pal
| 19> nprocs 8
| 20> end
| 21>
| 22> % sym SymThresh 1e-2 end
| 23> * xyz -2 2
| 24> Cu 0.1283683990787079 -0.05347148913084232 -0.4143777671872608
| 25> Se -1.4475838330406516 1.5807717545087354 1.22660186759996
| 26> C -1.3321800192194602 0.9946553773940361 2.75047253373717
| 27> Se -0.2811109578778422 0.9469548725664162 -2.0174859099554387
| 28> C 0.5867903047436929 0.10985960342781409 -3.1429278161832617
| 29> Se 0.3274826068604925 -1.0659926303322178 2.219275543932807
| 30> C -0.5968954355088171 -0.10222742203102039 3.163483530603981
| 31> Se 1.322665394875623 -1.4392378394647556 -1.1388063860605695
| 32> C 1.3199443866904639 -0.9885922934641086 -2.7143809793528817
| 33> C 2.0345459395373022 -1.6639258242949007 -3.6900371574066577
| 34> C 0.6193106161607479 0.4476348160763718 -4.4861738064588925
| 35> C 1.3344958467379533 -0.2283648344334078 -5.46222922113466
| 36> H 0.03702514837349287 1.307868667646394 -4.7836101055983615
| 37> C 2.070185387061351 -1.3312720369763098 -5.029886286258029
| 38> H 2.609483443932551 -2.5207016510631295 -3.3702811898229688
| 39> H 1.313954384112234 0.09267244026428485 -6.497294913724688
| 40> H 2.6629091213019986 -1.925986381876266 -5.717331338720434
| 41> C -2.0461022559890267 1.6621538587921743 3.750548067987518
| 42> C -0.6619673781622549 -0.40130402090954653 4.523208311191053
| 43> C -2.110252022060705 1.3644391909652476 5.1011537023337
| 44> H -2.6181789764279233 2.5176347400356636 3.4219213274813014
| 45> C -1.370400920190835 0.2632906394478242 5.507754326279384
| 46> H -0.08834143153927468 -1.257278980286227 4.846294976243915
| 47> H -2.7077690840409745 1.9694321908750545 5.774875143960429
| 48> H -1.3317761294320822 -0.0801926911625922 6.537009924326641
| 49> *
| 50>
| 51> % eprnmr
| 52> gtensor true
| 53> Nuclei = all H {aiso,adip,aorb,fgrad,rho}
| 54> Nuclei = all Cu {aiso,adip,aorb,fgrad,rho}
| 55> end
| 56>
| 57>                          ****END OF INPUT****

CARTESIAN COORDINATES (ANGSTROEM)
---------------------------------
  Cu    -0.093259   -0.427024    0.000000
  Se     2.051117    1.375430    0.000000
  C      1.417306    2.884508    0.000000
  Se     1.052478   -1.984511    0.000000
  C     -0.064161   -3.198479    0.000000
  Se    -1.188099    2.181098    0.000000
  C      0.075001    3.220052    0.000000
  Se    -1.868882   -1.274759    0.000000
  C     -1.407429   -2.847205    0.000000
  C     -2.312621   -3.895662    0.000000
  C      0.271322   -4.542693    0.000000
  C     -0.634727   -5.591610    0.000000
  H      1.325724   -4.778836    0.000000
  C     -1.983312   -5.236810    0.000000
  H     -3.361279   -3.636473    0.000000
  H     -0.300396   -6.622663    0.000000
  H     -2.769447   -5.984860    0.000000
  C      2.314286    3.957269    0.000000
  C     -0.211137    4.584112    0.000000
  C      2.029262    5.312130    0.000000
  H      3.360760    3.688928    0.000000
  C      0.681223    5.640799    0.000000
  H     -1.258581    4.846762    0.000000
  H      2.827346    6.046981    0.000000
  H      0.318512    6.664166    0.000000

 Total Charge           Charge          ....   -2
 Multiplicity           Mult            ....    2
 Number of Electrons    NEL             ....  247
 Basis Dimension        Dim             ....  575

ORBITAL ENERGIES
----------------
                 SPIN UP ORBITALS
  NO   OCC          E(Eh)            E(eV)    Irrep
   0   1.0000    -443.576440    -12070.3286    1-A'
   1   1.0000    -443.561993    -12069.9354    2-A'
   2   1.0000    -443.551308    -12069.6447    3-A'
   3   1.0000    -443.536627    -12069.2452    4-A'
   4   1.0000    -318.207375     -8658.8629    5-A'
   5   1.0000     -56.386083     -1534.3433    6-A'
   6   1.0000     -56.373504     -1534.0010    7-A'
   7   1.0000     -56.359546     -1533.6212    8-A'
   8   1.0000     -56.346038     -1533.2537    9-A'
   9   1.0000     -51.299941     -1395.9424   10-A'
  10   1.0000     -51.298689     -1395.9083   11-A'
  11   1.0000     -51.298318     -1395.8982    1-A"
  12   1.0000     -51.297822     -1395.8847   12-A'
  13   1.0000     -51.296573     -1395.8507   13-A'
  14   1.0000     -51.296178     -1395.8400    2-A"
  15   1.0000     -51.275758     -1395.2843   14-A'
  16   1.0000     -51.275335     -1395.2728   15-A'
  17   1.0000     -51.274566     -1395.2519   16-A'
  18   1.0000     -51.274154     -1395.2407   17-A'
  19   1.0000     -51.273886     -1395.2334    3-A"
  20   1.0000     -51.273482     -1395.2224    4-A"
  21   1.0000     -38.051848     -1035.4434   18-A'
  22   1.0000     -33.553276      -913.0310   19-A'
  23   1.0000     -33.551710      -912.9885   20-A'
  24   1.0000     -33.543229      -912.7577    5-A"
  25   1.0000      -9.825212      -267.3576   21-A'
  26   1.0000      -9.823838      -267.3202   22-A'
  27   1.0000      -9.817072      -267.1361   23-A'
  28   1.0000      -9.815506      -267.0935   24-A'
  29   1.0000      -9.813245      -267.0320   25-A'
  30   1.0000      -9.812794      -267.0197   26-A'
  31   1.0000      -9.808452      -266.9016   27-A'
  32   1.0000      -9.807908      -266.8867   28-A'
  33   1.0000      -9.801998      -266.7259   29-A'
  34   1.0000      -9.801340      -266.7080   30-A'
  35   1.0000      -9.797704      -266.6091   31-A'
  36   1.0000      -9.797168      -266.5945   32-A'
  37   1.0000      -7.357513      -200.2081   33-A'
  38   1.0000      -7.351097      -200.0335   34-A'
  39   1.0000      -7.329964      -199.4585   35-A'
  40   1.0000      -7.322153      -199.2459   36-A'
  41   1.0000      -5.419594      -147.4746   37-A'
  42   1.0000      -5.418077      -147.4334   38-A'
  43   1.0000      -5.414992      -147.3494   39-A'
  44   1.0000      -5.414380      -147.3328    6-A"
  45   1.0000      -5.413622      -147.3121   40-A'
  46   1.0000      -5.412771      -147.2890    7-A"
  47   1.0000      -5.392769      -146.7447   41-A'
  48   1.0000      -5.392276      -146.7313   42-A'
  49   1.0000      -5.387846      -146.6107   43-A'
  50   1.0000      -5.387382      -146.5981   44-A'
  51   1.0000      -5.386798      -146.5822    8-A"
  52   1.0000      -5.386379      -146.5708    9-A"
  53   1.0000      -4.047611      -110.1411   45-A'
  54   1.0000      -2.569159       -69.9104   46-A'
  55   1.0000      -2.564872       -69.7937   47-A'
  56   1.0000      -2.542804       -69.1932   10-A"
  57   1.0000      -1.758895       -47.8620   48-A'
  58   1.0000      -1.757288       -47.8182   49-A'
  59   1.0000      -1.756608       -47.7997   50-A'
  60   1.0000      -1.755372       -47.7661   11-A"
  61   1.0000      -1.755244       -47.7626   51-A'
  62   1.0000      -1.753910       -47.7263   12-A"
  63   1.0000      -1.751931       -47.6725   52-A'
  64   1.0000      -1.751730       -47.6670   13-A"
  65   1.0000      -1.750659       -47.6379   53-A'
  66   1.0000      -1.750128       -47.6234   14-A"
  67   1.0000      -1.731841       -47.1258   54-A'
  68   1.0000      -1.731399       -47.1138   55-A'
  69   1.0000      -1.729268       -47.0558   56-A'
  70   1.0000      -1.728765       -47.0421   57-A'
  71   1.0000      -1.728099       -47.0240   15-A"
  72   1.0000      -1.727649       -47.0117   16-A"
  73   1.0000      -1.723981       -46.9119   17-A"
  74   1.0000      -1.723959       -46.9113   58-A'
  75   1.0000      -1.723565       -46.9006   18-A"
  76   1.0000      -1.723513       -46.8992   59-A'
  77   1.0000      -0.612766       -16.6742   60-A'
  78   1.0000      -0.592559       -16.1244   61-A'
  79   1.0000      -0.533977       -14.5302   62-A'
  80   1.0000      -0.510563       -13.8931   63-A'
  81   1.0000      -0.506319       -13.7776   64-A'
  82   1.0000      -0.491356       -13.3705   65-A'
  83   1.0000      -0.424784       -11.5590   66-A'
  84   1.0000      -0.402808       -10.9610   67-A'
  85   1.0000      -0.401899       -10.9362   68-A'
  86   1.0000      -0.365845        -9.9552   69-A'
  87   1.0000      -0.327838        -8.9209   70-A'
  88   1.0000      -0.313034        -8.5181   71-A'
  89   1.0000      -0.303826        -8.2675   72-A'
  90   1.0000      -0.273732        -7.4486   73-A'
  91   1.0000      -0.239907        -6.5282   74-A'
  92   1.0000      -0.216969        -5.9040   75-A'
  93   1.0000      -0.209807        -5.7091   76-A'
  94   1.0000      -0.189527        -5.1573   77-A'
  95   1.0000      -0.183097        -4.9823   78-A'
  96   1.0000      -0.157152        -4.2763   79-A'
  97   1.0000      -0.154199        -4.1960   80-A'
  98   1.0000      -0.150252        -4.0886   81-A'
  99   1.0000      -0.142009        -3.8643   19-A"
 100   1.0000      -0.125125        -3.4048   82-A'
 101   1.0000      -0.120433        -3.2772   20-A"
 102   1.0000      -0.106925        -2.9096   83-A'
 103   1.0000      -0.092474        -2.5164   84-A'
 104   1.0000      -0.088530        -2.4090   85-A'
 105   1.0000      -0.072136        -1.9629   86-A'
 106   1.0000      -0.067776        -1.8443   21-A"
 107   1.0000      -0.061611        -1.6765   22-A"
 108   1.0000      -0.058916        -1.6032   87-A'
 109   1.0000      -0.048504        -1.3199   88-A'
 110   1.0000      -0.042479        -1.1559   89-A'
 111   1.0000      -0.037628        -1.0239   23-A"
 112   1.0000      -0.022008        -0.5989   24-A"
 113   1.0000      -0.021487        -0.5847   25-A"
 114   1.0000      -0.021328        -0.5804   90-A'
 115   1.0000      -0.017987        -0.4894   26-A"
 116   1.0000       0.004781         0.1301   91-A'
 117   1.0000       0.037067         1.0087   92-A'
 118   1.0000       0.050268         1.3679   93-A'
 119   1.0000       0.055032         1.4975   27-A"
 120   1.0000       0.062555         1.7022   28-A"
 121   1.0000       0.064422         1.7530   29-A"
 122   1.0000       0.101724         2.7681   30-A"
 123   1.0000       0.109663         2.9841   94-A'
 124   0.0000       0.178227         4.8498   95-A'
 125   0.0000       0.187160         5.0929   96-A'
 126   0.0000       0.192884         5.2486   97-A'
 127   0.0000       0.195485         5.3194   31-A"
 128   0.0000       0.201298         5.4776   98-A'

                 SPIN DOWN ORBITALS
  NO   OCC          E(Eh)            E(eV)    Irrep
   0   1.0000    -443.576028    -12070.3174    1-A'
   1   1.0000    -443.561581    -12069.9242    2-A'
   2   1.0000    -443.550787    -12069.6305    3-A'
   3   1.0000    -443.536107    -12069.2311    4-A'
   4   1.0000    -318.207150     -8658.8567    5-A'
   5   1.0000     -56.385901     -1534.3384    6-A'
   6   1.0000     -56.373325     -1533.9962    7-A'
   7   1.0000     -56.359332     -1533.6154    8-A'
   8   1.0000     -56.345827     -1533.2479    9-A'
   9   1.0000     -51.299678     -1395.9352   10-A'
  10   1.0000     -51.298088     -1395.8919    1-A"
  11   1.0000     -51.297938     -1395.8879   11-A'
  12   1.0000     -51.297554     -1395.8774   12-A'
  13   1.0000     -51.295948     -1395.8337    2-A"
  14   1.0000     -51.295819     -1395.8302   13-A'
  15   1.0000     -51.275384     -1395.2741   14-A'
  16   1.0000     -51.274960     -1395.2626   15-A'
  17   1.0000     -51.273709     -1395.2286   16-A'
  18   1.0000     -51.273599     -1395.2256    3-A"
  19   1.0000     -51.273285     -1395.2170   17-A'
  20   1.0000     -51.273192     -1395.2145    4-A"
  21   1.0000     -38.042220     -1035.1814   18-A'
  22   1.0000     -33.543872      -912.7752   19-A'
  23   1.0000     -33.542531      -912.7387   20-A'
  24   1.0000     -33.540472      -912.6826    5-A"
  25   1.0000      -9.825189      -267.3570   21-A'
  26   1.0000      -9.823816      -267.3196   22-A'
  27   1.0000      -9.817022      -267.1347   23-A'
  28   1.0000      -9.815461      -267.0923   24-A'
  29   1.0000      -9.813278      -267.0329   25-A'
  30   1.0000      -9.812827      -267.0206   26-A'
  31   1.0000      -9.808380      -266.8996   27-A'
  32   1.0000      -9.807836      -266.8848   28-A'
  33   1.0000      -9.801998      -266.7259   29-A'
  34   1.0000      -9.801344      -266.7081   30-A'
  35   1.0000      -9.797530      -266.6043   31-A'
  36   1.0000      -9.796992      -266.5897   32-A'
  37   1.0000      -7.357159      -200.1985   33-A'
  38   1.0000      -7.350738      -200.0237   34-A'
  39   1.0000      -7.329510      -199.4461   35-A'
  40   1.0000      -7.321690      -199.2333   36-A'
  41   1.0000      -5.419267      -147.4658   37-A'
  42   1.0000      -5.417745      -147.4243   38-A'
  43   1.0000      -5.414248      -147.3292   39-A'
  44   1.0000      -5.414117      -147.3256    6-A"
  45   1.0000      -5.412887      -147.2921   40-A'
  46   1.0000      -5.412509      -147.2819    7-A"
  47   1.0000      -5.392380      -146.7341   41-A'
  48   1.0000      -5.391889      -146.7207   42-A'
  49   1.0000      -5.386877      -146.5844   43-A'
  50   1.0000      -5.386462      -146.5731    8-A"
  51   1.0000      -5.386401      -146.5714   44-A'
  52   1.0000      -5.386041      -146.5616    9-A"
  53   1.0000      -4.028864      -109.6310   45-A'
  54   1.0000      -2.545515       -69.2670   46-A'
  55   1.0000      -2.541611       -69.1608   47-A'
  56   1.0000      -2.535641       -68.9983   10-A"
  57   1.0000      -1.758514       -47.8516   48-A'
  58   1.0000      -1.756892       -47.8075   49-A'
  59   1.0000      -1.755813       -47.7781   50-A'
  60   1.0000      -1.755116       -47.7591   11-A"
  61   1.0000      -1.754443       -47.7408   51-A'
  62   1.0000      -1.753660       -47.7195   12-A"
  63   1.0000      -1.751308       -47.6555   52-A'
  64   1.0000      -1.751076       -47.6492   13-A"
  65   1.0000      -1.750072       -47.6219   53-A'
  66   1.0000      -1.749475       -47.6056   14-A"
  67   1.0000      -1.731347       -47.1123   54-A'
  68   1.0000      -1.730907       -47.1004   55-A'
  69   1.0000      -1.728282       -47.0289   56-A'
  70   1.0000      -1.727800       -47.0158   15-A"
  71   1.0000      -1.727775       -47.0152   57-A'
  72   1.0000      -1.727352       -47.0036   16-A"
  73   1.0000      -1.723125       -46.8886   17-A"
  74   1.0000      -1.723077       -46.8873   58-A'
  75   1.0000      -1.722701       -46.8771   18-A"
  76   1.0000      -1.722621       -46.8749   59-A'
  77   1.0000      -0.612002       -16.6534   60-A'
  78   1.0000      -0.591613       -16.0986   61-A'
  79   1.0000      -0.532845       -14.4995   62-A'
  80   1.0000      -0.509309       -13.8590   63-A'
  81   1.0000      -0.504834       -13.7372   64-A'
  82   1.0000      -0.489240       -13.3129   65-A'
  83   1.0000      -0.421804       -11.4779   66-A'
  84   1.0000      -0.399940       -10.8829   67-A'
  85   1.0000      -0.399702       -10.8764   68-A'
  86   1.0000      -0.362853        -9.8737   69-A'
  87   1.0000      -0.325933        -8.8691   70-A'
  88   1.0000      -0.310909        -8.4603   71-A'
  89   1.0000      -0.301231        -8.1969   72-A'
  90   1.0000      -0.270862        -7.3705   73-A'
  91   1.0000      -0.238389        -6.4869   74-A'
  92   1.0000      -0.215756        -5.8710   75-A'
  93   1.0000      -0.208431        -5.6717   76-A'
  94   1.0000      -0.188052        -5.1172   77-A'
  95   1.0000      -0.180711        -4.9174   78-A'
  96   1.0000      -0.155327        -4.2267   79-A'
  97   1.0000      -0.151034        -4.1099   80-A'
  98   1.0000      -0.147947        -4.0258   81-A'
  99   1.0000      -0.141393        -3.8475   19-A"
 100   1.0000      -0.123941        -3.3726   82-A'
 101   1.0000      -0.120053        -3.2668   20-A"
 102   1.0000      -0.104816        -2.8522   83-A'
 103   1.0000      -0.090133        -2.4526   84-A'
 104   1.0000      -0.079505        -2.1634   85-A'
 105   1.0000      -0.065633        -1.7860   21-A"
 106   1.0000      -0.059280        -1.6131   86-A'
 107   1.0000      -0.056370        -1.5339   87-A'
 108   1.0000      -0.055613        -1.5133   22-A"
 109   1.0000      -0.043082        -1.1723   88-A'
 110   1.0000      -0.036878        -1.0035   23-A"
 111   1.0000      -0.035512        -0.9663   89-A'
 112   1.0000      -0.019514        -0.5310   24-A"
 113   1.0000      -0.016055        -0.4369   25-A"
 114   1.0000      -0.015553        -0.4232   26-A"
 115   1.0000      -0.014002        -0.3810   90-A'
 116   1.0000       0.014431         0.3927   91-A'
 117   1.0000       0.047284         1.2867   92-A'
 118   1.0000       0.057988         1.5779   27-A"
 119   1.0000       0.064514         1.7555   28-A"
 120   1.0000       0.065710         1.7881   93-A'
 121   1.0000       0.066989         1.8229   29-A"
 122   1.0000       0.104408         2.8411   30-A"
 123   0.0000       0.133422         3.6306   94-A'
 124   0.0000       0.179155         4.8750   95-A'
 125   0.0000       0.188720         5.1353   96-A'
 126   0.0000       0.194359         5.2888   97-A'
 127   0.0000       0.195584         5.3221   31-A"

MULLIKEN ATOMIC CHARGES AND SPIN POPULATIONS
--------------------------------------------
   0 Cu:    1.133777    0.194497
   1 Se:   -0.757225    0.191845
   2 C :    0.237366   -0.004385
   3 Se:   -0.894797    0.215788
   4 C :    0.126393   -0.002217
   5 Se:   -0.762563    0.194711
   6 C :    0.240478   -0.004801
   7 Se:   -0.865725    0.208955
   8 C :    0.151018   -0.002106
   9 C :   -0.108568   -0.003456
  10 C :   -0.119525   -0.003059
  11 C :   -0.166062   -0.001373
  12 H :    0.072477    0.002358
  13 C :   -0.148991   -0.001276
  14 H :    0.073430    0.002273
  15 H :    0.024124    0.001076
  16 H :    0.029212    0.000935
  17 C :   -0.094589   -0.000076
  18 C :   -0.094718   -0.000076
  19 C :   -0.163934    0.000042
  20 H :    0.106955    0.003352
  21 C :   -0.158282    0.000022
  22 H :    0.106219    0.003415
  23 H :    0.016258    0.001786
  24 H :    0.017273    0.001769
Sum of atomic charges         :   -2.0000000

LOEWDIN ATOMIC CHARGES AND SPIN POPULATIONS
-------------------------------------------
   0 Cu:   -0.531787    0.303858
   1 Se:   -0.209937    0.156614
   2 C :    0.002105    0.014190
   3 Se:   -0.264439    0.130468
   4 C :    0.098570    0.010145
   5 Se:   -0.214607    0.159578
   6 C :   -0.003013    0.014262
   7 Se:   -0.240475    0.130531
   8 C :    0.088046    0.010001
   9 C :    0.379114    0.004197
  10 C :    0.378824    0.004263
  11 C :    0.325337   -0.000376
  12 H :   -0.443093    0.009782
  13 C :    0.322416   -0.000405
  14 H :   -0.443003    0.009889
  15 H :   -0.411401    0.000018
  16 H :   -0.414389   -0.000038
  17 C :    0.367981    0.008991
  18 C :    0.366344    0.009055
  19 C :    0.318740    0.001096
  20 H :   -0.481646    0.010828
  21 C :    0.317552    0.001053
  22 H :   -0.479794    0.010907
  23 H :   -0.413326    0.000548
  24 H :   -0.414119    0.000548

  Mayer bond orders larger than 0.100000
B(  0-Cu,  1-Se) :   0.3732 B(  0-Cu,  3-Se) :   0.4552 B(  0-Cu,  5-Se) :   0.3641
B(  0-Cu,  7-Se) :   0.4672 B(  1-Se,  2-C ) :   1.0283 B(  2-C ,  6-C ) :   1.1344
B(  2-C , 17-C ) :   1.2549 B(  3-Se,  4-C ) :   1.0398 B(  3-Se,  7-Se) :   0.1650
B(  4-C ,  8-C ) :   1.1291 B(  4-C , 10-C ) :   1.2701 B(  5-Se,  6-C ) :   1.0287
B(  6-C , 18-C ) :   1.2534 B(  7-Se,  8-C ) :   1.0508 B(  8-C ,  9-C ) :   1.2574
B(  9-C , 13-C ) :   1.3857 B(  9-C , 14-H ) :   0.9643 B( 10-C , 11-C ) :   1.3833
B( 10-C , 12-H ) :   0.9645 B( 11-C , 13-C ) :   1.3112 B( 11-C , 15-H ) :   0.9956
B( 13-C , 16-H ) :   0.9914 B( 17-C , 19-C ) :   1.3758 B( 17-C , 20-H ) :   0.9551
B( 18-C , 21-C ) :   1.3765 B( 18-C , 22-H ) :   0.9560 B( 19-C , 21-C ) :   1.3095
B( 19-C , 23-H ) :   0.9992 B( 21-C , 24-H ) :   0.9981

FINAL SINGLE POINT ENERGY    -11627.081559938533

DIPOLE MOMENT
-------------
                                X             Y             Z
Electronic contribution:     -0.42831      -0.49784       0.00000
Nuclear contribution   :      0.13819      -0.63202       0.00000
                        -----------------------------------------
Total Dipole Moment    :     -0.29012      -1.12986       0.00000
                        -----------------------------------------
Magnitude (a.u.)       :      1.16652
Magnitude (Debye)      :      2.96505

Rotational constants in cm-1:     0.017632     0.004080     0.003313
Rotational constants in MHz :   528.581368   122.321721    99.334269

                             ****ORCA TERMINATED NORMALLY****
TOTAL RUN TIME: 0 days 17 hours 6 minutes 4 seconds 594 msec
