                         Program Version 5.0.4 -  RELEASE  -
|  1> ! RIJCOSX nofrozencore ReducedPop printbasis
|  2> ! M06L ano-rcc-dzp autoaux
|  3>
|  4> %maxcore 7500
|  5> %basis
|  6> PCDTrimBas overlap
|  7> PCDTrimAuxJ Coulomb
|  8> PCDTrimAuxJK Coulomb
|  9> PCDTrimAuxC Coulomb
| 10> PCDThresh -1
| 11> end
| 12>
| 13> %basis
| 14> newgto Cu "ano-rcc-tzp" end
| 15> newgto Se "ano-rcc-tzp" end
| 16> end
| 17>
| 18> %pal
| 19> nprocs 8
| 20> end
| 21>
| 22> % sym SymThresh 1e-2 end
| 23> * xyz -2 2
| 24> Cu -3.853783409206865e-06 -5.403215173905101e-05 0.00016738481093541042
| 25> Se 1.2563520714241714 -0.7751346339482026 1.852111340788987
| 26> C 0.13610371653950623 -0.999355412453929 3.0090505592656918
| 27> Se 1.8483455250352794 0.22448643361190582 -1.4625949766214381
| 28> C 1.222771642152241 0.7712894357589141 -2.8782771531789653
| 29> Se -1.8479890699528196 -0.22511653366822426 1.4643788902104933
| 30> C -1.1749778202568555 -0.7674179491396785 2.846389001680498
| 31> Se -1.257898668303269 0.7749454049668902 -1.850883252646305
| 32> C -0.1575645045701981 1.0141338411412144 -3.0454057272977137
| 33> C -0.5582798259579312 1.472606663185462 -4.2842339209052485
| 34> C 2.007473174774651 1.0212164221881446 -3.973596127304514
| 35> C 1.6202922760261262 1.4691210485733142 -5.18566757783045
| 36> H 3.0771582025189 0.8604171023383517 -3.9281190429693353
| 37> C 0.2663008646408271 1.7081814859741313 -5.352216941856781
| 38> H -1.6051180900372073 1.6737307840758668 -4.462993503382801
| 39> H 2.4654872544302995 1.5780819148900675 -5.8738282472993415
| 40> H -0.22658190564596242 2.0685008929538653 -6.2513204610430835
| 41> C 0.5644240877659713 -1.4694505566312415 4.271978459336926
| 42> C -2.0320648725665573 -1.0088647201088836 3.945997039847557
| 43> C -0.2739236518996868 -1.720637573534624 5.393623890175772
| 44> H 1.6495751106885284 -1.609048612355672 4.245934481413275
| 45> C -1.616728391351756 -1.4823065624519047 5.22462876383377
| 46> H -3.0585518304730885 -0.7700789815655162 3.643170440069575
| 47> H -0.17544204959517923 -2.085530135671639 6.471886329106861
| 48> H -2.078589439993618 -1.7499662614901468 6.239184619478591
| 49> *
| 50>
| 51> % eprnmr
| 52> gtensor true
| 53> Nuclei = all H {aiso,adip,aorb,fgrad,rho}
| 54> Nuclei = all Cu {aiso,adip,aorb,fgrad,rho}
| 55> end
| 56>
| 57>                          ****END OF INPUT****

CARTESIAN COORDINATES (ANGSTROEM)
---------------------------------
  Cu     0.000176   -0.000000    0.000000
  Se     1.974156    1.308540    0.000000
  C      3.167040    0.203657    0.000000
  Se    -1.498897    1.832831    0.000000
  C     -3.000786    1.170394    0.000000
  Se     1.500780   -1.832432    0.000000
  C      2.968265   -1.122871    0.000000
  Se    -1.972898   -1.310074    0.000000
  C     -3.205723   -0.226113    0.000000
  C     -4.516886   -0.657759    0.000000
  C     -4.135970    1.938053    0.000000
  C     -5.418710    1.520654    0.000000
  H     -4.065525    3.018418    0.000000
  C     -5.622482    0.150743    0.000000
  H     -4.727001   -1.718008    0.000000
  H     -6.124469    2.358328    0.000000
  H     -6.578357   -0.366416    0.000000
  C      4.504129    0.663688    0.000000
  C      4.106428   -1.963476    0.000000
  C      5.665862   -0.157522    0.000000
  H      4.499693    1.758083    0.000000
  C      5.459755   -1.516200    0.000000
  H      3.766281   -3.005924    0.000000
  H      6.801790   -0.034384    0.000000
  H      6.516841   -1.959878    0.000000

 Total Charge           Charge          ....   -2
 Multiplicity           Mult            ....    2
 Number of Electrons    NEL             ....  247
 Basis Dimension        Dim             ....  575

ORBITAL ENERGIES
----------------
                 SPIN UP ORBITALS
  NO   OCC          E(Eh)            E(eV)    Irrep
   0   1.0000    -443.565294    -12070.0253    1-A'
   1   1.0000    -443.560937    -12069.9067    2-A'
   2   1.0000    -443.549313    -12069.5904    3-A'
   3   1.0000    -443.547370    -12069.5376    4-A'
   4   1.0000    -318.188049     -8658.3370    5-A'
   5   1.0000     -56.373319     -1533.9960    6-A'
   6   1.0000     -56.370189     -1533.9108    7-A'
   7   1.0000     -56.358905     -1533.6038    8-A'
   8   1.0000     -56.357706     -1533.5711    9-A'
   9   1.0000     -51.288101     -1395.6202   10-A'
  10   1.0000     -51.287795     -1395.6119   11-A'
  11   1.0000     -51.286974     -1395.5895   12-A'
  12   1.0000     -51.286843     -1395.5859   13-A'
  13   1.0000     -51.286779     -1395.5842   14-A'
  14   1.0000     -51.286472     -1395.5759   15-A'
  15   1.0000     -51.286306     -1395.5713    1-A"
  16   1.0000     -51.285986     -1395.5626    2-A"
  17   1.0000     -51.285614     -1395.5525   16-A'
  18   1.0000     -51.285503     -1395.5495   17-A'
  19   1.0000     -51.285190     -1395.5410    3-A"
  20   1.0000     -51.285072     -1395.5378    4-A"
  21   1.0000     -38.028565     -1034.8099   18-A'
  22   1.0000     -33.530611      -912.4143   19-A'
  23   1.0000     -33.529859      -912.3938   20-A'
  24   1.0000     -33.518619      -912.0880    5-A"
  25   1.0000      -9.826661      -267.3970   21-A'
  26   1.0000      -9.825872      -267.3756   22-A'
  27   1.0000      -9.817676      -267.1526   23-A'
  28   1.0000      -9.816961      -267.1331   24-A'
  29   1.0000      -9.815697      -267.0987   25-A'
  30   1.0000      -9.813762      -267.0460   26-A'
  31   1.0000      -9.809902      -266.9410   27-A'
  32   1.0000      -9.809365      -266.9264   28-A'
  33   1.0000      -9.808911      -266.9140   29-A'
  34   1.0000      -9.808664      -266.9073   30-A'
  35   1.0000      -9.805390      -266.8182   31-A'
  36   1.0000      -9.801258      -266.7058   32-A'
  37   1.0000      -7.343446      -199.8253   33-A'
  38   1.0000      -7.341637      -199.7761   34-A'
  39   1.0000      -7.335379      -199.6058   35-A'
  40   1.0000      -7.334554      -199.5834   36-A'
  41   1.0000      -5.405687      -147.0962   37-A'
  42   1.0000      -5.405526      -147.0918   38-A'
  43   1.0000      -5.404785      -147.0717   39-A'
  44   1.0000      -5.404756      -147.0709   40-A'
  45   1.0000      -5.400367      -146.9514   41-A'
  46   1.0000      -5.400178      -146.9463   42-A'
  47   1.0000      -5.399857      -146.9376    6-A"
  48   1.0000      -5.399649      -146.9319    7-A"
  49   1.0000      -5.399495      -146.9277   43-A'
  50   1.0000      -5.399412      -146.9255   44-A'
  51   1.0000      -5.399115      -146.9174    8-A"
  52   1.0000      -5.399082      -146.9165    9-A"
  53   1.0000      -4.022862      -109.4676   45-A'
  54   1.0000      -2.542395       -69.1821   46-A'
  55   1.0000      -2.541551       -69.1591   47-A'
  56   1.0000      -2.517892       -68.5153   10-A"
  57   1.0000      -1.744852       -47.4798   48-A'
  58   1.0000      -1.744617       -47.4734   49-A'
  59   1.0000      -1.743725       -47.4492   50-A'
  60   1.0000      -1.743697       -47.4484   51-A'
  61   1.0000      -1.742070       -47.4041   52-A'
  62   1.0000      -1.741906       -47.3997   53-A'
  63   1.0000      -1.741225       -47.3811   11-A"
  64   1.0000      -1.741097       -47.3777   54-A'
  65   1.0000      -1.741018       -47.3755   55-A'
  66   1.0000      -1.741000       -47.3750   12-A"
  67   1.0000      -1.740349       -47.3573   13-A"
  68   1.0000      -1.740321       -47.3565   14-A"
  69   1.0000      -1.736839       -47.2618   56-A'
  70   1.0000      -1.736721       -47.2586   15-A"
  71   1.0000      -1.736591       -47.2551   57-A'
  72   1.0000      -1.736570       -47.2545   16-A"
  73   1.0000      -1.736048       -47.2403   58-A'
  74   1.0000      -1.735932       -47.2371   17-A"
  75   1.0000      -1.735924       -47.2369   59-A'
  76   1.0000      -1.735903       -47.2363   18-A"
  77   1.0000      -0.605376       -16.4731   60-A'
  78   1.0000      -0.604394       -16.4464   61-A'
  79   1.0000      -0.526248       -14.3199   62-A'
  80   1.0000      -0.521996       -14.2042   63-A'
  81   1.0000      -0.503233       -13.6937   64-A'
  82   1.0000      -0.496800       -13.5186   65-A'
  83   1.0000      -0.419223       -11.4076   66-A'
  84   1.0000      -0.398427       -10.8418   67-A'
  85   1.0000      -0.392960       -10.6930   68-A'
  86   1.0000      -0.378514       -10.2999   69-A'
  87   1.0000      -0.328431        -8.9370   70-A'
  88   1.0000      -0.318632        -8.6704   71-A'
  89   1.0000      -0.289534        -7.8786   72-A'
  90   1.0000      -0.271405        -7.3853   73-A'
  91   1.0000      -0.238838        -6.4991   74-A'
  92   1.0000      -0.226327        -6.1587   75-A'
  93   1.0000      -0.202317        -5.5053   76-A'
  94   1.0000      -0.186484        -5.0745   77-A'
  95   1.0000      -0.167872        -4.5680   78-A'
  96   1.0000      -0.160058        -4.3554   79-A'
  97   1.0000      -0.137842        -3.7509   80-A'
  98   1.0000      -0.136337        -3.7099   81-A'
  99   1.0000      -0.133371        -3.6292   82-A'
 100   1.0000      -0.132555        -3.6070   19-A"
 101   1.0000      -0.132145        -3.5958   20-A"
 102   1.0000      -0.108981        -2.9655   83-A'
 103   1.0000      -0.077944        -2.1210   84-A'
 104   1.0000      -0.071080        -1.9342   85-A'
 105   1.0000      -0.065102        -1.7715   86-A'
 106   1.0000      -0.061317        -1.6685   87-A'
 107   1.0000      -0.051473        -1.4007   21-A"
 108   1.0000      -0.048929        -1.3314   22-A"
 109   1.0000      -0.034833        -0.9479   23-A"
 110   1.0000      -0.030967        -0.8427   88-A'
 111   1.0000      -0.030627        -0.8334   89-A'
 112   1.0000      -0.026571        -0.7230   24-A"
 113   1.0000      -0.002316        -0.0630   25-A"
 114   1.0000      -0.002151        -0.0585   26-A"
 115   1.0000      -0.000597        -0.0163   90-A'
 116   1.0000       0.017224         0.4687   91-A'
 117   1.0000       0.020195         0.5495   92-A'
 118   1.0000       0.039732         1.0812   93-A'
 119   1.0000       0.053325         1.4511   27-A"
 120   1.0000       0.058450         1.5905   28-A"
 121   1.0000       0.068469         1.8631   29-A"
 122   1.0000       0.097594         2.6557   30-A"
 123   1.0000       0.115297         3.1374   94-A'
 124   0.0000       0.178781         4.8649   95-A'
 125   0.0000       0.182087         4.9548   96-A'
 126   0.0000       0.189971         5.1694   31-A"
 127   0.0000       0.194238         5.2855   97-A'
 128   0.0000       0.200935         5.4677   98-A'

                 SPIN DOWN ORBITALS
  NO   OCC          E(Eh)            E(eV)    Irrep
   0   1.0000    -443.564843    -12070.0130    1-A'
   1   1.0000    -443.560483    -12069.8944    2-A'
   2   1.0000    -443.548862    -12069.5781    3-A'
   3   1.0000    -443.546916    -12069.5252    4-A'
   4   1.0000    -318.187926     -8658.3337    5-A'
   5   1.0000     -56.373135     -1533.9910    6-A'
   6   1.0000     -56.370005     -1533.9058    7-A'
   7   1.0000     -56.358724     -1533.5988    8-A'
   8   1.0000     -56.357524     -1533.5662    9-A'
   9   1.0000     -51.287775     -1395.6113   10-A'
  10   1.0000     -51.287465     -1395.6029   11-A'
  11   1.0000     -51.286651     -1395.5807   12-A'
  12   1.0000     -51.286513     -1395.5770   13-A'
  13   1.0000     -51.286057     -1395.5646    1-A"
  14   1.0000     -51.286052     -1395.5644   14-A'
  15   1.0000     -51.285741     -1395.5559   15-A'
  16   1.0000     -51.285735     -1395.5558    2-A"
  17   1.0000     -51.284940     -1395.5342    3-A"
  18   1.0000     -51.284881     -1395.5326   16-A'
  19   1.0000     -51.284820     -1395.5309    4-A"
  20   1.0000     -51.284769     -1395.5295   17-A'
  21   1.0000     -38.014651     -1034.4312   18-A'
  22   1.0000     -33.517391      -912.0546   19-A'
  23   1.0000     -33.516636      -912.0340   20-A'
  24   1.0000     -33.514733      -911.9823    5-A"
  25   1.0000      -9.826602      -267.3954   21-A'
  26   1.0000      -9.825814      -267.3740   22-A'
  27   1.0000      -9.817527      -267.1485   23-A'
  28   1.0000      -9.816814      -267.1291   24-A'
  29   1.0000      -9.815645      -267.0973   25-A'
  30   1.0000      -9.813714      -267.0447   26-A'
  31   1.0000      -9.809909      -266.9412   27-A'
  32   1.0000      -9.809401      -266.9274   28-A'
  33   1.0000      -9.808924      -266.9144   29-A'
  34   1.0000      -9.808699      -266.9083   30-A'
  35   1.0000      -9.805279      -266.8152   31-A'
  36   1.0000      -9.801149      -266.7028   32-A'
  37   1.0000      -7.343049      -199.8145   33-A'
  38   1.0000      -7.341236      -199.7652   34-A'
  39   1.0000      -7.334975      -199.5948   35-A'
  40   1.0000      -7.334145      -199.5722   36-A'
  41   1.0000      -5.405324      -147.0863   37-A'
  42   1.0000      -5.405158      -147.0818   38-A'
  43   1.0000      -5.404422      -147.0618   39-A'
  44   1.0000      -5.404387      -147.0609   40-A'
  45   1.0000      -5.399551      -146.9293   41-A'
  46   1.0000      -5.399549      -146.9292    6-A"
  47   1.0000      -5.399355      -146.9239   42-A'
  48   1.0000      -5.399338      -146.9235    7-A"
  49   1.0000      -5.398799      -146.9088    8-A"
  50   1.0000      -5.398767      -146.9079    9-A"
  51   1.0000      -5.398668      -146.9052   43-A'
  52   1.0000      -5.398589      -146.9031   44-A'
  53   1.0000      -3.994574      -108.6979   45-A'
  54   1.0000      -2.507548       -68.2339   10-A"
  55   1.0000      -2.507083       -68.2212   46-A'
  56   1.0000      -2.506163       -68.1962   47-A'
  57   1.0000      -1.744408       -47.4678   48-A'
  58   1.0000      -1.744164       -47.4611   49-A'
  59   1.0000      -1.743274       -47.4369   50-A'
  60   1.0000      -1.743245       -47.4361   51-A'
  61   1.0000      -1.741175       -47.3798   52-A'
  62   1.0000      -1.741006       -47.3752   53-A'
  63   1.0000      -1.740921       -47.3729   11-A"
  64   1.0000      -1.740694       -47.3667   12-A"
  65   1.0000      -1.740199       -47.3532   54-A'
  66   1.0000      -1.740119       -47.3510   55-A'
  67   1.0000      -1.740037       -47.3488   13-A"
  68   1.0000      -1.740012       -47.3481   14-A"
  69   1.0000      -1.736054       -47.2404   56-A'
  70   1.0000      -1.735961       -47.2379   15-A"
  71   1.0000      -1.735801       -47.2336   16-A"
  72   1.0000      -1.735798       -47.2335   57-A'
  73   1.0000      -1.735244       -47.2184   58-A'
  74   1.0000      -1.735157       -47.2160   17-A"
  75   1.0000      -1.735130       -47.2153   18-A"
  76   1.0000      -1.735123       -47.2151   59-A'
  77   1.0000      -0.604626       -16.4527   60-A'
  78   1.0000      -0.603503       -16.4221   61-A'
  79   1.0000      -0.525386       -14.2965   62-A'
  80   1.0000      -0.520728       -14.1697   63-A'
  81   1.0000      -0.501725       -13.6526   64-A'
  82   1.0000      -0.494709       -13.4617   65-A'
  83   1.0000      -0.416440       -11.3319   66-A'
  84   1.0000      -0.395806       -10.7704   67-A'
  85   1.0000      -0.390825       -10.6349   68-A'
  86   1.0000      -0.375970       -10.2307   69-A'
  87   1.0000      -0.326113        -8.8740   70-A'
  88   1.0000      -0.317060        -8.6276   71-A'
  89   1.0000      -0.286864        -7.8060   72-A'
  90   1.0000      -0.268968        -7.3190   73-A'
  91   1.0000      -0.237575        -6.4647   74-A'
  92   1.0000      -0.225209        -6.1283   75-A'
  93   1.0000      -0.200882        -5.4663   76-A'
  94   1.0000      -0.185507        -5.0479   77-A'
  95   1.0000      -0.166564        -4.5324   78-A'
  96   1.0000      -0.158004        -4.2995   79-A'
  97   1.0000      -0.136163        -3.7052   80-A'
  98   1.0000      -0.134505        -3.6601   81-A'
  99   1.0000      -0.132132        -3.5955   19-A"
 100   1.0000      -0.132058        -3.5935   82-A'
 101   1.0000      -0.131777        -3.5858   20-A"
 102   1.0000      -0.107036        -2.9126   83-A'
 103   1.0000      -0.076524        -2.0823   84-A'
 104   1.0000      -0.069468        -1.8903   85-A'
 105   1.0000      -0.059466        -1.6182   86-A'
 106   1.0000      -0.053638        -1.4596   87-A'
 107   1.0000      -0.050772        -1.3816   21-A"
 108   1.0000      -0.048009        -1.3064   22-A"
 109   1.0000      -0.032720        -0.8904   23-A"
 110   1.0000      -0.025063        -0.6820   24-A"
 111   1.0000      -0.024429        -0.6648   88-A'
 112   1.0000      -0.003204        -0.0872   89-A'
 113   1.0000       0.007410         0.2016   25-A"
 114   1.0000       0.008933         0.2431   26-A"
 115   1.0000       0.009661         0.2629   90-A'
 116   1.0000       0.027522         0.7489   91-A'
 117   1.0000       0.031150         0.8476   92-A'
 118   1.0000       0.050995         1.3876   93-A'
 119   1.0000       0.055907         1.5213   27-A"
 120   1.0000       0.061242         1.6665   28-A"
 121   1.0000       0.070240         1.9113   29-A"
 122   1.0000       0.100865         2.7447   30-A"
 123   0.0000       0.145172         3.9503   94-A'
 124   0.0000       0.179929         4.8961   95-A'
 125   0.0000       0.184360         5.0167   96-A'
 126   0.0000       0.190210         5.1759   31-A"
 127   0.0000       0.198093         5.3904   97-A'

MULLIKEN ATOMIC CHARGES AND SPIN POPULATIONS
--------------------------------------------
   0 Cu:    0.636843    0.310660
   1 Se:   -0.718243    0.172162
   2 C :    0.270935   -0.004353
   3 Se:   -0.745857    0.172883
   4 C :    0.194823   -0.002886
   5 Se:   -0.718658    0.173619
   6 C :    0.277905   -0.004242
   7 Se:   -0.732681    0.174277
   8 C :    0.206494   -0.002488
   9 C :   -0.071609   -0.002054
  10 C :   -0.033301   -0.001841
  11 C :   -0.160847   -0.001146
  12 H :    0.083649    0.002944
  13 C :   -0.172362   -0.000901
  14 H :    0.085572    0.003111
  15 H :    0.011466    0.002019
  16 H :    0.020791    0.001838
  17 C :   -0.195745    0.000004
  18 C :   -0.199029    0.000052
  19 C :   -0.098589    0.000016
  20 H :    0.093650    0.001646
  21 C :   -0.101172    0.000092
  22 H :    0.092244    0.001621
  23 H :   -0.012289    0.001486
  24 H :   -0.013990    0.001482
Sum of atomic charges         :   -2.0000000

LOEWDIN ATOMIC CHARGES AND SPIN POPULATIONS
-------------------------------------------
   0 Cu:   -0.609900    0.391086
   1 Se:   -0.190344    0.119918
   2 C :    0.026970    0.010363
   3 Se:   -0.202383    0.124222
   4 C :    0.041004    0.012664
   5 Se:   -0.190366    0.120891
   6 C :    0.030618    0.010241
   7 Se:   -0.204718    0.125026
   8 C :    0.044620    0.012350
   9 C :    0.362486    0.006909
  10 C :    0.349573    0.006637
  11 C :    0.315370    0.000382
  12 H :   -0.445908    0.008106
  13 C :    0.320606    0.000463
  14 H :   -0.447967    0.008708
  15 H :   -0.399777    0.000403
  16 H :   -0.414364    0.000404
  17 C :    0.387651    0.007186
  18 C :    0.387501    0.007302
  19 C :    0.296148    0.000676
  20 H :   -0.486606    0.011892
  21 C :    0.295647    0.000728
  22 H :   -0.487444    0.012290
  23 H :   -0.389467    0.000575
  24 H :   -0.388950    0.000576

  Mayer bond orders larger than 0.100000
B(  0-Cu,  1-Se) :   0.5480 B(  0-Cu,  3-Se) :   0.5542 B(  0-Cu,  5-Se) :   0.5482
B(  0-Cu,  7-Se) :   0.5525 B(  1-Se,  2-C ) :   1.0459 B(  2-C ,  6-C ) :   1.1057
B(  2-C , 17-C ) :   1.2646 B(  3-Se,  4-C ) :   1.0406 B(  4-C ,  8-C ) :   1.1401
B(  4-C , 10-C ) :   1.2530 B(  5-Se,  6-C ) :   1.0401 B(  6-C , 18-C ) :   1.2666
B(  7-Se,  8-C ) :   1.0410 B(  8-C ,  9-C ) :   1.2600 B(  9-C , 13-C ) :   1.3748
B(  9-C , 14-H ) :   0.9630 B( 10-C , 11-C ) :   1.3615 B( 10-C , 12-H ) :   0.9615
B( 11-C , 13-C ) :   1.3177 B( 11-C , 15-H ) :   0.9976 B( 13-C , 16-H ) :   0.9961
B( 17-C , 19-C ) :   1.3736 B( 17-C , 20-H ) :   0.9587 B( 18-C , 21-C ) :   1.3741
B( 18-C , 22-H ) :   0.9593 B( 19-C , 21-C ) :   1.3027 B( 19-C , 23-H ) :   0.9961
B( 21-C , 24-H ) :   0.9963

FINAL SINGLE POINT ENERGY    -11627.100801331155

DIPOLE MOMENT
-------------
                                X             Y             Z
Electronic contribution:     -0.23633      -0.03330      -0.00000
Nuclear contribution   :      0.05050       0.05879       0.00000
                        -----------------------------------------
Total Dipole Moment    :     -0.18583       0.02549      -0.00000
                        -----------------------------------------
Magnitude (a.u.)       :      0.18757
Magnitude (Debye)      :      0.47677

Rotational constants in cm-1:     0.017642     0.004096     0.003324
Rotational constants in MHz :   528.884660   122.790817    99.654171

                             ****ORCA TERMINATED NORMALLY****
TOTAL RUN TIME: 0 days 16 hours 57 minutes 20 seconds 431 msec
