                         Program Version 5.0.4 -  RELEASE  -
|  1> ! RIJCOSX nofrozencore ReducedPop printbasis
|  2> ! M06L ano-rcc-dzp autoaux
|  3>
|  4> %maxcore 7500
|  5> %basis
|  6> PCDTrimBas overlap
|  7> PCDTrimAuxJ Coulomb
|  8> PCDTrimAuxJK Coulomb
|  9> PCDTrimAuxC Coulomb
| 10> PCDThresh -1
| 11> end
| 12>
| 13> %basis
| 14> newgto Cu "ano-rcc-tzp" end
| 15> newgto Se "ano-rcc-tzp" end
| 16> end
| 17>
| 18> %pal
| 19> nprocs 8
| 20> end
| 21>
| 22> % sym SymThresh 1e-2 end
| 23> * xyz -2 2
| 24> Cu -8.987929221741492e-05 7.758334892668725e-05 -0.00012106005451765016
| 25> Se 1.7956304362174333 -1.4875866050792104 -0.4147553504073212
| 26> C 1.9000363934554088 -1.5386179899118564 -2.0493157019943418
| 27> Se 0.1134128616974389 -0.1465573060502505 2.3624665608219497
| 28> C -1.104423468472091 0.8577298548977315 2.853881791549747
| 29> Se -0.11242978045376656 0.14570287384886776 -2.3608771625453744
| 30> C 1.0786378918258792 -0.835442067475115 -2.8899664971994623
| 31> Se -1.79425494257773 1.48642710867499 0.415344562029522
| 32> C -1.9234872553520548 1.5586371395641765 2.027879428332568
| 33> C -2.8643563640814067 2.3281893981581536 2.695180226102017
| 34> C -1.2415844400271894 0.9405138772613647 4.286352687311108
| 35> C -2.2749427724788505 1.7895631965150183 4.8444801174412095
| 36> H -0.47616724927688425 0.2920681152559165 4.7606339938856825
| 37> C -3.134429674183694 2.5245671087707953 4.000196674609058
| 38> H -3.539766830421911 2.904717204227565 2.079862632849155
| 39> H -2.5799249647224642 2.020423092073603 5.9049827821691006
| 40> H -3.9716884563322763 3.2185128224124466 4.179042911431229
| 41> C 2.8933673179658084 -2.3538039109584603 -2.6301112126645902
| 42> C 1.3020705549275293 -0.9915215172979265 -4.259542925149474
| 43> C 3.1050943073131174 -2.500011255213989 -4.004910968157974
| 44> H 3.495082493765467 -2.8716784162039954 -1.888810617687034
| 45> C 2.2652912375960224 -1.781076671050282 -4.864535476075298
| 46> H 0.6309212365983298 -0.4183324477330043 -4.884536636021471
| 47> H 3.865247991911204 -3.1230289483956635 -4.4861174442153295
| 48> H 2.3820001212402175 -1.8546223818253158 -5.942380120359028
| 49> *
| 50>
| 51> % eprnmr
| 52> gtensor true
| 53> Nuclei = all H {aiso,adip,aorb,fgrad,rho}
| 54> Nuclei = all Cu {aiso,adip,aorb,fgrad,rho}
| 55> end
| 56>
| 57>                          ****END OF INPUT****

CARTESIAN COORDINATES (ANGSTROEM)
---------------------------------
  Cu    -0.000122   -0.000118    0.000000
  Se    -0.398369    2.334636    0.000000
  C     -2.032328    2.459029    0.000000
  Se     2.364021    0.164297    0.000000
  C      2.844369   -1.417624    0.000000
  Se    -2.362422   -0.163006    0.000000
  C     -2.880698    1.383802    0.000000
  Se     0.398972   -2.332841    0.000000
  C      2.010672   -2.489708    0.000000
  C      2.669485   -3.709832    0.000000
  C      4.275893   -1.586082    0.000000
  C      4.824660   -2.927378    0.000000
  H      4.757301   -0.586315    0.000000
  C      3.972307   -4.052214    0.000000
  H      2.047836   -4.593422    0.000000
  H      5.882595   -3.316929    0.000000
  H      4.143510   -5.140901    0.000000
  C     -2.604135    3.748057    0.000000
  C     -4.248522    1.665012    0.000000
  C     -3.977291    4.013992    0.000000
  H     -1.857152    4.536599    0.000000
  C     -4.844808    2.914672    0.000000
  H     -4.879810    0.786901    0.000000
  H     -4.451627    5.000171    0.000000
  H     -5.921817    3.059006    0.000000

 Total Charge           Charge          ....   -2
 Multiplicity           Mult            ....    2
 Number of Electrons    NEL             ....  247
 Basis Dimension        Dim             ....  575

ORBITAL ENERGIES
----------------
                 SPIN UP ORBITALS
  NO   OCC          E(Eh)            E(eV)    Irrep
   0   1.0000    -443.563273    -12069.9703    1-A'
   1   1.0000    -443.562055    -12069.9371    2-A'
   2   1.0000    -443.547486    -12069.5407    3-A'
   3   1.0000    -443.546236    -12069.5067    4-A'
   4   1.0000    -318.187470     -8658.3212    5-A'
   5   1.0000     -56.371354     -1533.9425    6-A'
   6   1.0000     -56.370967     -1533.9320    7-A'
   7   1.0000     -56.357579     -1533.5677    8-A'
   8   1.0000     -56.357179     -1533.5568    9-A'
   9   1.0000     -51.288335     -1395.6266   10-A'
  10   1.0000     -51.286957     -1395.5891   11-A'
  11   1.0000     -51.286839     -1395.5858   12-A'
  12   1.0000     -51.286620     -1395.5799   13-A'
  13   1.0000     -51.286559     -1395.5782    1-A"
  14   1.0000     -51.285575     -1395.5514   14-A'
  15   1.0000     -51.285502     -1395.5495   15-A'
  16   1.0000     -51.285299     -1395.5439   16-A'
  17   1.0000     -51.285066     -1395.5376    2-A"
  18   1.0000     -51.284827     -1395.5311    3-A"
  19   1.0000     -51.284296     -1395.5166   17-A'
  20   1.0000     -51.283769     -1395.5023    4-A"
  21   1.0000     -38.027966     -1034.7936   18-A'
  22   1.0000     -33.529997      -912.3976   19-A'
  23   1.0000     -33.529254      -912.3774   20-A'
  24   1.0000     -33.518040      -912.0722    5-A"
  25   1.0000      -9.834406      -267.6078   21-A'
  26   1.0000      -9.827269      -267.4136   22-A'
  27   1.0000      -9.821299      -267.2511   23-A'
  28   1.0000      -9.818066      -267.1632   24-A'
  29   1.0000      -9.817769      -267.1551   25-A'
  30   1.0000      -9.812933      -267.0235   26-A'
  31   1.0000      -9.811496      -266.9844   27-A'
  32   1.0000      -9.808995      -266.9163   28-A'
  33   1.0000      -9.808502      -266.9029   29-A'
  34   1.0000      -9.807535      -266.8766   30-A'
  35   1.0000      -9.806328      -266.8437   31-A'
  36   1.0000      -9.801700      -266.7178   32-A'
  37   1.0000      -7.342269      -199.7933   33-A'
  38   1.0000      -7.341859      -199.7821   34-A'
  39   1.0000      -7.334364      -199.5782   35-A'
  40   1.0000      -7.334246      -199.5750   36-A'
  41   1.0000      -5.405569      -147.0930   37-A'
  42   1.0000      -5.404555      -147.0654   38-A'
  43   1.0000      -5.404473      -147.0632   39-A'
  44   1.0000      -5.404238      -147.0568   40-A'
  45   1.0000      -5.400092      -146.9440   41-A'
  46   1.0000      -5.399821      -146.9366    6-A"
  47   1.0000      -5.399281      -146.9219   42-A'
  48   1.0000      -5.399153      -146.9184   43-A'
  49   1.0000      -5.399077      -146.9164   44-A'
  50   1.0000      -5.398818      -146.9093    7-A"
  51   1.0000      -5.398780      -146.9083    8-A"
  52   1.0000      -5.398445      -146.8992    9-A"
  53   1.0000      -4.022229      -109.4504   45-A'
  54   1.0000      -2.541729       -69.1640   46-A'
  55   1.0000      -2.540898       -69.1413   47-A'
  56   1.0000      -2.517301       -68.4993   10-A"
  57   1.0000      -1.744819       -47.4789   48-A'
  58   1.0000      -1.743605       -47.4459   49-A'
  59   1.0000      -1.743557       -47.4446   50-A'
  60   1.0000      -1.743103       -47.4323   51-A'
  61   1.0000      -1.741793       -47.3966   52-A'
  62   1.0000      -1.741163       -47.3795   11-A"
  63   1.0000      -1.740899       -47.3723   53-A'
  64   1.0000      -1.740747       -47.3681   54-A'
  65   1.0000      -1.740629       -47.3649   55-A'
  66   1.0000      -1.740112       -47.3508   12-A"
  67   1.0000      -1.740056       -47.3493   13-A"
  68   1.0000      -1.739735       -47.3406   14-A"
  69   1.0000      -1.736636       -47.2563   56-A'
  70   1.0000      -1.736580       -47.2547   15-A"
  71   1.0000      -1.735767       -47.2326   57-A'
  72   1.0000      -1.735709       -47.2310   16-A"
  73   1.0000      -1.735644       -47.2293   17-A"
  74   1.0000      -1.735639       -47.2291   58-A'
  75   1.0000      -1.735471       -47.2246   18-A"
  76   1.0000      -1.735469       -47.2245   59-A'
  77   1.0000      -0.602686       -16.3999   60-A'
  78   1.0000      -0.601691       -16.3728   61-A'
  79   1.0000      -0.523695       -14.2505   62-A'
  80   1.0000      -0.520816       -14.1721   63-A'
  81   1.0000      -0.497945       -13.5498   64-A'
  82   1.0000      -0.495978       -13.4962   65-A'
  83   1.0000      -0.409776       -11.1506   66-A'
  84   1.0000      -0.408617       -11.1190   67-A'
  85   1.0000      -0.384483       -10.4623   68-A'
  86   1.0000      -0.379600       -10.3295   69-A'
  87   1.0000      -0.327207        -8.9038   70-A'
  88   1.0000      -0.322081        -8.7643   71-A'
  89   1.0000      -0.284826        -7.7505   72-A'
  90   1.0000      -0.280509        -7.6330   73-A'
  91   1.0000      -0.229889        -6.2556   74-A'
  92   1.0000      -0.222356        -6.0506   75-A'
  93   1.0000      -0.198088        -5.3902   76-A'
  94   1.0000      -0.196705        -5.3526   77-A'
  95   1.0000      -0.169218        -4.6047   78-A'
  96   1.0000      -0.162329        -4.4172   79-A'
  97   1.0000      -0.144697        -3.9374   80-A'
  98   1.0000      -0.140126        -3.8130   81-A'
  99   1.0000      -0.134526        -3.6606   82-A'
 100   1.0000      -0.131082        -3.5669   19-A"
 101   1.0000      -0.130227        -3.5437   20-A"
 102   1.0000      -0.106613        -2.9011   83-A'
 103   1.0000      -0.077562        -2.1106   84-A'
 104   1.0000      -0.069277        -1.8851   85-A'
 105   1.0000      -0.062850        -1.7102   86-A'
 106   1.0000      -0.060228        -1.6389   87-A'
 107   1.0000      -0.049614        -1.3501   21-A"
 108   1.0000      -0.048043        -1.3073   22-A"
 109   1.0000      -0.032294        -0.8788   23-A"
 110   1.0000      -0.031299        -0.8517   88-A'
 111   1.0000      -0.029167        -0.7937   89-A'
 112   1.0000      -0.025230        -0.6865   24-A"
 113   1.0000      -0.001771        -0.0482   25-A"
 114   1.0000      -0.001351        -0.0368   26-A"
 115   1.0000      -0.000172        -0.0047   90-A'
 116   1.0000       0.018244         0.4964   91-A'
 117   1.0000       0.019894         0.5414   92-A'
 118   1.0000       0.040201         1.0939   93-A'
 119   1.0000       0.054841         1.4923   27-A"
 120   1.0000       0.055911         1.5214   28-A"
 121   1.0000       0.069515         1.8916   29-A"
 122   1.0000       0.098593         2.6828   30-A"
 123   1.0000       0.116158         3.1608   94-A'
 124   0.0000       0.180920         4.9231   95-A'
 125   0.0000       0.181713         4.9447   96-A'
 126   0.0000       0.194275         5.2865   31-A"
 127   0.0000       0.197242         5.3672   97-A'
 128   0.0000       0.197728         5.3804   98-A'

                 SPIN DOWN ORBITALS
  NO   OCC          E(Eh)            E(eV)    Irrep
   0   1.0000    -443.562825    -12069.9581    1-A'
   1   1.0000    -443.561603    -12069.9248    2-A'
   2   1.0000    -443.547030    -12069.5283    3-A'
   3   1.0000    -443.545776    -12069.4942    4-A'
   4   1.0000    -318.187347     -8658.3179    5-A'
   5   1.0000     -56.371172     -1533.9376    6-A'
   6   1.0000     -56.370784     -1533.9270    7-A'
   7   1.0000     -56.357397     -1533.5627    8-A'
   8   1.0000     -56.356996     -1533.5518    9-A'
   9   1.0000     -51.288019     -1395.6179   10-A'
  10   1.0000     -51.286521     -1395.5772   11-A'
  11   1.0000     -51.286315     -1395.5716    1-A"
  12   1.0000     -51.286281     -1395.5706   12-A'
  13   1.0000     -51.286247     -1395.5697   13-A'
  14   1.0000     -51.285235     -1395.5422   14-A'
  15   1.0000     -51.284820     -1395.5309    2-A"
  16   1.0000     -51.284781     -1395.5298   15-A'
  17   1.0000     -51.284571     -1395.5241    3-A"
  18   1.0000     -51.284553     -1395.5236   16-A'
  19   1.0000     -51.283547     -1395.4963   17-A'
  20   1.0000     -51.283512     -1395.4953    4-A"
  21   1.0000     -38.014076     -1034.4156   18-A'
  22   1.0000     -33.516798      -912.0385   19-A'
  23   1.0000     -33.516054      -912.0182   20-A'
  24   1.0000     -33.514159      -911.9666    5-A"
  25   1.0000      -9.834332      -267.6058   21-A'
  26   1.0000      -9.827108      -267.4092   22-A'
  27   1.0000      -9.821243      -267.2496   23-A'
  28   1.0000      -9.818019      -267.1619   24-A'
  29   1.0000      -9.817726      -267.1539   25-A'
  30   1.0000      -9.812798      -267.0198   26-A'
  31   1.0000      -9.811505      -266.9846   27-A'
  32   1.0000      -9.809017      -266.9169   28-A'
  33   1.0000      -9.808383      -266.8997   29-A'
  34   1.0000      -9.807556      -266.8772   30-A'
  35   1.0000      -9.806376      -266.8451   31-A'
  36   1.0000      -9.801570      -266.7143   32-A'
  37   1.0000      -7.341874      -199.7825   33-A'
  38   1.0000      -7.341459      -199.7712   34-A'
  39   1.0000      -7.333954      -199.5670   35-A'
  40   1.0000      -7.333837      -199.5639   36-A'
  41   1.0000      -5.405218      -147.0835   37-A'
  42   1.0000      -5.404177      -147.0551   38-A'
  43   1.0000      -5.404116      -147.0535   39-A'
  44   1.0000      -5.403854      -147.0464   40-A'
  45   1.0000      -5.399512      -146.9282    6-A"
  46   1.0000      -5.399286      -146.9220   41-A'
  47   1.0000      -5.398499      -146.9006    7-A"
  48   1.0000      -5.398470      -146.8998    8-A"
  49   1.0000      -5.398440      -146.8990   42-A'
  50   1.0000      -5.398342      -146.8964   43-A'
  51   1.0000      -5.398240      -146.8936   44-A'
  52   1.0000      -5.398129      -146.8906    9-A"
  53   1.0000      -3.994006      -108.6824   45-A'
  54   1.0000      -2.506975       -68.2183   10-A"
  55   1.0000      -2.506494       -68.2052   46-A'
  56   1.0000      -2.505592       -68.1806   47-A'
  57   1.0000      -1.744389       -47.4672   48-A'
  58   1.0000      -1.743166       -47.4340   49-A'
  59   1.0000      -1.743088       -47.4318   50-A'
  60   1.0000      -1.742625       -47.4192   51-A'
  61   1.0000      -1.740919       -47.3728   52-A'
  62   1.0000      -1.740859       -47.3712   11-A"
  63   1.0000      -1.739985       -47.3474   53-A'
  64   1.0000      -1.739862       -47.3440   54-A'
  65   1.0000      -1.739787       -47.3420   12-A"
  66   1.0000      -1.739753       -47.3411   13-A"
  67   1.0000      -1.739712       -47.3400   55-A'
  68   1.0000      -1.739413       -47.3318   14-A"
  69   1.0000      -1.735844       -47.2347   56-A'
  70   1.0000      -1.735823       -47.2342   15-A"
  71   1.0000      -1.734949       -47.2104   57-A'
  72   1.0000      -1.734926       -47.2097   16-A"
  73   1.0000      -1.734888       -47.2087   17-A"
  74   1.0000      -1.734851       -47.2077   58-A'
  75   1.0000      -1.734698       -47.2035   18-A"
  76   1.0000      -1.734667       -47.2027   59-A'
  77   1.0000      -0.601832       -16.3767   60-A'
  78   1.0000      -0.600839       -16.3497   61-A'
  79   1.0000      -0.522675       -14.2227   62-A'
  80   1.0000      -0.519785       -14.1441   63-A'
  81   1.0000      -0.496126       -13.5003   64-A'
  82   1.0000      -0.494089       -13.4448   65-A'
  83   1.0000      -0.407214       -11.0808   66-A'
  84   1.0000      -0.406011       -11.0481   67-A'
  85   1.0000      -0.382031       -10.3956   68-A'
  86   1.0000      -0.377284       -10.2664   69-A'
  87   1.0000      -0.325270        -8.8510   70-A'
  88   1.0000      -0.320039        -8.7087   71-A'
  89   1.0000      -0.282448        -7.6858   72-A'
  90   1.0000      -0.277869        -7.5612   73-A'
  91   1.0000      -0.228689        -6.2229   74-A'
  92   1.0000      -0.221275        -6.0212   75-A'
  93   1.0000      -0.196909        -5.3582   76-A'
  94   1.0000      -0.195577        -5.3219   77-A'
  95   1.0000      -0.167568        -4.5597   78-A'
  96   1.0000      -0.160041        -4.3549   79-A'
  97   1.0000      -0.143621        -3.9081   80-A'
  98   1.0000      -0.139008        -3.7826   81-A'
  99   1.0000      -0.132400        -3.6028   82-A'
 100   1.0000      -0.130679        -3.5560   19-A"
 101   1.0000      -0.129813        -3.5324   20-A"
 102   1.0000      -0.104366        -2.8399   83-A'
 103   1.0000      -0.076149        -2.0721   84-A'
 104   1.0000      -0.067157        -1.8274   85-A'
 105   1.0000      -0.058568        -1.5937   86-A'
 106   1.0000      -0.051629        -1.4049   87-A'
 107   1.0000      -0.048760        -1.3268   21-A"
 108   1.0000      -0.047337        -1.2881   22-A"
 109   1.0000      -0.029652        -0.8069   23-A"
 110   1.0000      -0.024171        -0.6577   24-A"
 111   1.0000      -0.023911        -0.6507   88-A'
 112   1.0000      -0.002816        -0.0766   89-A'
 113   1.0000       0.008030         0.2185   25-A"
 114   1.0000       0.009547         0.2598   26-A"
 115   1.0000       0.010046         0.2734   90-A'
 116   1.0000       0.028143         0.7658   91-A'
 117   1.0000       0.031370         0.8536   92-A'
 118   1.0000       0.051421         1.3992   93-A'
 119   1.0000       0.056692         1.5427   27-A"
 120   1.0000       0.059440         1.6174   28-A"
 121   1.0000       0.071269         1.9393   29-A"
 122   1.0000       0.101857         2.7717   30-A"
 123   0.0000       0.145942         3.9713   94-A'
 124   0.0000       0.182950         4.9783   95-A'
 125   0.0000       0.183438         4.9916   96-A'
 126   0.0000       0.194458         5.2915   31-A"
 127   0.0000       0.200131         5.4458   97-A'

MULLIKEN ATOMIC CHARGES AND SPIN POPULATIONS
--------------------------------------------
   0 Cu:    0.637334    0.310362
   1 Se:   -0.723570    0.176471
   2 C :    0.247445   -0.003689
   3 Se:   -0.702698    0.177961
   4 C :    0.296879   -0.003476
   5 Se:   -0.733290    0.170415
   6 C :    0.229778   -0.003723
   7 Se:   -0.752124    0.168338
   8 C :    0.197564   -0.005039
   9 C :   -0.030826   -0.000463
  10 C :   -0.201674    0.000617
  11 C :   -0.191207    0.000175
  12 H :    0.079964    0.002006
  13 C :   -0.127211   -0.001065
  14 H :    0.095393    0.002087
  15 H :    0.009191    0.001550
  16 H :    0.009641    0.002038
  17 C :   -0.146851   -0.000618
  18 C :   -0.116808   -0.000913
  19 C :   -0.158783   -0.000351
  20 H :    0.091977    0.002520
  21 C :   -0.145308   -0.000711
  22 H :    0.095707    0.002508
  23 H :    0.018807    0.001525
  24 H :    0.020670    0.001474
Sum of atomic charges         :   -2.0000000

LOEWDIN ATOMIC CHARGES AND SPIN POPULATIONS
-------------------------------------------
   0 Cu:   -0.608871    0.390607
   1 Se:   -0.199426    0.125305
   2 C :    0.041754    0.011102
   3 Se:   -0.202485    0.123578
   4 C :    0.059555    0.009307
   5 Se:   -0.198022    0.120325
   6 C :    0.030320    0.011232
   7 Se:   -0.192912    0.119849
   8 C :    0.012111    0.012393
   9 C :    0.356643    0.006465
  10 C :    0.395141    0.008575
  11 C :    0.313846    0.000977
  12 H :   -0.478711    0.014011
  13 C :    0.307805    0.000346
  14 H :   -0.466509    0.008098
  15 H :   -0.421713    0.000532
  16 H :   -0.380138    0.000483
  17 C :    0.381351    0.007435
  18 C :    0.375493    0.006836
  19 C :    0.318937    0.000589
  20 H :   -0.470974    0.011014
  21 C :    0.319285    0.000333
  22 H :   -0.467352    0.009800
  23 H :   -0.414279    0.000452
  24 H :   -0.410849    0.000357

  Mayer bond orders larger than 0.100000
B(  0-Cu,  1-Se) :   0.5499 B(  0-Cu,  3-Se) :   0.5490 B(  0-Cu,  5-Se) :   0.5510
B(  0-Cu,  7-Se) :   0.5551 B(  1-Se,  2-C ) :   1.0331 B(  2-C ,  6-C ) :   1.1300
B(  2-C , 17-C ) :   1.2565 B(  3-Se,  4-C ) :   1.0186 B(  4-C ,  8-C ) :   1.1334
B(  4-C , 10-C ) :   1.2581 B(  5-Se,  6-C ) :   1.0419 B(  6-C , 18-C ) :   1.2511
B(  7-Se,  8-C ) :   1.0515 B(  8-C ,  9-C ) :   1.2239 B(  9-C , 13-C ) :   1.3687
B(  9-C , 14-H ) :   0.9503 B( 10-C , 11-C ) :   1.4134 B( 10-C , 12-H ) :   0.9637
B( 11-C , 13-C ) :   1.2978 B( 11-C , 15-H ) :   0.9963 B( 13-C , 16-H ) :   0.9971
B( 17-C , 19-C ) :   1.3931 B( 17-C , 20-H ) :   0.9608 B( 18-C , 21-C ) :   1.3847
B( 18-C , 22-H ) :   0.9567 B( 19-C , 21-C ) :   1.3037 B( 19-C , 23-H ) :   0.9954
B( 21-C , 24-H ) :   0.9956

FINAL SINGLE POINT ENERGY    -11627.107359799886

DIPOLE MOMENT
-------------
                                X             Y             Z
Electronic contribution:      0.19313       0.27860      -0.00000
Nuclear contribution   :     -0.28392      -0.27027       0.00000
                        -----------------------------------------
Total Dipole Moment    :     -0.09079       0.00834      -0.00000
                        -----------------------------------------
Magnitude (a.u.)       :      0.09117
Magnitude (Debye)      :      0.23174

Rotational constants in cm-1:     0.017597     0.004094     0.003321
Rotational constants in MHz :   527.535360   122.732836    99.568011

                             ****ORCA TERMINATED NORMALLY****
TOTAL RUN TIME: 0 days 17 hours 2 minutes 6 seconds 206 msec
