                         Program Version 5.0.4 -  RELEASE  -
|  1> ! RIJCOSX nofrozencore ReducedPop printbasis
|  2> ! M06L ano-rcc-dzp autoaux
|  3>
|  4> %maxcore 7500
|  5> %basis
|  6> PCDTrimBas overlap
|  7> PCDTrimAuxJ Coulomb
|  8> PCDTrimAuxJK Coulomb
|  9> PCDTrimAuxC Coulomb
| 10> PCDThresh -1
| 11> end
| 12>
| 13> %basis
| 14> newgto Cu "ano-rcc-tzp" end
| 15> newgto Se "ano-rcc-tzp" end
| 16> end
| 17>
| 18> %pal
| 19> nprocs 8
| 20> end
| 21>
| 22> % sym SymThresh 1e-2 end
| 23> * xyz -2 2
| 24> Cu 5.11485059885149e-07 3.109027253002736e-06 2.46421033469153e-06
| 25> Se -0.0006177891166334449 -1.4709178745577043 1.8559031607196677
| 26> C -1.5713421750322663 -1.5702796530583778 2.3069249416983046
| 27> Se 2.3370432284758076 -0.08993936797952698 -0.37163984608464024
| 28> C 2.591783600100631 0.8931517772316322 -1.6558277306707934
| 29> Se -2.3370413104068333 0.08995102683172575 0.3716490868733953
| 30> C -2.59105025839602 -0.8886942094076395 1.6593607922381572
| 31> Se 0.000617405502838531 1.4709155427872644 -1.8559050088774187
| 32> C 1.5705822361045418 1.5656604158172291 -2.3105861422030727
| 33> C 1.9368186356163712 2.356163791085261 -3.39470179029762
| 34> C 3.879337756875357 1.0797420240180944 -2.1474801112856854
| 35> C 4.24422933171711 1.906843019293429 -3.189426932204133
| 36> H 4.650579322785615 0.44018110865347776 -1.7217478746623978
| 37> C 3.208070863919006 2.4957014431733606 -3.911739182498927
| 38> H 1.1547152807074361 2.989308116021943 -3.810083856341234
| 39> H 5.231524258501237 1.6704666156051804 -3.741163082554763
| 40> H 3.4376281514861073 3.450022109612196 -4.520497315650815
| 41> C -1.9384281775046093 -2.365943629531203 3.386951250969207
| 42> C -3.8777249166102745 -1.0699384838325636 2.1552503825235516
| 43> C -3.2158500664708436 -2.5429831456018346 3.874264722060881
| 44> H -1.1385416379048519 -2.8909940721922998 3.888008365876792
| 45> C -4.236425833624927 -1.859413638070437 3.2270184426330766
| 46> H -4.666733171818173 -0.5383711846146234 1.6439225678195863
| 47> H -3.393949373312155 -3.184523618314774 4.7309310213921325
| 48> H -5.275385834323613 -1.9370749224964707 3.52984793630647
| 49> *
| 50>
| 51> % eprnmr
| 52> gtensor true
| 53> Nuclei = all H {aiso,adip,aorb,fgrad,rho}
| 54> Nuclei = all Cu {aiso,adip,aorb,fgrad,rho}
| 55> end
| 56>
| 57>                          ****END OF INPUT****

CARTESIAN COORDINATES (ANGSTROEM)
---------------------------------
  Cu    -0.000000   -0.000000    0.000000
  Se    -1.074682    1.170302   -1.755969
  C     -0.469212    0.510652   -3.126639
  Se    -1.074676    1.170308    1.755969
  C     -0.464912    0.514601    3.126639
  Se     1.074682   -1.170302   -1.755969
  C      0.469212   -0.510652   -3.126639
  Se     1.074676   -1.170308    1.755969
  C      0.464912   -0.514601    3.126639
  C      0.882955   -0.979764    4.368893
  C     -0.882955    0.979764    4.368893
  C     -0.425431    0.551849    5.597896
  H     -1.713781    1.683158    4.360734
  C      0.425431   -0.551849    5.597896
  H      1.713781   -1.683158    4.360734
  H     -1.112844    0.713890    6.512078
  H      1.112844   -0.713890    6.512078
  C     -0.892234    0.971244   -4.368893
  C      0.892234   -0.971244   -4.368893
  C     -0.470307    0.510641   -5.597895
  H     -1.620672    1.768657   -4.360734
  C      0.470307   -0.510641   -5.597895
  H      1.620672   -1.768657   -4.360734
  H     -0.860718    0.945409   -6.512077
  H      0.860718   -0.945409   -6.512077

 Total Charge           Charge          ....   -2
 Multiplicity           Mult            ....    2
 Number of Electrons    NEL             ....  247
 Basis Dimension        Dim             ....  575

ORBITAL ENERGIES
----------------
                 SPIN UP ORBITALS
  NO   OCC          E(Eh)            E(eV)    Irrep
   0   1.0000    -443.563814    -12069.9850    1-B
   1   1.0000    -443.562539    -12069.9503    2-B
   2   1.0000    -443.549457    -12069.5943    1-A
   3   1.0000    -443.548499    -12069.5683    2-A
   4   1.0000    -318.189079     -8658.3650    3-A
   5   1.0000     -56.372634     -1533.9774    3-B
   6   1.0000     -56.371686     -1533.9516    4-B
   7   1.0000     -56.359796     -1533.6280    4-A
   8   1.0000     -56.358612     -1533.5958    5-A
   9   1.0000     -51.288989     -1395.6443    5-B
  10   1.0000     -51.288941     -1395.6430    6-A
  11   1.0000     -51.287797     -1395.6119    6-B
  12   1.0000     -51.287751     -1395.6106    7-A
  13   1.0000     -51.287647     -1395.6078    7-B
  14   1.0000     -51.287590     -1395.6063    8-A
  15   1.0000     -51.287262     -1395.5973    9-A
  16   1.0000     -51.287214     -1395.5961    8-B
  17   1.0000     -51.286472     -1395.5758    9-B
  18   1.0000     -51.286413     -1395.5742   10-A
  19   1.0000     -51.286016     -1395.5634   11-A
  20   1.0000     -51.285967     -1395.5621   10-B
  21   1.0000     -38.029638     -1034.8391   12-A
  22   1.0000     -33.531705      -912.4441   11-B
  23   1.0000     -33.530888      -912.4218   13-A
  24   1.0000     -33.519726      -912.1181   12-B
  25   1.0000      -9.819147      -267.1926   14-A
  26   1.0000      -9.818717      -267.1809   13-B
  27   1.0000      -9.817242      -267.1407   15-A
  28   1.0000      -9.816794      -267.1286   14-B
  29   1.0000      -9.811351      -266.9804   16-A
  30   1.0000      -9.810901      -266.9682   15-B
  31   1.0000      -9.809921      -266.9415   17-A
  32   1.0000      -9.809469      -266.9292   16-B
  33   1.0000      -9.809380      -266.9268   18-A
  34   1.0000      -9.809376      -266.9267   17-B
  35   1.0000      -9.807736      -266.8821   19-A
  36   1.0000      -9.807735      -266.8820   18-B
  37   1.0000      -7.343912      -199.8380   19-B
  38   1.0000      -7.342774      -199.8070   20-B
  39   1.0000      -7.336650      -199.6404   20-A
  40   1.0000      -7.335382      -199.6059   21-A
  41   1.0000      -5.406847      -147.1278   21-B
  42   1.0000      -5.406829      -147.1273   22-A
  43   1.0000      -5.405590      -147.0936   22-B
  44   1.0000      -5.405573      -147.0931   23-A
  45   1.0000      -5.401558      -146.9839   23-B
  46   1.0000      -5.401539      -146.9833   24-A
  47   1.0000      -5.401309      -146.9771   25-A
  48   1.0000      -5.401290      -146.9766   24-B
  49   1.0000      -5.400330      -146.9504   25-B
  50   1.0000      -5.400304      -146.9498   26-A
  51   1.0000      -5.399897      -146.9387   27-A
  52   1.0000      -5.399870      -146.9379   26-B
  53   1.0000      -4.023944      -109.4971   28-A
  54   1.0000      -2.543528       -69.2129   27-B
  55   1.0000      -2.542541       -69.1861   29-A
  56   1.0000      -2.519026       -68.5462   28-B
  57   1.0000      -1.745917       -47.5088   30-A
  58   1.0000      -1.745888       -47.5080   29-B
  59   1.0000      -1.744643       -47.4742   31-A
  60   1.0000      -1.744614       -47.4734   30-B
  61   1.0000      -1.743125       -47.4329   32-A
  62   1.0000      -1.743047       -47.4307   31-B
  63   1.0000      -1.742517       -47.4163   32-B
  64   1.0000      -1.742511       -47.4161   33-A
  65   1.0000      -1.741920       -47.4001   34-A
  66   1.0000      -1.741840       -47.3979   33-B
  67   1.0000      -1.741147       -47.3790   34-B
  68   1.0000      -1.741140       -47.3788   35-A
  69   1.0000      -1.738220       -47.2994   36-A
  70   1.0000      -1.738158       -47.2977   35-B
  71   1.0000      -1.738069       -47.2953   36-B
  72   1.0000      -1.738052       -47.2948   37-A
  73   1.0000      -1.736875       -47.2628   38-A
  74   1.0000      -1.736815       -47.2611   37-B
  75   1.0000      -1.736727       -47.2587   38-B
  76   1.0000      -1.736711       -47.2583   39-A
  77   1.0000      -0.604334       -16.4448   40-A
  78   1.0000      -0.604005       -16.4358   41-A
  79   1.0000      -0.522794       -14.2260   42-A
  80   1.0000      -0.520156       -14.1542   43-A
  81   1.0000      -0.500866       -13.6293   39-B
  82   1.0000      -0.500620       -13.6226   40-B
  83   1.0000      -0.414236       -11.2719   41-B
  84   1.0000      -0.411533       -11.1984   42-B
  85   1.0000      -0.384011       -10.4495   44-A
  86   1.0000      -0.378319       -10.2946   45-A
  87   1.0000      -0.321964        -8.7611   46-A
  88   1.0000      -0.319593        -8.6966   47-A
  89   1.0000      -0.287922        -7.8348   43-B
  90   1.0000      -0.280189        -7.6243   44-B
  91   1.0000      -0.229227        -6.2376   48-A
  92   1.0000      -0.214124        -5.8266   49-A
  93   1.0000      -0.201522        -5.4837   50-A
  94   1.0000      -0.199774        -5.4361   51-A
  95   1.0000      -0.170392        -4.6366   45-B
  96   1.0000      -0.163358        -4.4452   46-B
  97   1.0000      -0.148419        -4.0387   47-B
  98   1.0000      -0.139370        -3.7924   48-B
  99   1.0000      -0.136278        -3.7083   52-A
 100   1.0000      -0.131857        -3.5880   49-B
 101   1.0000      -0.119155        -3.2424   50-B
 102   1.0000      -0.108821        -2.9612   53-A
 103   1.0000      -0.081564        -2.2195   54-A
 104   1.0000      -0.074769        -2.0346   51-B
 105   1.0000      -0.068757        -1.8710   52-B
 106   1.0000      -0.064194        -1.7468   55-A
 107   1.0000      -0.049728        -1.3532   53-B
 108   1.0000      -0.040336        -1.0976   54-B
 109   1.0000      -0.035064        -0.9541   56-A
 110   1.0000      -0.031653        -0.8613   55-B
 111   1.0000      -0.031459        -0.8560   57-A
 112   1.0000      -0.028366        -0.7719   58-A
 113   1.0000      -0.003963        -0.1078   59-A
 114   1.0000      -0.002796        -0.0761   56-B
 115   1.0000      -0.001321        -0.0360   60-A
 116   1.0000       0.017173         0.4673   61-A
 117   1.0000       0.019022         0.5176   62-A
 118   1.0000       0.038853         1.0572   57-B
 119   1.0000       0.051580         1.4036   63-A
 120   1.0000       0.054117         1.4726   64-A
 121   1.0000       0.068384         1.8608   58-B
 122   1.0000       0.097168         2.6441   59-B
 123   1.0000       0.114226         3.1083   60-B
 124   0.0000       0.181356         4.9350   65-A
 125   0.0000       0.183423         4.9912   66-A
 126   0.0000       0.195546         5.3211   61-B
 127   0.0000       0.196892         5.3577   62-B
 128   0.0000       0.198278         5.3954   63-B

                 SPIN DOWN ORBITALS
  NO   OCC          E(Eh)            E(eV)    Irrep
   0   1.0000    -443.563362    -12069.9727    1-B
   1   1.0000    -443.562084    -12069.9379    2-B
   2   1.0000    -443.549006    -12069.5820    1-A
   3   1.0000    -443.548043    -12069.5558    2-A
   4   1.0000    -318.188958     -8658.3617    3-A
   5   1.0000     -56.372451     -1533.9724    3-B
   6   1.0000     -56.371502     -1533.9465    4-B
   7   1.0000     -56.359616     -1533.6231    4-A
   8   1.0000     -56.358430     -1533.5908    5-A
   9   1.0000     -51.288668     -1395.6356    5-B
  10   1.0000     -51.288611     -1395.6341    6-A
  11   1.0000     -51.287473     -1395.6031    6-B
  12   1.0000     -51.287418     -1395.6016    7-A
  13   1.0000     -51.287019     -1395.5907    8-A
  14   1.0000     -51.286977     -1395.5896    7-B
  15   1.0000     -51.286903     -1395.5876    8-B
  16   1.0000     -51.286860     -1395.5864    9-A
  17   1.0000     -51.285764     -1395.5566   10-A
  18   1.0000     -51.285731     -1395.5557    9-B
  19   1.0000     -51.285715     -1395.5553   10-B
  20   1.0000     -51.285680     -1395.5543   11-A
  21   1.0000     -38.015755     -1034.4613   12-A
  22   1.0000     -33.518510      -912.0850   11-B
  23   1.0000     -33.517693      -912.0628   13-A
  24   1.0000     -33.515858      -912.0129   12-B
  25   1.0000      -9.819096      -267.1912   14-A
  26   1.0000      -9.818666      -267.1795   13-B
  27   1.0000      -9.817191      -267.1393   15-A
  28   1.0000      -9.816743      -267.1272   14-B
  29   1.0000      -9.811370      -266.9810   16-A
  30   1.0000      -9.810918      -266.9687   15-B
  31   1.0000      -9.809940      -266.9420   17-A
  32   1.0000      -9.809487      -266.9297   16-B
  33   1.0000      -9.809261      -266.9236   18-A
  34   1.0000      -9.809259      -266.9235   17-B
  35   1.0000      -9.807615      -266.8788   19-A
  36   1.0000      -9.807615      -266.8788   18-B
  37   1.0000      -7.343515      -199.8272   19-B
  38   1.0000      -7.342373      -199.7961   20-B
  39   1.0000      -7.336245      -199.6294   20-A
  40   1.0000      -7.334974      -199.5948   21-A
  41   1.0000      -5.406483      -147.1179   21-B
  42   1.0000      -5.406464      -147.1174   22-A
  43   1.0000      -5.405223      -147.0836   22-B
  44   1.0000      -5.405204      -147.0831   23-A
  45   1.0000      -5.401044      -146.9699   24-A
  46   1.0000      -5.401020      -146.9692   23-B
  47   1.0000      -5.400698      -146.9605   24-B
  48   1.0000      -5.400676      -146.9599   25-A
  49   1.0000      -5.399585      -146.9302   26-A
  50   1.0000      -5.399560      -146.9295   25-B
  51   1.0000      -5.399499      -146.9278   26-B
  52   1.0000      -5.399475      -146.9272   27-A
  53   1.0000      -3.995716      -108.7289   28-A
  54   1.0000      -2.508727       -68.2659   27-B
  55   1.0000      -2.508263       -68.2533   28-B
  56   1.0000      -2.507226       -68.2251   29-A
  57   1.0000      -1.745477       -47.4969   30-A
  58   1.0000      -1.745448       -47.4960   29-B
  59   1.0000      -1.744193       -47.4619   31-A
  60   1.0000      -1.744163       -47.4611   30-B
  61   1.0000      -1.742280       -47.4098   32-A
  62   1.0000      -1.742252       -47.4091   31-B
  63   1.0000      -1.742154       -47.4064   33-A
  64   1.0000      -1.742107       -47.4052   32-B
  65   1.0000      -1.741016       -47.3754   34-A
  66   1.0000      -1.740933       -47.3732   33-B
  67   1.0000      -1.740837       -47.3706   34-B
  68   1.0000      -1.740829       -47.3704   35-A
  69   1.0000      -1.737422       -47.2776   36-A
  70   1.0000      -1.737370       -47.2762   35-B
  71   1.0000      -1.737299       -47.2743   36-B
  72   1.0000      -1.737288       -47.2740   37-A
  73   1.0000      -1.736076       -47.2410   38-A
  74   1.0000      -1.736025       -47.2396   37-B
  75   1.0000      -1.735948       -47.2376   38-B
  76   1.0000      -1.735937       -47.2373   39-A
  77   1.0000      -0.603501       -16.4221   40-A
  78   1.0000      -0.603195       -16.4138   41-A
  79   1.0000      -0.521648       -14.1948   42-A
  80   1.0000      -0.519009       -14.1230   43-A
  81   1.0000      -0.499134       -13.5821   39-B
  82   1.0000      -0.498900       -13.5758   40-B
  83   1.0000      -0.411526       -11.1982   41-B
  84   1.0000      -0.408798       -11.1240   42-B
  85   1.0000      -0.381493       -10.3809   44-A
  86   1.0000      -0.375917       -10.2292   45-A
  87   1.0000      -0.320226        -8.7138   46-A
  88   1.0000      -0.317715        -8.6455   47-A
  89   1.0000      -0.285438        -7.7672   43-B
  90   1.0000      -0.277502        -7.5512   44-B
  91   1.0000      -0.228083        -6.2065   48-A
  92   1.0000      -0.212948        -5.7946   49-A
  93   1.0000      -0.200242        -5.4489   50-A
  94   1.0000      -0.198558        -5.4030   51-A
  95   1.0000      -0.168849        -4.5946   45-B
  96   1.0000      -0.161733        -4.4010   46-B
  97   1.0000      -0.147669        -4.0183   47-B
  98   1.0000      -0.138074        -3.7572   48-B
  99   1.0000      -0.134311        -3.6548   52-A
 100   1.0000      -0.131462        -3.5773   49-B
 101   1.0000      -0.117820        -3.2060   50-B
 102   1.0000      -0.107034        -2.9125   53-A
 103   1.0000      -0.080247        -2.1836   54-A
 104   1.0000      -0.073272        -1.9938   51-B
 105   1.0000      -0.062135        -1.6908   55-A
 106   1.0000      -0.058438        -1.5902   52-B
 107   1.0000      -0.048830        -1.3287   53-B
 108   1.0000      -0.038069        -1.0359   54-B
 109   1.0000      -0.032527        -0.8851   56-A
 110   1.0000      -0.027775        -0.7558   57-A
 111   1.0000      -0.024746        -0.6734   58-A
 112   1.0000      -0.004190        -0.1140   55-B
 113   1.0000       0.005626         0.1531   59-A
 114   1.0000       0.008274         0.2251   56-B
 115   1.0000       0.009002         0.2450   60-A
 116   1.0000       0.027157         0.7390   61-A
 117   1.0000       0.030036         0.8173   62-A
 118   1.0000       0.050143         1.3645   57-B
 119   1.0000       0.053740         1.4624   63-A
 120   1.0000       0.057419         1.5624   64-A
 121   1.0000       0.070099         1.9075   58-B
 122   1.0000       0.100404         2.7321   59-B
 123   0.0000       0.144089         3.9209   60-B
 124   0.0000       0.183244         4.9863   65-A
 125   0.0000       0.184974         5.0334   66-A
 126   0.0000       0.198208         5.3935   61-B
 127   0.0000       0.198785         5.4092   62-B

MULLIKEN ATOMIC CHARGES AND SPIN POPULATIONS
--------------------------------------------
   0 Cu:    0.639459    0.309926
   1 Se:   -0.732570    0.174837
   2 C :    0.221117   -0.003307
   3 Se:   -0.722176    0.172705
   4 C :    0.227770   -0.003671
   5 Se:   -0.732570    0.174837
   6 C :    0.221117   -0.003307
   7 Se:   -0.722176    0.172705
   8 C :    0.227770   -0.003671
   9 C :   -0.067606   -0.001137
  10 C :   -0.067606   -0.001137
  11 C :   -0.166852   -0.000597
  12 H :    0.086564    0.002378
  13 C :   -0.166852   -0.000597
  14 H :    0.086564    0.002378
  15 H :   -0.020398    0.001632
  16 H :   -0.020398    0.001632
  17 C :   -0.102278   -0.001440
  18 C :   -0.102278   -0.001440
  19 C :   -0.156727   -0.000626
  20 H :    0.091994    0.002682
  21 C :   -0.156727   -0.000626
  22 H :    0.091994    0.002682
  23 H :    0.021433    0.001582
  24 H :    0.021433    0.001582
Sum of atomic charges         :   -2.0000000

LOEWDIN ATOMIC CHARGES AND SPIN POPULATIONS
-------------------------------------------
   0 Cu:   -0.614635    0.390670
   1 Se:   -0.201476    0.124227
   2 C :    0.038587    0.011848
   3 Se:   -0.197285    0.122645
   4 C :    0.036967    0.011631
   5 Se:   -0.201476    0.124227
   6 C :    0.038587    0.011848
   7 Se:   -0.197285    0.122645
   8 C :    0.036967    0.011631
   9 C :    0.358969    0.006927
  10 C :    0.358969    0.006927
  11 C :    0.272960    0.000404
  12 H :   -0.455157    0.009209
  13 C :    0.272960    0.000404
  14 H :   -0.455157    0.009209
  15 H :   -0.366186    0.000492
  16 H :   -0.366186    0.000492
  17 C :    0.371505    0.006966
  18 C :    0.371505    0.006966
  19 C :    0.319984    0.000476
  20 H :   -0.459709    0.009452
  21 C :    0.319984    0.000476
  22 H :   -0.459709    0.009452
  23 H :   -0.411842    0.000389
  24 H :   -0.411842    0.000389

  Mayer bond orders larger than 0.100000
B(  0-Cu,  1-Se) :   0.5518 B(  0-Cu,  3-Se) :   0.5476 B(  0-Cu,  5-Se) :   0.5518
B(  0-Cu,  7-Se) :   0.5476 B(  1-Se,  2-C ) :   1.0393 B(  2-C ,  6-C ) :   1.1345
B(  2-C , 17-C ) :   1.2570 B(  3-Se,  4-C ) :   1.0429 B(  4-C ,  8-C ) :   1.1325
B(  4-C , 10-C ) :   1.2506 B(  5-Se,  6-C ) :   1.0393 B(  6-C , 18-C ) :   1.2570
B(  7-Se,  8-C ) :   1.0429 B(  8-C ,  9-C ) :   1.2506 B(  9-C , 13-C ) :   1.3857
B(  9-C , 14-H ) :   0.9611 B( 10-C , 11-C ) :   1.3857 B( 10-C , 12-H ) :   0.9611
B( 11-C , 13-C ) :   1.2843 B( 11-C , 15-H ) :   1.0129 B( 13-C , 16-H ) :   1.0129
B( 17-C , 19-C ) :   1.3789 B( 17-C , 20-H ) :   0.9601 B( 18-C , 21-C ) :   1.3789
B( 18-C , 22-H ) :   0.9601 B( 19-C , 21-C ) :   1.3131 B( 19-C , 23-H ) :   0.9955
B( 21-C , 24-H ) :   0.9955

FINAL SINGLE POINT ENERGY    -11627.126150911485

DIPOLE MOMENT
-------------
                                X             Y             Z
Electronic contribution:     -0.00000       0.00000      -0.37183
Nuclear contribution   :      0.00000       0.00000      -0.00000
                        -----------------------------------------
Total Dipole Moment    :     -0.00000       0.00000      -0.37183
                        -----------------------------------------
Magnitude (a.u.)       :      0.37183
Magnitude (Debye)      :      0.94513

Rotational constants in cm-1:     0.017609     0.004098     0.003325
Rotational constants in MHz :   527.907803   122.840699    99.666038

                             ****ORCA TERMINATED NORMALLY****
TOTAL RUN TIME: 0 days 17 hours 4 minutes 0 seconds 610 msec
