                         Program Version 5.0.4 -  RELEASE  -
|  1> ! RIJCOSX nofrozencore ReducedPop printbasis
|  2> ! M06L ano-rcc-dzp autoaux
|  3>
|  4> %maxcore 7500
|  5> %basis
|  6> PCDTrimBas overlap
|  7> PCDTrimAuxJ Coulomb
|  8> PCDTrimAuxJK Coulomb
|  9> PCDTrimAuxC Coulomb
| 10> PCDThresh -1
| 11> end
| 12>
| 13> %basis
| 14> newgto Cu "ano-rcc-tzp" end
| 15> newgto Se "ano-rcc-tzp" end
| 16> end
| 17>
| 18> %pal
| 19> nprocs 8
| 20> end
| 21>
| 22> % sym SymThresh 1e-2 end
| 23> * xyz -2 2
| 24> Cu 0.0010838942651827414 0.0044977120771786325 -0.0012628488795993903
| 25> Se -1.3040797077521222 0.592534475326985 -1.8573673007453626
| 26> C -0.8353782025135873 2.1967819428334034 -2.2118520710407528
| 27> Se -0.9107493585439553 -2.168786410851936 0.15536270848807632
| 28> C -0.18377861854315938 -2.957516669745505 1.4485933153828323
| 29> Se 0.9339366131308068 2.1536566318840187 -0.11975381069403485
| 30> C 0.1827654148369322 2.91743111733784 -1.4272323722289824
| 31> Se 1.315223570201306 -0.5803883275052134 1.863560125933057
| 32> C 0.8117140695528554 -2.161680309798521 2.1644531715018256
| 33> C 1.339748157226226 -2.9483503409243634 3.224022696657876
| 34> C -0.48022621757776557 -4.267281685711146 1.8387714648545077
| 35> C 0.0708249303407769 -5.001829438834821 2.895925129183691
| 36> H -1.2319517894675351 -4.763507980253233 1.239300411296432
| 37> C 1.0333661447885283 -4.292674652846316 3.6220272405957483
| 38> H 2.0987211575205516 -2.4770963032185893 3.846009016592836
| 39> H -0.2335296160648699 -6.021679618662196 3.1138069947743903
| 40> H 1.5599425977131152 -4.712774950058398 4.473725359415252
| 41> C -1.3835359094473174 2.980321601898183 -3.2931816247956673
| 42> C 0.4490784682843077 4.24946350510396 -1.8651532540622464
| 43> C -1.0944952230818634 4.310378303304509 -3.703427327797553
| 44> H -2.1376019996772704 2.4757645719865224 -3.890702691661126
| 45> C -0.12783466965759085 4.967230098289412 -2.9430943513296177
| 46> H 1.195063852377766 4.801669197303611 -1.3038767323243068
| 47> H -1.6071147618404458 4.75261847032038 -4.551264013070557
| 48> H 0.19349284408283624 5.987220014500839 -3.1412180666122675
| 49> *
| 50>
| 51> % eprnmr
| 52> gtensor true
| 53> Nuclei = all H {aiso,adip,aorb,fgrad,rho}
| 54> Nuclei = all Cu {aiso,adip,aorb,fgrad,rho}
| 55> end
| 56>
| 57>                          ****END OF INPUT****

CARTESIAN COORDINATES (ANGSTROEM)
---------------------------------
  Cu     0.004704   -0.000934    0.000000
  Se     0.302756   -2.325913    0.000000
  C      1.998511   -2.534157    0.000000
  Se    -2.353196   -0.140370    0.000000
  C     -2.977198    1.419646    0.000000
  Se     2.343251    0.184366    0.000000
  C      2.937169   -1.398154    0.000000
  Se    -0.288253    2.335900    0.000000
  C     -1.968837    2.477959    0.000000
  C     -2.634370    3.733914    0.000000
  C     -4.342787    1.720927    0.000000
  C     -4.951518    2.981973    0.000000
  H     -5.000225    0.861583    0.000000
  C     -4.036454    4.039928    0.000000
  H     -2.000143    4.618642    0.000000
  H     -6.030942    3.104626    0.000000
  H     -4.338286    5.083027    0.000000
  C      2.656527   -3.818952    0.000000
  C      4.318270   -1.758110    0.000000
  C      4.040645   -4.143169    0.000000
  H      1.990304   -4.677073    0.000000
  C      4.904672   -3.048888    0.000000
  H      5.030041   -0.939673    0.000000
  H      4.367520   -5.177739    0.000000
  H      5.987952   -3.145779    0.000000

 Total Charge           Charge          ....   -2
 Multiplicity           Mult            ....    2
 Number of Electrons    NEL             ....  247
 Basis Dimension        Dim             ....  575

ORBITAL ENERGIES
----------------
                 SPIN UP ORBITALS
  NO   OCC          E(Eh)            E(eV)    Irrep
   0   1.0000    -443.559195    -12069.8593    1-A'
   1   1.0000    -443.554557    -12069.7331    2-A'
   2   1.0000    -443.545934    -12069.4985    3-A'
   3   1.0000    -443.544797    -12069.4675    4-A'
   4   1.0000    -318.196184     -8658.5584    5-A'
   5   1.0000     -56.371520     -1533.9471    6-A'
   6   1.0000     -56.368028     -1533.8520    7-A'
   7   1.0000     -56.359982     -1533.6331    8-A'
   8   1.0000     -56.358212     -1533.5849    9-A'
   9   1.0000     -51.296355     -1395.8448   10-A'
  10   1.0000     -51.294805     -1395.8026   11-A'
  11   1.0000     -51.294307     -1395.7891    1-A"
  12   1.0000     -51.291654     -1395.7169   12-A'
  13   1.0000     -51.290901     -1395.6964   13-A'
  14   1.0000     -51.290054     -1395.6733   14-A'
  15   1.0000     -51.289575     -1395.6603    2-A"
  16   1.0000     -51.289374     -1395.6548   15-A'
  17   1.0000     -51.288929     -1395.6427    3-A"
  18   1.0000     -51.286128     -1395.5665   16-A'
  19   1.0000     -51.284707     -1395.5278   17-A'
  20   1.0000     -51.284236     -1395.5150    4-A"
  21   1.0000     -38.036825     -1035.0346   18-A'
  22   1.0000     -33.538918      -912.6404   19-A'
  23   1.0000     -33.538017      -912.6158   20-A'
  24   1.0000     -33.526674      -912.3072    5-A"
  25   1.0000      -9.830196      -267.4932   21-A'
  26   1.0000      -9.828139      -267.4373   22-A'
  27   1.0000      -9.827031      -267.4071   23-A'
  28   1.0000      -9.826226      -267.3852   24-A'
  29   1.0000      -9.826076      -267.3811   25-A'
  30   1.0000      -9.825670      -267.3701   26-A'
  31   1.0000      -9.824740      -267.3448   27-A'
  32   1.0000      -9.823256      -267.3044   28-A'
  33   1.0000      -9.818768      -267.1823   29-A'
  34   1.0000      -9.817713      -267.1535   30-A'
  35   1.0000      -9.816419      -267.1183   31-A'
  36   1.0000      -9.814165      -267.0570   32-A'
  37   1.0000      -7.347140      -199.9258   33-A'
  38   1.0000      -7.343991      -199.8402   34-A'
  39   1.0000      -7.339000      -199.7043   35-A'
  40   1.0000      -7.336227      -199.6289   36-A'
  41   1.0000      -5.415373      -147.3598   37-A'
  42   1.0000      -5.411558      -147.2560   38-A'
  43   1.0000      -5.410464      -147.2262   39-A'
  44   1.0000      -5.409506      -147.2001   40-A'
  45   1.0000      -5.408980      -147.1858    6-A"
  46   1.0000      -5.405684      -147.0961   41-A'
  47   1.0000      -5.405643      -147.0950   42-A'
  48   1.0000      -5.405114      -147.0806    7-A"
  49   1.0000      -5.404780      -147.0716   43-A'
  50   1.0000      -5.404335      -147.0594    8-A"
  51   1.0000      -5.400320      -146.9502   44-A'
  52   1.0000      -5.399759      -146.9349    9-A"
  53   1.0000      -4.030962      -109.6881   45-A'
  54   1.0000      -2.550950       -69.4149   46-A'
  55   1.0000      -2.549470       -69.3746   47-A'
  56   1.0000      -2.525635       -68.7260   10-A"
  57   1.0000      -1.753613       -47.7182   48-A'
  58   1.0000      -1.751240       -47.6537   49-A'
  59   1.0000      -1.750489       -47.6332   11-A"
  60   1.0000      -1.749555       -47.6078   50-A'
  61   1.0000      -1.748745       -47.5858   51-A'
  62   1.0000      -1.747402       -47.5492   52-A'
  63   1.0000      -1.746635       -47.5284   12-A"
  64   1.0000      -1.746453       -47.5234   53-A'
  65   1.0000      -1.745785       -47.5052   54-A'
  66   1.0000      -1.745784       -47.5052   13-A"
  67   1.0000      -1.745737       -47.5039   14-A"
  68   1.0000      -1.744139       -47.4604   55-A'
  69   1.0000      -1.741934       -47.4004   56-A'
  70   1.0000      -1.741920       -47.4001   57-A'
  71   1.0000      -1.741919       -47.4000   15-A"
  72   1.0000      -1.741180       -47.3799   16-A"
  73   1.0000      -1.741179       -47.3799   58-A'
  74   1.0000      -1.741090       -47.3775   17-A"
  75   1.0000      -1.736731       -47.2588   59-A'
  76   1.0000      -1.736720       -47.2585   18-A"
  77   1.0000      -0.587518       -15.9872   60-A'
  78   1.0000      -0.580575       -15.7982   61-A'
  79   1.0000      -0.514314       -13.9952   62-A'
  80   1.0000      -0.511306       -13.9134   63-A'
  81   1.0000      -0.488402       -13.2901   64-A'
  82   1.0000      -0.482639       -13.1333   65-A'
  83   1.0000      -0.410036       -11.1576   66-A'
  84   1.0000      -0.407542       -11.0898   67-A'
  85   1.0000      -0.384079       -10.4513   68-A'
  86   1.0000      -0.378325       -10.2948   69-A'
  87   1.0000      -0.311959        -8.4888   70-A'
  88   1.0000      -0.306181        -8.3316   71-A'
  89   1.0000      -0.293123        -7.9763   72-A'
  90   1.0000      -0.289605        -7.8806   73-A'
  91   1.0000      -0.231535        -6.3004   74-A'
  92   1.0000      -0.225032        -6.1234   75-A'
  93   1.0000      -0.189767        -5.1638   76-A'
  94   1.0000      -0.185918        -5.0591   77-A'
  95   1.0000      -0.176930        -4.8145   78-A'
  96   1.0000      -0.169688        -4.6174   79-A'
  97   1.0000      -0.143825        -3.9137   80-A'
  98   1.0000      -0.130965        -3.5638   81-A'
  99   1.0000      -0.130617        -3.5543   82-A'
 100   1.0000      -0.119827        -3.2607   19-A"
 101   1.0000      -0.114653        -3.1199   20-A"
 102   1.0000      -0.112050        -3.0490   83-A'
 103   1.0000      -0.085700        -2.3320   84-A'
 104   1.0000      -0.081778        -2.2253   85-A'
 105   1.0000      -0.076568        -2.0835   86-A'
 106   1.0000      -0.059541        -1.6202   87-A'
 107   1.0000      -0.047306        -1.2873   21-A"
 108   1.0000      -0.045659        -1.2424   22-A"
 109   1.0000      -0.040905        -1.1131   88-A'
 110   1.0000      -0.032815        -0.8929   23-A"
 111   1.0000      -0.030334        -0.8254   89-A'
 112   1.0000      -0.021201        -0.5769   24-A"
 113   1.0000      -0.007684        -0.2091   25-A"
 114   1.0000      -0.006627        -0.1803   90-A'
 115   1.0000      -0.006131        -0.1668   26-A"
 116   1.0000       0.013294         0.3617   91-A'
 117   1.0000       0.017333         0.4717   92-A'
 118   1.0000       0.033698         0.9170   93-A'
 119   1.0000       0.052100         1.4177   27-A"
 120   1.0000       0.052627         1.4320   28-A"
 121   1.0000       0.063715         1.7338   29-A"
 122   1.0000       0.092595         2.5196   30-A"
 123   1.0000       0.108911         2.9636   94-A'
 124   0.0000       0.181205         4.9308   95-A'
 125   0.0000       0.181390         4.9359   96-A'
 126   0.0000       0.195580         5.3220   31-A"
 127   0.0000       0.195923         5.3313   97-A'
 128   0.0000       0.196278         5.3410   98-A'

                 SPIN DOWN ORBITALS
  NO   OCC          E(Eh)            E(eV)    Irrep
   0   1.0000    -443.558743    -12069.8470    1-A'
   1   1.0000    -443.554115    -12069.7211    2-A'
   2   1.0000    -443.545493    -12069.4865    3-A'
   3   1.0000    -443.544344    -12069.4552    4-A'
   4   1.0000    -318.196060     -8658.5550    5-A'
   5   1.0000     -56.371336     -1533.9420    6-A'
   6   1.0000     -56.367847     -1533.8471    7-A'
   7   1.0000     -56.359803     -1533.6282    8-A'
   8   1.0000     -56.358029     -1533.5799    9-A'
   9   1.0000     -51.296055     -1395.8366   10-A'
  10   1.0000     -51.294054     -1395.7822    1-A"
  11   1.0000     -51.294045     -1395.7819   11-A'
  12   1.0000     -51.291360     -1395.7089   12-A'
  13   1.0000     -51.290586     -1395.6878   13-A'
  14   1.0000     -51.289334     -1395.6537   14-A'
  15   1.0000     -51.289333     -1395.6537    2-A"
  16   1.0000     -51.288678     -1395.6359    3-A"
  17   1.0000     -51.288641     -1395.6349   15-A'
  18   1.0000     -51.285802     -1395.5576   16-A'
  19   1.0000     -51.283985     -1395.5082    4-A"
  20   1.0000     -51.283978     -1395.5080   17-A'
  21   1.0000     -38.022851     -1034.6544   18-A'
  22   1.0000     -33.525633      -912.2789   19-A'
  23   1.0000     -33.524746      -912.2547   20-A'
  24   1.0000     -33.522774      -912.2011    5-A"
  25   1.0000      -9.830212      -267.4937   21-A'
  26   1.0000      -9.828158      -267.4378   22-A'
  27   1.0000      -9.827040      -267.4074   23-A'
  28   1.0000      -9.826193      -267.3843   24-A'
  29   1.0000      -9.826031      -267.3799   25-A'
  30   1.0000      -9.825633      -267.3691   26-A'
  31   1.0000      -9.824704      -267.3438   27-A'
  32   1.0000      -9.823276      -267.3049   28-A'
  33   1.0000      -9.818692      -267.1802   29-A'
  34   1.0000      -9.817623      -267.1511   30-A'
  35   1.0000      -9.816338      -267.1161   31-A'
  36   1.0000      -9.814068      -267.0544   32-A'
  37   1.0000      -7.346735      -199.9148   33-A'
  38   1.0000      -7.343597      -199.8294   34-A'
  39   1.0000      -7.338600      -199.6935   35-A'
  40   1.0000      -7.335819      -199.6178   36-A'
  41   1.0000      -5.415025      -147.3503   37-A'
  42   1.0000      -5.411223      -147.2469   38-A'
  43   1.0000      -5.410110      -147.2166   39-A'
  44   1.0000      -5.408666      -147.1773    6-A"
  45   1.0000      -5.408665      -147.1773   40-A'
  46   1.0000      -5.405327      -147.0864   41-A'
  47   1.0000      -5.404843      -147.0733   42-A'
  48   1.0000      -5.404813      -147.0724    7-A"
  49   1.0000      -5.404015      -147.0507    8-A"
  50   1.0000      -5.403957      -147.0491   43-A'
  51   1.0000      -5.399490      -146.9276   44-A'
  52   1.0000      -5.399440      -146.9262    9-A"
  53   1.0000      -4.002582      -108.9158   45-A'
  54   1.0000      -2.515518       -68.4507   46-A'
  55   1.0000      -2.515259       -68.4437   10-A"
  56   1.0000      -2.513986       -68.4090   47-A'
  57   1.0000      -1.753167       -47.7061   48-A'
  58   1.0000      -1.750362       -47.6298   49-A'
  59   1.0000      -1.750193       -47.6252   11-A"
  60   1.0000      -1.749129       -47.5962   50-A'
  61   1.0000      -1.748297       -47.5736   51-A'
  62   1.0000      -1.746559       -47.5263   52-A'
  63   1.0000      -1.746348       -47.5205   12-A"
  64   1.0000      -1.745570       -47.4994   53-A'
  65   1.0000      -1.745426       -47.4954   13-A"
  66   1.0000      -1.745011       -47.4842   14-A"
  67   1.0000      -1.744985       -47.4835   54-A'
  68   1.0000      -1.743690       -47.4482   55-A'
  69   1.0000      -1.741183       -47.3800   15-A"
  70   1.0000      -1.741174       -47.3797   56-A'
  71   1.0000      -1.741021       -47.3756   57-A'
  72   1.0000      -1.740779       -47.3690   16-A"
  73   1.0000      -1.740407       -47.3589   17-A"
  74   1.0000      -1.740381       -47.3582   58-A'
  75   1.0000      -1.735939       -47.2373   18-A"
  76   1.0000      -1.735925       -47.2369   59-A'
  77   1.0000      -0.586772       -15.9669   60-A'
  78   1.0000      -0.579905       -15.7800   61-A'
  79   1.0000      -0.513056       -13.9610   62-A'
  80   1.0000      -0.510027       -13.8785   63-A'
  81   1.0000      -0.486777       -13.2459   64-A'
  82   1.0000      -0.481125       -13.0921   65-A'
  83   1.0000      -0.407092       -11.0775   66-A'
  84   1.0000      -0.404519       -11.0075   67-A'
  85   1.0000      -0.381415       -10.3788   68-A'
  86   1.0000      -0.375871       -10.2280   69-A'
  87   1.0000      -0.310201        -8.4410   70-A'
  88   1.0000      -0.304322        -8.2810   71-A'
  89   1.0000      -0.291045        -7.9197   72-A'
  90   1.0000      -0.287259        -7.8167   73-A'
  91   1.0000      -0.230637        -6.2760   74-A'
  92   1.0000      -0.224132        -6.0989   75-A'
  93   1.0000      -0.188444        -5.1278   76-A'
  94   1.0000      -0.184551        -5.0219   77-A'
  95   1.0000      -0.175475        -4.7749   78-A'
  96   1.0000      -0.167240        -4.5508   79-A'
  97   1.0000      -0.142019        -3.8645   80-A'
  98   1.0000      -0.130014        -3.5379   81-A'
  99   1.0000      -0.129540        -3.5250   82-A'
 100   1.0000      -0.119439        -3.2501   19-A"
 101   1.0000      -0.114288        -3.1099   20-A"
 102   1.0000      -0.110365        -3.0032   83-A'
 103   1.0000      -0.084275        -2.2932   84-A'
 104   1.0000      -0.079969        -2.1761   85-A'
 105   1.0000      -0.065205        -1.7743   86-A'
 106   1.0000      -0.056387        -1.5344   87-A'
 107   1.0000      -0.045722        -1.2442   21-A"
 108   1.0000      -0.044796        -1.2190   22-A"
 109   1.0000      -0.028682        -0.7805   23-A"
 110   1.0000      -0.027326        -0.7436   88-A'
 111   1.0000      -0.020030        -0.5450   24-A"
 112   1.0000      -0.010582        -0.2880   89-A'
 113   1.0000       0.001788         0.0487   25-A"
 114   1.0000       0.003096         0.0843   26-A"
 115   1.0000       0.004232         0.1152   90-A'
 116   1.0000       0.025012         0.6806   91-A'
 117   1.0000       0.025512         0.6942   92-A'
 118   1.0000       0.044589         1.2133   93-A'
 119   1.0000       0.054144         1.4733   27-A"
 120   1.0000       0.055763         1.5174   28-A"
 121   1.0000       0.065425         1.7803   29-A"
 122   1.0000       0.095731         2.6050   30-A"
 123   0.0000       0.138897         3.7796   94-A'
 124   0.0000       0.182589         4.9685   95-A'
 125   0.0000       0.182783         4.9738   96-A'
 126   0.0000       0.195708         5.3255   31-A"
 127   0.0000       0.197957         5.3867   97-A'

MULLIKEN ATOMIC CHARGES AND SPIN POPULATIONS
--------------------------------------------
   0 Cu:    0.696857    0.310714
   1 Se:   -0.739417    0.170628
   2 C :    0.211574   -0.002151
   3 Se:   -0.722802    0.174855
   4 C :    0.203164   -0.001901
   5 Se:   -0.728704    0.173955
   6 C :    0.207630   -0.002292
   7 Se:   -0.741132    0.175587
   8 C :    0.231172   -0.003238
   9 C :   -0.098810   -0.002930
  10 C :   -0.129329   -0.001496
  11 C :   -0.161252   -0.000688
  12 H :    0.093492    0.002477
  13 C :   -0.153559   -0.000448
  14 H :    0.091649    0.002364
  15 H :    0.015774    0.001760
  16 H :    0.033978    0.001122
  17 C :   -0.119718   -0.002532
  18 C :   -0.128960   -0.002082
  19 C :   -0.160652   -0.000711
  20 H :    0.096124    0.002406
  21 C :   -0.141124   -0.000514
  22 H :    0.092709    0.002368
  23 H :    0.024566    0.001266
  24 H :    0.026773    0.001477
Sum of atomic charges         :   -2.0000000

LOEWDIN ATOMIC CHARGES AND SPIN POPULATIONS
-------------------------------------------
   0 Cu:   -0.656882    0.391672
   1 Se:   -0.207925    0.123278
   2 C :    0.095576    0.011876
   3 Se:   -0.239952    0.125464
   4 C :    0.073478    0.013064
   5 Se:   -0.226072    0.126633
   6 C :    0.078766    0.012933
   7 Se:   -0.187240    0.128882
   8 C :    0.079124    0.011553
   9 C :    0.370084    0.005041
  10 C :    0.355499    0.005771
  11 C :    0.320777    0.000463
  12 H :   -0.465445    0.008243
  13 C :    0.324161    0.000062
  14 H :   -0.470074    0.008472
  15 H :   -0.408276    0.000481
  16 H :   -0.426919    0.000179
  17 C :    0.367098    0.004665
  18 C :    0.364519    0.005229
  19 C :    0.318448    0.000026
  20 H :   -0.473823    0.007779
  21 C :    0.316517    0.000251
  22 H :   -0.466333    0.007358
  23 H :   -0.416960    0.000244
  24 H :   -0.418147    0.000381

  Mayer bond orders larger than 0.100000
B(  0-Cu,  1-Se) :   0.5353 B(  0-Cu,  3-Se) :   0.5362 B(  0-Cu,  5-Se) :   0.5289
B(  0-Cu,  7-Se) :   0.5334 B(  1-Se,  2-C ) :   1.0068 B(  2-C ,  6-C ) :   1.1473
B(  2-C , 17-C ) :   1.2925 B(  3-Se,  4-C ) :   1.0075 B(  4-C ,  8-C ) :   1.1343
B(  4-C , 10-C ) :   1.3061 B(  5-Se,  6-C ) :   1.0154 B(  6-C , 18-C ) :   1.2889
B(  7-Se,  8-C ) :   1.0209 B(  8-C ,  9-C ) :   1.2836 B(  9-C , 13-C ) :   1.3457
B(  9-C , 14-H ) :   0.9618 B( 10-C , 11-C ) :   1.3492 B( 10-C , 12-H ) :   0.9590
B( 11-C , 13-C ) :   1.3381 B( 11-C , 15-H ) :   1.0007 B( 13-C , 16-H ) :   0.9910
B( 17-C , 19-C ) :   1.3539 B( 17-C , 20-H ) :   0.9603 B( 18-C , 21-C ) :   1.3560
B( 18-C , 22-H ) :   0.9632 B( 19-C , 21-C ) :   1.3327 B( 19-C , 23-H ) :   0.9968
B( 21-C , 24-H ) :   0.9933

FINAL SINGLE POINT ENERGY    -11627.105643625471

DIPOLE MOMENT
-------------
                                X             Y             Z
Electronic contribution:      0.07950       0.91664      -0.00000
Nuclear contribution   :     -0.06546      -0.80605       0.00000
                        -----------------------------------------
Total Dipole Moment    :      0.01405       0.11059      -0.00000
                        -----------------------------------------
Magnitude (a.u.)       :      0.11148
Magnitude (Debye)      :      0.28336

Rotational constants in cm-1:     0.017081     0.004032     0.003262
Rotational constants in MHz :   512.078947   120.886370    97.798984

                             ****ORCA TERMINATED NORMALLY****
TOTAL RUN TIME: 0 days 19 hours 22 minutes 40 seconds 976 msec
