                         Program Version 5.0.4 -  RELEASE  -
|  1> ! RIJCOSX nofrozencore ReducedPop printbasis
|  2> ! M06L ano-rcc-dzp autoaux
|  3>
|  4> %maxcore 7500
|  5> %basis
|  6> PCDTrimBas overlap
|  7> PCDTrimAuxJ Coulomb
|  8> PCDTrimAuxJK Coulomb
|  9> PCDTrimAuxC Coulomb
| 10> PCDThresh -1
| 11> end
| 12>
| 13> %basis
| 14> newgto Cu "ano-rcc-tzp" end
| 15> newgto Se "ano-rcc-tzp" end
| 16> end
| 17>
| 18> %pal
| 19> nprocs 8
| 20> end
| 21>
| 22> % sym SymThresh 1e-2 end
| 23> * xyz -2 2
| 24> Cu -0.00010325595886220128 -0.00013609046357204133 -0.00011100266971651756
| 25> Se -1.0672430780955575 -1.5689125211005859 -1.4129042547550499
| 26> C -0.09604814562075495 -1.7334798167784953 -2.7328849796455774
| 27> Se -1.6507535040560397 -0.054261827601392046 1.6970416807097177
| 28> C -1.1014573676037176 1.00018108577116 2.8283623972375094
| 29> Se 1.6509733828119288 0.05227326870204426 -1.7005337759026546
| 30> C 1.0860176734113423 -0.9994277362316702 -2.810426389523492
| 31> Se 1.0650070534674037 1.5701033149393724 1.4172719621509036
| 32> C 0.07674484227812271 1.6986480240377302 2.6967666403907513
| 33> C 0.3948791582560746 2.5558677043545095 3.7554153447817975
| 34> C -1.8558973129632101 1.2099483864536795 3.9878190039892827
| 35> C -1.5073582802117718 2.0743314315841452 5.025297534468192
| 36> H -2.7705053614928867 0.6357287801475208 4.037577297753606
| 37> C -0.353269100822225 2.7648728665981155 4.906818178334691
| 38> H 1.3188679980021434 3.1042678254594502 3.6532557088104407
| 39> H -2.015237353718642 2.3217576474359847 5.979644241411241
| 40> H -0.14835445574207626 3.4229203991400774 5.762011808575299
| 41> C -0.3245560048548122 -2.528128804868165 -3.7860992943970104
| 42> C 1.9076843658221663 -1.164002949609196 -3.968655479304265
| 43> C 0.32655385848221785 -2.7764579532398734 -4.896875428502897
| 44> H -1.2222593027160529 -3.1357491244909803 -3.8092884865028425
| 45> C 1.4876524415391974 -2.0835277882346768 -5.0190286968912
| 46> H 2.8135420954228687 -0.5586744975691813 -3.95803860054918
| 47> H -0.199997942255534 -3.510702397095078 -5.528805546615329
| 48> H 1.900514791953451 -2.4327028336082024 -6.037092391810047
| 49> *
| 50>
| 51> % eprnmr
| 52> gtensor true
| 53> Nuclei = all H {aiso,adip,aorb,fgrad,rho}
| 54> Nuclei = all Cu {aiso,adip,aorb,fgrad,rho}
| 55> end
| 56>
| 57>                          ****END OF INPUT****

CARTESIAN COORDINATES (ANGSTROEM)
---------------------------------
  Cu    -0.000147   -0.000141    0.000000
  Se    -1.824154   -1.506404    0.000000
  C     -3.185470   -0.579328    0.000000
  Se     1.680133   -1.668843    0.000000
  C      3.087569   -0.824695    0.000000
  Se    -1.684144    1.668508    0.000000
  C     -3.069462    0.809437    0.000000
  Se     1.828829    1.504496    0.000000
  C      3.140228    0.550282    0.000000
  C      4.423134    1.107888    0.000000
  C      4.300518   -1.522030    0.000000
  C      5.564174   -0.931968    0.000000
  H      4.198887   -2.598312    0.000000
  C      5.627841    0.416644    0.000000
  H      4.465640    2.186372    0.000000
  H      6.582252   -1.371804    0.000000
  H      6.655121    0.805319    0.000000
  C     -4.446462   -1.029708    0.000000
  C     -4.269277    1.586714    0.000000
  C     -5.620966   -0.446636    0.000000
  H     -4.629729   -2.098364    0.000000
  C     -5.560338    0.909664    0.000000
  H     -4.099167    2.662900    0.000000
  H     -6.445405   -1.178762    0.000000
  H     -6.668847    1.225956    0.000000

 Total Charge           Charge          ....   -2
 Multiplicity           Mult            ....    2
 Number of Electrons    NEL             ....  247
 Basis Dimension        Dim             ....  575

ORBITAL ENERGIES
----------------
                 SPIN UP ORBITALS
  NO   OCC          E(Eh)            E(eV)    Irrep
   0   1.0000    -443.563895    -12069.9872    1-A'
   1   1.0000    -443.561226    -12069.9146    2-A'
   2   1.0000    -443.548081    -12069.5569    3-A'
   3   1.0000    -443.547853    -12069.5507    4-A'
   4   1.0000    -318.187934     -8658.3339    5-A'
   5   1.0000     -56.372058     -1533.9617    6-A'
   6   1.0000     -56.370505     -1533.9194    7-A'
   7   1.0000     -56.358264     -1533.5863    8-A'
   8   1.0000     -56.357940     -1533.5775    9-A'
   9   1.0000     -51.288275     -1395.6249   10-A'
  10   1.0000     -51.288220     -1395.6234   11-A'
  11   1.0000     -51.286973     -1395.5895   12-A'
  12   1.0000     -51.286936     -1395.5885   13-A'
  13   1.0000     -51.286530     -1395.5774    1-A"
  14   1.0000     -51.286493     -1395.5764    2-A"
  15   1.0000     -51.286209     -1395.5687   14-A'
  16   1.0000     -51.286157     -1395.5673   15-A'
  17   1.0000     -51.284837     -1395.5314   16-A'
  18   1.0000     -51.284731     -1395.5285   17-A'
  19   1.0000     -51.284365     -1395.5185    3-A"
  20   1.0000     -51.284274     -1395.5160    4-A"
  21   1.0000     -38.028483     -1034.8076   18-A'
  22   1.0000     -33.530534      -912.4122   19-A'
  23   1.0000     -33.529781      -912.3917   20-A'
  24   1.0000     -33.518535      -912.0857    5-A"
  25   1.0000      -9.829461      -267.4732   21-A'
  26   1.0000      -9.823426      -267.3090   22-A'
  27   1.0000      -9.814784      -267.0739   23-A'
  28   1.0000      -9.814642      -267.0700   24-A'
  29   1.0000      -9.812553      -267.0132   25-A'
  30   1.0000      -9.810380      -266.9540   26-A'
  31   1.0000      -9.809947      -266.9422   27-A'
  32   1.0000      -9.809618      -266.9333   28-A'
  33   1.0000      -9.808033      -266.8901   29-A'
  34   1.0000      -9.806018      -266.8353   30-A'
  35   1.0000      -9.805446      -266.8198   31-A'
  36   1.0000      -9.791287      -266.4345   32-A'
  37   1.0000      -7.342582      -199.8018   33-A'
  38   1.0000      -7.342114      -199.7891   34-A'
  39   1.0000      -7.334867      -199.5919   35-A'
  40   1.0000      -7.334599      -199.5846   36-A'
  41   1.0000      -5.406301      -147.1129   37-A'
  42   1.0000      -5.405655      -147.0954   38-A'
  43   1.0000      -5.404168      -147.0549   39-A'
  44   1.0000      -5.403991      -147.0501   40-A'
  45   1.0000      -5.401076      -146.9708   41-A'
  46   1.0000      -5.400724      -146.9612    6-A"
  47   1.0000      -5.400359      -146.9513   42-A'
  48   1.0000      -5.399979      -146.9409    7-A"
  49   1.0000      -5.398831      -146.9096   43-A'
  50   1.0000      -5.398468      -146.8998   44-A'
  51   1.0000      -5.398364      -146.8970    8-A"
  52   1.0000      -5.397993      -146.8869    9-A"
  53   1.0000      -4.022807      -109.4661   45-A'
  54   1.0000      -2.542367       -69.1813   46-A'
  55   1.0000      -2.541477       -69.1571   47-A'
  56   1.0000      -2.517843       -68.5140   10-A"
  57   1.0000      -1.745527       -47.4982   48-A'
  58   1.0000      -1.744933       -47.4820   49-A'
  59   1.0000      -1.743166       -47.4340   50-A'
  60   1.0000      -1.742824       -47.4247   51-A'
  61   1.0000      -1.742640       -47.4196   52-A'
  62   1.0000      -1.741946       -47.4008   53-A'
  63   1.0000      -1.741928       -47.4003   11-A"
  64   1.0000      -1.741287       -47.3828   12-A"
  65   1.0000      -1.740446       -47.3599   54-A'
  66   1.0000      -1.740119       -47.3510   55-A'
  67   1.0000      -1.739646       -47.3382   13-A"
  68   1.0000      -1.739413       -47.3318   14-A"
  69   1.0000      -1.737660       -47.2841   15-A"
  70   1.0000      -1.737598       -47.2824   56-A'
  71   1.0000      -1.736896       -47.2633   57-A'
  72   1.0000      -1.736812       -47.2610   16-A"
  73   1.0000      -1.735303       -47.2200   17-A"
  74   1.0000      -1.735239       -47.2183   58-A'
  75   1.0000      -1.734889       -47.2087   59-A'
  76   1.0000      -1.734802       -47.2064   18-A"
  77   1.0000      -0.607890       -16.5415   60-A'
  78   1.0000      -0.604660       -16.4536   61-A'
  79   1.0000      -0.530621       -14.4389   62-A'
  80   1.0000      -0.527679       -14.3589   63-A'
  81   1.0000      -0.497379       -13.5344   64-A'
  82   1.0000      -0.496770       -13.5178   65-A'
  83   1.0000      -0.411549       -11.1988   66-A'
  84   1.0000      -0.406826       -11.0703   67-A'
  85   1.0000      -0.391006       -10.6398   68-A'
  86   1.0000      -0.385438       -10.4883   69-A'
  87   1.0000      -0.325529        -8.8581   70-A'
  88   1.0000      -0.322134        -8.7657   71-A'
  89   1.0000      -0.281627        -7.6635   72-A'
  90   1.0000      -0.277218        -7.5435   73-A'
  91   1.0000      -0.235906        -6.4193   74-A'
  92   1.0000      -0.227376        -6.1872   75-A'
  93   1.0000      -0.199447        -5.4272   76-A'
  94   1.0000      -0.197317        -5.3693   77-A'
  95   1.0000      -0.167797        -4.5660   78-A'
  96   1.0000      -0.161716        -4.4005   79-A'
  97   1.0000      -0.142985        -3.8908   80-A'
  98   1.0000      -0.136076        -3.7028   81-A'
  99   1.0000      -0.134046        -3.6476   19-A"
 100   1.0000      -0.132110        -3.5949   20-A"
 101   1.0000      -0.132058        -3.5935   82-A'
 102   1.0000      -0.105351        -2.8668   83-A'
 103   1.0000      -0.075785        -2.0622   84-A'
 104   1.0000      -0.070950        -1.9307   85-A'
 105   1.0000      -0.066601        -1.8123   86-A'
 106   1.0000      -0.055591        -1.5127   87-A'
 107   1.0000      -0.053944        -1.4679   21-A"
 108   1.0000      -0.052407        -1.4261   22-A"
 109   1.0000      -0.032898        -0.8952   23-A"
 110   1.0000      -0.032483        -0.8839   88-A'
 111   1.0000      -0.028132        -0.7655   89-A'
 112   1.0000      -0.026088        -0.7099   24-A"
 113   1.0000      -0.002518        -0.0685   25-A"
 114   1.0000      -0.001840        -0.0501   26-A"
 115   1.0000      -0.000216        -0.0059   90-A'
 116   1.0000       0.018390         0.5004   91-A'
 117   1.0000       0.020661         0.5622   92-A'
 118   1.0000       0.040078         1.0906   93-A'
 119   1.0000       0.056253         1.5307   27-A"
 120   1.0000       0.057360         1.5608   28-A"
 121   1.0000       0.068355         1.8600   29-A"
 122   1.0000       0.097245         2.6462   30-A"
 123   1.0000       0.115242         3.1359   94-A'
 124   0.0000       0.180044         4.8993   95-A'
 125   0.0000       0.180184         4.9031   96-A'
 126   0.0000       0.196894         5.3578   31-A"
 127   0.0000       0.197730         5.3805   97-A'
 128   0.0000       0.198546         5.4027   98-A'

                 SPIN DOWN ORBITALS
  NO   OCC          E(Eh)            E(eV)    Irrep
   0   1.0000    -443.563440    -12069.9748    1-A'
   1   1.0000    -443.560773    -12069.9023    2-A'
   2   1.0000    -443.547629    -12069.5446    3-A'
   3   1.0000    -443.547402    -12069.5384    4-A'
   4   1.0000    -318.187811     -8658.3305    5-A'
   5   1.0000     -56.371874     -1533.9567    6-A'
   6   1.0000     -56.370322     -1533.9144    7-A'
   7   1.0000     -56.358083     -1533.5814    8-A'
   8   1.0000     -56.357760     -1533.5726    9-A'
   9   1.0000     -51.287942     -1395.6159   10-A'
  10   1.0000     -51.287885     -1395.6143   11-A'
  11   1.0000     -51.286277     -1395.5706    1-A"
  12   1.0000     -51.286240     -1395.5695    2-A"
  13   1.0000     -51.286233     -1395.5693   12-A'
  14   1.0000     -51.286201     -1395.5685   13-A'
  15   1.0000     -51.285890     -1395.5600   14-A'
  16   1.0000     -51.285837     -1395.5586   15-A'
  17   1.0000     -51.284118     -1395.5118    3-A"
  18   1.0000     -51.284110     -1395.5116   16-A'
  19   1.0000     -51.284027     -1395.5093    4-A"
  20   1.0000     -51.284008     -1395.5088   17-A'
  21   1.0000     -38.014568     -1034.4290   18-A'
  22   1.0000     -33.517312      -912.0524   19-A'
  23   1.0000     -33.516557      -912.0319   20-A'
  24   1.0000     -33.514649      -911.9800    5-A"
  25   1.0000      -9.829388      -267.4712   21-A'
  26   1.0000      -9.823293      -267.3054   22-A'
  27   1.0000      -9.814793      -267.0741   23-A'
  28   1.0000      -9.814592      -267.0686   24-A'
  29   1.0000      -9.812501      -267.0117   25-A'
  30   1.0000      -9.810375      -266.9539   26-A'
  31   1.0000      -9.809867      -266.9401   27-A'
  32   1.0000      -9.809627      -266.9335   28-A'
  33   1.0000      -9.807908      -266.8867   29-A'
  34   1.0000      -9.806043      -266.8360   30-A'
  35   1.0000      -9.805406      -266.8187   31-A'
  36   1.0000      -9.791183      -266.4316   32-A'
  37   1.0000      -7.342182      -199.7909   33-A'
  38   1.0000      -7.341713      -199.7782   34-A'
  39   1.0000      -7.334462      -199.5809   35-A'
  40   1.0000      -7.334193      -199.5735   36-A'
  41   1.0000      -5.405926      -147.1027   37-A'
  42   1.0000      -5.405287      -147.0853   38-A'
  43   1.0000      -5.403807      -147.0451   39-A'
  44   1.0000      -5.403641      -147.0406   40-A'
  45   1.0000      -5.400410      -146.9526    6-A"
  46   1.0000      -5.400246      -146.9482   41-A'
  47   1.0000      -5.399661      -146.9323    7-A"
  48   1.0000      -5.399528      -146.9286   42-A'
  49   1.0000      -5.398057      -146.8886    8-A"
  50   1.0000      -5.398012      -146.8874   43-A'
  51   1.0000      -5.397681      -146.8784    9-A"
  52   1.0000      -5.397648      -146.8775   44-A'
  53   1.0000      -3.994512      -108.6962   45-A'
  54   1.0000      -2.507505       -68.2327   10-A"
  55   1.0000      -2.507044       -68.2201   46-A'
  56   1.0000      -2.506078       -68.1938   47-A'
  57   1.0000      -1.745068       -47.4857   48-A'
  58   1.0000      -1.744478       -47.4697   49-A'
  59   1.0000      -1.742719       -47.4218   50-A'
  60   1.0000      -1.742382       -47.4126   51-A'
  61   1.0000      -1.741735       -47.3950   52-A'
  62   1.0000      -1.741610       -47.3916   11-A"
  63   1.0000      -1.741040       -47.3761   53-A'
  64   1.0000      -1.740968       -47.3742   12-A"
  65   1.0000      -1.739559       -47.3358   54-A'
  66   1.0000      -1.739341       -47.3299   13-A"
  67   1.0000      -1.739238       -47.3271   55-A'
  68   1.0000      -1.739108       -47.3235   14-A"
  69   1.0000      -1.736892       -47.2632   15-A"
  70   1.0000      -1.736788       -47.2604   56-A'
  71   1.0000      -1.736083       -47.2412   57-A'
  72   1.0000      -1.736036       -47.2399   16-A"
  73   1.0000      -1.734547       -47.1994   17-A"
  74   1.0000      -1.734448       -47.1967   58-A'
  75   1.0000      -1.734092       -47.1870   59-A'
  76   1.0000      -1.734036       -47.1855   18-A"
  77   1.0000      -0.607164       -16.5218   60-A'
  78   1.0000      -0.603850       -16.4316   61-A'
  79   1.0000      -0.529411       -14.4060   62-A'
  80   1.0000      -0.526626       -14.3302   63-A'
  81   1.0000      -0.495501       -13.4833   64-A'
  82   1.0000      -0.494999       -13.4696   65-A'
  83   1.0000      -0.408981       -11.1289   66-A'
  84   1.0000      -0.404156       -10.9976   67-A'
  85   1.0000      -0.388714       -10.5774   68-A'
  86   1.0000      -0.383138       -10.4257   69-A'
  87   1.0000      -0.323595        -8.8055   70-A'
  88   1.0000      -0.320000        -8.7076   71-A'
  89   1.0000      -0.279150        -7.5961   72-A'
  90   1.0000      -0.274678        -7.4744   73-A'
  91   1.0000      -0.234693        -6.3863   74-A'
  92   1.0000      -0.226255        -6.1567   75-A'
  93   1.0000      -0.198030        -5.3887   76-A'
  94   1.0000      -0.196158        -5.3377   77-A'
  95   1.0000      -0.166292        -4.5250   78-A'
  96   1.0000      -0.160051        -4.3552   79-A'
  97   1.0000      -0.141541        -3.8515   80-A'
  98   1.0000      -0.135016        -3.6740   81-A'
  99   1.0000      -0.133697        -3.6381   19-A"
 100   1.0000      -0.131712        -3.5841   20-A"
 101   1.0000      -0.129710        -3.5296   82-A'
 102   1.0000      -0.103074        -2.8048   83-A'
 103   1.0000      -0.074320        -2.0223   84-A'
 104   1.0000      -0.069015        -1.8780   85-A'
 105   1.0000      -0.057439        -1.5630   86-A'
 106   1.0000      -0.053022        -1.4428   21-A"
 107   1.0000      -0.052455        -1.4274   87-A'
 108   1.0000      -0.051685        -1.4064   22-A"
 109   1.0000      -0.030298        -0.8245   23-A"
 110   1.0000      -0.025035        -0.6812   24-A"
 111   1.0000      -0.023051        -0.6272   88-A'
 112   1.0000      -0.003081        -0.0838   89-A'
 113   1.0000       0.007677         0.2089   25-A"
 114   1.0000       0.008837         0.2405   26-A"
 115   1.0000       0.010184         0.2771   90-A'
 116   1.0000       0.028689         0.7807   91-A'
 117   1.0000       0.031274         0.8510   92-A'
 118   1.0000       0.051290         1.3957   93-A'
 119   1.0000       0.058203         1.5838   27-A"
 120   1.0000       0.060693         1.6515   28-A"
 121   1.0000       0.070105         1.9077   29-A"
 122   1.0000       0.100513         2.7351   30-A"
 123   0.0000       0.145074         3.9477   94-A'
 124   0.0000       0.181680         4.9438   95-A'
 125   0.0000       0.181752         4.9457   96-A'
 126   0.0000       0.196990         5.3604   31-A"
 127   0.0000       0.200462         5.4549   97-A'

MULLIKEN ATOMIC CHARGES AND SPIN POPULATIONS
--------------------------------------------
   0 Cu:    0.632799    0.310827
   1 Se:   -0.794049    0.170608
   2 C :    0.196203   -0.003524
   3 Se:   -0.732484    0.172944
   4 C :    0.242186   -0.002924
   5 Se:   -0.674713    0.175357
   6 C :    0.264049   -0.003125
   7 Se:   -0.719791    0.173894
   8 C :    0.222594   -0.003520
   9 C :   -0.153795   -0.001550
  10 C :   -0.167872   -0.001712
  11 C :   -0.110353   -0.000374
  12 H :    0.092467    0.002652
  13 C :   -0.097162   -0.000159
  14 H :    0.094180    0.002591
  15 H :    0.002773    0.001390
  16 H :    0.009086    0.001489
  17 C :    0.006272   -0.001546
  18 C :   -0.205659   -0.001408
  19 C :   -0.062475   -0.001154
  20 H :    0.081126    0.002497
  21 C :   -0.198137    0.000356
  22 H :    0.086988    0.002455
  23 H :    0.002881    0.001858
  24 H :   -0.017114    0.002078
Sum of atomic charges         :   -2.0000000

LOEWDIN ATOMIC CHARGES AND SPIN POPULATIONS
-------------------------------------------
   0 Cu:   -0.612668    0.390891
   1 Se:   -0.195764    0.122845
   2 C :    0.029924    0.013007
   3 Se:   -0.201127    0.121796
   4 C :    0.042608    0.011356
   5 Se:   -0.206197    0.123367
   6 C :    0.052024    0.010824
   7 Se:   -0.199751    0.124036
   8 C :    0.027398    0.012233
   9 C :    0.380968    0.006895
  10 C :    0.380066    0.006721
  11 C :    0.301769    0.000470
  12 H :   -0.469229    0.009939
  13 C :    0.302715    0.000595
  14 H :   -0.466468    0.009182
  15 H :   -0.395263    0.000446
  16 H :   -0.397462    0.000505
  17 C :    0.327837    0.005798
  18 C :    0.397074    0.007716
  19 C :    0.280299    0.000258
  20 H :   -0.451656    0.007565
  21 C :    0.308868    0.001133
  22 H :   -0.474343    0.011171
  23 H :   -0.367398    0.000360
  24 H :   -0.394226    0.000892

  Mayer bond orders larger than 0.100000
B(  0-Cu,  1-Se) :   0.5584 B(  0-Cu,  3-Se) :   0.5531 B(  0-Cu,  5-Se) :   0.5470
B(  0-Cu,  7-Se) :   0.5506 B(  1-Se,  2-C ) :   1.0242 B(  2-C ,  6-C ) :   1.1218
B(  2-C , 17-C ) :   1.2496 B(  3-Se,  4-C ) :   1.0333 B(  4-C ,  8-C ) :   1.1202
B(  4-C , 10-C ) :   1.2769 B(  5-Se,  6-C ) :   1.0536 B(  6-C , 18-C ) :   1.2813
B(  7-Se,  8-C ) :   1.0551 B(  8-C ,  9-C ) :   1.2661 B(  9-C , 13-C ) :   1.3646
B(  9-C , 14-H ) :   0.9620 B( 10-C , 11-C ) :   1.3670 B( 10-C , 12-H ) :   0.9638
B( 11-C , 13-C ) :   1.3157 B( 11-C , 15-H ) :   0.9962 B( 13-C , 16-H ) :   0.9950
B( 17-C , 19-C ) :   1.3124 B( 17-C , 20-H ) :   0.9539 B( 18-C , 21-C ) :   1.3808
B( 18-C , 22-H ) :   0.9685 B( 19-C , 21-C ) :   1.3274 B( 19-C , 23-H ) :   0.9950
B( 21-C , 24-H ) :   1.0040

FINAL SINGLE POINT ENERGY    -11627.088906492285

DIPOLE MOMENT
-------------
                                X             Y             Z
Electronic contribution:      0.03748       0.33307      -0.00000
Nuclear contribution   :      0.04906      -0.32022       0.00000
                        -----------------------------------------
Total Dipole Moment    :      0.08654       0.01285      -0.00000
                        -----------------------------------------
Magnitude (a.u.)       :      0.08749
Magnitude (Debye)      :      0.22239

Rotational constants in cm-1:     0.017674     0.004095     0.003325
Rotational constants in MHz :   529.840195   122.774817    99.677500

                             ****ORCA TERMINATED NORMALLY****
TOTAL RUN TIME: 0 days 16 hours 59 minutes 21 seconds 446 msec
