                         Program Version 5.0.4 -  RELEASE  -
|  1> ! RIJCOSX nofrozencore ReducedPop printbasis
|  2> ! M06L ano-rcc-dzp autoaux
|  3>
|  4> %maxcore 7500
|  5> %basis
|  6> PCDTrimBas overlap
|  7> PCDTrimAuxJ Coulomb
|  8> PCDTrimAuxJK Coulomb
|  9> PCDTrimAuxC Coulomb
| 10> PCDThresh -1
| 11> end
| 12>
| 13> %basis
| 14> newgto Cu "ano-rcc-tzp" end
| 15> newgto Se "ano-rcc-tzp" end
| 16> end
| 17>
| 18> %pal
| 19> nprocs 8
| 20> end
| 21>
| 22> % sym SymThresh 1e-2 end
| 23> * xyz -2 2
| 24> Cu -1.9689189097205936e-06 -9.884892387375197e-08 -3.3702702739345793e-07
| 25> Se 0.4052161274388711 -1.1579902634518715 -2.0255455763275507
| 26> C 0.3994721943670494 -2.741000144076623 -1.607578617677377
| 27> Se 0.06329182446259035 2.167945659590384 -0.9508245316725946
| 28> C -0.48030449155395133 3.167483577983148 0.2596653848497637
| 29> Se -0.05455573126016008 -2.1675070669151566 0.9523199205931394
| 30> C 0.22494555355773893 -3.180303789164954 -0.30337610516755825
| 31> Se -0.413955174019666 1.1575515225032578 2.024049681866465
| 32> C -0.14406098017077143 2.753822027842642 1.6512979636179757
| 33> C -0.7441440736768726 3.712101815600448 2.5509588209770153
| 34> C -0.1283196751922038 4.561814709366407 0.11925025821710367
| 35> C -0.4910786327484345 5.519621590482881 1.0545544507730074
| 36> H -0.2921812755726131 4.881083696745958 -0.9502758122895518
| 37> C -0.626838965403364 5.0818087919840025 2.3668005740719114
| 38> H -0.5786136597740773 3.3773821438726124 3.6155046529756096
| 39> H -0.46144556502012435 6.572717530176787 0.7926095602975125
| 40> H -0.8387736046944179 5.760026784966409 3.1875270371870514
| 41> C 0.6323371443184369 -3.7177159975038125 -2.570097543348002
| 42> C 0.24010209291322593 -4.556202709986861 -0.10011605427738118
| 43> C 0.6576014542977965 -5.0802653233096695 -2.3615351693893376
| 44> H 0.7740477659914043 -3.367572342937905 -3.582052129936892
| 45> C 0.4602856256109013 -5.521166591315535 -1.0598250793745057
| 46> H 0.09684679945814274 -4.890890399634549 0.9168396979288743
| 47> H 0.8349637466041085 -5.760218057634105 -3.1881791844850578
| 48> H 0.4654884956885545 -6.572513914669574 -0.7919162325716206
| 49> *
| 50>
| 51> % eprnmr
| 52> gtensor true
| 53> Nuclei = all H {aiso,adip,aorb,fgrad,rho}
| 54> Nuclei = all Cu {aiso,adip,aorb,fgrad,rho}
| 55> end
| 56>
| 57>                          ****END OF INPUT****

CARTESIAN COORDINATES (ANGSTROEM)
---------------------------------
  Cu     0.000000    0.000000    0.000000
  Se    -1.568071    0.256325   -1.755969
  C     -0.686544    0.098770   -3.126639
  Se    -1.566641    0.265085    1.755969
  C     -0.728337   -0.157258    3.126639
  Se     1.568071   -0.256325   -1.755969
  C      0.686544   -0.098770   -3.126639
  Se     1.566641   -0.265085    1.755969
  C      0.728337    0.157258    3.126639
  C      1.282425   -0.330153    4.368893
  C     -1.282425    0.330153    4.368893
  C     -0.690455    0.079350    5.597896
  H     -2.400839    0.182621    4.360734
  C      0.690455   -0.079350    5.597896
  H      2.400839   -0.182621    4.360734
  H     -1.261166    0.209948    6.512078
  H      1.261166   -0.209948    6.512078
  C     -1.300720    0.218077   -4.368893
  C      1.300720   -0.218077   -4.368893
  C     -0.685419    0.110205   -5.597895
  H     -2.368865    0.378497   -4.360734
  C      0.685419   -0.110205   -5.597895
  H      2.368865   -0.378497   -4.360734
  H     -1.261809    0.206012   -6.512077
  H      1.261809   -0.206012   -6.512077

 Total Charge           Charge          ....   -2
 Multiplicity           Mult            ....    2
 Number of Electrons    NEL             ....  247
 Basis Dimension        Dim             ....  575

ORBITAL ENERGIES
----------------
                 SPIN UP ORBITALS
  NO   OCC          E(Eh)            E(eV)    Irrep
   0   1.0000    -443.562026    -12069.9363    1-B
   1   1.0000    -443.547867    -12069.5511    1-A
   2   1.0000    -443.539203    -12069.3153    2-B
   3   1.0000    -443.538236    -12069.2890    2-A
   4   1.0000    -318.188493     -8658.3491    3-A
   5   1.0000     -56.370955     -1533.9317    3-B
   6   1.0000     -56.358040     -1533.5802    4-A
   7   1.0000     -56.355608     -1533.5141    4-B
   8   1.0000     -56.354713     -1533.4897    5-A
   9   1.0000     -51.287200     -1395.5957    5-B
  10   1.0000     -51.287152     -1395.5944    6-A
  11   1.0000     -51.285863     -1395.5593    6-B
  12   1.0000     -51.285806     -1395.5577    7-A
  13   1.0000     -51.285425     -1395.5474    8-A
  14   1.0000     -51.285377     -1395.5461    7-B
  15   1.0000     -51.284980     -1395.5352    8-B
  16   1.0000     -51.284963     -1395.5348    9-A
  17   1.0000     -51.283851     -1395.5045    9-B
  18   1.0000     -51.283829     -1395.5039   10-A
  19   1.0000     -51.283298     -1395.4895   11-A
  20   1.0000     -51.283296     -1395.4894   10-B
  21   1.0000     -38.029047     -1034.8230   12-A
  22   1.0000     -33.531074      -912.4269   11-B
  23   1.0000     -33.530168      -912.4023   13-A
  24   1.0000     -33.519354      -912.1080   12-B
  25   1.0000      -9.821891      -267.2673   14-A
  26   1.0000      -9.821713      -267.2624   13-B
  27   1.0000      -9.816986      -267.1338   15-A
  28   1.0000      -9.816818      -267.1292   16-A
  29   1.0000      -9.816546      -267.1218   14-B
  30   1.0000      -9.816369      -267.1170   15-B
  31   1.0000      -9.813393      -267.0360   16-B
  32   1.0000      -9.813393      -267.0360   17-A
  33   1.0000      -9.809396      -266.9272   18-A
  34   1.0000      -9.808946      -266.9150   17-B
  35   1.0000      -9.807407      -266.8731   19-A
  36   1.0000      -9.807404      -266.8730   18-B
  37   1.0000      -7.342113      -199.7891   19-B
  38   1.0000      -7.336092      -199.6252   20-B
  39   1.0000      -7.335502      -199.6092   20-A
  40   1.0000      -7.334785      -199.5897   21-A
  41   1.0000      -5.406631      -147.1219   21-B
  42   1.0000      -5.406621      -147.1216   22-A
  43   1.0000      -5.405017      -147.0780   22-B
  44   1.0000      -5.404998      -147.0775   23-A
  45   1.0000      -5.401874      -146.9925   24-A
  46   1.0000      -5.401870      -146.9924   23-B
  47   1.0000      -5.400636      -146.9588   24-B
  48   1.0000      -5.400627      -146.9585   25-A
  49   1.0000      -5.399713      -146.9337   25-B
  50   1.0000      -5.399692      -146.9331   26-A
  51   1.0000      -5.399298      -146.9224   27-A
  52   1.0000      -5.399276      -146.9218   26-B
  53   1.0000      -4.023227      -109.4776   28-A
  54   1.0000      -2.542679       -69.1898   27-B
  55   1.0000      -2.541577       -69.1598   29-A
  56   1.0000      -2.518688       -68.5370   28-B
  57   1.0000      -1.745431       -47.4956   30-A
  58   1.0000      -1.745406       -47.4949   29-B
  59   1.0000      -1.744012       -47.4570   31-A
  60   1.0000      -1.743983       -47.4562   30-B
  61   1.0000      -1.743172       -47.4341   32-A
  62   1.0000      -1.743147       -47.4334   31-B
  63   1.0000      -1.742303       -47.4105   33-A
  64   1.0000      -1.742259       -47.4093   32-B
  65   1.0000      -1.741374       -47.3852   34-A
  66   1.0000      -1.741295       -47.3830   33-B
  67   1.0000      -1.740573       -47.3634   34-B
  68   1.0000      -1.740567       -47.3632   35-A
  69   1.0000      -1.738176       -47.2982   36-A
  70   1.0000      -1.738138       -47.2971   35-B
  71   1.0000      -1.738064       -47.2951   37-A
  72   1.0000      -1.738053       -47.2948   36-B
  73   1.0000      -1.736240       -47.2455   38-A
  74   1.0000      -1.736172       -47.2436   37-B
  75   1.0000      -1.736148       -47.2430   38-B
  76   1.0000      -1.736125       -47.2424   39-A
  77   1.0000      -0.603549       -16.4234   40-A
  78   1.0000      -0.592753       -16.1296   41-A
  79   1.0000      -0.522269       -14.2117   42-A
  80   1.0000      -0.516288       -14.0489   43-A
  81   1.0000      -0.500223       -13.6117   39-B
  82   1.0000      -0.491229       -13.3670   40-B
  83   1.0000      -0.413634       -11.2556   41-B
  84   1.0000      -0.409378       -11.1397   42-B
  85   1.0000      -0.382790       -10.4163   44-A
  86   1.0000      -0.371984       -10.1222   45-A
  87   1.0000      -0.320710        -8.7270   46-A
  88   1.0000      -0.297929        -8.1071   47-A
  89   1.0000      -0.287318        -7.8183   43-B
  90   1.0000      -0.278207        -7.5704   44-B
  91   1.0000      -0.229613        -6.2481   48-A
  92   1.0000      -0.221526        -6.0280   49-A
  93   1.0000      -0.200939        -5.4678   50-A
  94   1.0000      -0.177909        -4.8412   51-A
  95   1.0000      -0.170077        -4.6280   45-B
  96   1.0000      -0.161014        -4.3814   46-B
  97   1.0000      -0.138865        -3.7787   47-B
  98   1.0000      -0.134040        -3.6474   52-A
  99   1.0000      -0.133417        -3.6305   48-B
 100   1.0000      -0.131395        -3.5754   49-B
 101   1.0000      -0.118571        -3.2265   50-B
 102   1.0000      -0.106527        -2.8987   53-A
 103   1.0000      -0.077981        -2.1220   54-A
 104   1.0000      -0.077564        -2.1106   51-B
 105   1.0000      -0.068966        -1.8767   52-B
 106   1.0000      -0.059433        -1.6172   55-A
 107   1.0000      -0.049244        -1.3400   53-B
 108   1.0000      -0.039902        -1.0858   54-B
 109   1.0000      -0.035883        -0.9764   56-A
 110   1.0000      -0.030277        -0.8239   57-A
 111   1.0000      -0.021700        -0.5905   58-A
 112   1.0000      -0.020996        -0.5713   55-B
 113   1.0000      -0.003789        -0.1031   59-A
 114   1.0000      -0.002027        -0.0551   56-B
 115   1.0000       0.000956         0.0260   60-A
 116   1.0000       0.018383         0.5002   61-A
 117   1.0000       0.028496         0.7754   62-A
 118   1.0000       0.039833         1.0839   57-B
 119   1.0000       0.053268         1.4495   63-A
 120   1.0000       0.054677         1.4878   64-A
 121   1.0000       0.068233         1.8567   58-B
 122   1.0000       0.096680         2.6308   59-B
 123   1.0000       0.115705         3.1485   60-B
 124   0.0000       0.177757         4.8370   65-A
 125   0.0000       0.178140         4.8474   61-B
 126   0.0000       0.181623         4.9422   66-A
 127   0.0000       0.184242         5.0135   67-A
 128   0.0000       0.195776         5.3273   62-B

                 SPIN DOWN ORBITALS
  NO   OCC          E(Eh)            E(eV)    Irrep
   0   1.0000    -443.561571    -12069.9240    1-B
   1   1.0000    -443.547413    -12069.5387    1-A
   2   1.0000    -443.538747    -12069.3029    2-B
   3   1.0000    -443.537779    -12069.2766    2-A
   4   1.0000    -318.188371     -8658.3458    3-A
   5   1.0000     -56.370770     -1533.9266    3-B
   6   1.0000     -56.357858     -1533.5753    4-A
   7   1.0000     -56.355425     -1533.5091    4-B
   8   1.0000     -56.354530     -1533.4847    5-A
   9   1.0000     -51.286876     -1395.5869    5-B
  10   1.0000     -51.286820     -1395.5853    6-A
  11   1.0000     -51.285179     -1395.5407    7-A
  12   1.0000     -51.285143     -1395.5397    6-B
  13   1.0000     -51.285109     -1395.5388    7-B
  14   1.0000     -51.285071     -1395.5377    8-A
  15   1.0000     -51.284666     -1395.5267    8-B
  16   1.0000     -51.284644     -1395.5261    9-A
  17   1.0000     -51.283222     -1395.4874   10-A
  18   1.0000     -51.283200     -1395.4868    9-B
  19   1.0000     -51.282937     -1395.4797   10-B
  20   1.0000     -51.282900     -1395.4786   11-A
  21   1.0000     -38.015234     -1034.4471   12-A
  22   1.0000     -33.517954      -912.0699   11-B
  23   1.0000     -33.517057      -912.0455   13-A
  24   1.0000     -33.515473      -912.0024   12-B
  25   1.0000      -9.821935      -267.2684   14-A
  26   1.0000      -9.821755      -267.2635   13-B
  27   1.0000      -9.816937      -267.1324   15-A
  28   1.0000      -9.816767      -267.1278   16-A
  29   1.0000      -9.816496      -267.1204   14-B
  30   1.0000      -9.816319      -267.1156   15-B
  31   1.0000      -9.813228      -267.0315   16-B
  32   1.0000      -9.813227      -267.0315   17-A
  33   1.0000      -9.809414      -266.9277   18-A
  34   1.0000      -9.808963      -266.9154   17-B
  35   1.0000      -9.807285      -266.8698   19-A
  36   1.0000      -9.807284      -266.8698   18-B
  37   1.0000      -7.341713      -199.7782   19-B
  38   1.0000      -7.335682      -199.6141   20-B
  39   1.0000      -7.335092      -199.5980   20-A
  40   1.0000      -7.334377      -199.5786   21-A
  41   1.0000      -5.406285      -147.1125   21-B
  42   1.0000      -5.406274      -147.1122   22-A
  43   1.0000      -5.404650      -147.0680   22-B
  44   1.0000      -5.404630      -147.0675   23-A
  45   1.0000      -5.401236      -146.9751   24-A
  46   1.0000      -5.401225      -146.9748   23-B
  47   1.0000      -5.400114      -146.9446   24-B
  48   1.0000      -5.400098      -146.9441   25-A
  49   1.0000      -5.399049      -146.9156   26-A
  50   1.0000      -5.399031      -146.9151   25-B
  51   1.0000      -5.398820      -146.9094   26-B
  52   1.0000      -5.398803      -146.9089   27-A
  53   1.0000      -3.995199      -108.7149   28-A
  54   1.0000      -2.508517       -68.2602   27-B
  55   1.0000      -2.507562       -68.2342   28-B
  56   1.0000      -2.506530       -68.2062   29-A
  57   1.0000      -1.744982       -47.4834   30-A
  58   1.0000      -1.744957       -47.4827   29-B
  59   1.0000      -1.743562       -47.4447   31-A
  60   1.0000      -1.743532       -47.4439   30-B
  61   1.0000      -1.742480       -47.4153   32-A
  62   1.0000      -1.742480       -47.4153   31-B
  63   1.0000      -1.741807       -47.3970   33-A
  64   1.0000      -1.741738       -47.3951   32-B
  65   1.0000      -1.740481       -47.3609   34-A
  66   1.0000      -1.740406       -47.3589   33-B
  67   1.0000      -1.740252       -47.3547   34-B
  68   1.0000      -1.740251       -47.3546   35-A
  69   1.0000      -1.737359       -47.2759   36-A
  70   1.0000      -1.737343       -47.2755   35-B
  71   1.0000      -1.737280       -47.2738   37-A
  72   1.0000      -1.737250       -47.2730   36-B
  73   1.0000      -1.735435       -47.2236   38-A
  74   1.0000      -1.735378       -47.2220   37-B
  75   1.0000      -1.735371       -47.2218   38-B
  76   1.0000      -1.735354       -47.2214   39-A
  77   1.0000      -0.602741       -16.4014   40-A
  78   1.0000      -0.591982       -16.1086   41-A
  79   1.0000      -0.521135       -14.1808   42-A
  80   1.0000      -0.515029       -14.0147   43-A
  81   1.0000      -0.498525       -13.5656   39-B
  82   1.0000      -0.489469       -13.3191   40-B
  83   1.0000      -0.410941       -11.1823   41-B
  84   1.0000      -0.406616       -11.0646   42-B
  85   1.0000      -0.380330       -10.3493   44-A
  86   1.0000      -0.369572       -10.0566   45-A
  87   1.0000      -0.318891        -8.6775   46-A
  88   1.0000      -0.296055        -8.0561   47-A
  89   1.0000      -0.284838        -7.7508   43-B
  90   1.0000      -0.275610        -7.4997   44-B
  91   1.0000      -0.228481        -6.2173   48-A
  92   1.0000      -0.220396        -5.9973   49-A
  93   1.0000      -0.199673        -5.4334   50-A
  94   1.0000      -0.176359        -4.7990   51-A
  95   1.0000      -0.168520        -4.5857   45-B
  96   1.0000      -0.158482        -4.3125   46-B
  97   1.0000      -0.137530        -3.7424   47-B
  98   1.0000      -0.132996        -3.6190   48-B
  99   1.0000      -0.132074        -3.5939   52-A
 100   1.0000      -0.130995        -3.5646   49-B
 101   1.0000      -0.117652        -3.2015   50-B
 102   1.0000      -0.104676        -2.8484   53-A
 103   1.0000      -0.076256        -2.0750   54-A
 104   1.0000      -0.076142        -2.0719   51-B
 105   1.0000      -0.061648        -1.6775   52-B
 106   1.0000      -0.057570        -1.5666   55-A
 107   1.0000      -0.048253        -1.3130   53-B
 108   1.0000      -0.032258        -0.8778   56-A
 109   1.0000      -0.028131        -0.7655   57-A
 110   1.0000      -0.025532        -0.6948   54-B
 111   1.0000      -0.016311        -0.4438   58-A
 112   1.0000      -0.002963        -0.0806   55-B
 113   1.0000       0.006029         0.1641   59-A
 114   1.0000       0.008902         0.2422   56-B
 115   1.0000       0.011450         0.3116   60-A
 116   1.0000       0.029867         0.8127   61-A
 117   1.0000       0.035656         0.9702   62-A
 118   1.0000       0.050980         1.3872   57-B
 119   1.0000       0.055503         1.5103   63-A
 120   1.0000       0.058175         1.5830   64-A
 121   1.0000       0.070069         1.9067   58-B
 122   1.0000       0.100049         2.7225   59-B
 123   0.0000       0.145179         3.9505   60-B
 124   0.0000       0.178534         4.8582   61-B
 125   0.0000       0.178554         4.8587   65-A
 126   0.0000       0.183579         4.9954   66-A
 127   0.0000       0.185880         5.0580   67-A

MULLIKEN ATOMIC CHARGES AND SPIN POPULATIONS
--------------------------------------------
   0 Cu:    0.656603    0.305981
   1 Se:   -0.730569    0.173359
   2 C :    0.220519   -0.003263
   3 Se:   -0.589580    0.176859
   4 C :    0.076732   -0.005391
   5 Se:   -0.730569    0.173359
   6 C :    0.220519   -0.003263
   7 Se:   -0.589580    0.176859
   8 C :    0.076732   -0.005391
   9 C :   -0.134383    0.000961
  10 C :   -0.134383    0.000961
  11 C :   -0.115751   -0.001232
  12 H :    0.058688    0.001636
  13 C :   -0.115751   -0.001232
  14 H :    0.058688    0.001636
  15 H :    0.031647    0.001807
  16 H :    0.031647    0.001807
  17 C :   -0.102682   -0.001308
  18 C :   -0.102682   -0.001308
  19 C :   -0.156473   -0.000685
  20 H :    0.092067    0.002652
  21 C :   -0.156473   -0.000685
  22 H :    0.092067    0.002652
  23 H :    0.021483    0.001615
  24 H :    0.021483    0.001615
Sum of atomic charges         :   -2.0000000

LOEWDIN ATOMIC CHARGES AND SPIN POPULATIONS
-------------------------------------------
   0 Cu:   -0.619918    0.388353
   1 Se:   -0.203821    0.123624
   2 C :    0.038545    0.011770
   3 Se:   -0.251396    0.125992
   4 C :    0.108224    0.009201
   5 Se:   -0.203821    0.123624
   6 C :    0.038545    0.011770
   7 Se:   -0.251396    0.125992
   8 C :    0.108224    0.009201
   9 C :    0.352644    0.008650
  10 C :    0.352644    0.008650
  11 C :    0.309456    0.000165
  12 H :   -0.445534    0.008798
  13 C :    0.309456    0.000165
  14 H :   -0.445534    0.008798
  15 H :   -0.417583    0.000367
  16 H :   -0.417583    0.000367
  17 C :    0.371307    0.007029
  18 C :    0.371307    0.007029
  19 C :    0.319968    0.000463
  20 H :   -0.459869    0.009367
  21 C :    0.319968    0.000463
  22 H :   -0.459869    0.009367
  23 H :   -0.411981    0.000397
  24 H :   -0.411981    0.000397

  Mayer bond orders larger than 0.100000
B(  0-Cu,  1-Se) :   0.5502 B(  0-Cu,  3-Se) :   0.5278 B(  0-Cu,  5-Se) :   0.5502
B(  0-Cu,  7-Se) :   0.5278 B(  1-Se,  2-C ) :   1.0401 B(  2-C ,  6-C ) :   1.1338
B(  2-C , 17-C ) :   1.2573 B(  3-Se,  4-C ) :   1.0650 B(  4-C ,  8-C ) :   1.1509
B(  4-C , 10-C ) :   1.2704 B(  5-Se,  6-C ) :   1.0401 B(  6-C , 18-C ) :   1.2573
B(  7-Se,  8-C ) :   1.0650 B(  8-C ,  9-C ) :   1.2704 B(  9-C , 13-C ) :   1.3749
B(  9-C , 14-H ) :   0.9772 B( 10-C , 11-C ) :   1.3749 B( 10-C , 12-H ) :   0.9772
B( 11-C , 13-C ) :   1.3241 B( 11-C , 15-H ) :   0.9822 B( 13-C , 16-H ) :   0.9822
B( 17-C , 19-C ) :   1.3795 B( 17-C , 20-H ) :   0.9597 B( 18-C , 21-C ) :   1.3795
B( 18-C , 22-H ) :   0.9597 B( 19-C , 21-C ) :   1.3123 B( 19-C , 23-H ) :   0.9955
B( 21-C , 24-H ) :   0.9955

FINAL SINGLE POINT ENERGY    -11626.989340627504

DIPOLE MOMENT
-------------
                                X             Y             Z
Electronic contribution:     -0.00000       0.00000      -0.20463
Nuclear contribution   :     -0.00000       0.00000      -0.00000
                        -----------------------------------------
Total Dipole Moment    :     -0.00000       0.00000      -0.20464
                        -----------------------------------------
Magnitude (a.u.)       :      0.20464
Magnitude (Debye)      :      0.52015

Rotational constants in cm-1:     0.017574     0.004096     0.003325
Rotational constants in MHz :   526.858755   122.783813    99.666039

                             ****ORCA TERMINATED NORMALLY****
TOTAL RUN TIME: 0 days 17 hours 15 minutes 25 seconds 793 msec
