                         Program Version 5.0.4 -  RELEASE  -
|  1> ! RIJCOSX nofrozencore ReducedPop printbasis
|  2> ! M06L ano-rcc-dzp autoaux
|  3>
|  4> %maxcore 7500
|  5> %basis
|  6> PCDTrimBas overlap
|  7> PCDTrimAuxJ Coulomb
|  8> PCDTrimAuxJK Coulomb
|  9> PCDTrimAuxC Coulomb
| 10> PCDThresh -1
| 11> end
| 12>
| 13> %basis
| 14> newgto Cu "ano-rcc-tzp" end
| 15> newgto Se "ano-rcc-tzp" end
| 16> end
| 17>
| 18> %pal
| 19> nprocs 8
| 20> end
| 21>
| 22> % sym SymThresh 1e-2 end
| 23> * xyz -2 2
| 24> Cu 5.882584772564512e-06 6.3914312160617555e-06 1.6898070996535182e-05
| 25> Se 2.059469369777523 -1.132882405856822 -0.28833954966190495
| 26> C 1.8113594573157297 -2.616923428183087 0.35705670362751074
| 27> Se 0.7017322762984332 2.025275172133205 -1.0068852570654887
| 28> C -0.6232581132781821 2.9878839065138254 -0.9713794424747737
| 29> Se -0.7007563864456371 -2.0242148673335723 1.0096885581065982
| 30> C 0.6066212347121951 -3.005959883166198 0.923589029580099
| 31> Se -2.058494099144177 1.1339420378742218 0.291141071958699
| 32> C -1.8279920013455686 2.5988521610063473 -0.4048346653119774
| 33> C -2.8125650075828608 3.5828123625088684 -0.29182920882434205
| 34> C -0.5214253564985241 4.322665546214951 -1.3692726022544182
| 35> C -1.5684952113141455 5.22075519772465 -1.4499231717786465
| 36> H 0.2892851913183962 4.476403855137856 -2.183838321212634
| 37> C -2.7745062340311133 4.831305523886718 -0.8827970848899358
| 38> H -3.8780913014134013 3.1306894186705083 -0.22401907547623295
| 39> H -1.390519159179843 6.232683116450709 -1.807029784927203
| 40> H -3.6115872864239797 5.5154430232462275 -0.7626014434383045
| 41> C 2.8366223796816854 -3.55667533533585 0.3609345201994859
| 42> C 0.5454780071946408 -4.296532329536941 1.4383652570706198
| 43> C 2.768422480194217 -4.837916844700334 0.8653202379674644
| 44> H 3.7665745226604463 -3.2518524530156245 -0.09631943514939989
| 45> C 1.562415018280278 -5.227360011101384 1.432458365368914
| 46> H -0.4008081622658488 -4.597573617305305 1.863482023143847
| 47> H 3.630544380268156 -5.494846131565794 0.8170568112828757
| 48> H 1.4094870723309028 -6.212072487026483 1.8615200414088082
| 49> *
| 50>
| 51> % eprnmr
| 52> gtensor true
| 53> Nuclei = all H {aiso,adip,aorb,fgrad,rho}
| 54> Nuclei = all Cu {aiso,adip,aorb,fgrad,rho}
| 55> end
| 56>
| 57>                          ****END OF INPUT****

CARTESIAN COORDINATES (ANGSTROEM)
---------------------------------
  Cu     0.000006    0.000018   -0.000000
  Se    -1.681364    0.506400    1.588883
  C     -2.994411    0.899655    0.693488
  Se     1.682273   -0.503383    1.588883
  C      2.978919   -0.951101    0.693488
  Se    -1.681364    0.506400   -1.588883
  C     -2.994411    0.899655   -0.693488
  Se     1.682273   -0.503383   -1.588883
  C      2.978919   -0.951101   -0.693488
  C      4.204936   -1.188000   -1.318862
  C      4.204936   -1.188000    1.318862
  C      5.354694   -1.632192    0.694220
  H      4.075532   -1.589443    2.398899
  C      5.354694   -1.632192   -0.694220
  H      4.075532   -1.589443   -2.398899
  H      6.252508   -1.821202    1.278515
  H      6.252508   -1.821202   -1.278515
  C     -4.182535    1.262394    1.318862
  C     -4.182535    1.262394   -1.318862
  C     -5.360357    1.613382    0.694220
  H     -4.179389    1.244546    2.398899
  C     -5.360357    1.613382   -0.694220
  H     -4.179389    1.244546   -2.398899
  H     -6.234848    1.879850    1.278516
  H     -6.234848    1.879850   -1.278516

 Total Charge           Charge          ....   -2
 Multiplicity           Mult            ....    2
 Number of Electrons    NEL             ....  247
 Basis Dimension        Dim             ....  575

ORBITAL ENERGIES
----------------
                 SPIN UP ORBITALS
  NO   OCC          E(Eh)            E(eV)    Irrep
   0   1.0000    -443.561894    -12069.9328    1-A"
   1   1.0000    -443.558169    -12069.8314    2-A"
   2   1.0000    -443.547488    -12069.5408    1-A'
   3   1.0000    -443.545411    -12069.4842    2-A'
   4   1.0000    -318.187695     -8658.3273    3-A'
   5   1.0000     -56.370716     -1533.9252    3-A"
   6   1.0000     -56.368686     -1533.8699    4-A"
   7   1.0000     -56.357652     -1533.5697    4-A'
   8   1.0000     -56.356868     -1533.5483    5-A'
   9   1.0000     -51.286839     -1395.5858    5-A"
  10   1.0000     -51.286775     -1395.5841    6-A'
  11   1.0000     -51.286770     -1395.5840    6-A"
  12   1.0000     -51.286740     -1395.5832    7-A'
  13   1.0000     -51.285485     -1395.5490    7-A"
  14   1.0000     -51.285468     -1395.5485    8-A"
  15   1.0000     -51.285436     -1395.5477    8-A'
  16   1.0000     -51.285399     -1395.5466    9-A'
  17   1.0000     -51.285099     -1395.5385    9-A"
  18   1.0000     -51.285052     -1395.5372   10-A'
  19   1.0000     -51.285026     -1395.5365   10-A"
  20   1.0000     -51.284976     -1395.5351   11-A'
  21   1.0000     -38.028263     -1034.8016   12-A'
  22   1.0000     -33.530312      -912.4062   11-A"
  23   1.0000     -33.529528      -912.3848   13-A'
  24   1.0000     -33.518390      -912.0818   14-A'
  25   1.0000      -9.817297      -267.1422   15-A'
  26   1.0000      -9.816852      -267.1301   12-A"
  27   1.0000      -9.816457      -267.1194   16-A'
  28   1.0000      -9.816009      -267.1072   13-A"
  29   1.0000      -9.812909      -267.0228   14-A"
  30   1.0000      -9.812909      -267.0228   17-A'
  31   1.0000      -9.811123      -266.9742   18-A'
  32   1.0000      -9.810671      -266.9619   15-A"
  33   1.0000      -9.809068      -266.9183   19-A'
  34   1.0000      -9.808618      -266.9061   16-A"
  35   1.0000      -9.807030      -266.8629   20-A'
  36   1.0000      -9.807028      -266.8628   17-A"
  37   1.0000      -7.341767      -199.7796   18-A"
  38   1.0000      -7.341512      -199.7727   19-A"
  39   1.0000      -7.334665      -199.5864   21-A'
  40   1.0000      -7.334368      -199.5783   22-A'
  41   1.0000      -5.405387      -147.0881   20-A"
  42   1.0000      -5.405369      -147.0876   23-A'
  43   1.0000      -5.404589      -147.0664   21-A"
  44   1.0000      -5.404571      -147.0659   24-A'
  45   1.0000      -5.400037      -146.9425   22-A"
  46   1.0000      -5.400012      -146.9418   25-A'
  47   1.0000      -5.399808      -146.9363   23-A"
  48   1.0000      -5.399783      -146.9356   26-A'
  49   1.0000      -5.399276      -146.9218   24-A"
  50   1.0000      -5.399251      -146.9211   27-A'
  51   1.0000      -5.398928      -146.9123   25-A"
  52   1.0000      -5.398902      -146.9116   28-A'
  53   1.0000      -4.022556      -109.4593   29-A'
  54   1.0000      -2.542087       -69.1737   26-A"
  55   1.0000      -2.541158       -69.1484   30-A'
  56   1.0000      -2.517710       -68.5104   31-A'
  57   1.0000      -1.744435       -47.4685   32-A'
  58   1.0000      -1.744406       -47.4677   27-A"
  59   1.0000      -1.743632       -47.4466   33-A'
  60   1.0000      -1.743603       -47.4458   28-A"
  61   1.0000      -1.741700       -47.3941   34-A'
  62   1.0000      -1.741619       -47.3919   29-A"
  63   1.0000      -1.741056       -47.3765   35-A'
  64   1.0000      -1.741049       -47.3763   30-A"
  65   1.0000      -1.740908       -47.3725   36-A'
  66   1.0000      -1.740827       -47.3703   31-A"
  67   1.0000      -1.740162       -47.3522   37-A'
  68   1.0000      -1.740155       -47.3520   32-A"
  69   1.0000      -1.736691       -47.2578   38-A'
  70   1.0000      -1.736642       -47.2564   33-A"
  71   1.0000      -1.736625       -47.2560   39-A'
  72   1.0000      -1.736583       -47.2548   34-A"
  73   1.0000      -1.735820       -47.2341   40-A'
  74   1.0000      -1.735778       -47.2329   35-A"
  75   1.0000      -1.735767       -47.2326   41-A'
  76   1.0000      -1.735719       -47.2313   36-A"
  77   1.0000      -0.603358       -16.4182   42-A'
  78   1.0000      -0.603143       -16.4124   43-A'
  79   1.0000      -0.522509       -14.2182   44-A'
  80   1.0000      -0.521680       -14.1956   45-A'
  81   1.0000      -0.499890       -13.6027   37-A"
  82   1.0000      -0.497213       -13.5299   38-A"
  83   1.0000      -0.413445       -11.2504   39-A"
  84   1.0000      -0.411768       -11.2048   40-A"
  85   1.0000      -0.383846       -10.4450   46-A'
  86   1.0000      -0.379134       -10.3168   47-A'
  87   1.0000      -0.320515        -8.7217   48-A'
  88   1.0000      -0.312406        -8.5010   49-A'
  89   1.0000      -0.287646        -7.8273   41-A"
  90   1.0000      -0.283924        -7.7260   42-A"
  91   1.0000      -0.229449        -6.2436   50-A'
  92   1.0000      -0.221905        -6.0383   51-A'
  93   1.0000      -0.200742        -5.4625   52-A'
  94   1.0000      -0.198899        -5.4123   53-A'
  95   1.0000      -0.169561        -4.6140   43-A"
  96   1.0000      -0.159797        -4.3483   44-A"
  97   1.0000      -0.140925        -3.8348   54-A'
  98   1.0000      -0.138529        -3.7696   45-A"
  99   1.0000      -0.134611        -3.6629   55-A'
 100   1.0000      -0.131087        -3.5670   56-A'
 101   1.0000      -0.127699        -3.4749   46-A"
 102   1.0000      -0.107739        -2.9317   57-A'
 103   1.0000      -0.077480        -2.1083   58-A'
 104   1.0000      -0.072243        -1.9658   47-A"
 105   1.0000      -0.066413        -1.8072   48-A"
 106   1.0000      -0.061869        -1.6835   59-A'
 107   1.0000      -0.048871        -1.3298   60-A'
 108   1.0000      -0.043083        -1.1723   61-A'
 109   1.0000      -0.034649        -0.9429   49-A"
 110   1.0000      -0.030910        -0.8411   50-A"
 111   1.0000      -0.029608        -0.8057   62-A'
 112   1.0000      -0.025264        -0.6875   51-A"
 113   1.0000      -0.002578        -0.0701   52-A"
 114   1.0000      -0.001922        -0.0523   63-A'
 115   1.0000      -0.000029        -0.0008   64-A'
 116   1.0000       0.018490         0.5031   65-A'
 117   1.0000       0.020399         0.5551   66-A'
 118   1.0000       0.040223         1.0945   53-A"
 119   1.0000       0.053207         1.4478   54-A"
 120   1.0000       0.055095         1.4992   55-A"
 121   1.0000       0.069309         1.8860   67-A'
 122   1.0000       0.098001         2.6668   68-A'
 123   1.0000       0.115873         3.1531   56-A"
 124   0.0000       0.181799         4.9470   69-A'
 125   0.0000       0.182014         4.9529   70-A'
 126   0.0000       0.185763         5.0549   71-A'
 127   0.0000       0.195958         5.3323   57-A"
 128   0.0000       0.196789         5.3549   58-A"

                 SPIN DOWN ORBITALS
  NO   OCC          E(Eh)            E(eV)    Irrep
   0   1.0000    -443.561442    -12069.9205    1-A"
   1   1.0000    -443.557711    -12069.8189    2-A"
   2   1.0000    -443.547037    -12069.5285    1-A'
   3   1.0000    -443.544953    -12069.4718    2-A'
   4   1.0000    -318.187572     -8658.3240    3-A'
   5   1.0000     -56.370533     -1533.9202    3-A"
   6   1.0000     -56.368501     -1533.8649    4-A"
   7   1.0000     -56.357471     -1533.5648    4-A'
   8   1.0000     -56.356686     -1533.5434    5-A'
   9   1.0000     -51.286517     -1395.5771    5-A"
  10   1.0000     -51.286445     -1395.5751    6-A"
  11   1.0000     -51.286443     -1395.5751    6-A'
  12   1.0000     -51.286408     -1395.5741    7-A'
  13   1.0000     -51.284848     -1395.5316    7-A"
  14   1.0000     -51.284800     -1395.5304    8-A'
  15   1.0000     -51.284776     -1395.5297    8-A"
  16   1.0000     -51.284738     -1395.5287    9-A"
  17   1.0000     -51.284733     -1395.5285   10-A"
  18   1.0000     -51.284726     -1395.5284    9-A'
  19   1.0000     -51.284702     -1395.5277   10-A'
  20   1.0000     -51.284668     -1395.5268   11-A'
  21   1.0000     -38.014377     -1034.4238   12-A'
  22   1.0000     -33.517120      -912.0472   11-A"
  23   1.0000     -33.516335      -912.0258   13-A'
  24   1.0000     -33.514508      -911.9761   14-A'
  25   1.0000      -9.817242      -267.1407   15-A'
  26   1.0000      -9.816797      -267.1286   12-A"
  27   1.0000      -9.816407      -267.1180   16-A'
  28   1.0000      -9.815959      -267.1058   13-A"
  29   1.0000      -9.812791      -267.0196   17-A'
  30   1.0000      -9.812791      -267.0196   14-A"
  31   1.0000      -9.811143      -266.9748   18-A'
  32   1.0000      -9.810690      -266.9625   15-A"
  33   1.0000      -9.809087      -266.9188   19-A'
  34   1.0000      -9.808634      -266.9065   16-A"
  35   1.0000      -9.806911      -266.8596   20-A'
  36   1.0000      -9.806910      -266.8596   17-A"
  37   1.0000      -7.341368      -199.7688   18-A"
  38   1.0000      -7.341108      -199.7617   19-A"
  39   1.0000      -7.334254      -199.5752   21-A'
  40   1.0000      -7.333962      -199.5672   22-A'
  41   1.0000      -5.405020      -147.0781   20-A"
  42   1.0000      -5.405001      -147.0776   23-A'
  43   1.0000      -5.404226      -147.0565   21-A"
  44   1.0000      -5.404207      -147.0559   24-A'
  45   1.0000      -5.399493      -146.9277   22-A"
  46   1.0000      -5.399467      -146.9270   25-A'
  47   1.0000      -5.399201      -146.9197   23-A"
  48   1.0000      -5.399176      -146.9190   26-A'
  49   1.0000      -5.398617      -146.9038   24-A"
  50   1.0000      -5.398591      -146.9031   27-A'
  51   1.0000      -5.398453      -146.8994   25-A"
  52   1.0000      -5.398428      -146.8987   28-A'
  53   1.0000      -3.994355      -108.6919   29-A'
  54   1.0000      -2.507380       -68.2293   30-A'
  55   1.0000      -2.506879       -68.2156   26-A"
  56   1.0000      -2.505885       -68.1886   31-A'
  57   1.0000      -1.743989       -47.4564   32-A'
  58   1.0000      -1.743960       -47.4556   27-A"
  59   1.0000      -1.743186       -47.4345   33-A'
  60   1.0000      -1.743156       -47.4337   28-A"
  61   1.0000      -1.740816       -47.3700   34-A'
  62   1.0000      -1.740759       -47.3685   29-A"
  63   1.0000      -1.740720       -47.3674   35-A'
  64   1.0000      -1.740686       -47.3665   30-A"
  65   1.0000      -1.740018       -47.3483   36-A'
  66   1.0000      -1.739937       -47.3461   31-A"
  67   1.0000      -1.739849       -47.3437   37-A'
  68   1.0000      -1.739838       -47.3434   32-A"
  69   1.0000      -1.735897       -47.2361   38-A'
  70   1.0000      -1.735861       -47.2352   33-A"
  71   1.0000      -1.735821       -47.2341   39-A'
  72   1.0000      -1.735773       -47.2328   34-A"
  73   1.0000      -1.735040       -47.2128   40-A'
  74   1.0000      -1.735010       -47.2120   35-A"
  75   1.0000      -1.734978       -47.2111   41-A'
  76   1.0000      -1.734924       -47.2097   36-A"
  77   1.0000      -0.602548       -16.3962   42-A'
  78   1.0000      -0.602347       -16.3907   43-A'
  79   1.0000      -0.521361       -14.1870   44-A'
  80   1.0000      -0.520569       -14.1654   45-A'
  81   1.0000      -0.498203       -13.5568   37-A"
  82   1.0000      -0.495443       -13.4817   38-A"
  83   1.0000      -0.410774       -11.1777   39-A"
  84   1.0000      -0.409096       -11.1321   40-A"
  85   1.0000      -0.381304       -10.3758   46-A'
  86   1.0000      -0.376744       -10.2517   47-A'
  87   1.0000      -0.318718        -8.6728   48-A'
  88   1.0000      -0.310544        -8.4503   49-A'
  89   1.0000      -0.285232        -7.7616   41-A"
  90   1.0000      -0.281247        -7.6531   42-A"
  91   1.0000      -0.228320        -6.2129   50-A'
  92   1.0000      -0.220870        -6.0102   51-A'
  93   1.0000      -0.199470        -5.4279   52-A'
  94   1.0000      -0.197711        -5.3800   53-A'
  95   1.0000      -0.167999        -4.5715   43-A"
  96   1.0000      -0.157483        -4.2853   44-A"
  97   1.0000      -0.140066        -3.8114   54-A'
  98   1.0000      -0.137228        -3.7342   45-A"
  99   1.0000      -0.133082        -3.6214   55-A'
 100   1.0000      -0.130696        -3.5564   56-A'
 101   1.0000      -0.126779        -3.4498   46-A"
 102   1.0000      -0.105777        -2.8783   57-A'
 103   1.0000      -0.075895        -2.0652   58-A'
 104   1.0000      -0.070796        -1.9265   47-A"
 105   1.0000      -0.060076        -1.6348   59-A'
 106   1.0000      -0.055165        -1.5011   48-A"
 107   1.0000      -0.047999        -1.3061   60-A'
 108   1.0000      -0.042072        -1.1449   61-A'
 109   1.0000      -0.030891        -0.8406   49-A"
 110   1.0000      -0.025818        -0.7025   50-A"
 111   1.0000      -0.023323        -0.6346   62-A'
 112   1.0000      -0.002649        -0.0721   51-A"
 113   1.0000       0.007009         0.1907   52-A"
 114   1.0000       0.009230         0.2512   63-A'
 115   1.0000       0.010380         0.2824   64-A'
 116   1.0000       0.028598         0.7782   65-A'
 117   1.0000       0.031297         0.8516   66-A'
 118   1.0000       0.050983         1.3873   53-A"
 119   1.0000       0.055740         1.5168   54-A"
 120   1.0000       0.058639         1.5957   55-A"
 121   1.0000       0.071051         1.9334   67-A'
 122   1.0000       0.101256         2.7553   68-A'
 123   0.0000       0.145645         3.9632   56-A"
 124   0.0000       0.183729         4.9995   69-A'
 125   0.0000       0.183971         5.0061   70-A'
 126   0.0000       0.186046         5.0626   71-A'
 127   0.0000       0.199278         5.4226   57-A"

MULLIKEN ATOMIC CHARGES AND SPIN POPULATIONS
--------------------------------------------
   0 Cu:    0.639333    0.308852
   1 Se:   -0.733022    0.172640
   2 C :    0.221808   -0.003211
   3 Se:   -0.702532    0.175548
   4 C :    0.246328   -0.003497
   5 Se:   -0.733022    0.172640
   6 C :    0.221808   -0.003211
   7 Se:   -0.702532    0.175548
   8 C :    0.246328   -0.003497
   9 C :   -0.135065   -0.001242
  10 C :   -0.135065   -0.001242
  11 C :   -0.124529   -0.000693
  12 H :    0.027519    0.002082
  13 C :   -0.124529   -0.000693
  14 H :    0.027519    0.002082
  15 H :    0.026550    0.001753
  16 H :    0.026550    0.001753
  17 C :   -0.103542   -0.001487
  18 C :   -0.103542   -0.001487
  19 C :   -0.156347   -0.000679
  20 H :    0.091991    0.002758
  21 C :   -0.156347   -0.000679
  22 H :    0.091991    0.002758
  23 H :    0.021175    0.001602
  24 H :    0.021175    0.001602
Sum of atomic charges         :   -2.0000000

LOEWDIN ATOMIC CHARGES AND SPIN POPULATIONS
-------------------------------------------
   0 Cu:   -0.616297    0.390033
   1 Se:   -0.202166    0.122856
   2 C :    0.038403    0.011756
   3 Se:   -0.207531    0.125283
   4 C :    0.031853    0.011601
   5 Se:   -0.202166    0.122856
   6 C :    0.038403    0.011756
   7 Se:   -0.207531    0.125283
   8 C :    0.031853    0.011601
   9 C :    0.337323    0.006795
  10 C :    0.337323    0.006795
  11 C :    0.306733    0.000549
  12 H :   -0.400891    0.008576
  13 C :    0.306733    0.000549
  14 H :   -0.400891    0.008576
  15 H :   -0.414640    0.000421
  16 H :   -0.414640    0.000421
  17 C :    0.371123    0.006911
  18 C :    0.371123    0.006911
  19 C :    0.319843    0.000449
  20 H :   -0.459843    0.009396
  21 C :    0.319843    0.000449
  22 H :   -0.459843    0.009396
  23 H :   -0.412059    0.000391
  24 H :   -0.412059    0.000391

  Mayer bond orders larger than 0.100000
B(  0-Cu,  1-Se) :   0.5510 B(  0-Cu,  3-Se) :   0.5452 B(  0-Cu,  5-Se) :   0.5510
B(  0-Cu,  7-Se) :   0.5452 B(  1-Se,  2-C ) :   1.0386 B(  2-C ,  6-C ) :   1.1338
B(  2-C , 17-C ) :   1.2572 B(  3-Se,  4-C ) :   1.0365 B(  4-C ,  8-C ) :   1.1283
B(  4-C , 10-C ) :   1.2650 B(  5-Se,  6-C ) :   1.0386 B(  6-C , 18-C ) :   1.2572
B(  7-Se,  8-C ) :   1.0365 B(  8-C ,  9-C ) :   1.2650 B(  9-C , 13-C ) :   1.3567
B(  9-C , 14-H ) :   0.9985 B( 10-C , 11-C ) :   1.3567 B( 10-C , 12-H ) :   0.9985
B( 11-C , 13-C ) :   1.3284 B( 11-C , 15-H ) :   0.9875 B( 13-C , 16-H ) :   0.9875
B( 17-C , 19-C ) :   1.3794 B( 17-C , 20-H ) :   0.9600 B( 18-C , 21-C ) :   1.3794
B( 18-C , 22-H ) :   0.9600 B( 19-C , 21-C ) :   1.3126 B( 19-C , 23-H ) :   0.9953
B( 21-C , 24-H ) :   0.9953

FINAL SINGLE POINT ENERGY    -11627.103772969560

DIPOLE MOMENT
-------------
                                X             Y             Z
Electronic contribution:      0.02969       0.56568      -0.00000
Nuclear contribution   :     -0.18046      -0.59928       0.00000
                        -----------------------------------------
Total Dipole Moment    :     -0.15077      -0.03360      -0.00000
                        -----------------------------------------
Magnitude (a.u.)       :      0.15447
Magnitude (Debye)      :      0.39263

Rotational constants in cm-1:     0.017607     0.004097     0.003325
Rotational constants in MHz :   527.847695   122.837444    99.666037

                             ****ORCA TERMINATED NORMALLY****
TOTAL RUN TIME: 0 days 17 hours 14 minutes 0 seconds 651 msec
