                         Program Version 5.0.4 -  RELEASE  -
|  1> ! RIJCOSX nofrozencore ReducedPop printbasis
|  2> ! M06L ano-rcc-dzp autoaux
|  3>
|  4> %maxcore 7500
|  5> %basis
|  6> PCDTrimBas overlap
|  7> PCDTrimAuxJ Coulomb
|  8> PCDTrimAuxJK Coulomb
|  9> PCDTrimAuxC Coulomb
| 10> PCDThresh -1
| 11> end
| 12>
| 13> %basis
| 14> newgto Cu "ano-rcc-tzp" end
| 15> newgto Se "ano-rcc-tzp" end
| 16> end
| 17>
| 18> %pal
| 19> nprocs 8
| 20> end
| 21>
| 22> % sym SymThresh 1e-2 end
| 23> * xyz -2 2
| 24> Cu 0.001447484662463391 0.00012563055130269629 0.0018184875904202987
| 25> Se -1.541359190211658 -0.347192773141067 1.762821226586144
| 26> C -0.6861519788269916 -0.2908687796436641 3.147521645331356
| 27> Se -1.5922931571694061 -0.15311135625116062 -1.741923742258373
| 28> C -0.7547779487191993 0.06347319797938246 -3.183976471997949
| 29> Se 1.5968152677618623 0.15350132872935024 1.747648451006934
| 30> C 0.7001471478307533 -0.06807786232672246 3.112953297698744
| 31> Se 1.5595245833923506 0.34970667105851444 -1.756246345533874
| 32> C 0.6993384932165818 0.29586888887147 -3.1978046916885843
| 33> C 1.4097558992506183 0.47582296204492813 -4.3557670950044916
| 34> C -1.5171069166408162 0.013881199567668876 -4.428919493334707
| 35> C -0.775038165852535 0.19983212022729097 -5.60348313577532
| 36> H -2.5877086493099117 -0.1587398386519058 -4.392402297290565
| 37> C 0.6135571178864386 0.41085200632983243 -5.42767804506362
| 38> H 2.472984074253742 0.6463205437942174 -4.375798399808989
| 39> H -1.1385003562185012 0.20282534230602325 -6.658770640792772
| 40> H 1.1141194316523966 0.5460693602545031 -6.389545694706688
| 41> C -1.306911364531888 -0.4619245445760923 4.398783683041548
| 42> C 1.349888415507932 -0.03457418379952225 4.325975517088149
| 43> C -0.6333317118572996 -0.42356476684610755 5.593443611009456
| 44> H -2.3742310322849454 -0.6322651096862895 4.404797808284797
| 45> C 0.735360772289732 -0.20236800407386984 5.537900478234022
| 46> H 2.41526635221031 0.13615455359369658 4.307837207715422
| 47> H -1.134270149044714 -0.5585607195648639 6.550452784895885
| 48> H 1.3332814596428224 -0.15925036517873525 6.441215396408363
| 49> *
| 50>
| 51> % eprnmr
| 52> gtensor true
| 53> Nuclei = all H {aiso,adip,aorb,fgrad,rho}
| 54> Nuclei = all Cu {aiso,adip,aorb,fgrad,rho}
| 55> end
| 56>
| 57>                          ****END OF INPUT****

CARTESIAN COORDINATES (ANGSTROEM)
---------------------------------
  Cu     0.001815    0.001457    0.000000
  Se     1.772804   -1.568768    0.000000
  C      3.155870   -0.709073    0.000000
  Se    -1.737499   -1.604444    0.000000
  C     -3.185776   -0.749839    0.000000
  Se     1.743212    1.608996    0.000000
  C      3.114886    0.694842    0.000000
  Se    -1.766302    1.587132    0.000000
  C     -3.206297    0.722653    0.000000
  C     -4.369432    1.447271    0.000000
  C     -4.429280   -1.516120    0.000000
  C     -5.609188   -0.759377    0.000000
  H     -4.387791   -2.600370    0.000000
  C     -5.439462    0.645908    0.000000
  H     -4.394373    2.523980    0.000000
  H     -6.664552   -1.122629    0.000000
  H     -6.405215    1.157138    0.000000
  C      4.412047   -1.343327    0.000000
  C      4.326932    1.347262    0.000000
  C      5.605592   -0.666684    0.000000
  H      4.422967   -2.424115    0.000000
  C      5.543678    0.719497    0.000000
  H      4.303877    2.426140    0.000000
  H      6.566480   -1.178273    0.000000
  H      6.445743    1.320850    0.000000

 Total Charge           Charge          ....   -2
 Multiplicity           Mult            ....    2
 Number of Electrons    NEL             ....  247
 Basis Dimension        Dim             ....  575

ORBITAL ENERGIES
----------------
                 SPIN UP ORBITALS
  NO   OCC          E(Eh)            E(eV)    Irrep
   0   1.0000    -443.559273    -12069.8614    1-A'
   1   1.0000    -443.548085    -12069.5570    2-A'
   2   1.0000    -443.545502    -12069.4867    3-A'
   3   1.0000    -443.538706    -12069.3018    4-A'
   4   1.0000    -318.185835     -8658.2768    5-A'
   5   1.0000     -56.368527     -1533.8656    6-A'
   6   1.0000     -56.361087     -1533.6631    7-A'
   7   1.0000     -56.355949     -1533.5233    8-A'
   8   1.0000     -56.352297     -1533.4240    9-A'
   9   1.0000     -51.285787     -1395.5572   10-A'
  10   1.0000     -51.284680     -1395.5271   11-A'
  11   1.0000     -51.284442     -1395.5206   12-A'
  12   1.0000     -51.283942     -1395.5070    1-A"
  13   1.0000     -51.283695     -1395.5003   13-A'
  14   1.0000     -51.283368     -1395.4914   14-A'
  15   1.0000     -51.283033     -1395.4823   15-A'
  16   1.0000     -51.283003     -1395.4814    2-A"
  17   1.0000     -51.282264     -1395.4613   16-A'
  18   1.0000     -51.281810     -1395.4490    3-A"
  19   1.0000     -51.281685     -1395.4456   17-A'
  20   1.0000     -51.281220     -1395.4329    4-A"
  21   1.0000     -38.026331     -1034.7491   18-A'
  22   1.0000     -33.528424      -912.3548   19-A'
  23   1.0000     -33.527567      -912.3315   20-A'
  24   1.0000     -33.516433      -912.0285    5-A"
  25   1.0000      -9.826532      -267.3935   21-A'
  26   1.0000      -9.825236      -267.3583   22-A'
  27   1.0000      -9.824194      -267.3299   23-A'
  28   1.0000      -9.817887      -267.1583   24-A'
  29   1.0000      -9.815757      -267.1003   25-A'
  30   1.0000      -9.812283      -267.0058   26-A'
  31   1.0000      -9.811388      -266.9814   27-A'
  32   1.0000      -9.810611      -266.9603   28-A'
  33   1.0000      -9.810313      -266.9522   29-A'
  34   1.0000      -9.809037      -266.9175   30-A'
  35   1.0000      -9.807506      -266.8758   31-A'
  36   1.0000      -9.803574      -266.7688   32-A'
  37   1.0000      -7.340070      -199.7335   33-A'
  38   1.0000      -7.336601      -199.6391   34-A'
  39   1.0000      -7.332910      -199.5386   35-A'
  40   1.0000      -7.331233      -199.4930   36-A'
  41   1.0000      -5.403794      -147.0447   37-A'
  42   1.0000      -5.403322      -147.0319   38-A'
  43   1.0000      -5.402626      -147.0129   39-A'
  44   1.0000      -5.402481      -147.0090   40-A'
  45   1.0000      -5.398451      -146.8993   41-A'
  46   1.0000      -5.397944      -146.8855    6-A"
  47   1.0000      -5.397796      -146.8815   42-A'
  48   1.0000      -5.397398      -146.8707   43-A'
  49   1.0000      -5.397396      -146.8706    7-A"
  50   1.0000      -5.397232      -146.8661    8-A"
  51   1.0000      -5.397213      -146.8656   44-A'
  52   1.0000      -5.396784      -146.8540    9-A"
  53   1.0000      -4.020692      -109.4086   45-A'
  54   1.0000      -2.540334       -69.1260   46-A'
  55   1.0000      -2.539221       -69.0957   47-A'
  56   1.0000      -2.515805       -68.4585   10-A"
  57   1.0000      -1.742677       -47.4207   48-A'
  58   1.0000      -1.741850       -47.3981   49-A'
  59   1.0000      -1.741773       -47.3960   50-A'
  60   1.0000      -1.741038       -47.3760   51-A'
  61   1.0000      -1.740035       -47.3488   52-A'
  62   1.0000      -1.739403       -47.3316   53-A'
  63   1.0000      -1.739249       -47.3274   11-A"
  64   1.0000      -1.738932       -47.3188   54-A'
  65   1.0000      -1.738721       -47.3130   12-A"
  66   1.0000      -1.738708       -47.3126   55-A'
  67   1.0000      -1.738399       -47.3042   13-A"
  68   1.0000      -1.738027       -47.2941   14-A"
  69   1.0000      -1.734866       -47.2081   15-A"
  70   1.0000      -1.734842       -47.2075   56-A'
  71   1.0000      -1.734257       -47.1915   16-A"
  72   1.0000      -1.734242       -47.1911   57-A'
  73   1.0000      -1.734058       -47.1861   58-A'
  74   1.0000      -1.734035       -47.1855   17-A"
  75   1.0000      -1.733718       -47.1769   59-A'
  76   1.0000      -1.733711       -47.1767   18-A"
  77   1.0000      -0.601005       -16.3542   60-A'
  78   1.0000      -0.593189       -16.1415   61-A'
  79   1.0000      -0.519373       -14.1329   62-A'
  80   1.0000      -0.505406       -13.7528   63-A'
  81   1.0000      -0.503156       -13.6916   64-A'
  82   1.0000      -0.501048       -13.6342   65-A'
  83   1.0000      -0.413315       -11.2469   66-A'
  84   1.0000      -0.409918       -11.1544   67-A'
  85   1.0000      -0.379682       -10.3317   68-A'
  86   1.0000      -0.371587       -10.1114   69-A'
  87   1.0000      -0.319101        -8.6832   70-A'
  88   1.0000      -0.315162        -8.5760   71-A'
  89   1.0000      -0.284601        -7.7444   72-A'
  90   1.0000      -0.277933        -7.5629   73-A'
  91   1.0000      -0.227236        -6.1834   74-A'
  92   1.0000      -0.217487        -5.9181   75-A'
  93   1.0000      -0.199907        -5.4398   76-A'
  94   1.0000      -0.193967        -5.2781   77-A'
  95   1.0000      -0.192125        -5.2280   78-A'
  96   1.0000      -0.170150        -4.6300   79-A'
  97   1.0000      -0.148984        -4.0541   80-A'
  98   1.0000      -0.140921        -3.8346   81-A'
  99   1.0000      -0.129086        -3.5126   19-A"
 100   1.0000      -0.124607        -3.3907   82-A'
 101   1.0000      -0.122560        -3.3350   20-A"
 102   1.0000      -0.099772        -2.7149   83-A'
 103   1.0000      -0.090049        -2.4504   84-A'
 104   1.0000      -0.067725        -1.8429   85-A'
 105   1.0000      -0.066006        -1.7961   86-A'
 106   1.0000      -0.055815        -1.5188   87-A'
 107   1.0000      -0.047000        -1.2789   21-A"
 108   1.0000      -0.039206        -1.0668   22-A"
 109   1.0000      -0.035702        -0.9715   23-A"
 110   1.0000      -0.030347        -0.8258   88-A'
 111   1.0000      -0.030170        -0.8210   24-A"
 112   1.0000      -0.026477        -0.7205   89-A'
 113   1.0000      -0.002665        -0.0725   25-A"
 114   1.0000       0.001306         0.0355   26-A"
 115   1.0000       0.001706         0.0464   90-A'
 116   1.0000       0.019884         0.5411   91-A'
 117   1.0000       0.021476         0.5844   92-A'
 118   1.0000       0.042554         1.1580   93-A'
 119   1.0000       0.052710         1.4343   27-A"
 120   1.0000       0.055379         1.5069   28-A"
 121   1.0000       0.074097         2.0163   29-A"
 122   1.0000       0.102440         2.7875   30-A"
 123   1.0000       0.117240         3.1903   94-A'
 124   0.0000       0.182109         4.9554   95-A'
 125   0.0000       0.182487         4.9657   96-A'
 126   0.0000       0.194944         5.3047   31-A"
 127   0.0000       0.196586         5.3494   97-A'
 128   0.0000       0.197299         5.3688   98-A'

                 SPIN DOWN ORBITALS
  NO   OCC          E(Eh)            E(eV)    Irrep
   0   1.0000    -443.558823    -12069.8492    1-A'
   1   1.0000    -443.547630    -12069.5446    2-A'
   2   1.0000    -443.545052    -12069.4745    3-A'
   3   1.0000    -443.538251    -12069.2894    4-A'
   4   1.0000    -318.185713     -8658.2734    5-A'
   5   1.0000     -56.368344     -1533.8606    6-A'
   6   1.0000     -56.360903     -1533.6581    7-A'
   7   1.0000     -56.355770     -1533.5185    8-A'
   8   1.0000     -56.352115     -1533.4190    9-A'
   9   1.0000     -51.285464     -1395.5484   10-A'
  10   1.0000     -51.284358     -1395.5183   11-A'
  11   1.0000     -51.283689     -1395.5001   12-A'
  12   1.0000     -51.283688     -1395.5001    1-A"
  13   1.0000     -51.283386     -1395.4919   13-A'
  14   1.0000     -51.282760     -1395.4748    2-A"
  15   1.0000     -51.282700     -1395.4732   14-A'
  16   1.0000     -51.282665     -1395.4723   15-A'
  17   1.0000     -51.281564     -1395.4423    3-A"
  18   1.0000     -51.281542     -1395.4417   16-A'
  19   1.0000     -51.280960     -1395.4259    4-A"
  20   1.0000     -51.280927     -1395.4250   17-A'
  21   1.0000     -38.012470     -1034.3719   18-A'
  22   1.0000     -33.515252      -911.9964   19-A'
  23   1.0000     -33.514397      -911.9731   20-A'
  24   1.0000     -33.512559      -911.9231    5-A"
  25   1.0000      -9.826488      -267.3923   21-A'
  26   1.0000      -9.825245      -267.3585   22-A'
  27   1.0000      -9.824103      -267.3274   23-A'
  28   1.0000      -9.817859      -267.1575   24-A'
  29   1.0000      -9.815709      -267.0990   25-A'
  30   1.0000      -9.812222      -267.0041   26-A'
  31   1.0000      -9.811334      -266.9800   27-A'
  32   1.0000      -9.810637      -266.9610   28-A'
  33   1.0000      -9.810214      -266.9495   29-A'
  34   1.0000      -9.808917      -266.9142   30-A'
  35   1.0000      -9.807505      -266.8758   31-A'
  36   1.0000      -9.803461      -266.7657   32-A'
  37   1.0000      -7.339672      -199.7226   33-A'
  38   1.0000      -7.336198      -199.6281   34-A'
  39   1.0000      -7.332506      -199.5276   35-A'
  40   1.0000      -7.330822      -199.4818   36-A'
  41   1.0000      -5.403427      -147.0347   37-A'
  42   1.0000      -5.402973      -147.0224   38-A'
  43   1.0000      -5.402272      -147.0033   39-A'
  44   1.0000      -5.402104      -146.9987   40-A'
  45   1.0000      -5.397630      -146.8770    6-A"
  46   1.0000      -5.397609      -146.8764   41-A'
  47   1.0000      -5.397089      -146.8623    7-A"
  48   1.0000      -5.396988      -146.8595   42-A'
  49   1.0000      -5.396924      -146.8578    8-A"
  50   1.0000      -5.396599      -146.8489   43-A'
  51   1.0000      -5.396459      -146.8451    9-A"
  52   1.0000      -5.396363      -146.8425   44-A'
  53   1.0000      -3.992534      -108.6424   45-A'
  54   1.0000      -2.505500       -68.1781   10-A"
  55   1.0000      -2.505180       -68.1694   46-A'
  56   1.0000      -2.503993       -68.1371   47-A'
  57   1.0000      -1.742214       -47.4080   48-A'
  58   1.0000      -1.741419       -47.3864   49-A'
  59   1.0000      -1.741327       -47.3839   50-A'
  60   1.0000      -1.740552       -47.3628   51-A'
  61   1.0000      -1.739134       -47.3242   52-A'
  62   1.0000      -1.738935       -47.3188   11-A"
  63   1.0000      -1.738546       -47.3082   53-A'
  64   1.0000      -1.738419       -47.3048   12-A"
  65   1.0000      -1.738091       -47.2959   13-A"
  66   1.0000      -1.738063       -47.2951   54-A'
  67   1.0000      -1.737802       -47.2880   55-A'
  68   1.0000      -1.737699       -47.2852   14-A"
  69   1.0000      -1.734092       -47.1870   15-A"
  70   1.0000      -1.734030       -47.1854   56-A'
  71   1.0000      -1.733509       -47.1712   16-A"
  72   1.0000      -1.733461       -47.1699   57-A'
  73   1.0000      -1.733286       -47.1651   17-A"
  74   1.0000      -1.733269       -47.1647   58-A'
  75   1.0000      -1.732924       -47.1553   18-A"
  76   1.0000      -1.732894       -47.1544   59-A'
  77   1.0000      -0.600214       -16.3327   60-A'
  78   1.0000      -0.592467       -16.1218   61-A'
  79   1.0000      -0.518189       -14.1006   62-A'
  80   1.0000      -0.504225       -13.7206   63-A'
  81   1.0000      -0.501654       -13.6507   64-A'
  82   1.0000      -0.499428       -13.5901   65-A'
  83   1.0000      -0.410572       -11.1722   66-A'
  84   1.0000      -0.406690       -11.0666   67-A'
  85   1.0000      -0.377378       -10.2690   68-A'
  86   1.0000      -0.369715       -10.0605   69-A'
  87   1.0000      -0.317262        -8.6331   70-A'
  88   1.0000      -0.313027        -8.5179   71-A'
  89   1.0000      -0.282152        -7.6777   72-A'
  90   1.0000      -0.275300        -7.4913   73-A'
  91   1.0000      -0.225978        -6.1492   74-A'
  92   1.0000      -0.216042        -5.8788   75-A'
  93   1.0000      -0.198619        -5.4047   76-A'
  94   1.0000      -0.192924        -5.2497   77-A'
  95   1.0000      -0.191075        -5.1994   78-A'
  96   1.0000      -0.168698        -4.5905   79-A'
  97   1.0000      -0.147112        -4.0031   80-A'
  98   1.0000      -0.138856        -3.7785   81-A'
  99   1.0000      -0.128709        -3.5023   19-A"
 100   1.0000      -0.122751        -3.3402   82-A'
 101   1.0000      -0.122242        -3.3264   20-A"
 102   1.0000      -0.098532        -2.6812   83-A'
 103   1.0000      -0.088525        -2.4089   84-A'
 104   1.0000      -0.065228        -1.7749   85-A'
 105   1.0000      -0.062249        -1.6939   86-A'
 106   1.0000      -0.046699        -1.2707   87-A'
 107   1.0000      -0.046062        -1.2534   21-A"
 108   1.0000      -0.037961        -1.0330   22-A"
 109   1.0000      -0.034073        -0.9272   23-A"
 110   1.0000      -0.029106        -0.7920   24-A"
 111   1.0000      -0.022540        -0.6134   88-A'
 112   1.0000      -0.000603        -0.0164   89-A'
 113   1.0000       0.007116         0.1936   25-A"
 114   1.0000       0.012066         0.3283   90-A'
 115   1.0000       0.012294         0.3345   26-A"
 116   1.0000       0.029375         0.7993   91-A'
 117   1.0000       0.033146         0.9020   92-A'
 118   1.0000       0.053806         1.4641   93-A'
 119   1.0000       0.055113         1.4997   27-A"
 120   1.0000       0.058871         1.6019   28-A"
 121   1.0000       0.075764         2.0616   29-A"
 122   1.0000       0.105568         2.8726   30-A"
 123   0.0000       0.146933         3.9982   94-A'
 124   0.0000       0.184336         5.0160   95-A'
 125   0.0000       0.184672         5.0252   96-A'
 126   0.0000       0.195007         5.3064   31-A"
 127   0.0000       0.199480         5.4281   97-A'

MULLIKEN ATOMIC CHARGES AND SPIN POPULATIONS
--------------------------------------------
   0 Cu:    0.654086    0.309062
   1 Se:   -0.706219    0.167725
   2 C :    0.177825   -0.003081
   3 Se:   -0.684463    0.169509
   4 C :    0.152502   -0.001786
   5 Se:   -0.740102    0.176161
   6 C :    0.235484   -0.002652
   7 Se:   -0.716319    0.179095
   8 C :    0.217247   -0.001415
   9 C :   -0.108170   -0.003293
  10 C :   -0.128939   -0.002936
  11 C :   -0.163969   -0.001135
  12 H :    0.069953    0.003169
  13 C :   -0.058380   -0.000400
  14 H :    0.047450    0.003813
  15 H :   -0.001874    0.002213
  16 H :    0.043201    0.001590
  17 C :   -0.127686   -0.001229
  18 C :   -0.080041   -0.002261
  19 C :   -0.150941   -0.000951
  20 H :    0.083020    0.002816
  21 C :   -0.145061   -0.000522
  22 H :    0.088002    0.003178
  23 H :    0.015682    0.002062
  24 H :    0.027711    0.001270
Sum of atomic charges         :   -2.0000000

LOEWDIN ATOMIC CHARGES AND SPIN POPULATIONS
-------------------------------------------
   0 Cu:   -0.633956    0.389424
   1 Se:   -0.222624    0.119180
   2 C :    0.044429    0.012510
   3 Se:   -0.246987    0.122241
   4 C :    0.102204    0.011504
   5 Se:   -0.200615    0.125312
   6 C :    0.048311    0.011122
   7 Se:   -0.235912    0.129405
   8 C :    0.070730    0.011898
   9 C :    0.350705    0.007544
  10 C :    0.371787    0.006242
  11 C :    0.313137    0.000453
  12 H :   -0.446375    0.007929
  13 C :    0.301820    0.000605
  14 H :   -0.413828    0.008942
  15 H :   -0.392463    0.000832
  16 H :   -0.446186    0.000593
  17 C :    0.370200    0.006770
  18 C :    0.365222    0.007147
  19 C :    0.315918    0.000470
  20 H :   -0.450280    0.008234
  21 C :    0.316786    0.000455
  22 H :   -0.456646    0.010307
  23 H :   -0.407434    0.000625
  24 H :   -0.417944    0.000255

  Mayer bond orders larger than 0.100000
B(  0-Cu,  1-Se) :   0.5455 B(  0-Cu,  3-Se) :   0.5317 B(  0-Cu,  5-Se) :   0.5524
B(  0-Cu,  7-Se) :   0.5327 B(  1-Se,  2-C ) :   1.0524 B(  2-C ,  6-C ) :   1.1446
B(  2-C , 17-C ) :   1.2637 B(  3-Se,  4-C ) :   1.0154 B(  4-C ,  8-C ) :   1.1917
B(  4-C , 10-C ) :   1.2925 B(  5-Se,  6-C ) :   1.0250 B(  6-C , 18-C ) :   1.2602
B(  7-Se,  8-C ) :   1.0177 B(  8-C ,  9-C ) :   1.2665 B(  9-C , 13-C ) :   1.3758
B(  9-C , 14-H ) :   0.9911 B( 10-C , 11-C ) :   1.3668 B( 10-C , 12-H ) :   0.9782
B( 11-C , 13-C ) :   1.2964 B( 11-C , 15-H ) :   1.0073 B( 13-C , 16-H ) :   0.9769
B( 17-C , 19-C ) :   1.3841 B( 17-C , 20-H ) :   0.9672 B( 18-C , 21-C ) :   1.3729
B( 18-C , 22-H ) :   0.9610 B( 19-C , 21-C ) :   1.3122 B( 19-C , 23-H ) :   0.9974
B( 21-C , 24-H ) :   0.9904

FINAL SINGLE POINT ENERGY    -11627.100310390304

DIPOLE MOMENT
-------------
                                X             Y             Z
Electronic contribution:      0.25237       0.24844      -0.00000
Nuclear contribution   :     -0.24096      -0.14695       0.00000
                        -----------------------------------------
Total Dipole Moment    :      0.01141       0.10150      -0.00000
                        -----------------------------------------
Magnitude (a.u.)       :      0.10214
Magnitude (Debye)      :      0.25961

Rotational constants in cm-1:     0.017267     0.004105     0.003317
Rotational constants in MHz :   517.657888   123.064067    99.427036

                             ****ORCA TERMINATED NORMALLY****
TOTAL RUN TIME: 0 days 17 hours 10 minutes 43 seconds 398 msec
