                         Program Version 5.0.4 -  RELEASE  -
|  1> ! RIJCOSX nofrozencore ReducedPop printbasis
|  2> ! M06L ano-rcc-dzp autoaux
|  3>
|  4> %maxcore 7500
|  5> %basis
|  6> PCDTrimBas overlap
|  7> PCDTrimAuxJ Coulomb
|  8> PCDTrimAuxJK Coulomb
|  9> PCDTrimAuxC Coulomb
| 10> PCDThresh -1
| 11> end
| 12>
| 13> %basis
| 14> newgto Cu "ano-rcc-tzp" end
| 15> newgto Se "ano-rcc-tzp" end
| 16> end
| 17>
| 18> %pal
| 19> nprocs 8
| 20> end
| 21>
| 22> % sym SymThresh 1e-2 end
| 23> * xyz -2 2
| 24> Cu -7.924324923741935e-05 -4.262659075855358e-05 -1.8658002570035291e-06
| 25> Se 0.7875641589036966 -1.384171536281094 -1.7526524104050265
| 26> C 0.36806427751550186 -0.5959565439734745 -3.125170310608077
| 27> Se 0.7150793291448845 -1.4158704895787744 1.758399598305136
| 28> C 0.3305633639199384 -0.6031448383377479 3.1286860070781257
| 29> Se -0.7177322170332439 1.4144434460459352 -1.7584620611515178
| 30> C -0.28894568990099284 0.625531850175354 -3.1277061095142615
| 31> Se -0.7902091224671322 1.3827487554073308 1.7525901341386705
| 32> C -0.32650823713485205 0.6183104017960462 3.1261487569939637
| 33> C -0.7245732419349844 1.1168729448130896 4.365152176927439
| 34> C 0.5250119494536469 -1.2060780846052572 4.369976979874699
| 35> C 0.17686016999768145 -0.6815248786180311 5.596894695521176
| 36> H 0.9897009844551683 -2.1825083950023316 4.362685860191955
| 37> C -0.4809181106998329 0.5412125900384142 5.594353458174932
| 38> H -1.282960888555058 2.04286694209963 4.353915328330527
| 39> H 0.8453190874860732 -0.9835142202494974 6.5215807486961115
| 40> H -0.36453297507304966 1.2691833892638784 6.516939003317589
| 41> C 0.7136658680412321 -1.122740250006068 -4.365409993750674
| 42> C -0.5358163262468956 1.2002661857697214 -4.370231371374184
| 43> C 0.45105663206903707 -0.5572757021120522 -5.5950575536885285
| 44> H 1.2393885668450944 -2.0663054016320705 -4.354942248750813
| 45> C -0.20664332410679695 0.6655039030852783 -5.5975949463987975
| 46> H -1.0332794886524665 2.159066611857844 -4.363711925946623
| 47> H 0.6079515076000073 -1.1382435014005399 -6.511207658819239
| 48> H -0.6033089361738249 1.113697648159449 -6.515881555293798
| 49> *
| 50>
| 51> % eprnmr
| 52> gtensor true
| 53> Nuclei = all H {aiso,adip,aorb,fgrad,rho}
| 54> Nuclei = all Cu {aiso,adip,aorb,fgrad,rho}
| 55> end
| 56>
| 57>                          ****END OF INPUT****

CARTESIAN COORDINATES (ANGSTROEM)
---------------------------------
  Cu    -0.000002   -0.000090    0.000000
  Se    -1.755541    0.038780   -1.588883
  C     -3.126423    0.043377   -0.693488
  Se     1.755478   -0.041788   -1.588883
  C      3.127425    0.003845   -0.693488
  Se    -1.755541    0.038780    1.588883
  C     -3.126423    0.043377    0.693488
  Se     1.755478   -0.041788    1.588883
  C      3.127425    0.003845    0.693488
  C      4.367518   -0.111144    1.318862
  C      4.367518   -0.111144   -1.318862
  C      5.595551   -0.169865   -0.694220
  H      4.358228   -0.164345   -2.398899
  C      5.595551   -0.169865    0.694220
  H      4.358228   -0.164345    2.398899
  H      6.519407    0.276177   -1.278516
  H      6.519407    0.276177    1.278516
  C     -4.367780    0.098818   -1.318862
  C     -4.367780    0.098818    1.318862
  C     -5.596270    0.136002   -0.694220
  H     -4.359279    0.114866   -2.398899
  C     -5.596270    0.136002    0.694220
  H     -4.359279    0.114866    2.398899
  H     -6.513557   -0.000577   -1.278516
  H     -6.513557   -0.000577    1.278516

 Total Charge           Charge          ....   -2
 Multiplicity           Mult            ....    2
 Number of Electrons    NEL             ....  247
 Basis Dimension        Dim             ....  575

ORBITAL ENERGIES
----------------
                 SPIN UP ORBITALS
  NO   OCC          E(Eh)            E(eV)    Irrep
   0   1.0000    -443.563525    -12069.9772    1-A"
   1   1.0000    -443.562373    -12069.9458    2-A"
   2   1.0000    -443.549009    -12069.5821    1-A'
   3   1.0000    -443.548880    -12069.5786    2-A'
   4   1.0000    -318.189435     -8658.3747    3-A'
   5   1.0000     -56.372313     -1533.9686    3-A"
   6   1.0000     -56.371998     -1533.9601    4-A"
   7   1.0000     -56.359667     -1533.6245    4-A'
   8   1.0000     -56.359052     -1533.6078    5-A'
   9   1.0000     -51.289020     -1395.6452    5-A"
  10   1.0000     -51.288971     -1395.6439    6-A'
  11   1.0000     -51.288277     -1395.6250    6-A"
  12   1.0000     -51.288231     -1395.6237    7-A'
  13   1.0000     -51.287667     -1395.6084    7-A"
  14   1.0000     -51.287610     -1395.6068    8-A'
  15   1.0000     -51.287267     -1395.5975    8-A"
  16   1.0000     -51.287218     -1395.5962    9-A'
  17   1.0000     -51.286950     -1395.5889    9-A"
  18   1.0000     -51.286891     -1395.5873   10-A'
  19   1.0000     -51.286501     -1395.5766   10-A"
  20   1.0000     -51.286452     -1395.5753   11-A'
  21   1.0000     -38.030002     -1034.8490   12-A'
  22   1.0000     -33.532053      -912.4536   11-A"
  23   1.0000     -33.531265      -912.4321   13-A'
  24   1.0000     -33.520103      -912.1284   14-A'
  25   1.0000      -9.822803      -267.2921   15-A'
  26   1.0000      -9.822358      -267.2799   12-A"
  27   1.0000      -9.818214      -267.1672   16-A'
  28   1.0000      -9.817766      -267.1550   13-A"
  29   1.0000      -9.812793      -267.0197   17-A'
  30   1.0000      -9.812335      -267.0072   14-A"
  31   1.0000      -9.810546      -266.9585   18-A'
  32   1.0000      -9.810093      -266.9462   15-A"
  33   1.0000      -9.808107      -266.8922   16-A"
  34   1.0000      -9.808106      -266.8921   19-A'
  35   1.0000      -9.808075      -266.8913   17-A"
  36   1.0000      -9.808071      -266.8912   20-A'
  37   1.0000      -7.343897      -199.8376   18-A"
  38   1.0000      -7.343240      -199.8197   19-A"
  39   1.0000      -7.336726      -199.6425   21-A'
  40   1.0000      -7.335875      -199.6193   22-A'
  41   1.0000      -5.407090      -147.1344   20-A"
  42   1.0000      -5.407071      -147.1339   23-A'
  43   1.0000      -5.406100      -147.1075   21-A"
  44   1.0000      -5.406083      -147.1070   24-A'
  45   1.0000      -5.401708      -146.9879   22-A"
  46   1.0000      -5.401683      -146.9873   25-A'
  47   1.0000      -5.401482      -146.9818   23-A"
  48   1.0000      -5.401455      -146.9811   26-A'
  49   1.0000      -5.400811      -146.9635   24-A"
  50   1.0000      -5.400786      -146.9629   27-A'
  51   1.0000      -5.400441      -146.9535   25-A"
  52   1.0000      -5.400415      -146.9528   28-A'
  53   1.0000      -4.024303      -109.5069   29-A'
  54   1.0000      -2.543853       -69.2218   26-A"
  55   1.0000      -2.542897       -69.1958   30-A'
  56   1.0000      -2.519428       -68.5571   31-A'
  57   1.0000      -1.746113       -47.5142   32-A'
  58   1.0000      -1.746084       -47.5134   27-A"
  59   1.0000      -1.745152       -47.4880   33-A'
  60   1.0000      -1.745122       -47.4872   28-A"
  61   1.0000      -1.743343       -47.4388   34-A'
  62   1.0000      -1.743262       -47.4366   29-A"
  63   1.0000      -1.742733       -47.4222   35-A'
  64   1.0000      -1.742726       -47.4220   30-A"
  65   1.0000      -1.742415       -47.4135   36-A'
  66   1.0000      -1.742333       -47.4113   31-A"
  67   1.0000      -1.741683       -47.3936   37-A'
  68   1.0000      -1.741676       -47.3934   32-A"
  69   1.0000      -1.738321       -47.3021   38-A'
  70   1.0000      -1.738281       -47.3010   39-A'
  71   1.0000      -1.738269       -47.3007   33-A"
  72   1.0000      -1.738243       -47.3000   34-A"
  73   1.0000      -1.737335       -47.2753   40-A'
  74   1.0000      -1.737310       -47.2746   41-A'
  75   1.0000      -1.737289       -47.2740   35-A"
  76   1.0000      -1.737266       -47.2734   36-A"
  77   1.0000      -0.604470       -16.4485   42-A'
  78   1.0000      -0.604257       -16.4427   43-A'
  79   1.0000      -0.522858       -14.2277   44-A'
  80   1.0000      -0.520725       -14.1696   45-A'
  81   1.0000      -0.501007       -13.6331   37-A"
  82   1.0000      -0.500234       -13.6120   38-A"
  83   1.0000      -0.414160       -11.2699   39-A"
  84   1.0000      -0.411302       -11.1921   40-A"
  85   1.0000      -0.383709       -10.4413   46-A'
  86   1.0000      -0.377700       -10.2777   47-A'
  87   1.0000      -0.322747        -8.7824   48-A'
  88   1.0000      -0.320489        -8.7210   49-A'
  89   1.0000      -0.286894        -7.8068   41-A"
  90   1.0000      -0.277729        -7.5574   42-A"
  91   1.0000      -0.228043        -6.2054   50-A'
  92   1.0000      -0.214832        -5.8459   51-A'
  93   1.0000      -0.201920        -5.4945   52-A'
  94   1.0000      -0.200713        -5.4617   53-A'
  95   1.0000      -0.170038        -4.6270   43-A"
  96   1.0000      -0.163909        -4.4602   44-A"
  97   1.0000      -0.143959        -3.9173   54-A'
  98   1.0000      -0.138830        -3.7778   45-A"
  99   1.0000      -0.133586        -3.6350   55-A'
 100   1.0000      -0.129838        -3.5331   46-A"
 101   1.0000      -0.127830        -3.4784   56-A'
 102   1.0000      -0.109903        -2.9906   57-A'
 103   1.0000      -0.085087        -2.3153   58-A'
 104   1.0000      -0.073060        -1.9881   47-A"
 105   1.0000      -0.067585        -1.8391   48-A"
 106   1.0000      -0.065864        -1.7923   59-A'
 107   1.0000      -0.049146        -1.3373   60-A'
 108   1.0000      -0.042457        -1.1553   61-A'
 109   1.0000      -0.034699        -0.9442   49-A"
 110   1.0000      -0.032464        -0.8834   50-A"
 111   1.0000      -0.030023        -0.8170   62-A'
 112   1.0000      -0.027695        -0.7536   51-A"
 113   1.0000      -0.003484        -0.0948   52-A"
 114   1.0000      -0.003468        -0.0944   63-A'
 115   1.0000      -0.001762        -0.0480   64-A'
 116   1.0000       0.016835         0.4581   65-A'
 117   1.0000       0.018932         0.5152   66-A'
 118   1.0000       0.038496         1.0475   53-A"
 119   1.0000       0.053655         1.4600   54-A"
 120   1.0000       0.055163         1.5011   55-A"
 121   1.0000       0.067356         1.8328   67-A'
 122   1.0000       0.095989         2.6120   68-A'
 123   1.0000       0.113943         3.1006   56-A"
 124   0.0000       0.180522         4.9123   69-A'
 125   0.0000       0.181240         4.9318   70-A'
 126   0.0000       0.195529         5.3206   71-A'
 127   0.0000       0.195618         5.3230   57-A"
 128   0.0000       0.197891         5.3849   58-A"

                 SPIN DOWN ORBITALS
  NO   OCC          E(Eh)            E(eV)    Irrep
   0   1.0000    -443.563071    -12069.9648    1-A"
   1   1.0000    -443.561920    -12069.9335    2-A"
   2   1.0000    -443.548557    -12069.5698    1-A'
   3   1.0000    -443.548425    -12069.5663    2-A'
   4   1.0000    -318.189315     -8658.3714    3-A'
   5   1.0000     -56.372130     -1533.9636    3-A"
   6   1.0000     -56.371815     -1533.9551    4-A"
   7   1.0000     -56.359486     -1533.6196    4-A'
   8   1.0000     -56.358871     -1533.6028    5-A'
   9   1.0000     -51.288700     -1395.6365    5-A"
  10   1.0000     -51.288643     -1395.6349    6-A'
  11   1.0000     -51.287953     -1395.6162    6-A"
  12   1.0000     -51.287899     -1395.6147    7-A'
  13   1.0000     -51.287017     -1395.5907    7-A"
  14   1.0000     -51.286968     -1395.5894    8-A'
  15   1.0000     -51.286933     -1395.5884    8-A"
  16   1.0000     -51.286884     -1395.5871    9-A'
  17   1.0000     -51.286250     -1395.5698    9-A"
  18   1.0000     -51.286210     -1395.5687   10-A"
  19   1.0000     -51.286201     -1395.5685   10-A'
  20   1.0000     -51.286160     -1395.5674   11-A'
  21   1.0000     -38.016147     -1034.4720   12-A'
  22   1.0000     -33.518885      -912.0952   11-A"
  23   1.0000     -33.518098      -912.0738   13-A'
  24   1.0000     -33.516243      -912.0234   14-A'
  25   1.0000      -9.822754      -267.2907   15-A'
  26   1.0000      -9.822309      -267.2786   12-A"
  27   1.0000      -9.818163      -267.1658   16-A'
  28   1.0000      -9.817715      -267.1536   13-A"
  29   1.0000      -9.812813      -267.0202   17-A'
  30   1.0000      -9.812354      -267.0077   14-A"
  31   1.0000      -9.810565      -266.9591   18-A'
  32   1.0000      -9.810110      -266.9467   15-A"
  33   1.0000      -9.807987      -266.8889   16-A"
  34   1.0000      -9.807986      -266.8889   19-A'
  35   1.0000      -9.807954      -266.8880   17-A"
  36   1.0000      -9.807949      -266.8879   20-A'
  37   1.0000      -7.343499      -199.8268   18-A"
  38   1.0000      -7.342838      -199.8088   19-A"
  39   1.0000      -7.336320      -199.6314   21-A'
  40   1.0000      -7.335466      -199.6082   22-A'
  41   1.0000      -5.406728      -147.1246   20-A"
  42   1.0000      -5.406709      -147.1240   23-A'
  43   1.0000      -5.405735      -147.0975   21-A"
  44   1.0000      -5.405716      -147.0970   24-A'
  45   1.0000      -5.401170      -146.9733   22-A"
  46   1.0000      -5.401144      -146.9726   25-A'
  47   1.0000      -5.400884      -146.9655   23-A"
  48   1.0000      -5.400859      -146.9648   26-A'
  49   1.0000      -5.400128      -146.9449   24-A"
  50   1.0000      -5.400101      -146.9442   27-A'
  51   1.0000      -5.399981      -146.9410   25-A"
  52   1.0000      -5.399956      -146.9403   28-A'
  53   1.0000      -3.996138      -108.7404   29-A'
  54   1.0000      -2.509143       -68.2773   30-A'
  55   1.0000      -2.508679       -68.2646   26-A"
  56   1.0000      -2.507654       -68.2367   31-A'
  57   1.0000      -1.745670       -47.5021   32-A'
  58   1.0000      -1.745641       -47.5013   27-A"
  59   1.0000      -1.744700       -47.4757   33-A'
  60   1.0000      -1.744671       -47.4749   28-A"
  61   1.0000      -1.742478       -47.4152   34-A'
  62   1.0000      -1.742429       -47.4139   29-A"
  63   1.0000      -1.742398       -47.4131   35-A'
  64   1.0000      -1.742355       -47.4119   30-A"
  65   1.0000      -1.741519       -47.3892   36-A'
  66   1.0000      -1.741436       -47.3869   31-A"
  67   1.0000      -1.741368       -47.3850   37-A'
  68   1.0000      -1.741360       -47.3848   32-A"
  69   1.0000      -1.737534       -47.2807   38-A'
  70   1.0000      -1.737504       -47.2799   33-A"
  71   1.0000      -1.737495       -47.2796   39-A'
  72   1.0000      -1.737442       -47.2782   34-A"
  73   1.0000      -1.736545       -47.2538   40-A'
  74   1.0000      -1.736520       -47.2531   35-A"
  75   1.0000      -1.736519       -47.2531   41-A'
  76   1.0000      -1.736461       -47.2515   36-A"
  77   1.0000      -0.603645       -16.4260   42-A'
  78   1.0000      -0.603444       -16.4205   43-A'
  79   1.0000      -0.521716       -14.1966   44-A'
  80   1.0000      -0.519598       -14.1390   45-A'
  81   1.0000      -0.499292       -13.5864   37-A"
  82   1.0000      -0.498480       -13.5643   38-A"
  83   1.0000      -0.411454       -11.1962   39-A"
  84   1.0000      -0.408560       -11.1175   40-A"
  85   1.0000      -0.381197       -10.3729   46-A'
  86   1.0000      -0.375305       -10.2126   47-A'
  87   1.0000      -0.321017        -8.7353   48-A'
  88   1.0000      -0.318582        -8.6691   49-A'
  89   1.0000      -0.284395        -7.7388   41-A"
  90   1.0000      -0.275014        -7.4835   42-A"
  91   1.0000      -0.226909        -6.1745   50-A'
  92   1.0000      -0.213778        -5.8172   51-A'
  93   1.0000      -0.200633        -5.4595   52-A'
  94   1.0000      -0.199488        -5.4283   53-A'
  95   1.0000      -0.168563        -4.5868   43-A"
  96   1.0000      -0.162314        -4.4168   44-A"
  97   1.0000      -0.142666        -3.8821   54-A'
  98   1.0000      -0.137645        -3.7455   45-A"
  99   1.0000      -0.133048        -3.6204   55-A'
 100   1.0000      -0.127954        -3.4818   46-A"
 101   1.0000      -0.126714        -3.4481   56-A'
 102   1.0000      -0.108376        -2.9490   57-A'
 103   1.0000      -0.083786        -2.2799   58-A'
 104   1.0000      -0.071663        -1.9501   47-A"
 105   1.0000      -0.063684        -1.7329   59-A'
 106   1.0000      -0.056514        -1.5378   48-A"
 107   1.0000      -0.048122        -1.3095   60-A'
 108   1.0000      -0.041033        -1.1166   61-A'
 109   1.0000      -0.032107        -0.8737   49-A"
 110   1.0000      -0.026581        -0.7233   50-A"
 111   1.0000      -0.024146        -0.6570   62-A'
 112   1.0000      -0.004593        -0.1250   51-A"
 113   1.0000       0.006073         0.1652   52-A"
 114   1.0000       0.007474         0.2034   63-A'
 115   1.0000       0.008690         0.2365   64-A'
 116   1.0000       0.027098         0.7374   65-A'
 117   1.0000       0.029639         0.8065   66-A'
 118   1.0000       0.049680         1.3519   53-A"
 119   1.0000       0.055724         1.5163   54-A"
 120   1.0000       0.058471         1.5911   55-A"
 121   1.0000       0.069079         1.8797   67-A'
 122   1.0000       0.099233         2.7003   68-A'
 123   0.0000       0.143670         3.9095   56-A"
 124   0.0000       0.181825         4.9477   69-A'
 125   0.0000       0.183050         4.9810   70-A'
 126   0.0000       0.195788         5.3277   71-A'
 127   0.0000       0.198686         5.4065   57-A"

MULLIKEN ATOMIC CHARGES AND SPIN POPULATIONS
--------------------------------------------
   0 Cu:    0.637862    0.309733
   1 Se:   -0.730330    0.174265
   2 C :    0.222391   -0.003210
   3 Se:   -0.721162    0.172551
   4 C :    0.225387   -0.003097
   5 Se:   -0.730330    0.174265
   6 C :    0.222391   -0.003210
   7 Se:   -0.721162    0.172551
   8 C :    0.225387   -0.003097
   9 C :   -0.079386   -0.001275
  10 C :   -0.079386   -0.001275
  11 C :   -0.141841   -0.000930
  12 H :    0.095222    0.002661
  13 C :   -0.141841   -0.000930
  14 H :    0.095222    0.002661
  15 H :   -0.040864    0.001886
  16 H :   -0.040864    0.001886
  17 C :   -0.099326   -0.001462
  18 C :   -0.099326   -0.001462
  19 C :   -0.154445   -0.000637
  20 H :    0.092568    0.002773
  21 C :   -0.154445   -0.000637
  22 H :    0.092568    0.002773
  23 H :    0.012856    0.001608
  24 H :    0.012856    0.001608
Sum of atomic charges         :   -2.0000000

LOEWDIN ATOMIC CHARGES AND SPIN POPULATIONS
-------------------------------------------
   0 Cu:   -0.614496    0.390022
   1 Se:   -0.200698    0.124024
   2 C :    0.039029    0.011828
   3 Se:   -0.198022    0.123040
   4 C :    0.041936    0.011735
   5 Se:   -0.200698    0.124024
   6 C :    0.039029    0.011828
   7 Se:   -0.198022    0.123040
   8 C :    0.041936    0.011735
   9 C :    0.356467    0.006974
  10 C :    0.356467    0.006974
  11 C :    0.259383    0.000219
  12 H :   -0.466203    0.009255
  13 C :    0.259383    0.000219
  14 H :   -0.466203    0.009255
  15 H :   -0.343318    0.000659
  16 H :   -0.343318    0.000659
  17 C :    0.369759    0.006957
  18 C :    0.369759    0.006957
  19 C :    0.312384    0.000454
  20 H :   -0.460425    0.009426
  21 C :    0.312384    0.000454
  22 H :   -0.460425    0.009426
  23 H :   -0.403042    0.000417
  24 H :   -0.403042    0.000417

  Mayer bond orders larger than 0.100000
B(  0-Cu,  1-Se) :   0.5524 B(  0-Cu,  3-Se) :   0.5472 B(  0-Cu,  5-Se) :   0.5524
B(  0-Cu,  7-Se) :   0.5472 B(  1-Se,  2-C ) :   1.0383 B(  2-C ,  6-C ) :   1.1324
B(  2-C , 17-C ) :   1.2587 B(  3-Se,  4-C ) :   1.0417 B(  4-C ,  8-C ) :   1.1245
B(  4-C , 10-C ) :   1.2667 B(  5-Se,  6-C ) :   1.0383 B(  6-C , 18-C ) :   1.2587
B(  7-Se,  8-C ) :   1.0417 B(  8-C ,  9-C ) :   1.2667 B(  9-C , 13-C ) :   1.3628
B(  9-C , 14-H ) :   0.9554 B( 10-C , 11-C ) :   1.3628 B( 10-C , 12-H ) :   0.9554
B( 11-C , 13-C ) :   1.3139 B( 11-C , 15-H ) :   1.0204 B( 13-C , 16-H ) :   1.0204
B( 17-C , 19-C ) :   1.3772 B( 17-C , 20-H ) :   0.9591 B( 18-C , 21-C ) :   1.3772
B( 18-C , 22-H ) :   0.9591 B( 19-C , 21-C ) :   1.3122 B( 19-C , 23-H ) :   1.0009
B( 21-C , 24-H ) :   1.0009

FINAL SINGLE POINT ENERGY    -11627.114883979561

DIPOLE MOMENT
-------------
                                X             Y             Z
Electronic contribution:     -0.35980      -0.39226       0.00000
Nuclear contribution   :      0.01033       0.48663      -0.00000
                        -----------------------------------------
Total Dipole Moment    :     -0.34947       0.09437       0.00000
                        -----------------------------------------
Magnitude (a.u.)       :      0.36199
Magnitude (Debye)      :      0.92009

Rotational constants in cm-1:     0.017604     0.004097     0.003325
Rotational constants in MHz :   527.764595   122.832943    99.666038

                             ****ORCA TERMINATED NORMALLY****
TOTAL RUN TIME: 0 days 17 hours 12 minutes 42 seconds 74 msec
