                         Program Version 5.0.4 -  RELEASE  -
|  1> ! RIJCOSX nofrozencore ReducedPop printbasis
|  2> ! M06L ano-rcc-dzp autoaux
|  3>
|  4> %maxcore 7500
|  5> %basis
|  6> PCDTrimBas overlap
|  7> PCDTrimAuxJ Coulomb
|  8> PCDTrimAuxJK Coulomb
|  9> PCDTrimAuxC Coulomb
| 10> PCDThresh -1
| 11> end
| 12>
| 13> %basis
| 14> newgto Cu "ano-rcc-tzp" end
| 15> newgto Se "ano-rcc-tzp" end
| 16> end
| 17>
| 18> %pal
| 19> nprocs 8
| 20> end
| 21>
| 22> % sym SymThresh 1e-2 end
| 23> * xyz -2 2
| 24> Cu -0.00011625446510025826 0.0005780967891161886 0.0005568823949074041
| 25> Se 0.39610089830558953 -2.2544787274944857 0.606035848214733
| 26> C 0.36750490143611003 -2.28246873134536 2.239037026470116
| 27> Se 0.11200732144667803 -0.3518745446311375 -2.3394617503603197
| 28> C -0.11652615535253158 0.993131844748534 -3.0782454090039884
| 29> Se -0.1129697085532602 0.35719297294527624 2.339388447396863
| 30> C 0.13420280136090038 -1.0771619456269224 2.959549526226772
| 31> Se -0.3958251923416205 2.254811083653455 -0.6223296295623829
| 32> C -0.3735820842062901 2.2842738251682926 -1.9601497553965361
| 33> C -0.5722938451730692 3.5080860063678885 -3.0800021292838133
| 34> C -0.1467131866031825 1.3125461062923363 -4.421882762258467
| 35> C -0.3337172030154917 2.41458146693452 -5.039121129861224
| 36> H 0.04294005623530966 0.31369689385207106 -4.840179638414991
| 37> C -0.5640216526709646 3.5962742978197766 -4.2564252247209975
| 38> H -0.7086769421204965 4.149982047782318 -2.107710940912493
| 39> H -0.31750610464656753 2.4467747362416983 -6.108379852157652
| 40> H -0.7265746428574448 4.547607647533792 -4.73485980841384
| 41> C 0.5641464803342112 -3.447831650497141 2.9455073510588434
| 42> C 0.14750289264424568 -1.3172332643684335 4.424782329387951
| 43> C 0.5612099050237425 -3.585049158479163 4.294127269107902
| 44> H 0.7348693306489205 -4.319511376350842 2.327504904133236
| 45> C 0.33460814035827635 -2.4210929473235074 5.05314723020291
| 46> H -0.03809754511807897 -0.3449918103327468 4.880402239232778
| 47> H 0.7265416187397145 -4.54818741419912 4.741557894186762
| 48> H 0.319967966611396 -2.46299398983591 6.13154795010532
| 49> *
| 50>
| 51> % eprnmr
| 52> gtensor true
| 53> Nuclei = all H {aiso,adip,aorb,fgrad,rho}
| 54> Nuclei = all Cu {aiso,adip,aorb,fgrad,rho}
| 55> end
| 56>
| 57>                          ****END OF INPUT****

CARTESIAN COORDINATES (ANGSTROEM)
---------------------------------
  Cu     0.000589    0.000558    0.000000
  Se    -2.290088    0.601952    0.000000
  C     -2.315532    2.235245    0.000000
  Se    -0.361907   -2.340612    0.000000
  C      1.003650   -3.077039    0.000000
  Se     0.367312    2.340549    0.000000
  C     -1.089267    2.958161    0.000000
  Se     2.290396   -0.618249    0.000000
  C      2.317879   -1.956296    0.000000
  C      3.559568   -3.074098    0.000000
  C      1.325798   -4.420363    0.000000
  C      2.444649   -5.035673    0.000000
  H      0.309909   -4.840614    0.000000
  C      3.647030   -4.250605    0.000000
  H      4.213707   -2.100403    0.000000
  H      2.475401   -6.105097    0.000000
  H      4.612980   -4.727363    0.000000
  C     -3.498579    2.939688    0.000000
  C     -1.330556    4.423255    0.000000
  C     -3.635552    4.288335    0.000000
  H     -4.385594    2.319926    0.000000
  C     -2.451241    5.049690    0.000000
  H     -0.341640    4.880787    0.000000
  H     -4.613557    4.734061    0.000000
  H     -2.491842    6.128240    0.000000

 Total Charge           Charge          ....   -2
 Multiplicity           Mult            ....    2
 Number of Electrons    NEL             ....  247
 Basis Dimension        Dim             ....  575

ORBITAL ENERGIES
----------------
                 SPIN UP ORBITALS
  NO   OCC          E(Eh)            E(eV)    Irrep
   0   1.0000    -443.614815    -12071.3728    1-A'
   1   1.0000    -443.559076    -12069.8561    2-A'
   2   1.0000    -443.555727    -12069.7650    3-A'
   3   1.0000    -443.530737    -12069.0849    4-A'
   4   1.0000    -318.136672     -8656.9390    5-A'
   5   1.0000     -56.413927     -1535.1010    6-A'
   6   1.0000     -56.367063     -1533.8258    7-A'
   7   1.0000     -56.362463     -1533.7006    8-A'
   8   1.0000     -56.341024     -1533.1172    9-A'
   9   1.0000     -51.324836     -1396.6198    1-A"
  10   1.0000     -51.323030     -1396.5706   10-A'
  11   1.0000     -51.322770     -1396.5636   11-A'
  12   1.0000     -51.289264     -1395.6518    2-A"
  13   1.0000     -51.288823     -1395.6398   12-A'
  14   1.0000     -51.287381     -1395.6006   13-A'
  15   1.0000     -51.279554     -1395.3876   14-A'
  16   1.0000     -51.278973     -1395.3718    3-A"
  17   1.0000     -51.277725     -1395.3378   15-A'
  18   1.0000     -51.266239     -1395.0253   16-A'
  19   1.0000     -51.265424     -1395.0031    4-A"
  20   1.0000     -51.264188     -1394.9695   17-A'
  21   1.0000     -37.968525     -1033.1761   18-A'
  22   1.0000     -33.472408      -910.8305    5-A"
  23   1.0000     -33.466852      -910.6793   19-A'
  24   1.0000     -33.464527      -910.6161   20-A'
  25   1.0000      -9.825549      -267.3668   21-A'
  26   1.0000      -9.811407      -266.9819   22-A'
  27   1.0000      -9.808842      -266.9122   23-A'
  28   1.0000      -9.808051      -266.8906   24-A'
  29   1.0000      -9.805979      -266.8343   25-A'
  30   1.0000      -9.805563      -266.8229   26-A'
  31   1.0000      -9.805076      -266.8097   27-A'
  32   1.0000      -9.804243      -266.7870   28-A'
  33   1.0000      -9.801794      -266.7204   29-A'
  34   1.0000      -9.797947      -266.6157   30-A'
  35   1.0000      -9.797306      -266.5983   31-A'
  36   1.0000      -9.795968      -266.5618   32-A'
  37   1.0000      -7.383606      -200.9181   33-A'
  38   1.0000      -7.341753      -199.7792   34-A'
  39   1.0000      -7.332755      -199.5344   35-A'
  40   1.0000      -7.317008      -199.1059   36-A'
  41   1.0000      -5.444042      -148.1399   37-A'
  42   1.0000      -5.442905      -148.1090    6-A"
  43   1.0000      -5.435728      -147.9137   38-A'
  44   1.0000      -5.406415      -147.1160    7-A"
  45   1.0000      -5.406351      -147.1143   39-A'
  46   1.0000      -5.400301      -146.9497   40-A'
  47   1.0000      -5.396345      -146.8420   41-A'
  48   1.0000      -5.393977      -146.7776    8-A"
  49   1.0000      -5.389449      -146.6544   42-A'
  50   1.0000      -5.384405      -146.5171   43-A'
  51   1.0000      -5.381461      -146.4370    9-A"
  52   1.0000      -5.377157      -146.3199   44-A'
  53   1.0000      -3.964215      -107.8718   45-A'
  54   1.0000      -2.481629       -67.5286   10-A"
  55   1.0000      -2.475919       -67.3732   46-A'
  56   1.0000      -2.470935       -67.2376   47-A'
  57   1.0000      -1.793213       -48.7958   48-A'
  58   1.0000      -1.783781       -48.5391   11-A"
  59   1.0000      -1.778499       -48.3954   49-A'
  60   1.0000      -1.776734       -48.3474   12-A"
  61   1.0000      -1.776152       -48.3315   50-A'
  62   1.0000      -1.748404       -47.5765   51-A'
  63   1.0000      -1.745560       -47.4991   13-A"
  64   1.0000      -1.741217       -47.3809   52-A'
  65   1.0000      -1.740531       -47.3622   14-A"
  66   1.0000      -1.739559       -47.3358   53-A'
  67   1.0000      -1.737037       -47.2672   54-A'
  68   1.0000      -1.734193       -47.1898   15-A"
  69   1.0000      -1.731097       -47.1055   55-A'
  70   1.0000      -1.728505       -47.0350   16-A"
  71   1.0000      -1.728028       -47.0220   56-A'
  72   1.0000      -1.724156       -46.9167   57-A'
  73   1.0000      -1.721972       -46.8572   17-A"
  74   1.0000      -1.718988       -46.7760   58-A'
  75   1.0000      -1.715989       -46.6944   18-A"
  76   1.0000      -1.715636       -46.6848   59-A'
  77   1.0000      -0.602121       -16.3845   60-A'
  78   1.0000      -0.593487       -16.1496   61-A'
  79   1.0000      -0.562008       -15.2930   62-A'
  80   1.0000      -0.524133       -14.2624   63-A'
  81   1.0000      -0.518545       -14.1103   64-A'
  82   1.0000      -0.493248       -13.4220   65-A'
  83   1.0000      -0.460296       -12.5253   66-A'
  84   1.0000      -0.414988       -11.2924   67-A'
  85   1.0000      -0.371613       -10.1121   68-A'
  86   1.0000      -0.366751        -9.9798   69-A'
  87   1.0000      -0.304593        -8.2884   70-A'
  88   1.0000      -0.298359        -8.1188   71-A'
  89   1.0000      -0.277402        -7.5485   72-A'
  90   1.0000      -0.273640        -7.4461   73-A'
  91   1.0000      -0.246141        -6.6978   74-A'
  92   1.0000      -0.224781        -6.1166   75-A'
  93   1.0000      -0.194519        -5.2931   76-A'
  94   1.0000      -0.191151        -5.2015   77-A'
  95   1.0000      -0.169539        -4.6134   78-A'
  96   1.0000      -0.157078        -4.2743   79-A'
  97   1.0000      -0.146401        -3.9838   80-A'
  98   1.0000      -0.139785        -3.8037   19-A"
  99   1.0000      -0.139700        -3.8014   81-A'
 100   1.0000      -0.123269        -3.3543   20-A"
 101   1.0000      -0.120808        -3.2873   82-A'
 102   1.0000      -0.091003        -2.4763   83-A'
 103   1.0000      -0.089682        -2.4404   21-A"
 104   1.0000      -0.089148        -2.4258   84-A'
 105   1.0000      -0.068142        -1.8542   85-A'
 106   1.0000      -0.062270        -1.6944   22-A"
 107   1.0000      -0.060531        -1.6471   86-A'
 108   1.0000      -0.047069        -1.2808   23-A"
 109   1.0000      -0.044706        -1.2165   87-A'
 110   1.0000      -0.025759        -0.7009   24-A"
 111   1.0000      -0.001848        -0.0503   88-A'
 112   1.0000       0.009608         0.2614   25-A"
 113   1.0000       0.015510         0.4220   89-A'
 114   1.0000       0.033841         0.9209   26-A"
 115   1.0000       0.038412         1.0452   27-A"
 116   1.0000       0.041125         1.1191   90-A'
 117   1.0000       0.046796         1.2734   91-A'
 118   1.0000       0.053534         1.4567   92-A'
 119   1.0000       0.062756         1.7077   28-A"
 120   1.0000       0.066938         1.8215   93-A'
 121   1.0000       0.088107         2.3975   29-A"
 122   1.0000       0.118205         3.2165   30-A"
 123   1.0000       0.136869         3.7244   94-A'
 124   0.0000       0.179119         4.8741   95-A'
 125   0.0000       0.185710         5.0534   96-A'
 126   0.0000       0.190787         5.1916   31-A"
 127   0.0000       0.196654         5.3512   97-A'
 128   0.0000       0.201572         5.4851   98-A'

                 SPIN DOWN ORBITALS
  NO   OCC          E(Eh)            E(eV)    Irrep
   0   1.0000    -443.614615    -12071.3674    1-A'
   1   1.0000    -443.558590    -12069.8429    2-A'
   2   1.0000    -443.555548    -12069.7601    3-A'
   3   1.0000    -443.530506    -12069.0787    4-A'
   4   1.0000    -318.136648     -8656.9383    5-A'
   5   1.0000     -56.413847     -1535.0988    6-A'
   6   1.0000     -56.366826     -1533.8193    7-A'
   7   1.0000     -56.362382     -1533.6984    8-A'
   8   1.0000     -56.340917     -1533.1143    9-A'
   9   1.0000     -51.324451     -1396.6093    1-A"
  10   1.0000     -51.322934     -1396.5680   10-A'
  11   1.0000     -51.322675     -1396.5610   11-A'
  12   1.0000     -51.288542     -1395.6322   12-A'
  13   1.0000     -51.288239     -1395.6239    2-A"
  14   1.0000     -51.287100     -1395.5929   13-A'
  15   1.0000     -51.279461     -1395.3851   14-A'
  16   1.0000     -51.278637     -1395.3626    3-A"
  17   1.0000     -51.277631     -1395.3353   15-A'
  18   1.0000     -51.266105     -1395.0216   16-A'
  19   1.0000     -51.264944     -1394.9900    4-A"
  20   1.0000     -51.264053     -1394.9658   17-A'
  21   1.0000     -37.965324     -1033.0890   18-A'
  22   1.0000     -33.469357      -910.7475    5-A"
  23   1.0000     -33.463972      -910.6010   19-A'
  24   1.0000     -33.463429      -910.5862   20-A'
  25   1.0000      -9.825569      -267.3673   21-A'
  26   1.0000      -9.811308      -266.9793   22-A'
  27   1.0000      -9.807529      -266.8764   23-A'
  28   1.0000      -9.807406      -266.8731   24-A'
  29   1.0000      -9.805804      -266.8295   25-A'
  30   1.0000      -9.805002      -266.8077   26-A'
  31   1.0000      -9.804349      -266.7899   27-A'
  32   1.0000      -9.804193      -266.7857   28-A'
  33   1.0000      -9.801624      -266.7158   29-A'
  34   1.0000      -9.797759      -266.6106   30-A'
  35   1.0000      -9.797113      -266.5930   31-A'
  36   1.0000      -9.795868      -266.5591   32-A'
  37   1.0000      -7.383424      -200.9132   33-A'
  38   1.0000      -7.341284      -199.7665   34-A'
  39   1.0000      -7.332605      -199.5303   35-A'
  40   1.0000      -7.316803      -199.1003   36-A'
  41   1.0000      -5.443956      -148.1376   37-A'
  42   1.0000      -5.442422      -148.0958    6-A"
  43   1.0000      -5.435628      -147.9110   38-A'
  44   1.0000      -5.406092      -147.1073   39-A'
  45   1.0000      -5.405245      -147.0842    7-A"
  46   1.0000      -5.400045      -146.9427   40-A'
  47   1.0000      -5.396264      -146.8398   41-A'
  48   1.0000      -5.393610      -146.7676    8-A"
  49   1.0000      -5.389362      -146.6520   42-A'
  50   1.0000      -5.384288      -146.5139   43-A'
  51   1.0000      -5.380947      -146.4230    9-A"
  52   1.0000      -5.377036      -146.3166   44-A'
  53   1.0000      -3.958285      -107.7104   45-A'
  54   1.0000      -2.474169       -67.3256   10-A"
  55   1.0000      -2.468883       -67.1817   46-A'
  56   1.0000      -2.467850       -67.1536   47-A'
  57   1.0000      -1.792951       -48.7887   48-A'
  58   1.0000      -1.783454       -48.5302   11-A"
  59   1.0000      -1.778483       -48.3950   49-A'
  60   1.0000      -1.776341       -48.3367   12-A"
  61   1.0000      -1.775781       -48.3215   50-A'
  62   1.0000      -1.747702       -47.5574   51-A'
  63   1.0000      -1.744737       -47.4767   13-A"
  64   1.0000      -1.741164       -47.3795   52-A'
  65   1.0000      -1.739697       -47.3396   14-A"
  66   1.0000      -1.738960       -47.3195   53-A'
  67   1.0000      -1.736863       -47.2624   54-A'
  68   1.0000      -1.733946       -47.1831   15-A"
  69   1.0000      -1.731074       -47.1049   55-A'
  70   1.0000      -1.728248       -47.0280   16-A"
  71   1.0000      -1.727820       -47.0164   56-A'
  72   1.0000      -1.723923       -46.9103   57-A'
  73   1.0000      -1.721614       -46.8475   17-A"
  74   1.0000      -1.718956       -46.7752   58-A'
  75   1.0000      -1.715635       -46.6848   18-A"
  76   1.0000      -1.715351       -46.6771   59-A'
  77   1.0000      -0.598881       -16.2964   60-A'
  78   1.0000      -0.592514       -16.1231   61-A'
  79   1.0000      -0.560036       -15.2394   62-A'
  80   1.0000      -0.520286       -14.1577   63-A'
  81   1.0000      -0.517655       -14.0861   64-A'
  82   1.0000      -0.492241       -13.3946   65-A'
  83   1.0000      -0.456499       -12.4220   66-A'
  84   1.0000      -0.413592       -11.2544   67-A'
  85   1.0000      -0.367519       -10.0007   68-A'
  86   1.0000      -0.364266        -9.9122   69-A'
  87   1.0000      -0.303396        -8.2558   70-A'
  88   1.0000      -0.295372        -8.0375   71-A'
  89   1.0000      -0.275802        -7.5050   72-A'
  90   1.0000      -0.270479        -7.3601   73-A'
  91   1.0000      -0.243746        -6.6327   74-A'
  92   1.0000      -0.223917        -6.0931   75-A'
  93   1.0000      -0.193162        -5.2562   76-A'
  94   1.0000      -0.191084        -5.1997   77-A'
  95   1.0000      -0.167351        -4.5539   78-A'
  96   1.0000      -0.155705        -4.2370   79-A'
  97   1.0000      -0.144440        -3.9304   80-A'
  98   1.0000      -0.139347        -3.7918   81-A'
  99   1.0000      -0.131936        -3.5902   19-A"
 100   1.0000      -0.120720        -3.2850   20-A"
 101   1.0000      -0.118906        -3.2356   82-A'
 102   1.0000      -0.089458        -2.4343   83-A'
 103   1.0000      -0.086861        -2.3636   84-A'
 104   1.0000      -0.083294        -2.2665   21-A"
 105   1.0000      -0.067312        -1.8317   85-A'
 106   1.0000      -0.059177        -1.6103   86-A'
 107   1.0000      -0.051424        -1.3993   22-A"
 108   1.0000      -0.044152        -1.2014   23-A"
 109   1.0000      -0.043641        -1.1875   87-A'
 110   1.0000      -0.022328        -0.6076   24-A"
 111   1.0000       0.000837         0.0228   88-A'
 112   1.0000       0.016793         0.4570   89-A'
 113   1.0000       0.019616         0.5338   25-A"
 114   1.0000       0.041022         1.1163   26-A"
 115   1.0000       0.042987         1.1697   90-A'
 116   1.0000       0.047430         1.2906   27-A"
 117   1.0000       0.050155         1.3648   91-A'
 118   1.0000       0.055456         1.5090   92-A'
 119   1.0000       0.067629         1.8403   28-A"
 120   1.0000       0.069195         1.8829   93-A'
 121   1.0000       0.096787         2.6337   29-A"
 122   1.0000       0.139865         3.8059   94-A'
 123   0.0000       0.133346         3.6285   30-A"
 124   0.0000       0.177404         4.8274   95-A'
 125   0.0000       0.185353         5.0437   96-A'
 126   0.0000       0.196279         5.3410   97-A'
 127   0.0000       0.199323         5.4239   31-A"

MULLIKEN ATOMIC CHARGES AND SPIN POPULATIONS
--------------------------------------------
   0 Cu:    0.565470    0.069664
   1 Se:   -0.787077    0.107002
   2 C :    0.202748    0.005698
   3 Se:   -0.531969    0.235199
   4 C :    0.052147    0.127939
   5 Se:   -0.692439    0.073862
   6 C :    0.150178    0.005659
   7 Se:   -0.061923    0.084396
   8 C :   -0.174357    0.031079
   9 C :   -0.073559    0.083335
  10 C :   -0.063253    0.008378
  11 C :   -0.258960    0.139932
  12 H :    0.070904   -0.005611
  13 C :   -0.154365   -0.003465
  14 H :    0.005427   -0.009835
  15 H :    0.029418   -0.007824
  16 H :    0.015347   -0.000269
  17 C :   -0.081378    0.015966
  18 C :   -0.106751    0.020284
  19 C :   -0.197847    0.017268
  20 H :    0.095475   -0.001309
  21 C :   -0.148001    0.006320
  22 H :    0.096019   -0.001936
  23 H :    0.029440   -0.001225
  24 H :    0.019306   -0.000507
Sum of atomic charges         :   -2.0000000

LOEWDIN ATOMIC CHARGES AND SPIN POPULATIONS
-------------------------------------------
   0 Cu:   -0.651736    0.101565
   1 Se:   -0.221073    0.098874
   2 C :    0.040674    0.015932
   3 Se:   -0.151058    0.247877
   4 C :    0.082379    0.081970
   5 Se:   -0.188301    0.067464
   6 C :    0.052942    0.012610
   7 Se:   -0.021158    0.087052
   8 C :   -0.002049    0.027945
   9 C :    0.362735    0.049410
  10 C :    0.328059    0.031157
  11 C :    0.318890    0.080172
  12 H :   -0.473629   -0.001082
  13 C :    0.264991    0.022024
  14 H :   -0.490987    0.004806
  15 H :   -0.424797    0.020509
  16 H :   -0.398444    0.002195
  17 C :    0.361039    0.011597
  18 C :    0.363031    0.012643
  19 C :    0.329627    0.012418
  20 H :   -0.464902    0.000111
  21 C :    0.298280    0.007828
  22 H :   -0.481896    0.000599
  23 H :   -0.424460    0.002833
  24 H :   -0.408160    0.001492

  Mayer bond orders larger than 0.100000
B(  0-Cu,  1-Se) :   0.4983 B(  0-Cu,  3-Se) :   0.4834 B(  0-Cu,  5-Se) :   0.4781
B(  0-Cu,  7-Se) :   0.4158 B(  1-Se,  2-C ) :   1.0859 B(  2-C ,  6-C ) :   1.1242
B(  2-C , 17-C ) :   1.2252 B(  3-Se,  4-C ) :   1.3003 B(  4-C ,  8-C ) :   0.9056
B(  4-C , 10-C ) :   1.1882 B(  5-Se,  6-C ) :   1.1913 B(  6-C , 18-C ) :   1.1652
B(  7-Se,  8-C ) :   1.6699 B(  8-C ,  9-C ) :   0.9544 B(  9-C , 13-C ) :   1.6441
B(  9-C , 14-H ) :   0.9328 B( 10-C , 11-C ) :   1.4842 B( 10-C , 12-H ) :   0.9371
B( 11-C , 13-C ) :   1.1715 B( 11-C , 15-H ) :   0.9987 B( 13-C , 16-H ) :   0.9813
B( 17-C , 19-C ) :   1.4322 B( 17-C , 20-H ) :   0.9546 B( 18-C , 21-C ) :   1.4820
B( 18-C , 22-H ) :   0.9460 B( 19-C , 21-C ) :   1.2446 B( 19-C , 23-H ) :   0.9929
B( 21-C , 24-H ) :   0.9933

FINAL SINGLE POINT ENERGY    -11626.750122338928

DIPOLE MOMENT
-------------
                                X             Y             Z
Electronic contribution:      0.95775      -0.70787       0.00000
Nuclear contribution   :     -0.26882       0.43704       0.00000
                        -----------------------------------------
Total Dipole Moment    :      0.68893      -0.27083       0.00000
                        -----------------------------------------
Magnitude (a.u.)       :      0.74025
Magnitude (Debye)      :      1.88157

Rotational constants in cm-1:     0.017582     0.004106     0.003329
Rotational constants in MHz :   527.107441   123.107096    99.798855

                             ****ORCA TERMINATED NORMALLY****
TOTAL RUN TIME: 0 days 16 hours 58 minutes 38 seconds 154 msec
