                         Program Version 5.0.4 -  RELEASE  -
|  1> ! RIJCOSX nofrozencore ReducedPop printbasis
|  2> ! M06L ano-rcc-dzp autoaux
|  3>
|  4> %maxcore 7500
|  5> %basis
|  6> PCDTrimBas overlap
|  7> PCDTrimAuxJ Coulomb
|  8> PCDTrimAuxJK Coulomb
|  9> PCDTrimAuxC Coulomb
| 10> PCDThresh -1
| 11> end
| 12>
| 13> %basis
| 14> newgto Cu "ano-rcc-tzp" end
| 15> newgto Se "ano-rcc-tzp" end
| 16> end
| 17>
| 18> %pal
| 19> nprocs 8
| 20> end
| 21>
| 22> % sym SymThresh 1e-2 end
| 23> * xyz -2 2
| 24> Cu 1.3001340686584472e-06 2.7165893479985342e-05 -5.3266536238407724e-05
| 25> Se -1.0099544082749539 0.6906399672505792 -2.030246435897649
| 26> C -2.384414577306911 0.24892321129177727 -2.0413179992866115
| 27> Se 2.127596976573164 0.925202098902857 -0.46377627990603315
| 28> C 3.0966364676575138 0.5133550651556545 0.9846482292847688
| 29> Se -2.141997884956125 -0.9182011545768449 0.4404974769022351
| 30> C -2.937055403849673 -0.6378536055440789 -0.6332350529636331
| 31> Se 0.9938750412187783 -0.6971674613209307 2.032825756202361
| 32> C 2.562188962988502 -0.1080464665717067 1.8759469343399013
| 33> C 3.4280491278558136 -0.39053971509368324 2.999845577437869
| 34> C 4.333512454995845 0.9536434265561281 0.9093866683315582
| 35> C 5.228464114093578 0.7032935409357716 1.9881181923624867
| 36> H 4.849995725447973 1.511717953810748 0.1325792904742107
| 37> C 4.737988704127941 0.01533459014846243 3.0404879838405896
| 38> H 3.066459867102674 -0.9381515442412542 3.8562112262209394
| 39> H 6.2398021347459665 1.0730904699260726 1.9070746459429746
| 40> H 5.329616641706507 -0.22936043750895355 3.9113501771991426
| 41> C -3.5220487803757172 0.37218917991694395 -3.0242227741976415
| 42> C -4.507417525356228 -0.9559108673535459 -1.017590756092514
| 43> C -4.690218401659149 0.002327661358130352 -3.044704427692695
| 44> H -2.795816852698118 0.9449488303405272 -3.694326895784976
| 45> C -5.207794426607443 -0.723294554337252 -1.934882499456887
| 46> H -4.420567906979025 -1.4734555209224427 0.0695546884419257
| 47> H -5.302207451316899 0.22776756539258475 -3.8904116122624726
| 48> H -6.222832730303819 -1.076954373917585 -1.8883793981023291
| 49> *
| 50>
| 51> % eprnmr
| 52> gtensor true
| 53> Nuclei = all H {aiso,adip,aorb,fgrad,rho}
| 54> Nuclei = all Cu {aiso,adip,aorb,fgrad,rho}
| 55> end
| 56>
| 57>                          ****END OF INPUT****

CARTESIAN COORDINATES (ANGSTROEM)
---------------------------------
  Cu    -0.000059    0.000006    0.000000
  Se    -2.192336   -0.901417    0.000000
  C     -2.104109   -2.342456    0.000000
  Se    -0.673389    2.268106    0.000000
  C      0.872487    3.171906    0.000000
  Se     0.648458   -2.281400    0.000000
  C     -0.491903   -3.031859    0.000000
  Se     2.196392    0.884348    0.000000
  C      1.906505    2.541831    0.000000
  C      3.097682    3.362660    0.000000
  C      0.697960    4.475333    0.000000
  C      1.836591    5.330198    0.000000
  H     -0.206943    5.077647    0.000000
  C      3.047185    4.733709    0.000000
  H      4.080056    2.916644    0.000000
  H      1.672115    6.397470    0.000000
  H      3.975982    5.286554    0.000000
  C     -3.118014   -3.459373    0.000000
  C     -0.806015   -4.649345    0.000000
  C     -3.055387   -4.683267    0.000000
  H     -3.919160   -2.645327    0.000000
  C     -1.778680   -5.312659    0.000000
  H      0.401147   -4.642888    0.000000
  H     -3.954615   -5.259430    0.000000
  H     -1.652488   -6.381124    0.000000

 Total Charge           Charge          ....   -2
 Multiplicity           Mult            ....    2
 Number of Electrons    NEL             ....  247
 Basis Dimension        Dim             ....  575

ORBITAL ENERGIES
----------------
                 SPIN UP ORBITALS
  NO   OCC          E(Eh)            E(eV)    Irrep
   0   1.0000    -443.607944    -12071.1858    1-A'
   1   1.0000    -443.580269    -12070.4328    2-A'
   2   1.0000    -443.528074    -12069.0125    3-A'
   3   1.0000    -443.499716    -12068.2408    4-A'
   4   1.0000    -318.133272     -8656.8464    5-A'
   5   1.0000     -56.408517     -1534.9538    6-A'
   6   1.0000     -56.384089     -1534.2891    7-A'
   7   1.0000     -56.339933     -1533.0875    8-A'
   8   1.0000     -56.317101     -1532.4662    9-A'
   9   1.0000     -51.319469     -1396.4737    1-A"
  10   1.0000     -51.317714     -1396.4260   10-A'
  11   1.0000     -51.317370     -1396.4166   11-A'
  12   1.0000     -51.304172     -1396.0575    2-A"
  13   1.0000     -51.302962     -1396.0246   12-A'
  14   1.0000     -51.302129     -1396.0019   13-A'
  15   1.0000     -51.263716     -1394.9566   14-A'
  16   1.0000     -51.262064     -1394.9117    3-A"
  17   1.0000     -51.261323     -1394.8915   15-A'
  18   1.0000     -51.248794     -1394.5506   16-A'
  19   1.0000     -51.246850     -1394.4977    4-A"
  20   1.0000     -51.246223     -1394.4806   17-A'
  21   1.0000     -37.965031     -1033.0810   18-A'
  22   1.0000     -33.468520      -910.7247    5-A"
  23   1.0000     -33.463609      -910.5911   19-A'
  24   1.0000     -33.461273      -910.5275   20-A'
  25   1.0000      -9.820707      -267.2350   21-A'
  26   1.0000      -9.816467      -267.1196   22-A'
  27   1.0000      -9.814428      -267.0642   23-A'
  28   1.0000      -9.812831      -267.0207   24-A'
  29   1.0000      -9.812523      -267.0123   25-A'
  30   1.0000      -9.812027      -266.9988   26-A'
  31   1.0000      -9.810164      -266.9481   27-A'
  32   1.0000      -9.808357      -266.8990   28-A'
  33   1.0000      -9.805101      -266.8104   29-A'
  34   1.0000      -9.805068      -266.8095   30-A'
  35   1.0000      -9.793608      -266.4976   31-A'
  36   1.0000      -9.783846      -266.2320   32-A'
  37   1.0000      -7.377609      -200.7549   33-A'
  38   1.0000      -7.358205      -200.2269   34-A'
  39   1.0000      -7.315076      -199.0533   35-A'
  40   1.0000      -7.297849      -198.5846   36-A'
  41   1.0000      -5.438060      -147.9771   37-A'
  42   1.0000      -5.437929      -147.9736    6-A"
  43   1.0000      -5.430799      -147.7795   38-A'
  44   1.0000      -5.421641      -147.5304    7-A"
  45   1.0000      -5.421025      -147.5136   39-A'
  46   1.0000      -5.414867      -147.3460   40-A'
  47   1.0000      -5.382791      -146.4732   41-A'
  48   1.0000      -5.377479      -146.3287    8-A"
  49   1.0000      -5.374586      -146.2499   42-A'
  50   1.0000      -5.370983      -146.1519   43-A'
  51   1.0000      -5.364656      -145.9797    9-A"
  52   1.0000      -5.362346      -145.9169   44-A'
  53   1.0000      -3.960471      -107.7699   45-A'
  54   1.0000      -2.477219       -67.4086   10-A"
  55   1.0000      -2.472486       -67.2798   46-A'
  56   1.0000      -2.467472       -67.1433   47-A'
  57   1.0000      -1.786126       -48.6030   48-A'
  58   1.0000      -1.778089       -48.3843   11-A"
  59   1.0000      -1.772854       -48.2418   49-A'
  60   1.0000      -1.771869       -48.2150   12-A"
  61   1.0000      -1.771193       -48.1966   50-A'
  62   1.0000      -1.766111       -48.0583   51-A'
  63   1.0000      -1.760906       -47.9167   13-A"
  64   1.0000      -1.756039       -47.7842   52-A'
  65   1.0000      -1.755701       -47.7751   14-A"
  66   1.0000      -1.754746       -47.7491   53-A'
  67   1.0000      -1.721255       -46.8377   54-A'
  68   1.0000      -1.718985       -46.7760   15-A"
  69   1.0000      -1.717108       -46.7249   55-A'
  70   1.0000      -1.712452       -46.5982   16-A"
  71   1.0000      -1.712227       -46.5921   56-A'
  72   1.0000      -1.708346       -46.4865   57-A'
  73   1.0000      -1.706686       -46.4413   17-A"
  74   1.0000      -1.705127       -46.3989   58-A'
  75   1.0000      -1.699788       -46.2536   59-A'
  76   1.0000      -1.699786       -46.2535   18-A"
  77   1.0000      -0.612804       -16.6753   60-A'
  78   1.0000      -0.606876       -16.5139   61-A'
  79   1.0000      -0.563985       -15.3468   62-A'
  80   1.0000      -0.534677       -14.5493   63-A'
  81   1.0000      -0.518740       -14.1156   64-A'
  82   1.0000      -0.483409       -13.1542   65-A'
  83   1.0000      -0.478924       -13.0322   66-A'
  84   1.0000      -0.387551       -10.5458   67-A'
  85   1.0000      -0.371844       -10.1184   68-A'
  86   1.0000      -0.364196        -9.9103   69-A'
  87   1.0000      -0.333606        -9.0779   70-A'
  88   1.0000      -0.301322        -8.1994   71-A'
  89   1.0000      -0.271935        -7.3997   72-A'
  90   1.0000      -0.268479        -7.3057   73-A'
  91   1.0000      -0.252591        -6.8733   74-A'
  92   1.0000      -0.228962        -6.2304   75-A'
  93   1.0000      -0.203415        -5.5352   76-A'
  94   1.0000      -0.199196        -5.4204   77-A'
  95   1.0000      -0.175995        -4.7891   78-A'
  96   1.0000      -0.165082        -4.4921   79-A'
  97   1.0000      -0.146560        -3.9881   80-A'
  98   1.0000      -0.143617        -3.9080   19-A"
  99   1.0000      -0.135734        -3.6935   20-A"
 100   1.0000      -0.133176        -3.6239   81-A'
 101   1.0000      -0.121526        -3.3069   82-A'
 102   1.0000      -0.108173        -2.9435   83-A'
 103   1.0000      -0.092716        -2.5229   21-A"
 104   1.0000      -0.074553        -2.0287   22-A"
 105   1.0000      -0.072465        -1.9719   84-A'
 106   1.0000      -0.067898        -1.8476   85-A'
 107   1.0000      -0.051717        -1.4073   86-A'
 108   1.0000      -0.044366        -1.2073   23-A"
 109   1.0000      -0.014450        -0.3932   87-A'
 110   1.0000      -0.009363        -0.2548   24-A"
 111   1.0000      -0.006147        -0.1673   88-A'
 112   1.0000      -0.001821        -0.0496   25-A"
 113   1.0000       0.013172         0.3584   89-A'
 114   1.0000       0.036060         0.9812   26-A"
 115   1.0000       0.042383         1.1533   27-A"
 116   1.0000       0.046211         1.2575   90-A'
 117   1.0000       0.050403         1.3715   91-A'
 118   1.0000       0.055342         1.5059   92-A'
 119   1.0000       0.069182         1.8825   93-A'
 120   1.0000       0.079568         2.1652   28-A"
 121   1.0000       0.081963         2.2303   29-A"
 122   1.0000       0.119993         3.2652   30-A"
 123   1.0000       0.143246         3.8979   94-A'
 124   0.0000       0.176296         4.7973   95-A'
 125   0.0000       0.185048         5.0354   96-A'
 126   0.0000       0.192139         5.2284   31-A"
 127   0.0000       0.194547         5.2939   97-A'
 128   0.0000       0.196748         5.3538   32-A"

                 SPIN DOWN ORBITALS
  NO   OCC          E(Eh)            E(eV)    Irrep
   0   1.0000    -443.607630    -12071.1773    1-A'
   1   1.0000    -443.579846    -12070.4213    2-A'
   2   1.0000    -443.527973    -12069.0097    3-A'
   3   1.0000    -443.499553    -12068.2364    4-A'
   4   1.0000    -318.133239     -8656.8456    5-A'
   5   1.0000     -56.408364     -1534.9496    6-A'
   6   1.0000     -56.383878     -1534.2833    7-A'
   7   1.0000     -56.339886     -1533.0862    8-A'
   8   1.0000     -56.317024     -1532.4641    9-A'
   9   1.0000     -51.318856     -1396.4571    1-A"
  10   1.0000     -51.317547     -1396.4215   10-A'
  11   1.0000     -51.317212     -1396.4123   11-A'
  12   1.0000     -51.303249     -1396.0324    2-A"
  13   1.0000     -51.302707     -1396.0176   12-A'
  14   1.0000     -51.301882     -1395.9952   13-A'
  15   1.0000     -51.263660     -1394.9551   14-A'
  16   1.0000     -51.261865     -1394.9063    3-A"
  17   1.0000     -51.261267     -1394.8900   15-A'
  18   1.0000     -51.248698     -1394.5480   16-A'
  19   1.0000     -51.246516     -1394.4886    4-A"
  20   1.0000     -51.246128     -1394.4780   17-A'
  21   1.0000     -37.962106     -1033.0014   18-A'
  22   1.0000     -33.465718      -910.6485    5-A"
  23   1.0000     -33.460827      -910.5154   19-A'
  24   1.0000     -33.460411      -910.5041   20-A'
  25   1.0000      -9.820221      -267.2218   21-A'
  26   1.0000      -9.815971      -267.1062   22-A'
  27   1.0000      -9.813637      -267.0426   23-A'
  28   1.0000      -9.812508      -267.0119   24-A'
  29   1.0000      -9.811599      -266.9872   25-A'
  30   1.0000      -9.811424      -266.9824   26-A'
  31   1.0000      -9.810158      -266.9480   27-A'
  32   1.0000      -9.808306      -266.8976   28-A'
  33   1.0000      -9.804975      -266.8069   29-A'
  34   1.0000      -9.804957      -266.8064   30-A'
  35   1.0000      -9.793631      -266.4982   31-A'
  36   1.0000      -9.783818      -266.2312   32-A'
  37   1.0000      -7.377309      -200.7468   33-A'
  38   1.0000      -7.357774      -200.2152   34-A'
  39   1.0000      -7.314991      -199.0510   35-A'
  40   1.0000      -7.297710      -198.5808   36-A'
  41   1.0000      -5.437904      -147.9729   37-A'
  42   1.0000      -5.437168      -147.9529    6-A"
  43   1.0000      -5.430641      -147.7753   38-A'
  44   1.0000      -5.420787      -147.5071   39-A'
  45   1.0000      -5.420544      -147.5005    7-A"
  46   1.0000      -5.414636      -147.3397   40-A'
  47   1.0000      -5.382743      -146.4719   41-A'
  48   1.0000      -5.377272      -146.3230    8-A"
  49   1.0000      -5.374535      -146.2485   42-A'
  50   1.0000      -5.370900      -146.1496   43-A'
  51   1.0000      -5.364317      -145.9705    9-A"
  52   1.0000      -5.362261      -145.9146   44-A'
  53   1.0000      -3.955054      -107.6225   45-A'
  54   1.0000      -2.470383       -67.2226   10-A"
  55   1.0000      -2.465584       -67.0919   46-A'
  56   1.0000      -2.465140       -67.0799   47-A'
  57   1.0000      -1.785697       -48.5913   48-A'
  58   1.0000      -1.777561       -48.3699   11-A"
  59   1.0000      -1.772827       -48.2411   49-A'
  60   1.0000      -1.771280       -48.1990   12-A"
  61   1.0000      -1.770661       -48.1821   50-A'
  62   1.0000      -1.765464       -48.0407   51-A'
  63   1.0000      -1.760142       -47.8959   13-A"
  64   1.0000      -1.755997       -47.7831   52-A'
  65   1.0000      -1.754897       -47.7532   14-A"
  66   1.0000      -1.754097       -47.7314   53-A'
  67   1.0000      -1.721182       -46.8358   54-A'
  68   1.0000      -1.718838       -46.7720   15-A"
  69   1.0000      -1.717093       -46.7245   55-A'
  70   1.0000      -1.712308       -46.5943   16-A"
  71   1.0000      -1.712101       -46.5886   56-A'
  72   1.0000      -1.708240       -46.4836   57-A'
  73   1.0000      -1.706439       -46.4346   17-A"
  74   1.0000      -1.705103       -46.3982   58-A'
  75   1.0000      -1.699580       -46.2479   59-A'
  76   1.0000      -1.699556       -46.2473   18-A"
  77   1.0000      -0.612454       -16.6657   60-A'
  78   1.0000      -0.603016       -16.4089   61-A'
  79   1.0000      -0.560674       -15.2567   62-A'
  80   1.0000      -0.530326       -14.4309   63-A'
  81   1.0000      -0.518480       -14.1086   64-A'
  82   1.0000      -0.482953       -13.1418   65-A'
  83   1.0000      -0.476219       -12.9586   66-A'
  84   1.0000      -0.386765       -10.5244   67-A'
  85   1.0000      -0.367281        -9.9942   68-A'
  86   1.0000      -0.362914        -9.8754   69-A'
  87   1.0000      -0.332751        -9.0546   70-A'
  88   1.0000      -0.297599        -8.0981   71-A'
  89   1.0000      -0.268836        -7.3154   72-A'
  90   1.0000      -0.267328        -7.2744   73-A'
  91   1.0000      -0.249181        -6.7806   74-A'
  92   1.0000      -0.228497        -6.2177   75-A'
  93   1.0000      -0.201382        -5.4799   76-A'
  94   1.0000      -0.198999        -5.4150   77-A'
  95   1.0000      -0.174135        -4.7385   78-A'
  96   1.0000      -0.164696        -4.4816   79-A'
  97   1.0000      -0.142160        -3.8684   80-A'
  98   1.0000      -0.134779        -3.6675   19-A"
  99   1.0000      -0.133584        -3.6350   20-A"
 100   1.0000      -0.131254        -3.5716   81-A'
 101   1.0000      -0.120999        -3.2926   82-A'
 102   1.0000      -0.105964        -2.8834   83-A'
 103   1.0000      -0.084059        -2.2874   21-A"
 104   1.0000      -0.070593        -1.9209   84-A'
 105   1.0000      -0.067090        -1.8256   85-A'
 106   1.0000      -0.062639        -1.7045   22-A"
 107   1.0000      -0.049871        -1.3571   86-A'
 108   1.0000      -0.043319        -1.1788   23-A"
 109   1.0000      -0.013782        -0.3750   87-A'
 110   1.0000      -0.007437        -0.2024   24-A"
 111   1.0000      -0.003586        -0.0976   88-A'
 112   1.0000       0.006840         0.1861   25-A"
 113   1.0000       0.014229         0.3872   89-A'
 114   1.0000       0.044983         1.2241   26-A"
 115   1.0000       0.046544         1.2665   27-A"
 116   1.0000       0.048011         1.3065   90-A'
 117   1.0000       0.053624         1.4592   91-A'
 118   1.0000       0.056980         1.5505   92-A'
 119   1.0000       0.071696         1.9509   93-A'
 120   1.0000       0.083548         2.2735   28-A"
 121   1.0000       0.089152         2.4259   29-A"
 122   1.0000       0.145662         3.9637   94-A'
 123   0.0000       0.136303         3.7090   30-A"
 124   0.0000       0.174191         4.7400   95-A'
 125   0.0000       0.184662         5.0249   96-A'
 126   0.0000       0.193785         5.2732   97-A'
 127   0.0000       0.195664         5.3243   31-A"

MULLIKEN ATOMIC CHARGES AND SPIN POPULATIONS
--------------------------------------------
   0 Cu:    0.587378    0.072722
   1 Se:   -0.288132    0.214484
   2 C :   -0.070343    0.139249
   3 Se:   -0.999337    0.072275
   4 C :    0.326252   -0.002386
   5 Se:   -0.089912    0.142192
   6 C :   -0.175665    0.091366
   7 Se:   -0.915301    0.043095
   8 C :    0.293230   -0.004745
   9 C :   -0.118649    0.012021
  10 C :   -0.073093    0.008248
  11 C :   -0.151675    0.004368
  12 H :    0.082065   -0.000032
  13 C :   -0.112301   -0.000403
  14 H :    0.103076   -0.000541
  15 H :    0.027241   -0.000461
  16 H :    0.024450   -0.000170
  17 C :   -0.072025    0.041605
  18 C :   -0.037153    0.072222
  19 C :   -0.232534    0.093638
  20 H :    0.040098   -0.009395
  21 C :   -0.176264    0.026752
  22 H :   -0.018200   -0.010397
  23 H :    0.030317   -0.004438
  24 H :    0.016477   -0.001269
Sum of atomic charges         :   -2.0000000

LOEWDIN ATOMIC CHARGES AND SPIN POPULATIONS
-------------------------------------------
   0 Cu:   -0.667770    0.103397
   1 Se:   -0.091153    0.239901
   2 C :    0.053213    0.083592
   3 Se:   -0.254651    0.070061
   4 C :    0.010933    0.006867
   5 Se:   -0.034925    0.162226
   6 C :    0.025945    0.057008
   7 Se:   -0.219056    0.039887
   8 C :    0.007777    0.004082
   9 C :    0.401306    0.006661
  10 C :    0.377731    0.005423
  11 C :    0.331009    0.003483
  12 H :   -0.438053    0.000027
  13 C :    0.311130    0.001730
  14 H :   -0.465297    0.000416
  15 H :   -0.416448    0.000656
  16 H :   -0.409344    0.000122
  17 C :    0.356045    0.043074
  18 C :    0.359857    0.049716
  19 C :    0.294427    0.061316
  20 H :   -0.489584    0.001757
  21 C :    0.260296    0.034492
  22 H :   -0.485064    0.003582
  23 H :   -0.416096    0.014949
  24 H :   -0.402227    0.005576

  Mayer bond orders larger than 0.100000
B(  0-Cu,  1-Se) :   0.4487 B(  0-Cu,  3-Se) :   0.4938 B(  0-Cu,  5-Se) :   0.4266
B(  0-Cu,  7-Se) :   0.4920 B(  1-Se,  2-C ) :   1.4953 B(  2-C ,  6-C ) :   0.8773
B(  2-C , 17-C ) :   1.0877 B(  3-Se,  4-C ) :   0.9018 B(  4-C ,  8-C ) :   1.1817
B(  4-C , 10-C ) :   1.2599 B(  5-Se,  6-C ) :   1.6337 B(  6-C , 18-C ) :   0.9798
B(  7-Se,  8-C ) :   1.0044 B(  8-C ,  9-C ) :   1.2034 B(  9-C , 13-C ) :   1.4210
B(  9-C , 14-H ) :   0.9546 B( 10-C , 11-C ) :   1.3691 B( 10-C , 12-H ) :   0.9636
B( 11-C , 13-C ) :   1.3129 B( 11-C , 15-H ) :   0.9864 B( 13-C , 16-H ) :   0.9859
B( 17-C , 19-C ) :   1.5826 B( 17-C , 20-H ) :   0.9277 B( 18-C , 21-C ) :   1.6488
B( 18-C , 22-H ) :   0.9267 B( 19-C , 21-C ) :   1.1535 B( 19-C , 23-H ) :   0.9919
B( 21-C , 24-H ) :   0.9853

FINAL SINGLE POINT ENERGY    -11626.627452807039

DIPOLE MOMENT
-------------
                                X             Y             Z
Electronic contribution:     -0.71987      -1.88287      -0.00000
Nuclear contribution   :      0.58666       1.01554       0.00000
                        -----------------------------------------
Total Dipole Moment    :     -0.13321      -0.86733      -0.00000
                        -----------------------------------------
Magnitude (a.u.)       :      0.87750
Magnitude (Debye)      :      2.23042

Rotational constants in cm-1:     0.017615     0.004101     0.003326
Rotational constants in MHz :   528.085951   122.933346    99.719583

                             ****ORCA TERMINATED NORMALLY****
TOTAL RUN TIME: 0 days 17 hours 10 minutes 12 seconds 481 msec
