                         Program Version 5.0.4 -  RELEASE  -
|  1> ! RIJCOSX nofrozencore ReducedPop printbasis
|  2> ! M06L ano-rcc-dzp autoaux
|  3>
|  4> %maxcore 7500
|  5> %basis
|  6> PCDTrimBas overlap
|  7> PCDTrimAuxJ Coulomb
|  8> PCDTrimAuxJK Coulomb
|  9> PCDTrimAuxC Coulomb
| 10> PCDThresh -1
| 11> end
| 12>
| 13> %basis
| 14> newgto Cu "ano-rcc-tzp" end
| 15> newgto Se "ano-rcc-tzp" end
| 16> end
| 17>
| 18> %pal
| 19> nprocs 8
| 20> end
| 21>
| 22> % sym SymThresh 1e-2 end
| 23> * xyz -2 2
| 24> Cu -7.600823401188041e-05 5.179024055295466e-05 3.886540036925281e-05
| 25> Se 0.42251489026695443 2.2012219358252016 -0.7655764415449684
| 26> C 1.7897692885053693 2.0878033241223974 -1.6453330692086185
| 27> Se -1.9759254123529892 0.5399281531471918 1.1883895829254532
| 28> C -2.4868747623653844 -0.8950142563442763 1.8433140545996536
| 29> Se 1.9760605140448675 -0.5376207445665173 -1.188988403578638
| 30> C 2.4887601740243896 0.8710807809302185 -1.8392778615318275
| 31> Se -0.42429635293098417 -2.2006411966956585 0.7666271331458128
| 32> C -1.7757216094035602 -2.093733014804652 1.637345975039562
| 33> C -2.3150043516650958 -3.226821772472343 2.244378997494657
| 34> C -3.597894774997526 -0.9306703634375396 2.5864164021150082
| 35> C -4.153689822518286 -2.0127189704800124 3.1931083026253417
| 36> H -4.309996997703963 -0.13338057938444095 2.8816375705736994
| 37> C -3.550238216498117 -3.2142708466806593 3.0590384523219165
| 38> H -1.6589008627580981 -4.074812620946128 1.997409112743954
| 39> H -5.050087290194841 -2.2173928227220543 3.8314963885828277
| 40> H -3.6114605791036123 -4.3188712924828545 3.3434199853643998
| 41> C 2.3168355632836395 3.1913076616742 -2.237750235149744
| 42> C 3.622338057424547 0.9212715394103064 -2.6005170136300446
| 43> C 3.4871813634747673 3.244880471053211 -3.024067652151446
| 44> H 1.8755282269142532 4.181191446492257 -2.1642504553008366
| 45> C 4.160982888970225 2.0809329810007897 -3.21299444570033
| 46> H 4.114903558432855 -0.03504670113370349 -2.7153478752145697
| 47> H 3.8596326126049485 4.160116822778264 -3.4726018741361058
| 48> H 5.075628551515143 1.9221755044616984 -3.7832223433480237
| 49> *
| 50>
| 51> % eprnmr
| 52> gtensor true
| 53> Nuclei = all H {aiso,adip,aorb,fgrad,rho}
| 54> Nuclei = all Cu {aiso,adip,aorb,fgrad,rho}
| 55> end
| 56>
| 57>                          ****END OF INPUT****

CARTESIAN COORDINATES (ANGSTROEM)
---------------------------------
  Cu    -0.000088    0.000047    0.000000
  Se     0.640087    2.280415    0.000000
  C      2.269776    2.262174    0.000000
  Se    -2.332243    0.410749    0.000000
  C     -3.031423   -1.092648    0.000000
  Se     2.332546   -0.408381    0.000000
  C      3.032219    1.068316    0.000000
  Se    -0.642184   -2.279949    0.000000
  C     -2.253323   -2.267232    0.000000
  C     -2.967996   -3.464081    0.000000
  C     -4.363496   -1.208490    0.000000
  C     -5.094820   -2.354342    0.000000
  H     -5.167230   -0.444338    0.000000
  C     -4.445812   -3.539519    0.000000
  H     -2.234388   -4.284064    0.000000
  H     -6.180303   -2.627628    0.000000
  H     -4.586506   -4.673084    0.000000
  C      2.968021    3.427907    0.000000
  C      4.392181    1.200629    0.000000
  C      4.372201    3.566304    0.000000
  H      2.500184    4.408291    0.000000
  C      5.107713    2.424596    0.000000
  H      4.923423    0.258220    0.000000
  H      4.873881    4.528530    0.000000
  H      6.192860    2.327664    0.000000

 Total Charge           Charge          ....   -2
 Multiplicity           Mult            ....    2
 Number of Electrons    NEL             ....  247
 Basis Dimension        Dim             ....  575

ORBITAL ENERGIES
----------------
                 SPIN UP ORBITALS
  NO   OCC          E(Eh)            E(eV)    Irrep
   0   1.0000    -443.563691    -12069.9817    1-A'
   1   1.0000    -443.562412    -12069.9469    2-A'
   2   1.0000    -443.548376    -12069.5649    3-A'
   3   1.0000    -443.546916    -12069.5252    4-A'
   4   1.0000    -318.187852     -8658.3316    5-A'
   5   1.0000     -56.371789     -1533.9544    6-A'
   6   1.0000     -56.371284     -1533.9406    7-A'
   7   1.0000     -56.358289     -1533.5870    8-A'
   8   1.0000     -56.357611     -1533.5686    9-A'
   9   1.0000     -51.289012     -1395.6450   10-A'
  10   1.0000     -51.287764     -1395.6110   11-A'
  11   1.0000     -51.287395     -1395.6010   12-A'
  12   1.0000     -51.287343     -1395.5995    1-A"
  13   1.0000     -51.286979     -1395.5896   13-A'
  14   1.0000     -51.286060     -1395.5646   14-A'
  15   1.0000     -51.285706     -1395.5550   15-A'
  16   1.0000     -51.285644     -1395.5533   16-A'
  17   1.0000     -51.285625     -1395.5528    2-A"
  18   1.0000     -51.285209     -1395.5415    3-A"
  19   1.0000     -51.284277     -1395.5161   17-A'
  20   1.0000     -51.283813     -1395.5035    4-A"
  21   1.0000     -38.028364     -1034.8044   18-A'
  22   1.0000     -33.530416      -912.4090   19-A'
  23   1.0000     -33.529641      -912.3879   20-A'
  24   1.0000     -33.518446      -912.0833    5-A"
  25   1.0000      -9.824320      -267.3333   21-A'
  26   1.0000      -9.819800      -267.2103   22-A'
  27   1.0000      -9.816148      -267.1110   23-A'
  28   1.0000      -9.815537      -267.0943   24-A'
  29   1.0000      -9.813179      -267.0302   25-A'
  30   1.0000      -9.811134      -266.9745   26-A'
  31   1.0000      -9.809447      -266.9286   27-A'
  32   1.0000      -9.809311      -266.9249   28-A'
  33   1.0000      -9.809060      -266.9181   29-A'
  34   1.0000      -9.808144      -266.8932   30-A'
  35   1.0000      -9.806708      -266.8541   31-A'
  36   1.0000      -9.804227      -266.7866   32-A'
  37   1.0000      -7.342762      -199.8067   33-A'
  38   1.0000      -7.342193      -199.7912   34-A'
  39   1.0000      -7.334881      -199.5922   35-A'
  40   1.0000      -7.334564      -199.5836   36-A'
  41   1.0000      -5.406396      -147.1155   37-A'
  42   1.0000      -5.405048      -147.0788   38-A'
  43   1.0000      -5.404813      -147.0724   39-A'
  44   1.0000      -5.404140      -147.0541   40-A'
  45   1.0000      -5.401232      -146.9750   41-A'
  46   1.0000      -5.400898      -146.9659    6-A"
  47   1.0000      -5.399718      -146.9338   42-A'
  48   1.0000      -5.399487      -146.9275   43-A'
  49   1.0000      -5.399337      -146.9234    7-A"
  50   1.0000      -5.399117      -146.9175    8-A"
  51   1.0000      -5.398588      -146.9030   44-A'
  52   1.0000      -5.398118      -146.8903    9-A"
  53   1.0000      -4.022688      -109.4629   45-A'
  54   1.0000      -2.542250       -69.1781   46-A'
  55   1.0000      -2.541315       -69.1527   47-A'
  56   1.0000      -2.517771       -68.5120   10-A"
  57   1.0000      -1.745883       -47.5079   48-A'
  58   1.0000      -1.744190       -47.4618   49-A'
  59   1.0000      -1.743897       -47.4539   50-A'
  60   1.0000      -1.742832       -47.4249   51-A'
  61   1.0000      -1.742781       -47.4235   52-A'
  62   1.0000      -1.742116       -47.4054   11-A"
  63   1.0000      -1.741339       -47.3842   53-A'
  64   1.0000      -1.741103       -47.3778   54-A'
  65   1.0000      -1.740630       -47.3649   12-A"
  66   1.0000      -1.740382       -47.3582   13-A"
  67   1.0000      -1.740318       -47.3565   55-A'
  68   1.0000      -1.739521       -47.3348   14-A"
  69   1.0000      -1.737830       -47.2887   56-A'
  70   1.0000      -1.737743       -47.2864   15-A"
  71   1.0000      -1.736258       -47.2460   57-A'
  72   1.0000      -1.736165       -47.2435   16-A"
  73   1.0000      -1.735997       -47.2389   58-A'
  74   1.0000      -1.735966       -47.2380   17-A"
  75   1.0000      -1.735008       -47.2120   59-A'
  76   1.0000      -1.734974       -47.2110   18-A"
  77   1.0000      -0.605284       -16.4706   60-A'
  78   1.0000      -0.602618       -16.3981   61-A'
  79   1.0000      -0.526757       -14.3338   62-A'
  80   1.0000      -0.520738       -14.1700   63-A'
  81   1.0000      -0.502220       -13.6661   64-A'
  82   1.0000      -0.499681       -13.5970   65-A'
  83   1.0000      -0.409763       -11.1502   66-A'
  84   1.0000      -0.408509       -11.1161   67-A'
  85   1.0000      -0.388456       -10.5704   68-A'
  86   1.0000      -0.383831       -10.4446   69-A'
  87   1.0000      -0.320235        -8.7141   70-A'
  88   1.0000      -0.316629        -8.6159   71-A'
  89   1.0000      -0.289140        -7.8679   72-A'
  90   1.0000      -0.285283        -7.7629   73-A'
  91   1.0000      -0.227547        -6.1919   74-A'
  92   1.0000      -0.223226        -6.0743   75-A'
  93   1.0000      -0.216941        -5.9033   76-A'
  94   1.0000      -0.203210        -5.5296   77-A'
  95   1.0000      -0.167719        -4.5639   78-A'
  96   1.0000      -0.149732        -4.0744   79-A'
  97   1.0000      -0.138528        -3.7695   80-A'
  98   1.0000      -0.132840        -3.6148   19-A"
  99   1.0000      -0.131222        -3.5707   81-A'
 100   1.0000      -0.130746        -3.5578   20-A"
 101   1.0000      -0.122438        -3.3317   82-A'
 102   1.0000      -0.111970        -3.0468   83-A'
 103   1.0000      -0.077428        -2.1069   84-A'
 104   1.0000      -0.070501        -1.9184   85-A'
 105   1.0000      -0.060901        -1.6572   86-A'
 106   1.0000      -0.057678        -1.5695   87-A'
 107   1.0000      -0.052383        -1.4254   21-A"
 108   1.0000      -0.047688        -1.2977   22-A"
 109   1.0000      -0.035302        -0.9606   23-A"
 110   1.0000      -0.031705        -0.8627   88-A'
 111   1.0000      -0.029063        -0.7908   89-A'
 112   1.0000      -0.028884        -0.7860   24-A"
 113   1.0000      -0.002484        -0.0676   25-A"
 114   1.0000      -0.002042        -0.0556   26-A"
 115   1.0000       0.000058         0.0016   90-A'
 116   1.0000       0.018640         0.5072   91-A'
 117   1.0000       0.020708         0.5635   92-A'
 118   1.0000       0.040402         1.0994   93-A'
 119   1.0000       0.058651         1.5960   27-A"
 120   1.0000       0.059136         1.6092   28-A"
 121   1.0000       0.067388         1.8337   29-A"
 122   1.0000       0.095985         2.6119   30-A"
 123   1.0000       0.115295         3.1373   94-A'
 124   0.0000       0.182067         4.9543   95-A'
 125   0.0000       0.182380         4.9628   96-A'
 126   0.0000       0.195312         5.3147   97-A'
 127   0.0000       0.195816         5.3284   98-A'
 128   0.0000       0.199702         5.4342   31-A"

                 SPIN DOWN ORBITALS
  NO   OCC          E(Eh)            E(eV)    Irrep
   0   1.0000    -443.563241    -12069.9694    1-A'
   1   1.0000    -443.561960    -12069.9346    2-A'
   2   1.0000    -443.547924    -12069.5526    3-A'
   3   1.0000    -443.546462    -12069.5128    4-A'
   4   1.0000    -318.187729     -8658.3283    5-A'
   5   1.0000     -56.371606     -1533.9494    6-A'
   6   1.0000     -56.371101     -1533.9356    7-A'
   7   1.0000     -56.358108     -1533.5821    8-A'
   8   1.0000     -56.357430     -1533.5636    9-A'
   9   1.0000     -51.288683     -1395.6360   10-A'
  10   1.0000     -51.287096     -1395.5928    1-A"
  11   1.0000     -51.287066     -1395.5920   11-A'
  12   1.0000     -51.287049     -1395.5915   12-A'
  13   1.0000     -51.286654     -1395.5808   13-A'
  14   1.0000     -51.285381     -1395.5462   14-A'
  15   1.0000     -51.285372     -1395.5459    2-A"
  16   1.0000     -51.285319     -1395.5445   15-A'
  17   1.0000     -51.284962     -1395.5348    3-A"
  18   1.0000     -51.284923     -1395.5337   16-A'
  19   1.0000     -51.283561     -1395.4966    4-A"
  20   1.0000     -51.283538     -1395.4960   17-A'
  21   1.0000     -38.014475     -1034.4265   18-A'
  22   1.0000     -33.517219      -912.0499   19-A'
  23   1.0000     -33.516443      -912.0288   20-A'
  24   1.0000     -33.514567      -911.9777    5-A"
  25   1.0000      -9.824250      -267.3314   21-A'
  26   1.0000      -9.819733      -267.2085   22-A'
  27   1.0000      -9.816089      -267.1094   23-A'
  28   1.0000      -9.815476      -267.0927   24-A'
  29   1.0000      -9.813182      -267.0303   25-A'
  30   1.0000      -9.811142      -266.9748   26-A'
  31   1.0000      -9.809376      -266.9267   27-A'
  32   1.0000      -9.809311      -266.9249   28-A'
  33   1.0000      -9.809059      -266.9181   29-A'
  34   1.0000      -9.808001      -266.8893   30-A'
  35   1.0000      -9.806609      -266.8514   31-A'
  36   1.0000      -9.804114      -266.7835   32-A'
  37   1.0000      -7.342366      -199.7959   33-A'
  38   1.0000      -7.341794      -199.7804   34-A'
  39   1.0000      -7.334475      -199.5812   35-A'
  40   1.0000      -7.334157      -199.5725   36-A'
  41   1.0000      -5.406031      -147.1056   37-A'
  42   1.0000      -5.404680      -147.0688   38-A'
  43   1.0000      -5.404452      -147.0626   39-A'
  44   1.0000      -5.403774      -147.0442   40-A'
  45   1.0000      -5.400588      -146.9575    6-A"
  46   1.0000      -5.400426      -146.9531   41-A'
  47   1.0000      -5.399021      -146.9148    7-A"
  48   1.0000      -5.398886      -146.9112   42-A'
  49   1.0000      -5.398806      -146.9090    8-A"
  50   1.0000      -5.398674      -146.9054   43-A'
  51   1.0000      -5.397803      -146.8817    9-A"
  52   1.0000      -5.397756      -146.8804   44-A'
  53   1.0000      -3.994449      -108.6945   45-A'
  54   1.0000      -2.507445       -68.2310   10-A"
  55   1.0000      -2.507003       -68.2190   46-A'
  56   1.0000      -2.505985       -68.1913   47-A'
  57   1.0000      -1.745436       -47.4957   48-A'
  58   1.0000      -1.743739       -47.4496   49-A'
  59   1.0000      -1.743447       -47.4416   50-A'
  60   1.0000      -1.742374       -47.4124   51-A'
  61   1.0000      -1.741897       -47.3994   52-A'
  62   1.0000      -1.741807       -47.3970   11-A"
  63   1.0000      -1.740434       -47.3596   53-A'
  64   1.0000      -1.740319       -47.3565   12-A"
  65   1.0000      -1.740218       -47.3537   54-A'
  66   1.0000      -1.740073       -47.3498   13-A"
  67   1.0000      -1.739421       -47.3321   55-A'
  68   1.0000      -1.739212       -47.3264   14-A"
  69   1.0000      -1.737045       -47.2674   56-A'
  70   1.0000      -1.736988       -47.2658   15-A"
  71   1.0000      -1.735450       -47.2240   57-A'
  72   1.0000      -1.735388       -47.2223   16-A"
  73   1.0000      -1.735206       -47.2173   17-A"
  74   1.0000      -1.735205       -47.2173   58-A'
  75   1.0000      -1.734204       -47.1901   59-A'
  76   1.0000      -1.734200       -47.1900   18-A"
  77   1.0000      -0.604448       -16.4479   60-A'
  78   1.0000      -0.601740       -16.3742   61-A'
  79   1.0000      -0.525535       -14.3005   62-A'
  80   1.0000      -0.519607       -14.1392   63-A'
  81   1.0000      -0.500380       -13.6160   64-A'
  82   1.0000      -0.497908       -13.5488   65-A'
  83   1.0000      -0.407227       -11.0812   66-A'
  84   1.0000      -0.405934       -11.0460   67-A'
  85   1.0000      -0.385969       -10.5027   68-A'
  86   1.0000      -0.381490       -10.3809   69-A'
  87   1.0000      -0.318345        -8.6626   70-A'
  88   1.0000      -0.314753        -8.5649   71-A'
  89   1.0000      -0.286740        -7.8026   72-A'
  90   1.0000      -0.282634        -7.6909   73-A'
  91   1.0000      -0.226172        -6.1545   74-A'
  92   1.0000      -0.221988        -6.0406   75-A'
  93   1.0000      -0.215895        -5.8748   76-A'
  94   1.0000      -0.201875        -5.4933   77-A'
  95   1.0000      -0.166188        -4.5222   78-A'
  96   1.0000      -0.148094        -4.0298   79-A'
  97   1.0000      -0.136690        -3.7195   80-A'
  98   1.0000      -0.132458        -3.6044   19-A"
  99   1.0000      -0.130325        -3.5463   20-A"
 100   1.0000      -0.129744        -3.5305   81-A'
 101   1.0000      -0.119580        -3.2539   82-A'
 102   1.0000      -0.110070        -2.9952   83-A'
 103   1.0000      -0.075821        -2.0632   84-A'
 104   1.0000      -0.067765        -1.8440   85-A'
 105   1.0000      -0.055801        -1.5184   86-A'
 106   1.0000      -0.052143        -1.4189   87-A'
 107   1.0000      -0.051492        -1.4012   21-A"
 108   1.0000      -0.046844        -1.2747   22-A"
 109   1.0000      -0.033008        -0.8982   23-A"
 110   1.0000      -0.027825        -0.7571   24-A"
 111   1.0000      -0.023319        -0.6345   88-A'
 112   1.0000      -0.002881        -0.0784   89-A'
 113   1.0000       0.007559         0.2057   25-A"
 114   1.0000       0.008971         0.2441   26-A"
 115   1.0000       0.010486         0.2853   90-A'
 116   1.0000       0.028751         0.7824   91-A'
 117   1.0000       0.031344         0.8529   92-A'
 118   1.0000       0.051565         1.4031   93-A'
 119   1.0000       0.060463         1.6453   27-A"
 120   1.0000       0.062495         1.7006   28-A"
 121   1.0000       0.069124         1.8810   29-A"
 122   1.0000       0.099266         2.7012   30-A"
 123   0.0000       0.144970         3.9448   94-A'
 124   0.0000       0.184345         5.0163   95-A'
 125   0.0000       0.184709         5.0262   96-A'
 126   0.0000       0.199286         5.4229   97-A'
 127   0.0000       0.199787         5.4365   31-A"

MULLIKEN ATOMIC CHARGES AND SPIN POPULATIONS
--------------------------------------------
   0 Cu:    0.631881    0.310129
   1 Se:   -0.724639    0.174826
   2 C :    0.202131   -0.002394
   3 Se:   -0.763216    0.176012
   4 C :    0.203769   -0.002366
   5 Se:   -0.727236    0.170271
   6 C :    0.233901   -0.002276
   7 Se:   -0.684669    0.169230
   8 C :    0.244517   -0.003612
   9 C :   -0.150403    0.000552
  10 C :   -0.090796   -0.003906
  11 C :   -0.113609    0.000054
  12 H :    0.060627    0.003556
  13 C :   -0.131408    0.000065
  14 H :    0.092343    0.001436
  15 H :    0.006804    0.001831
  16 H :    0.010099    0.002550
  17 C :   -0.102482   -0.003510
  18 C :   -0.117431   -0.001662
  19 C :   -0.148640    0.000045
  20 H :    0.085855    0.003154
  21 C :   -0.151375   -0.000376
  22 H :    0.092583    0.002596
  23 H :    0.021929    0.001875
  24 H :    0.019466    0.001919
Sum of atomic charges         :   -2.0000000

LOEWDIN ATOMIC CHARGES AND SPIN POPULATIONS
-------------------------------------------
   0 Cu:   -0.614299    0.390146
   1 Se:   -0.208197    0.125364
   2 C :    0.031988    0.012735
   3 Se:   -0.214576    0.126899
   4 C :    0.040246    0.012322
   5 Se:   -0.197685    0.120575
   6 C :    0.040548    0.012232
   7 Se:   -0.189570    0.118221
   8 C :    0.030811    0.011915
   9 C :    0.393440    0.007250
  10 C :    0.335324    0.006373
  11 C :    0.281430    0.000952
  12 H :   -0.423786    0.006586
  13 C :    0.313361    0.001289
  14 H :   -0.476479    0.011933
  15 H :   -0.392770    0.000785
  16 H :   -0.391730    0.000766
  17 C :    0.367295    0.006623
  18 C :    0.373374    0.006550
  19 C :    0.318039    0.000926
  20 H :   -0.446776    0.007743
  21 C :    0.318699    0.000722
  22 H :   -0.465449    0.009968
  23 H :   -0.411851    0.000617
  24 H :   -0.411388    0.000509

  Mayer bond orders larger than 0.100000
B(  0-Cu,  1-Se) :   0.5560 B(  0-Cu,  3-Se) :   0.5632 B(  0-Cu,  5-Se) :   0.5460
B(  0-Cu,  7-Se) :   0.5364 B(  1-Se,  2-C ) :   1.0545 B(  2-C ,  6-C ) :   1.1083
B(  2-C , 17-C ) :   1.2964 B(  3-Se,  4-C ) :   1.0227 B(  4-C ,  8-C ) :   1.1093
B(  4-C , 10-C ) :   1.3025 B(  5-Se,  6-C ) :   1.0467 B(  6-C , 18-C ) :   1.2973
B(  7-Se,  8-C ) :   1.0766 B(  8-C ,  9-C ) :   1.2989 B(  9-C , 13-C ) :   1.3104
B(  9-C , 14-H ) :   0.9481 B( 10-C , 11-C ) :   1.3223 B( 10-C , 12-H ) :   0.9769
B( 11-C , 13-C ) :   1.3601 B( 11-C , 15-H ) :   0.9933 B( 13-C , 16-H ) :   0.9708
B( 17-C , 19-C ) :   1.3223 B( 17-C , 20-H ) :   0.9651 B( 18-C , 21-C ) :   1.3247
B( 18-C , 22-H ) :   0.9569 B( 19-C , 21-C ) :   1.3651 B( 19-C , 23-H ) :   0.9972
B( 21-C , 24-H ) :   0.9931

FINAL SINGLE POINT ENERGY    -11627.085716161580

DIPOLE MOMENT
-------------
                                X             Y             Z
Electronic contribution:     -0.23825       0.53118      -0.00000
Nuclear contribution   :      0.32093      -0.50451       0.00000
                        -----------------------------------------
Total Dipole Moment    :      0.08268       0.02667      -0.00000
                        -----------------------------------------
Magnitude (a.u.)       :      0.08688
Magnitude (Debye)      :      0.22082

Rotational constants in cm-1:     0.017607     0.004099     0.003325
Rotational constants in MHz :   527.844229   122.898174    99.687820

                             ****ORCA TERMINATED NORMALLY****
TOTAL RUN TIME: 0 days 17 hours 1 minutes 19 seconds 988 msec
