                         Program Version 5.0.4 -  RELEASE  -
|  1> ! RIJCOSX nofrozencore ReducedPop printbasis
|  2> ! M06L ano-rcc-dzp autoaux
|  3>
|  4> %maxcore 7500
|  5> %basis
|  6> PCDTrimBas overlap
|  7> PCDTrimAuxJ Coulomb
|  8> PCDTrimAuxJK Coulomb
|  9> PCDTrimAuxC Coulomb
| 10> PCDThresh -1
| 11> end
| 12>
| 13> %basis
| 14> newgto Cu "ano-rcc-tzp" end
| 15> newgto Se "ano-rcc-tzp" end
| 16> end
| 17>
| 18> %pal
| 19> nprocs 8
| 20> end
| 21>
| 22> % sym SymThresh 1e-2 end
| 23> * xyz -2 2
| 24> Cu -1.7217690915404203e-06 -8.742742230576766e-07 5.207262028292522e-07
| 25> Se 0.058345710928833505 -1.294479613208087 -1.9821439958125775
| 26> C -0.7507034555881071 -0.39808430668961237 -3.087885429905962
| 27> Se 1.2016277856001985 -1.5487396731740735 1.3287604935959032
| 28> C 0.9900699093078413 -1.0005721600121478 2.896634185695665
| 29> Se -1.192117594023075 1.5535687268451326 -1.3316367247772307
| 30> C -1.268023702600669 0.8594337008128317 -2.8125707511419247
| 31> Se -0.06785762427504856 1.2896496852628048 1.9850207477201076
| 32> C 1.028712668324813 0.5392506688898637 3.003806275690042
| 33> C 0.7639889918201003 0.7949889988424532 4.43091015808154
| 34> C 2.0568519238663256 -1.439614377967583 3.813859021877238
| 35> C 2.044904282995287 -1.0531750377076738 5.150655348649235
| 36> H 2.129879402180073 -2.584372648391323 3.6907229244013804
| 37> C 1.5694340866293095 0.22719831167069504 5.4134374526733025
| 38> H 0.6857351707394551 1.9409720255091298 4.538637423465761
| 39> H 2.6095478914334262 -1.62418349287402 5.881672795392813
| 40> H 1.5953271976684689 0.6634640002137728 6.4075372336257725
| 41> C -0.8856882584658549 -0.856784812839525 -4.394104871826372
| 42> C -1.935178806589893 1.5013971516255114 -3.8506574408156746
| 43> C -1.535950305054526 -0.2101957899435784 -5.423565219079135
| 44> H -0.4730097385950904 -1.8329550081132424 -4.602973406188417
| 45> C -2.07842077818281 1.036155904770319 -5.1405176884455495
| 46> H -2.3424963628716706 2.476410710271488 -3.626419747429503
| 47> H -1.5994749394099896 -0.6655701268171188 -6.4062828042031565
| 48> H -2.605147120066643 1.6264189603780044 -5.8830026233576005
| 49> *
| 50>
| 51> % eprnmr
| 52> gtensor true
| 53> Nuclei = all H {aiso,adip,aorb,fgrad,rho}
| 54> Nuclei = all Cu {aiso,adip,aorb,fgrad,rho}
| 55> end
| 56>
| 57>                          ****END OF INPUT****

CARTESIAN COORDINATES (ANGSTROEM)
---------------------------------
  Cu    -0.000000   -0.000000   -0.000000
  Se     0.678787   -1.436592   -1.755969
  C      0.281318   -0.634076   -3.126639
  Se     0.688777   -1.431875    1.755969
  C     -0.010673   -0.771942    3.126639
  Se    -0.678787    1.436592   -1.755969
  C     -0.281318    0.634076   -3.126639
  Se    -0.688777    1.431875    1.755969
  C      0.010673    0.771942    3.126639
  C     -0.697309    1.129241    4.368893
  C      0.697309   -1.129241    4.368893
  C      0.259348   -0.645259    5.597895
  H      0.791747   -2.279024    4.360734
  C     -0.259348    0.645259    5.597895
  H     -0.791747    2.279024    4.360734
  H      0.550406   -1.153984    6.512078
  H     -0.550406    1.153984    6.512078
  C      0.569490   -1.189592   -4.368894
  C     -0.569490    1.189592   -4.368894
  C      0.294537   -0.628644   -5.597896
  H      1.015136   -2.173549   -4.360735
  C     -0.294537    0.628644   -5.597896
  H     -1.015136    2.173549   -4.360735
  H      0.545917   -1.156105   -6.512078
  H     -0.545917    1.156105   -6.512078

 Total Charge           Charge          ....   -2
 Multiplicity           Mult            ....    2
 Number of Electrons    NEL             ....  247
 Basis Dimension        Dim             ....  575

ORBITAL ENERGIES
----------------
                 SPIN UP ORBITALS
  NO   OCC          E(Eh)            E(eV)    Irrep
   0   1.0000    -443.562589    -12069.9517    1-B
   1   1.0000    -443.548531    -12069.5691    1-A
   2   1.0000    -443.539207    -12069.3154    2-B
   3   1.0000    -443.538760    -12069.3033    2-A
   4   1.0000    -318.189664     -8658.3809    3-A
   5   1.0000     -56.371565     -1533.9483    3-B
   6   1.0000     -56.358741     -1533.5993    4-A
   7   1.0000     -56.356349     -1533.5342    4-B
   8   1.0000     -56.355937     -1533.5230    5-A
   9   1.0000     -51.287897     -1395.6146    5-B
  10   1.0000     -51.287848     -1395.6133    6-A
  11   1.0000     -51.286907     -1395.5877    6-B
  12   1.0000     -51.286896     -1395.5874    7-A
  13   1.0000     -51.286560     -1395.5783    7-B
  14   1.0000     -51.286504     -1395.5767    8-A
  15   1.0000     -51.286122     -1395.5663    9-A
  16   1.0000     -51.286075     -1395.5651    8-B
  17   1.0000     -51.285811     -1395.5579    9-B
  18   1.0000     -51.285801     -1395.5576   10-A
  19   1.0000     -51.285225     -1395.5419   10-B
  20   1.0000     -51.285214     -1395.5416   11-A
  21   1.0000     -38.030235     -1034.8553   12-A
  22   1.0000     -33.532244      -912.4587   11-B
  23   1.0000     -33.531254      -912.4318   13-A
  24   1.0000     -33.520693      -912.1444   12-B
  25   1.0000      -9.827494      -267.4197   14-A
  26   1.0000      -9.827388      -267.4168   13-B
  27   1.0000      -9.817853      -267.1574   15-A
  28   1.0000      -9.817521      -267.1483   16-A
  29   1.0000      -9.817453      -267.1465   14-B
  30   1.0000      -9.817073      -267.1361   15-B
  31   1.0000      -9.816856      -267.1302   17-A
  32   1.0000      -9.816818      -267.1292   16-B
  33   1.0000      -9.810087      -266.9460   18-A
  34   1.0000      -9.809639      -266.9338   17-B
  35   1.0000      -9.808145      -266.8932   19-A
  36   1.0000      -9.808142      -266.8931   18-B
  37   1.0000      -7.342789      -199.8074   19-B
  38   1.0000      -7.337507      -199.6637   20-B
  39   1.0000      -7.337280      -199.6575   20-A
  40   1.0000      -7.335503      -199.6092   21-A
  41   1.0000      -5.408844      -147.1821   21-B
  42   1.0000      -5.408837      -147.1819   22-A
  43   1.0000      -5.405719      -147.0971   22-B
  44   1.0000      -5.405701      -147.0966   23-A
  45   1.0000      -5.404296      -147.0584   24-A
  46   1.0000      -5.404289      -147.0582   23-B
  47   1.0000      -5.402811      -147.0180   24-B
  48   1.0000      -5.402798      -147.0176   25-A
  49   1.0000      -5.400442      -146.9535   25-B
  50   1.0000      -5.400422      -146.9530   26-A
  51   1.0000      -5.400011      -146.9418   27-A
  52   1.0000      -5.399991      -146.9412   26-B
  53   1.0000      -4.024336      -109.5077   28-A
  54   1.0000      -2.543739       -69.2187   27-B
  55   1.0000      -2.542468       -69.1841   29-A
  56   1.0000      -2.520061       -68.5743   28-B
  57   1.0000      -1.747531       -47.5527   30-A
  58   1.0000      -1.747509       -47.5521   29-B
  59   1.0000      -1.745404       -47.4949   31-A
  60   1.0000      -1.745399       -47.4947   30-B
  61   1.0000      -1.744772       -47.4777   32-A
  62   1.0000      -1.744743       -47.4769   31-B
  63   1.0000      -1.744489       -47.4700   33-A
  64   1.0000      -1.744428       -47.4683   32-B
  65   1.0000      -1.742020       -47.4028   34-A
  66   1.0000      -1.741939       -47.4006   33-B
  67   1.0000      -1.741286       -47.3828   34-B
  68   1.0000      -1.741280       -47.3826   35-A
  69   1.0000      -1.740543       -47.3626   36-A
  70   1.0000      -1.740492       -47.3612   35-B
  71   1.0000      -1.740387       -47.3583   37-A
  72   1.0000      -1.740385       -47.3583   36-B
  73   1.0000      -1.736983       -47.2657   38-A
  74   1.0000      -1.736916       -47.2639   37-B
  75   1.0000      -1.736871       -47.2627   38-B
  76   1.0000      -1.736848       -47.2620   39-A
  77   1.0000      -0.604225       -16.4418   40-A
  78   1.0000      -0.587309       -15.9815   41-A
  79   1.0000      -0.522957       -14.2304   42-A
  80   1.0000      -0.513263       -13.9666   43-A
  81   1.0000      -0.500916       -13.6306   39-B
  82   1.0000      -0.486724       -13.2444   40-B
  83   1.0000      -0.414319       -11.2742   41-B
  84   1.0000      -0.407795       -11.0967   42-B
  85   1.0000      -0.383318       -10.4306   44-A
  86   1.0000      -0.367833       -10.0092   45-A
  87   1.0000      -0.321334        -8.7439   46-A
  88   1.0000      -0.287901        -7.8342   43-B
  89   1.0000      -0.287874        -7.8334   47-A
  90   1.0000      -0.274549        -7.4709   44-B
  91   1.0000      -0.229804        -6.2533   48-A
  92   1.0000      -0.220348        -5.9960   49-A
  93   1.0000      -0.201565        -5.4849   50-A
  94   1.0000      -0.170710        -4.6453   45-B
  95   1.0000      -0.168271        -4.5789   51-A
  96   1.0000      -0.161481        -4.3941   46-B
  97   1.0000      -0.139547        -3.7973   47-B
  98   1.0000      -0.132969        -3.6183   52-A
  99   1.0000      -0.132062        -3.5936   48-B
 100   1.0000      -0.128237        -3.4895   49-B
 101   1.0000      -0.114251        -3.1089   50-B
 102   1.0000      -0.104460        -2.8425   53-A
 103   1.0000      -0.077609        -2.1119   51-B
 104   1.0000      -0.076959        -2.0942   54-A
 105   1.0000      -0.069841        -1.9005   52-B
 106   1.0000      -0.057107        -1.5540   55-A
 107   1.0000      -0.049920        -1.3584   53-B
 108   1.0000      -0.039492        -1.0746   54-B
 109   1.0000      -0.036454        -0.9920   56-A
 110   1.0000      -0.030840        -0.8392   57-A
 111   1.0000      -0.020031        -0.5451   58-A
 112   1.0000      -0.015556        -0.4233   55-B
 113   1.0000      -0.004977        -0.1354   59-A
 114   1.0000      -0.002838        -0.0772   56-B
 115   1.0000       0.000438         0.0119   60-A
 116   1.0000       0.017445         0.4747   61-A
 117   1.0000       0.033517         0.9120   62-A
 118   1.0000       0.039097         1.0639   57-B
 119   1.0000       0.052254         1.4219   63-A
 120   1.0000       0.053854         1.4654   64-A
 121   1.0000       0.066508         1.8098   58-B
 122   1.0000       0.094917         2.5828   59-B
 123   1.0000       0.115137         3.1330   60-B
 124   0.0000       0.162237         4.4147   65-A
 125   0.0000       0.167066         4.5461   61-B
 126   0.0000       0.181167         4.9298   66-A
 127   0.0000       0.183514         4.9937   67-A
 128   0.0000       0.195368         5.3162   62-B

                 SPIN DOWN ORBITALS
  NO   OCC          E(Eh)            E(eV)    Irrep
   0   1.0000    -443.562133    -12069.9393    1-B
   1   1.0000    -443.548075    -12069.5567    1-A
   2   1.0000    -443.538748    -12069.3029    2-B
   3   1.0000    -443.538302    -12069.2908    2-A
   4   1.0000    -318.189543     -8658.3776    3-A
   5   1.0000     -56.371381     -1533.9433    3-B
   6   1.0000     -56.358559     -1533.5943    4-A
   7   1.0000     -56.356165     -1533.5292    4-B
   8   1.0000     -56.355753     -1533.5180    5-A
   9   1.0000     -51.287571     -1395.6058    5-B
  10   1.0000     -51.287514     -1395.6042    6-A
  11   1.0000     -51.286602     -1395.5794    6-B
  12   1.0000     -51.286589     -1395.5790    7-A
  13   1.0000     -51.285878     -1395.5597    8-A
  14   1.0000     -51.285843     -1395.5587    7-B
  15   1.0000     -51.285802     -1395.5576    8-B
  16   1.0000     -51.285765     -1395.5566    9-A
  17   1.0000     -51.285197     -1395.5412   10-A
  18   1.0000     -51.285175     -1395.5406    9-B
  19   1.0000     -51.284834     -1395.5313   10-B
  20   1.0000     -51.284793     -1395.5302   11-A
  21   1.0000     -38.016501     -1034.4816   12-A
  22   1.0000     -33.519201      -912.1038   11-B
  23   1.0000     -33.518230      -912.0774   13-A
  24   1.0000     -33.516819      -912.0390   12-B
  25   1.0000      -9.827558      -267.4214   14-A
  26   1.0000      -9.827451      -267.4185   13-B
  27   1.0000      -9.817796      -267.1558   15-A
  28   1.0000      -9.817470      -267.1469   16-A
  29   1.0000      -9.817384      -267.1446   14-B
  30   1.0000      -9.817022      -267.1347   15-B
  31   1.0000      -9.816660      -267.1249   17-A
  32   1.0000      -9.816634      -267.1242   16-B
  33   1.0000      -9.810106      -266.9466   18-A
  34   1.0000      -9.809655      -266.9343   17-B
  35   1.0000      -9.808022      -266.8898   19-A
  36   1.0000      -9.808020      -266.8898   18-B
  37   1.0000      -7.342387      -199.7965   19-B
  38   1.0000      -7.337094      -199.6525   20-B
  39   1.0000      -7.336867      -199.6463   20-A
  40   1.0000      -7.335094      -199.5981   21-A
  41   1.0000      -5.408507      -147.1730   21-B
  42   1.0000      -5.408500      -147.1728   22-A
  43   1.0000      -5.405353      -147.0871   22-B
  44   1.0000      -5.405333      -147.0866   23-A
  45   1.0000      -5.403668      -147.0413   24-A
  46   1.0000      -5.403656      -147.0410   23-B
  47   1.0000      -5.402259      -147.0029   24-B
  48   1.0000      -5.402241      -147.0024   25-A
  49   1.0000      -5.399787      -146.9357   26-A
  50   1.0000      -5.399770      -146.9352   25-B
  51   1.0000      -5.399519      -146.9284   26-B
  52   1.0000      -5.399503      -146.9279   27-A
  53   1.0000      -3.996507      -108.7505   28-A
  54   1.0000      -2.509932       -68.2987   27-B
  55   1.0000      -2.508857       -68.2695   28-B
  56   1.0000      -2.507688       -68.2377   29-A
  57   1.0000      -1.747078       -47.5404   30-A
  58   1.0000      -1.747058       -47.5399   29-B
  59   1.0000      -1.744820       -47.4790   30-B
  60   1.0000      -1.744814       -47.4788   31-A
  61   1.0000      -1.744316       -47.4653   32-A
  62   1.0000      -1.744287       -47.4645   31-B
  63   1.0000      -1.743907       -47.4541   33-A
  64   1.0000      -1.743834       -47.4521   32-B
  65   1.0000      -1.741132       -47.3786   34-A
  66   1.0000      -1.741061       -47.3767   33-B
  67   1.0000      -1.740959       -47.3739   35-A
  68   1.0000      -1.740953       -47.3737   34-B
  69   1.0000      -1.739700       -47.3397   36-A
  70   1.0000      -1.739664       -47.3387   35-B
  71   1.0000      -1.739605       -47.3371   37-A
  72   1.0000      -1.739592       -47.3367   36-B
  73   1.0000      -1.736171       -47.2436   38-A
  74   1.0000      -1.736110       -47.2420   37-B
  75   1.0000      -1.736098       -47.2416   38-B
  76   1.0000      -1.736076       -47.2410   39-A
  77   1.0000      -0.603413       -16.4197   40-A
  78   1.0000      -0.586564       -15.9612   41-A
  79   1.0000      -0.521822       -14.1995   42-A
  80   1.0000      -0.511912       -13.9298   43-A
  81   1.0000      -0.499210       -13.5842   39-B
  82   1.0000      -0.484907       -13.1950   40-B
  83   1.0000      -0.411617       -11.2007   41-B
  84   1.0000      -0.404974       -11.0199   42-B
  85   1.0000      -0.380866       -10.3639   44-A
  86   1.0000      -0.365385        -9.9426   45-A
  87   1.0000      -0.319508        -8.6943   46-A
  88   1.0000      -0.285960        -7.7814   47-A
  89   1.0000      -0.285404        -7.7662   43-B
  90   1.0000      -0.271941        -7.3999   44-B
  91   1.0000      -0.228685        -6.2228   48-A
  92   1.0000      -0.219196        -5.9646   49-A
  93   1.0000      -0.200295        -5.4503   50-A
  94   1.0000      -0.169151        -4.6028   45-B
  95   1.0000      -0.166556        -4.5322   51-A
  96   1.0000      -0.158990        -4.3263   46-B
  97   1.0000      -0.138229        -3.7614   47-B
  98   1.0000      -0.131660        -3.5826   48-B
  99   1.0000      -0.131012        -3.5650   52-A
 100   1.0000      -0.127662        -3.4739   49-B
 101   1.0000      -0.113241        -3.0814   50-B
 102   1.0000      -0.102609        -2.7921   53-A
 103   1.0000      -0.076385        -2.0785   51-B
 104   1.0000      -0.075045        -2.0421   54-A
 105   1.0000      -0.062831        -1.7097   52-B
 106   1.0000      -0.055286        -1.5044   55-A
 107   1.0000      -0.048889        -1.3303   53-B
 108   1.0000      -0.032740        -0.8909   56-A
 109   1.0000      -0.028745        -0.7822   57-A
 110   1.0000      -0.019069        -0.5189   54-B
 111   1.0000      -0.014068        -0.3828   58-A
 112   1.0000      -0.003321        -0.0904   55-B
 113   1.0000       0.004860         0.1322   59-A
 114   1.0000       0.007750         0.2109   56-B
 115   1.0000       0.011045         0.3006   60-A
 116   1.0000       0.028786         0.7833   61-A
 117   1.0000       0.039631         1.0784   62-A
 118   1.0000       0.050175         1.3653   57-B
 119   1.0000       0.054619         1.4863   63-A
 120   1.0000       0.057236         1.5575   64-A
 121   1.0000       0.068408         1.8615   58-B
 122   1.0000       0.098340         2.6760   59-B
 123   0.0000       0.144308         3.9268   60-B
 124   0.0000       0.162878         4.4321   65-A
 125   0.0000       0.167647         4.5619   61-B
 126   0.0000       0.183126         4.9831   66-A
 127   0.0000       0.185276         5.0416   67-A

MULLIKEN ATOMIC CHARGES AND SPIN POPULATIONS
--------------------------------------------
   0 Cu:    0.656487    0.303225
   1 Se:   -0.728760    0.173494
   2 C :    0.220495   -0.003260
   3 Se:   -0.544186    0.178484
   4 C :    0.037735   -0.007429
   5 Se:   -0.728760    0.173494
   6 C :    0.220495   -0.003260
   7 Se:   -0.544186    0.178484
   8 C :    0.037735   -0.007429
   9 C :   -0.143371    0.003167
  10 C :   -0.143371    0.003167
  11 C :   -0.105410   -0.001470
  12 H :    0.044202    0.001135
  13 C :   -0.105410   -0.001470
  14 H :    0.044202    0.001135
  15 H :    0.035905    0.001959
  16 H :    0.035905    0.001959
  17 C :   -0.103062   -0.001243
  18 C :   -0.103062   -0.001243
  19 C :   -0.155870   -0.000671
  20 H :    0.092397    0.002608
  21 C :   -0.155870   -0.000671
  22 H :    0.092397    0.002608
  23 H :    0.021683    0.001615
  24 H :    0.021683    0.001615
Sum of atomic charges         :   -2.0000000

LOEWDIN ATOMIC CHARGES AND SPIN POPULATIONS
-------------------------------------------
   0 Cu:   -0.622508    0.386176
   1 Se:   -0.204642    0.123914
   2 C :    0.038717    0.011784
   3 Se:   -0.271879    0.127303
   4 C :    0.138868    0.007513
   5 Se:   -0.204642    0.123914
   6 C :    0.038717    0.011784
   7 Se:   -0.271879    0.127303
   8 C :    0.138868    0.007513
   9 C :    0.343889    0.010110
  10 C :    0.343889    0.010110
  11 C :    0.304863    0.000119
  12 H :   -0.438658    0.008468
  13 C :    0.304863    0.000119
  14 H :   -0.438658    0.008468
  15 H :   -0.420149    0.000373
  16 H :   -0.420149    0.000373
  17 C :    0.371463    0.007094
  18 C :    0.371463    0.007094
  19 C :    0.320189    0.000488
  20 H :   -0.459701    0.009343
  21 C :    0.320189    0.000488
  22 H :   -0.459701    0.009343
  23 H :   -0.411706    0.000402
  24 H :   -0.411706    0.000402

  Mayer bond orders larger than 0.100000
B(  0-Cu,  1-Se) :   0.5506 B(  0-Cu,  3-Se) :   0.5247 B(  0-Cu,  5-Se) :   0.5506
B(  0-Cu,  7-Se) :   0.5247 B(  1-Se,  2-C ) :   1.0388 B(  2-C ,  6-C ) :   1.1340
B(  2-C , 17-C ) :   1.2574 B(  3-Se,  4-C ) :   1.0866 B(  4-C ,  8-C ) :   1.1196
B(  4-C , 10-C ) :   1.2507 B(  5-Se,  6-C ) :   1.0388 B(  6-C , 18-C ) :   1.2574
B(  7-Se,  8-C ) :   1.0866 B(  8-C ,  9-C ) :   1.2507 B(  9-C , 13-C ) :   1.3742
B(  9-C , 14-H ) :   0.9804 B( 10-C , 11-C ) :   1.3742 B( 10-C , 12-H ) :   0.9804
B( 11-C , 13-C ) :   1.3261 B( 11-C , 15-H ) :   0.9779 B( 13-C , 16-H ) :   0.9779
B( 17-C , 19-C ) :   1.3798 B( 17-C , 20-H ) :   0.9598 B( 18-C , 21-C ) :   1.3798
B( 18-C , 22-H ) :   0.9598 B( 19-C , 21-C ) :   1.3120 B( 19-C , 23-H ) :   0.9953
B( 21-C , 24-H ) :   0.9953

FINAL SINGLE POINT ENERGY    -11626.936088159106

DIPOLE MOMENT
-------------
                                X             Y             Z
Electronic contribution:      0.00000       0.00000      -0.32196
Nuclear contribution   :     -0.00000       0.00000       0.00000
                        -----------------------------------------
Total Dipole Moment    :      0.00000       0.00000      -0.32196
                        -----------------------------------------
Magnitude (a.u.)       :      0.32196
Magnitude (Debye)      :      0.81837

Rotational constants in cm-1:     0.017551     0.004094     0.003325
Rotational constants in MHz :   526.178786   122.746841    99.666036

                             ****ORCA TERMINATED NORMALLY****
TOTAL RUN TIME: 0 days 19 hours 26 minutes 5 seconds 413 msec
