                         Program Version 5.0.4 -  RELEASE  -
|  1> ! RIJCOSX nofrozencore ReducedPop printbasis
|  2> ! M06L ano-rcc-dzp autoaux
|  3>
|  4> %maxcore 7500
|  5> %basis
|  6> PCDTrimBas overlap
|  7> PCDTrimAuxJ Coulomb
|  8> PCDTrimAuxJK Coulomb
|  9> PCDTrimAuxC Coulomb
| 10> PCDThresh -1
| 11> end
| 12>
| 13> %basis
| 14> newgto Cu "ano-rcc-tzp" end
| 15> newgto Se "ano-rcc-tzp" end
| 16> end
| 17>
| 18> %pal
| 19> nprocs 8
| 20> end
| 21>
| 22> % sym SymThresh 1e-2 end
| 23> * xyz -2 2
| 24> Cu 1.4115129849275109e-05 1.1016910434453822e-05 -8.91015116691773e-06
| 25> Se -1.539486472238122 1.7829934071070783 -0.24270663258245292
| 26> C -2.2998385534984043 1.4849430052081007 -1.663309123348964
| 27> Se 0.810926764728769 0.6753062552860181 2.119984808209037
| 28> C 1.9372010431834008 -0.446835428406881 2.510855086056259
| 29> Se -0.8083719262260503 -0.6733121944973819 -2.1215975455702494
| 30> C -1.980815382904676 0.4127942768554621 -2.4833236099655998
| 31> Se 1.5420370762018862 -1.7810026513915724 0.2410965682665909
| 32> C 2.2563329002769685 -1.5188993265491744 1.690771991275638
| 33> C 3.2283063586237883 -2.3966851131922025 2.1588363489283053
| 34> C 2.621434861974683 -0.3578179362004222 3.7184246027432164
| 35> C 3.5918413086185517 -1.2250282444611007 4.173291712299888
| 36> H 2.38154349522317 0.4905577218545545 4.342647552943604
| 37> C 3.911264151148426 -2.2982587054110355 3.3523708516261412
| 38> H 3.485296398516201 -3.218044477564287 1.5059479007127001
| 39> H 4.067296709182843 -1.0632437863071256 5.135014969419145
| 40> H 4.655670841243032 -3.039685067341772 3.6230945714634384
| 41> C -3.1650853620849424 2.4460301698160585 -2.1987455882648756
| 42> C -2.558260481064775 0.40712577138638545 -3.7583033208134315
| 43> C -3.927381476466385 2.2856799118649134 -3.3421979132837007
| 44> H -3.778644718964383 2.989086716881647 -1.3207744741136824
| 45> C -3.6079177714608184 1.2124796686883206 -4.163142377860822
| 46> H -2.6744239348172836 -0.7191511375897516 -4.1577683800882665
| 47> H -4.605052574090546 3.079192809850767 -3.6550472645631222
| 48> H -4.016868801912783 1.1026011619249367 -5.16684684897158
| 49> *
| 50>
| 51> % eprnmr
| 52> gtensor true
| 53> Nuclei = all H {aiso,adip,aorb,fgrad,rho}
| 54> Nuclei = all Cu {aiso,adip,aorb,fgrad,rho}
| 55> end
| 56>
| 57>                          ****END OF INPUT****

CARTESIAN COORDINATES (ANGSTROEM)
---------------------------------
  Cu    -0.000012    0.000016   -0.000000
  Se    -1.376148   -1.090714    1.588883
  C     -2.406165   -1.997589    0.693488
  Se     1.373896    1.093544    1.588883
  C      2.444607    1.949301    0.693488
  Se    -1.376148   -1.090714   -1.588883
  C     -2.406165   -1.997589   -0.693488
  Se     1.373896    1.093544   -1.588883
  C      2.444607    1.949301   -0.693488
  C      3.420266    2.718275   -1.318862
  C      3.420266    2.718275    1.318862
  C      4.378976    3.487263    0.694220
  H      3.401513    2.728731    2.398899
  C      4.378976    3.487263   -0.694220
  H      3.401513    2.728731   -2.398899
  H      5.096507    4.053737    1.278516
  H      5.096507    4.053737   -1.278516
  C     -3.476039   -2.648218    1.318862
  C     -3.476039   -2.648218   -1.318862
  C     -4.364770   -3.505107    0.694220
  H     -3.142841   -3.053659    2.398899
  C     -4.364770   -3.505107   -0.694220
  H     -3.142841   -3.053659   -2.398899
  H     -5.141093   -3.997731    1.278516
  H     -5.141093   -3.997731   -1.278516

 Total Charge           Charge          ....   -2
 Multiplicity           Mult            ....    2
 Number of Electrons    NEL             ....  247
 Basis Dimension        Dim             ....  575

ORBITAL ENERGIES
----------------
                 SPIN UP ORBITALS
  NO   OCC          E(Eh)            E(eV)    Irrep
   0   1.0000    -443.562406    -12069.9467    1-A"
   1   1.0000    -443.557908    -12069.8243    2-A"
   2   1.0000    -443.548016    -12069.5551    1-A'
   3   1.0000    -443.545585    -12069.4890    2-A'
   4   1.0000    -318.188276     -8658.3432    3-A'
   5   1.0000     -56.371243     -1533.9395    3-A"
   6   1.0000     -56.368855     -1533.8745    4-A"
   7   1.0000     -56.358184     -1533.5842    4-A'
   8   1.0000     -56.357426     -1533.5635    5-A'
   9   1.0000     -51.287559     -1395.6054    5-A"
  10   1.0000     -51.287510     -1395.6041    6-A'
  11   1.0000     -51.287330     -1395.5992    6-A"
  12   1.0000     -51.287286     -1395.5980    7-A'
  13   1.0000     -51.286231     -1395.5693    7-A"
  14   1.0000     -51.286173     -1395.5677    8-A'
  15   1.0000     -51.285997     -1395.5629    8-A"
  16   1.0000     -51.285938     -1395.5613    9-A'
  17   1.0000     -51.285872     -1395.5595    9-A"
  18   1.0000     -51.285824     -1395.5582   10-A'
  19   1.0000     -51.285565     -1395.5512   10-A"
  20   1.0000     -51.285516     -1395.5498   11-A'
  21   1.0000     -38.028846     -1034.8175   12-A'
  22   1.0000     -33.530883      -912.4217   11-A"
  23   1.0000     -33.530109      -912.4007   13-A'
  24   1.0000     -33.519008      -912.0986   14-A'
  25   1.0000      -9.818171      -267.1660   15-A'
  26   1.0000      -9.817735      -267.1541   12-A"
  27   1.0000      -9.816912      -267.1317   16-A'
  28   1.0000      -9.816463      -267.1195   13-A"
  29   1.0000      -9.816239      -267.1135   17-A'
  30   1.0000      -9.816236      -267.1134   14-A"
  31   1.0000      -9.812785      -267.0194   18-A'
  32   1.0000      -9.812329      -267.0070   15-A"
  33   1.0000      -9.809581      -266.9323   19-A'
  34   1.0000      -9.809131      -266.9200   16-A"
  35   1.0000      -9.807514      -266.8760   20-A'
  36   1.0000      -9.807512      -266.8760   17-A"
  37   1.0000      -7.342312      -199.7945   18-A"
  38   1.0000      -7.342165      -199.7905   19-A"
  39   1.0000      -7.335499      -199.6091   21-A'
  40   1.0000      -7.334908      -199.5930   22-A'
  41   1.0000      -5.406359      -147.1145   20-A"
  42   1.0000      -5.406341      -147.1140   23-A'
  43   1.0000      -5.405126      -147.0810   21-A"
  44   1.0000      -5.405108      -147.0805   24-A'
  45   1.0000      -5.400991      -146.9684   22-A"
  46   1.0000      -5.400966      -146.9677   25-A'
  47   1.0000      -5.400836      -146.9642   23-A"
  48   1.0000      -5.400810      -146.9635   26-A'
  49   1.0000      -5.399798      -146.9360   24-A"
  50   1.0000      -5.399773      -146.9353   27-A'
  51   1.0000      -5.399479      -146.9273   25-A"
  52   1.0000      -5.399453      -146.9266   28-A'
  53   1.0000      -4.023148      -109.4754   29-A'
  54   1.0000      -2.542654       -69.1891   26-A"
  55   1.0000      -2.541733       -69.1641   30-A'
  56   1.0000      -2.518356       -68.5279   31-A'
  57   1.0000      -1.745411       -47.4950   32-A'
  58   1.0000      -1.745382       -47.4943   27-A"
  59   1.0000      -1.744162       -47.4610   33-A'
  60   1.0000      -1.744133       -47.4603   28-A"
  61   1.0000      -1.742638       -47.4196   34-A'
  62   1.0000      -1.742560       -47.4175   29-A"
  63   1.0000      -1.742095       -47.4048   35-A'
  64   1.0000      -1.742086       -47.4046   30-A"
  65   1.0000      -1.741424       -47.3866   36-A'
  66   1.0000      -1.741343       -47.3843   31-A"
  67   1.0000      -1.740724       -47.3675   37-A'
  68   1.0000      -1.740717       -47.3673   32-A"
  69   1.0000      -1.737674       -47.2845   38-A'
  70   1.0000      -1.737656       -47.2840   39-A'
  71   1.0000      -1.737647       -47.2838   33-A"
  72   1.0000      -1.737591       -47.2823   34-A"
  73   1.0000      -1.736339       -47.2482   40-A'
  74   1.0000      -1.736323       -47.2477   41-A'
  75   1.0000      -1.736314       -47.2475   35-A"
  76   1.0000      -1.736257       -47.2459   36-A"
  77   1.0000      -0.603822       -16.4308   42-A'
  78   1.0000      -0.603607       -16.4250   43-A'
  79   1.0000      -0.523091       -14.2340   44-A'
  80   1.0000      -0.522183       -14.2093   45-A'
  81   1.0000      -0.500357       -13.6154   37-A"
  82   1.0000      -0.496412       -13.5081   38-A"
  83   1.0000      -0.413840       -11.2611   39-A"
  84   1.0000      -0.411645       -11.2014   40-A"
  85   1.0000      -0.384179       -10.4541   46-A'
  86   1.0000      -0.379343       -10.3225   47-A'
  87   1.0000      -0.320928        -8.7329   48-A'
  88   1.0000      -0.309660        -8.4263   49-A'
  89   1.0000      -0.287911        -7.8345   41-A"
  90   1.0000      -0.283664        -7.7189   42-A"
  91   1.0000      -0.229451        -6.2437   50-A'
  92   1.0000      -0.220848        -6.0096   51-A'
  93   1.0000      -0.201167        -5.4740   52-A'
  94   1.0000      -0.198545        -5.4027   53-A'
  95   1.0000      -0.169843        -4.6217   43-A"
  96   1.0000      -0.157878        -4.2961   44-A"
  97   1.0000      -0.143031        -3.8921   54-A'
  98   1.0000      -0.138924        -3.7803   45-A"
  99   1.0000      -0.135506        -3.6873   55-A'
 100   1.0000      -0.131556        -3.5798   56-A'
 101   1.0000      -0.121574        -3.3082   46-A"
 102   1.0000      -0.107515        -2.9256   57-A'
 103   1.0000      -0.076312        -2.0766   58-A'
 104   1.0000      -0.072596        -1.9754   47-A"
 105   1.0000      -0.066852        -1.8191   48-A"
 106   1.0000      -0.061786        -1.6813   59-A'
 107   1.0000      -0.049355        -1.3430   60-A'
 108   1.0000      -0.039830        -1.0838   61-A'
 109   1.0000      -0.035619        -0.9692   49-A"
 110   1.0000      -0.031189        -0.8487   50-A"
 111   1.0000      -0.029541        -0.8038   62-A'
 112   1.0000      -0.024719        -0.6726   51-A"
 113   1.0000      -0.003148        -0.0857   52-A"
 114   1.0000      -0.002596        -0.0706   63-A'
 115   1.0000      -0.000535        -0.0146   64-A'
 116   1.0000       0.017889         0.4868   65-A'
 117   1.0000       0.019902         0.5416   66-A'
 118   1.0000       0.039739         1.0814   53-A"
 119   1.0000       0.052051         1.4164   54-A"
 120   1.0000       0.054539         1.4841   55-A"
 121   1.0000       0.068524         1.8646   67-A'
 122   1.0000       0.097129         2.6430   68-A'
 123   1.0000       0.115440         3.1413   56-A"
 124   0.0000       0.177257         4.8234   69-A'
 125   0.0000       0.181568         4.9407   70-A'
 126   0.0000       0.182065         4.9542   71-A'
 127   0.0000       0.195721         5.3258   57-A"
 128   0.0000       0.197013         5.3610   58-A"

                 SPIN DOWN ORBITALS
  NO   OCC          E(Eh)            E(eV)    Irrep
   0   1.0000    -443.561955    -12069.9344    1-A"
   1   1.0000    -443.557447    -12069.8118    2-A"
   2   1.0000    -443.547565    -12069.5429    1-A'
   3   1.0000    -443.545124    -12069.4764    2-A'
   4   1.0000    -318.188154     -8658.3399    3-A'
   5   1.0000     -56.371060     -1533.9345    3-A"
   6   1.0000     -56.368669     -1533.8695    4-A"
   7   1.0000     -56.358004     -1533.5793    4-A'
   8   1.0000     -56.357243     -1533.5585    5-A'
   9   1.0000     -51.287232     -1395.5965    5-A"
  10   1.0000     -51.287174     -1395.5950    6-A'
  11   1.0000     -51.287009     -1395.5905    6-A"
  12   1.0000     -51.286957     -1395.5891    7-A'
  13   1.0000     -51.285618     -1395.5526    7-A"
  14   1.0000     -51.285570     -1395.5513    8-A'
  15   1.0000     -51.285480     -1395.5489    8-A"
  16   1.0000     -51.285431     -1395.5475    9-A'
  17   1.0000     -51.285316     -1395.5444    9-A"
  18   1.0000     -51.285267     -1395.5431   10-A'
  19   1.0000     -51.285265     -1395.5430   10-A"
  20   1.0000     -51.285213     -1395.5416   11-A'
  21   1.0000     -38.014971     -1034.4399   12-A'
  22   1.0000     -33.517702      -912.0630   11-A"
  23   1.0000     -33.516927      -912.0419   13-A'
  24   1.0000     -33.515124      -911.9929   14-A'
  25   1.0000      -9.818113      -267.1644   15-A'
  26   1.0000      -9.817676      -267.1525   12-A"
  27   1.0000      -9.816862      -267.1304   16-A'
  28   1.0000      -9.816413      -267.1182   13-A"
  29   1.0000      -9.816124      -267.1103   17-A'
  30   1.0000      -9.816121      -267.1102   14-A"
  31   1.0000      -9.812806      -267.0200   18-A'
  32   1.0000      -9.812349      -267.0076   15-A"
  33   1.0000      -9.809600      -266.9328   19-A'
  34   1.0000      -9.809147      -266.9205   16-A"
  35   1.0000      -9.807395      -266.8728   20-A'
  36   1.0000      -9.807394      -266.8728   17-A"
  37   1.0000      -7.341912      -199.7836   18-A"
  38   1.0000      -7.341759      -199.7794   19-A"
  39   1.0000      -7.335085      -199.5978   21-A'
  40   1.0000      -7.334503      -199.5820   22-A'
  41   1.0000      -5.405992      -147.1045   20-A"
  42   1.0000      -5.405973      -147.1040   23-A'
  43   1.0000      -5.404764      -147.0711   21-A"
  44   1.0000      -5.404744      -147.0706   24-A'
  45   1.0000      -5.400528      -146.9558   22-A"
  46   1.0000      -5.400502      -146.9551   25-A'
  47   1.0000      -5.400138      -146.9452   23-A"
  48   1.0000      -5.400113      -146.9445   26-A'
  49   1.0000      -5.399167      -146.9188   24-A"
  50   1.0000      -5.399141      -146.9181   27-A'
  51   1.0000      -5.398977      -146.9136   25-A"
  52   1.0000      -5.398952      -146.9130   28-A'
  53   1.0000      -3.994976      -108.7088   29-A'
  54   1.0000      -2.508034       -68.2471   30-A'
  55   1.0000      -2.507490       -68.2323   26-A"
  56   1.0000      -2.506486       -68.2050   31-A'
  57   1.0000      -1.744965       -47.4829   32-A'
  58   1.0000      -1.744936       -47.4821   27-A"
  59   1.0000      -1.743714       -47.4489   33-A'
  60   1.0000      -1.743685       -47.4481   28-A"
  61   1.0000      -1.741791       -47.3965   34-A'
  62   1.0000      -1.741781       -47.3963   29-A"
  63   1.0000      -1.741718       -47.3946   35-A'
  64   1.0000      -1.741637       -47.3923   30-A"
  65   1.0000      -1.740544       -47.3626   36-A'
  66   1.0000      -1.740471       -47.3606   31-A"
  67   1.0000      -1.740406       -47.3588   37-A'
  68   1.0000      -1.740387       -47.3583   32-A"
  69   1.0000      -1.736890       -47.2632   38-A'
  70   1.0000      -1.736865       -47.2625   33-A"
  71   1.0000      -1.736828       -47.2615   39-A'
  72   1.0000      -1.736768       -47.2599   34-A"
  73   1.0000      -1.735573       -47.2273   40-A'
  74   1.0000      -1.735551       -47.2267   35-A"
  75   1.0000      -1.735520       -47.2259   41-A'
  76   1.0000      -1.735459       -47.2243   36-A"
  77   1.0000      -0.603010       -16.4087   42-A'
  78   1.0000      -0.602809       -16.4033   43-A'
  79   1.0000      -0.521942       -14.2028   44-A'
  80   1.0000      -0.521071       -14.1790   45-A'
  81   1.0000      -0.498668       -13.5694   37-A"
  82   1.0000      -0.494596       -13.4586   38-A"
  83   1.0000      -0.411167       -11.1884   39-A"
  84   1.0000      -0.408986       -11.1291   40-A"
  85   1.0000      -0.381634       -10.3848   46-A'
  86   1.0000      -0.376914       -10.2563   47-A'
  87   1.0000      -0.319126        -8.6839   48-A'
  88   1.0000      -0.307790        -8.3754   49-A'
  89   1.0000      -0.285494        -7.7687   41-A"
  90   1.0000      -0.280976        -7.6457   42-A"
  91   1.0000      -0.228328        -6.2131   50-A'
  92   1.0000      -0.219827        -5.9818   51-A'
  93   1.0000      -0.199899        -5.4395   52-A'
  94   1.0000      -0.197384        -5.3711   53-A'
  95   1.0000      -0.168262        -4.5786   43-A"
  96   1.0000      -0.155489        -4.2311   44-A"
  97   1.0000      -0.142358        -3.8738   54-A'
  98   1.0000      -0.137581        -3.7438   45-A"
  99   1.0000      -0.133815        -3.6413   55-A'
 100   1.0000      -0.131158        -3.5690   56-A'
 101   1.0000      -0.120777        -3.2865   46-A"
 102   1.0000      -0.105490        -2.8705   57-A'
 103   1.0000      -0.074580        -2.0294   58-A'
 104   1.0000      -0.071161        -1.9364   47-A"
 105   1.0000      -0.060160        -1.6370   59-A'
 106   1.0000      -0.055788        -1.5181   48-A"
 107   1.0000      -0.048477        -1.3191   60-A'
 108   1.0000      -0.038587        -1.0500   61-A'
 109   1.0000      -0.031092        -0.8461   49-A"
 110   1.0000      -0.025678        -0.6987   50-A"
 111   1.0000      -0.023501        -0.6395   62-A'
 112   1.0000      -0.003108        -0.0846   51-A"
 113   1.0000       0.006397         0.1741   52-A"
 114   1.0000       0.008502         0.2314   63-A'
 115   1.0000       0.009861         0.2683   64-A'
 116   1.0000       0.028112         0.7650   65-A'
 117   1.0000       0.030683         0.8349   66-A'
 118   1.0000       0.050176         1.3654   53-A"
 119   1.0000       0.055065         1.4984   54-A"
 120   1.0000       0.057947         1.5768   55-A"
 121   1.0000       0.070289         1.9126   67-A'
 122   1.0000       0.100383         2.7316   68-A'
 123   0.0000       0.145204         3.9512   56-A"
 124   0.0000       0.177521         4.8306   69-A'
 125   0.0000       0.183495         4.9932   70-A'
 126   0.0000       0.184050         5.0082   71-A'
 127   0.0000       0.199036         5.4160   57-A"

MULLIKEN ATOMIC CHARGES AND SPIN POPULATIONS
--------------------------------------------
   0 Cu:    0.639353    0.307784
   1 Se:   -0.688160    0.176638
   2 C :    0.253471   -0.003455
   3 Se:   -0.732686    0.172399
   4 C :    0.221651   -0.003192
   5 Se:   -0.688160    0.176638
   6 C :    0.253471   -0.003455
   7 Se:   -0.732686    0.172399
   8 C :    0.221651   -0.003192
   9 C :   -0.103016   -0.001411
  10 C :   -0.103016   -0.001411
  11 C :   -0.156422   -0.000685
  12 H :    0.092106    0.002645
  13 C :   -0.156422   -0.000685
  14 H :    0.092106    0.002645
  15 H :    0.021365    0.001597
  16 H :    0.021365    0.001597
  17 C :   -0.143563   -0.001372
  18 C :   -0.143563   -0.001372
  19 C :   -0.113328   -0.000763
  20 H :    0.000901    0.001881
  21 C :   -0.113328   -0.000763
  22 H :    0.000901    0.001881
  23 H :    0.028004    0.001825
  24 H :    0.028004    0.001825
Sum of atomic charges         :   -2.0000000

LOEWDIN ATOMIC CHARGES AND SPIN POPULATIONS
-------------------------------------------
   0 Cu:   -0.616561    0.389678
   1 Se:   -0.210149    0.126324
   2 C :    0.028740    0.011569
   3 Se:   -0.201966    0.122641
   4 C :    0.038456    0.011747
   5 Se:   -0.210149    0.126324
   6 C :    0.028740    0.011569
   7 Se:   -0.201966    0.122641
   8 C :    0.038456    0.011747
   9 C :    0.371231    0.006917
  10 C :    0.371231    0.006917
  11 C :    0.319996    0.000451
  12 H :   -0.459679    0.009368
  13 C :    0.319996    0.000451
  14 H :   -0.459679    0.009368
  15 H :   -0.411920    0.000389
  16 H :   -0.411920    0.000389
  17 C :    0.322078    0.006632
  18 C :    0.322078    0.006632
  19 C :    0.300176    0.000532
  20 H :   -0.372980    0.008166
  21 C :    0.300176    0.000532
  22 H :   -0.372980    0.008166
  23 H :   -0.415701    0.000424
  24 H :   -0.415701    0.000424

  Mayer bond orders larger than 0.100000
B(  0-Cu,  1-Se) :   0.5432 B(  0-Cu,  3-Se) :   0.5511 B(  0-Cu,  5-Se) :   0.5432
B(  0-Cu,  7-Se) :   0.5511 B(  1-Se,  2-C ) :   1.0403 B(  2-C ,  6-C ) :   1.1258
B(  2-C , 17-C ) :   1.2660 B(  3-Se,  4-C ) :   1.0400 B(  4-C ,  8-C ) :   1.1337
B(  4-C , 10-C ) :   1.2571 B(  5-Se,  6-C ) :   1.0403 B(  6-C , 18-C ) :   1.2660
B(  7-Se,  8-C ) :   1.0400 B(  8-C ,  9-C ) :   1.2571 B(  9-C , 13-C ) :   1.3795
B(  9-C , 14-H ) :   0.9599 B( 10-C , 11-C ) :   1.3795 B( 10-C , 12-H ) :   0.9599
B( 11-C , 13-C ) :   1.3125 B( 11-C , 15-H ) :   0.9954 B( 13-C , 16-H ) :   0.9954
B( 17-C , 19-C ) :   1.3465 B( 17-C , 20-H ) :   1.0059 B( 18-C , 21-C ) :   1.3465
B( 18-C , 22-H ) :   1.0059 B( 19-C , 21-C ) :   1.3354 B( 19-C , 23-H ) :   0.9851
B( 21-C , 24-H ) :   0.9851

FINAL SINGLE POINT ENERGY    -11627.081803812691

DIPOLE MOMENT
-------------
                                X             Y             Z
Electronic contribution:     -0.23426       0.63012       0.00000
Nuclear contribution   :      0.44811      -0.56289       0.00000
                        -----------------------------------------
Total Dipole Moment    :      0.21385       0.06723       0.00000
                        -----------------------------------------
Magnitude (a.u.)       :      0.22417
Magnitude (Debye)      :      0.56980

Rotational constants in cm-1:     0.017602     0.004097     0.003325
Rotational constants in MHz :   527.709089   122.829936    99.666037

                             ****ORCA TERMINATED NORMALLY****
TOTAL RUN TIME: 0 days 16 hours 51 minutes 41 seconds 119 msec
