                         Program Version 5.0.4 -  RELEASE  -
|  1> ! RIJCOSX nofrozencore ReducedPop printbasis
|  2> ! M06L ano-rcc-dzp autoaux
|  3>
|  4> %maxcore 7500
|  5> %basis
|  6> PCDTrimBas overlap
|  7> PCDTrimAuxJ Coulomb
|  8> PCDTrimAuxJK Coulomb
|  9> PCDTrimAuxC Coulomb
| 10> PCDThresh -1
| 11> end
| 12>
| 13> %basis
| 14> newgto Cu "ano-rcc-tzp" end
| 15> newgto Se "ano-rcc-tzp" end
| 16> end
| 17>
| 18> %pal
| 19> nprocs 8
| 20> end
| 21>
| 22> % sym SymThresh 1e-2 end
| 23> * xyz -2 2
| 24> Cu 0.007942786228644768 0.002717888704812265 -0.013290202704033709
| 25> Se -1.9055653962782817 -1.2212041784584786 0.8012944481670564
| 26> C -2.4682154655915576 -1.9536835999320423 -0.5219538919715282
| 27> Se 0.686484263850432 1.0102628756542742 2.1034155148920264
| 28> C 1.9738033914157562 1.8549929943748513 1.6448748171216194
| 29> Se -0.5991393194873278 -0.9363399997920406 -2.064870326833553
| 30> C -1.929122516353445 -1.8549282009619066 -1.7834914243030096
| 31> Se 1.8268795468717542 1.1501247159956165 -0.8548299655005409
| 32> C 2.5482935946160166 1.9822577826143852 0.3928827937040299
| 33> C 3.6809101856581345 2.8137718055825887 0.3597956261708866
| 34> C 2.5071083391935174 2.5140515071742287 2.7513936748183303
| 35> C 3.5743220595847154 3.3031728175170345 2.7438015670984037
| 36> H 1.9604115806458366 2.329647105178573 3.677331917274642
| 37> C 4.158129938151664 3.4391379296482785 1.4993375347767393
| 38> H 4.210999849044402 2.983370176080119 -0.5766208030835428
| 39> H 3.9478087452395276 3.7927459802759804 3.636234591392545
| 40> H 5.044860784831094 4.074451174048409 1.4076546901548483
| 41> C -3.586812663138377 -2.7375485230748424 -0.3325919698653808
| 42> C -2.595763200069289 -2.585522030029239 -2.775581209953787
| 43> C -4.224490628297216 -3.437603069451939 -1.2866208715070657
| 44> H -3.9622645187893903 -2.7743015574973144 0.6803299224550245
| 45> C -3.7142086985834863 -3.366163316615771 -2.5731700227435583
| 46> H -2.201930364071197 -2.5333572085733738 -3.7809982483837
| 47> H -5.102317473254757 -4.030695482283123 -1.0455299642916074
| 48> H -4.170526767185667 -3.901587507558989 -3.4004427260173786
| 49> *
| 50>
| 51> % eprnmr
| 52> gtensor true
| 53> Nuclei = all H {aiso,adip,aorb,fgrad,rho}
| 54> Nuclei = all Cu {aiso,adip,aorb,fgrad,rho}
| 55> end
| 56>
| 57>                          ****END OF INPUT****

CARTESIAN COORDINATES (ANGSTROEM)
---------------------------------
  Cu    -0.012946    0.008917    0.000000
  Se     0.657621   -2.309140    0.000000
  C     -0.747926   -3.101936    0.000000
  Se     2.216326    1.002072    0.000000
  C      1.856961    2.567919    0.000000
  Se    -2.169271   -0.890873    0.000000
  C     -1.995272   -2.522301    0.000000
  Se    -0.719303    2.207626    0.000000
  C      0.622454    3.192187    0.000000
  C      0.686092    4.596210    0.000000
  C      3.037710    3.308857    0.000000
  C      3.121861    4.633483    0.000000
  H      3.940223    2.695901    0.000000
  C      1.895876    5.269856    0.000000
  H     -0.228598    5.187798    0.000000
  H      4.069283    5.160742    0.000000
  H      1.878239    6.364392    0.000000
  C     -0.650086   -4.477432    0.000000
  C     -3.070153   -3.420661    0.000000
  C     -1.683438   -5.337121    0.000000
  H      0.356386   -4.871563    0.000000
  C     -2.958918   -4.795040    0.000000
  H     -4.067345   -3.003173    0.000000
  H     -1.511806   -6.409971    0.000000
  H     -3.846649   -5.420514    0.000000

 Total Charge           Charge          ....   -2
 Multiplicity           Mult            ....    2
 Number of Electrons    NEL             ....  247
 Basis Dimension        Dim             ....  575

ORBITAL ENERGIES
----------------
                 SPIN UP ORBITALS
  NO   OCC          E(Eh)            E(eV)    Irrep
   0   1.0000    -443.560892    -12069.9055    1-A'
   1   1.0000    -443.558920    -12069.8518    2-A'
   2   1.0000    -443.545538    -12069.4877    3-A'
   3   1.0000    -443.544553    -12069.4609    4-A'
   4   1.0000    -318.183300     -8658.2078    5-A'
   5   1.0000     -56.368885     -1533.8754    6-A'
   6   1.0000     -56.367811     -1533.8461    7-A'
   7   1.0000     -56.355424     -1533.5091    8-A'
   8   1.0000     -56.355074     -1533.4995    9-A'
   9   1.0000     -51.284809     -1395.5306   10-A'
  10   1.0000     -51.284225     -1395.5147   11-A'
  11   1.0000     -51.284114     -1395.5117   12-A'
  12   1.0000     -51.283719     -1395.5009   13-A'
  13   1.0000     -51.283700     -1395.5004   14-A'
  14   1.0000     -51.283130     -1395.4849    1-A"
  15   1.0000     -51.282695     -1395.4731   15-A'
  16   1.0000     -51.282638     -1395.4715   16-A'
  17   1.0000     -51.282510     -1395.4680   17-A'
  18   1.0000     -51.282341     -1395.4634    2-A"
  19   1.0000     -51.282306     -1395.4625    3-A"
  20   1.0000     -51.282046     -1395.4554    4-A"
  21   1.0000     -38.023736     -1034.6785   18-A'
  22   1.0000     -33.525801      -912.2834   19-A'
  23   1.0000     -33.524967      -912.2607   20-A'
  24   1.0000     -33.513990      -911.9620    5-A"
  25   1.0000      -9.814918      -267.0775   21-A'
  26   1.0000      -9.814341      -267.0618   22-A'
  27   1.0000      -9.813282      -267.0330   23-A'
  28   1.0000      -9.811391      -266.9815   24-A'
  29   1.0000      -9.810540      -266.9584   25-A'
  30   1.0000      -9.810174      -266.9484   26-A'
  31   1.0000      -9.807818      -266.8843   27-A'
  32   1.0000      -9.806525      -266.8491   28-A'
  33   1.0000      -9.803626      -266.7702   29-A'
  34   1.0000      -9.801431      -266.7105   30-A'
  35   1.0000      -9.800838      -266.6944   31-A'
  36   1.0000      -9.799511      -266.6583   32-A'
  37   1.0000      -7.339384      -199.7148   33-A'
  38   1.0000      -7.339232      -199.7107   34-A'
  39   1.0000      -7.332420      -199.5253   35-A'
  40   1.0000      -7.331568      -199.5021   36-A'
  41   1.0000      -5.402925      -147.0211   37-A'
  42   1.0000      -5.402380      -147.0062   38-A'
  43   1.0000      -5.402015      -146.9963   39-A'
  44   1.0000      -5.401024      -146.9693   40-A'
  45   1.0000      -5.397308      -146.8682   41-A'
  46   1.0000      -5.397149      -146.8639   42-A'
  47   1.0000      -5.397001      -146.8599    6-A"
  48   1.0000      -5.396682      -146.8512    7-A"
  49   1.0000      -5.396512      -146.8466   43-A'
  50   1.0000      -5.396314      -146.8412    8-A"
  51   1.0000      -5.395921      -146.8305   44-A'
  52   1.0000      -5.395506      -146.8192    9-A"
  53   1.0000      -4.018075      -109.3374   45-A'
  54   1.0000      -2.537614       -69.0520   46-A'
  55   1.0000      -2.536524       -69.0223   47-A'
  56   1.0000      -2.513412       -68.3934   10-A"
  57   1.0000      -1.741995       -47.4021   48-A'
  58   1.0000      -1.741513       -47.3890   49-A'
  59   1.0000      -1.740992       -47.3748   50-A'
  60   1.0000      -1.740474       -47.3607   51-A'
  61   1.0000      -1.738954       -47.3193   52-A'
  62   1.0000      -1.738860       -47.3168   53-A'
  63   1.0000      -1.738401       -47.3043   11-A"
  64   1.0000      -1.738178       -47.2982   54-A'
  65   1.0000      -1.737989       -47.2931   12-A"
  66   1.0000      -1.737562       -47.2815   13-A"
  67   1.0000      -1.737455       -47.2786   55-A'
  68   1.0000      -1.736755       -47.2595   14-A"
  69   1.0000      -1.733779       -47.1785   56-A'
  70   1.0000      -1.733776       -47.1785   15-A"
  71   1.0000      -1.733702       -47.1764   57-A'
  72   1.0000      -1.733643       -47.1748   16-A"
  73   1.0000      -1.733103       -47.1601   17-A"
  74   1.0000      -1.733060       -47.1590   58-A'
  75   1.0000      -1.732485       -47.1433   59-A'
  76   1.0000      -1.732392       -47.1408   18-A"
  77   1.0000      -0.607112       -16.5204   60-A'
  78   1.0000      -0.605933       -16.4883   61-A'
  79   1.0000      -0.524166       -14.2633   62-A'
  80   1.0000      -0.522808       -14.2263   63-A'
  81   1.0000      -0.503881       -13.7113   64-A'
  82   1.0000      -0.501215       -13.6388   65-A'
  83   1.0000      -0.416394       -11.3306   66-A'
  84   1.0000      -0.413796       -11.2600   67-A'
  85   1.0000      -0.380605       -10.3568   68-A'
  86   1.0000      -0.375848       -10.2274   69-A'
  87   1.0000      -0.322190        -8.7672   70-A'
  88   1.0000      -0.319773        -8.7015   71-A'
  89   1.0000      -0.284133        -7.7317   72-A'
  90   1.0000      -0.280898        -7.6436   73-A'
  91   1.0000      -0.229701        -6.2505   74-A'
  92   1.0000      -0.223019        -6.0687   75-A'
  93   1.0000      -0.202706        -5.5159   76-A'
  94   1.0000      -0.201385        -5.4800   77-A'
  95   1.0000      -0.170838        -4.6487   78-A'
  96   1.0000      -0.165500        -4.5035   79-A'
  97   1.0000      -0.148311        -4.0357   80-A'
  98   1.0000      -0.139173        -3.7871   81-A'
  99   1.0000      -0.133133        -3.6227   19-A"
 100   1.0000      -0.132442        -3.6039   20-A"
 101   1.0000      -0.128518        -3.4971   82-A'
 102   1.0000      -0.105240        -2.8637   83-A'
 103   1.0000      -0.083978        -2.2852   84-A'
 104   1.0000      -0.067729        -1.8430   85-A'
 105   1.0000      -0.067074        -1.8252   86-A'
 106   1.0000      -0.060221        -1.6387   87-A'
 107   1.0000      -0.049938        -1.3589   21-A"
 108   1.0000      -0.048430        -1.3178   22-A"
 109   1.0000      -0.033537        -0.9126   23-A"
 110   1.0000      -0.028223        -0.7680   24-A"
 111   1.0000      -0.027239        -0.7412   88-A'
 112   1.0000      -0.024797        -0.6748   89-A'
 113   1.0000      -0.000106        -0.0029   25-A"
 114   1.0000       0.002272         0.0618   26-A"
 115   1.0000       0.004056         0.1104   90-A'
 116   1.0000       0.022514         0.6126   91-A'
 117   1.0000       0.025043         0.6815   92-A'
 118   1.0000       0.045851         1.2477   93-A'
 119   1.0000       0.054304         1.4777   27-A"
 120   1.0000       0.056432         1.5356   28-A"
 121   1.0000       0.074604         2.0301   29-A"
 122   1.0000       0.102861         2.7990   30-A"
 123   1.0000       0.119638         3.2555   94-A'
 124   0.0000       0.181187         4.9304   95-A'
 125   0.0000       0.182569         4.9680   96-A'
 126   0.0000       0.195825         5.3287   97-A'
 127   0.0000       0.196833         5.3561   98-A'
 128   0.0000       0.202026         5.4974   31-A"

                 SPIN DOWN ORBITALS
  NO   OCC          E(Eh)            E(eV)    Irrep
   0   1.0000    -443.560437    -12069.8931    1-A'
   1   1.0000    -443.558437    -12069.8387    2-A'
   2   1.0000    -443.545090    -12069.4755    3-A'
   3   1.0000    -443.544110    -12069.4488    4-A'
   4   1.0000    -318.183181     -8658.2045    5-A'
   5   1.0000     -56.368703     -1533.8704    6-A'
   6   1.0000     -56.367620     -1533.8409    7-A'
   7   1.0000     -56.355243     -1533.5041    8-A'
   8   1.0000     -56.354894     -1533.4946    9-A'
   9   1.0000     -51.284420     -1395.5200   10-A'
  10   1.0000     -51.283933     -1395.5068   11-A'
  11   1.0000     -51.283809     -1395.5034   12-A'
  12   1.0000     -51.283368     -1395.4914   13-A'
  13   1.0000     -51.282873     -1395.4779   14-A'
  14   1.0000     -51.282846     -1395.4772    1-A"
  15   1.0000     -51.282110     -1395.4571    2-A"
  16   1.0000     -51.282074     -1395.4562    3-A"
  17   1.0000     -51.282005     -1395.4543   15-A'
  18   1.0000     -51.281975     -1395.4535   16-A'
  19   1.0000     -51.281785     -1395.4483    4-A"
  20   1.0000     -51.281752     -1395.4474   17-A'
  21   1.0000     -38.010025     -1034.3054   18-A'
  22   1.0000     -33.512774      -911.9290   19-A'
  23   1.0000     -33.511940      -911.9062   20-A'
  24   1.0000     -33.510155      -911.8577    5-A"
  25   1.0000      -9.814824      -267.0749   21-A'
  26   1.0000      -9.814300      -267.0607   22-A'
  27   1.0000      -9.813246      -267.0320   23-A'
  28   1.0000      -9.811437      -266.9828   24-A'
  29   1.0000      -9.810441      -266.9557   25-A'
  30   1.0000      -9.810106      -266.9466   26-A'
  31   1.0000      -9.807703      -266.8812   27-A'
  32   1.0000      -9.806555      -266.8499   28-A'
  33   1.0000      -9.803619      -266.7700   29-A'
  34   1.0000      -9.801434      -266.7106   30-A'
  35   1.0000      -9.800651      -266.6893   31-A'
  36   1.0000      -9.799370      -266.6544   32-A'
  37   1.0000      -7.338970      -199.7035   33-A'
  38   1.0000      -7.338837      -199.6999   34-A'
  39   1.0000      -7.332010      -199.5141   35-A'
  40   1.0000      -7.331164      -199.4911   36-A'
  41   1.0000      -5.402597      -147.0121   37-A'
  42   1.0000      -5.401950      -146.9945   38-A'
  43   1.0000      -5.401672      -146.9870   39-A'
  44   1.0000      -5.400637      -146.9588   40-A'
  45   1.0000      -5.396704      -146.8518    6-A"
  46   1.0000      -5.396411      -146.8438   41-A'
  47   1.0000      -5.396372      -146.8428   42-A'
  48   1.0000      -5.396343      -146.8420    7-A"
  49   1.0000      -5.396014      -146.8330    8-A"
  50   1.0000      -5.395737      -146.8255   43-A'
  51   1.0000      -5.395185      -146.8105    9-A"
  52   1.0000      -5.395061      -146.8071   44-A'
  53   1.0000      -3.990273      -108.5809   45-A'
  54   1.0000      -2.503210       -68.1158   10-A"
  55   1.0000      -2.502881       -68.1069   46-A'
  56   1.0000      -2.501744       -68.0759   47-A'
  57   1.0000      -1.741471       -47.3878   48-A'
  58   1.0000      -1.741106       -47.3779   49-A'
  59   1.0000      -1.740573       -47.3634   50-A'
  60   1.0000      -1.740001       -47.3478   51-A'
  61   1.0000      -1.738107       -47.2963   11-A"
  62   1.0000      -1.738083       -47.2956   52-A'
  63   1.0000      -1.737896       -47.2906   53-A'
  64   1.0000      -1.737642       -47.2837   12-A"
  65   1.0000      -1.737334       -47.2753   54-A'
  66   1.0000      -1.737265       -47.2734   13-A"
  67   1.0000      -1.736515       -47.2530   55-A'
  68   1.0000      -1.736434       -47.2508   14-A"
  69   1.0000      -1.733030       -47.1581   56-A'
  70   1.0000      -1.732942       -47.1557   15-A"
  71   1.0000      -1.732916       -47.1550   16-A"
  72   1.0000      -1.732824       -47.1525   57-A'
  73   1.0000      -1.732374       -47.1403   17-A"
  74   1.0000      -1.732300       -47.1383   58-A'
  75   1.0000      -1.731650       -47.1206   59-A'
  76   1.0000      -1.731595       -47.1191   18-A"
  77   1.0000      -0.606254       -16.4970   60-A'
  78   1.0000      -0.605120       -16.4661   61-A'
  79   1.0000      -0.522935       -14.2298   62-A'
  80   1.0000      -0.521669       -14.1953   63-A'
  81   1.0000      -0.502183       -13.6651   64-A'
  82   1.0000      -0.499545       -13.5933   65-A'
  83   1.0000      -0.413731       -11.2582   66-A'
  84   1.0000      -0.411160       -11.1882   67-A'
  85   1.0000      -0.378200       -10.2913   68-A'
  86   1.0000      -0.373598       -10.1661   69-A'
  87   1.0000      -0.320350        -8.7172   70-A'
  88   1.0000      -0.317795        -8.6476   71-A'
  89   1.0000      -0.281681        -7.6649   72-A'
  90   1.0000      -0.278186        -7.5698   73-A'
  91   1.0000      -0.228344        -6.2136   74-A'
  92   1.0000      -0.221728        -6.0335   75-A'
  93   1.0000      -0.201365        -5.4794   76-A'
  94   1.0000      -0.200129        -5.4458   77-A'
  95   1.0000      -0.169372        -4.6089   78-A'
  96   1.0000      -0.163737        -4.4555   79-A'
  97   1.0000      -0.146900        -3.9974   80-A'
  98   1.0000      -0.137561        -3.7432   81-A'
  99   1.0000      -0.132762        -3.6126   19-A"
 100   1.0000      -0.132062        -3.5936   20-A"
 101   1.0000      -0.126605        -3.4451   82-A'
 102   1.0000      -0.103516        -2.8168   83-A'
 103   1.0000      -0.082541        -2.2461   84-A'
 104   1.0000      -0.065624        -1.7857   85-A'
 105   1.0000      -0.062741        -1.7073   86-A'
 106   1.0000      -0.052056        -1.4165   87-A'
 107   1.0000      -0.049055        -1.3349   21-A"
 108   1.0000      -0.047672        -1.2972   22-A"
 109   1.0000      -0.031575        -0.8592   23-A"
 110   1.0000      -0.027257        -0.7417   24-A"
 111   1.0000      -0.019871        -0.5407   88-A'
 112   1.0000       0.002451         0.0667   89-A'
 113   1.0000       0.009561         0.2602   25-A"
 114   1.0000       0.013339         0.3630   26-A"
 115   1.0000       0.014368         0.3910   90-A'
 116   1.0000       0.033283         0.9057   91-A'
 117   1.0000       0.035336         0.9615   92-A'
 118   1.0000       0.056551         1.5388   27-A"
 119   1.0000       0.057109         1.5540   93-A'
 120   1.0000       0.059950         1.6313   28-A"
 121   1.0000       0.076373         2.0782   29-A"
 122   1.0000       0.106109         2.8874   30-A"
 123   0.0000       0.149122         4.0578   94-A'
 124   0.0000       0.183627         4.9967   95-A'
 125   0.0000       0.184731         5.0268   96-A'
 126   0.0000       0.199606         5.4316   97-A'
 127   0.0000       0.200583         5.4581   98-A'

MULLIKEN ATOMIC CHARGES AND SPIN POPULATIONS
--------------------------------------------
   0 Cu:    0.627032    0.306020
   1 Se:   -0.698892    0.177856
   2 C :    0.245868   -0.003063
   3 Se:   -0.645671    0.193828
   4 C :    0.259744   -0.003314
   5 Se:   -0.764007    0.165703
   6 C :    0.188985   -0.003700
   7 Se:   -0.793085    0.160193
   8 C :    0.162684   -0.004302
   9 C :   -0.149487   -0.000348
  10 C :   -0.033789   -0.000589
  11 C :   -0.159839    0.000623
  12 H :    0.086873    0.002672
  13 C :   -0.129035   -0.002135
  14 H :    0.061037    0.002210
  15 H :    0.008600    0.001308
  16 H :    0.023527    0.002310
  17 C :   -0.073020   -0.001352
  18 C :   -0.123420   -0.000864
  19 C :   -0.144929   -0.000242
  20 H :    0.091336    0.002841
  21 C :   -0.160701   -0.001398
  22 H :    0.084872    0.002423
  23 H :    0.015996    0.001422
  24 H :    0.019319    0.001897
Sum of atomic charges         :   -2.0000000

LOEWDIN ATOMIC CHARGES AND SPIN POPULATIONS
-------------------------------------------
   0 Cu:   -0.609168    0.385637
   1 Se:   -0.194615    0.127526
   2 C :    0.025234    0.010721
   3 Se:   -0.193642    0.137259
   4 C :    0.043259    0.009354
   5 Se:   -0.212054    0.116129
   6 C :    0.040552    0.012447
   7 Se:   -0.222911    0.112711
   8 C :    0.049494    0.012841
   9 C :    0.367869    0.005476
  10 C :    0.363257    0.010983
  11 C :    0.312716    0.001653
  12 H :   -0.480398    0.015394
  13 C :    0.308824   -0.000368
  14 H :   -0.423626    0.005570
  15 H :   -0.392861    0.000241
  16 H :   -0.420739    0.000685
  17 C :    0.364698    0.008466
  18 C :    0.373641    0.006247
  19 C :    0.313852    0.000848
  20 H :   -0.465565    0.011724
  21 C :    0.318282    0.000078
  22 H :   -0.448432    0.007584
  23 H :   -0.403833    0.000309
  24 H :   -0.413836    0.000487

  Mayer bond orders larger than 0.100000
B(  0-Cu,  1-Se) :   0.5480 B(  0-Cu,  3-Se) :   0.5537 B(  0-Cu,  5-Se) :   0.5531
B(  0-Cu,  7-Se) :   0.5559 B(  1-Se,  2-C ) :   1.0526 B(  2-C ,  6-C ) :   1.1344
B(  2-C , 17-C ) :   1.2361 B(  3-Se,  4-C ) :   1.0527 B(  4-C ,  8-C ) :   1.1474
B(  4-C , 10-C ) :   1.2297 B(  5-Se,  6-C ) :   1.0382 B(  6-C , 18-C ) :   1.2541
B(  7-Se,  8-C ) :   1.0174 B(  8-C ,  9-C ) :   1.2556 B(  9-C , 13-C ) :   1.3993
B(  9-C , 14-H ) :   0.9828 B( 10-C , 11-C ) :   1.3920 B( 10-C , 12-H ) :   0.9529
B( 11-C , 13-C ) :   1.2943 B( 11-C , 15-H ) :   1.0017 B( 13-C , 16-H ) :   0.9911
B( 17-C , 19-C ) :   1.3905 B( 17-C , 20-H ) :   0.9569 B( 18-C , 21-C ) :   1.3913
B( 18-C , 22-H ) :   0.9661 B( 19-C , 21-C ) :   1.3008 B( 19-C , 23-H ) :   0.9961
B( 21-C , 24-H ) :   0.9961

FINAL SINGLE POINT ENERGY    -11627.116381874870

DIPOLE MOMENT
-------------
                                X             Y             Z
Electronic contribution:     -0.51036       0.40378       0.00000
Nuclear contribution   :      0.77092      -0.42398       0.00000
                        -----------------------------------------
Total Dipole Moment    :      0.26056      -0.02020       0.00000
                        -----------------------------------------
Magnitude (a.u.)       :      0.26134
Magnitude (Debye)      :      0.66428

Rotational constants in cm-1:     0.017694     0.004101     0.003330
Rotational constants in MHz :   530.447493   122.953535    99.816792

                             ****ORCA TERMINATED NORMALLY****
TOTAL RUN TIME: 0 days 17 hours 5 minutes 7 seconds 57 msec
