                         Program Version 5.0.4 -  RELEASE  -
|  1> ! RIJCOSX nofrozencore ReducedPop printbasis
|  2> ! M06L ano-rcc-dzp autoaux
|  3>
|  4> %maxcore 7500
|  5> %basis
|  6> PCDTrimBas overlap
|  7> PCDTrimAuxJ Coulomb
|  8> PCDTrimAuxJK Coulomb
|  9> PCDTrimAuxC Coulomb
| 10> PCDThresh -1
| 11> end
| 12>
| 13> %basis
| 14> newgto Cu "ano-rcc-tzp" end
| 15> newgto Se "ano-rcc-tzp" end
| 16> end
| 17>
| 18> %pal
| 19> nprocs 8
| 20> end
| 21>
| 22> % sym SymThresh 1e-2 end
| 23> * xyz -2 2
| 24> Cu 0.00038296948601582143 1.1464976039633638e-05 -0.0003978629501539294
| 25> Se 1.4335260308790518 -0.4684690813650518 1.8272455431238943
| 26> C 0.4216924777631564 -0.5291635413184548 3.075604525804688
| 27> Se 1.7038207157414778 0.03223112005976773 -1.6483103665632548
| 28> C 0.8851473903744366 0.3371565744165475 -2.9343028054285782
| 29> Se -1.7072340373984816 -0.030470067425265878 1.6397726386521334
| 30> C -0.9226220015998181 -0.35057947786208377 3.0530115269009213
| 31> Se -1.430274865750478 0.4685629741144069 -1.8306008504806597
| 32> C -0.4127694171448475 0.520185416846693 -3.024915664353956
| 33> C -1.0068788314198043 0.8114675136159687 -4.4121231501182745
| 34> C 1.695497641231627 0.43267522007209397 -4.238309367869051
| 35> C 1.144223172940707 0.6993449724421724 -5.5020808330408375
| 36> H 2.7984429213214255 0.34000025635706177 -4.568975656770798
| 37> C -0.28425687021677504 0.8970301479444149 -5.577453968689063
| 38> H -2.052165638268202 1.0057998506870494 -4.789449175352649
| 39> H 1.7749114488865358 0.7543697001881644 -6.39170216572006
| 40> H -0.7098586715636603 1.1051664828756829 -6.567774607652357
| 41> C 0.971476743188894 -0.804990030312224 4.400019682477117
| 42> C -1.6562511626340075 -0.4404039353645283 4.255280046335603
| 43> C 0.2837629657900029 -0.8951552815980123 5.565711978074166
| 44> H 2.0253810609939866 -0.9812219930874347 4.65267848277542
| 45> C -1.1210486735016927 -0.6991988037067873 5.481556529290115
| 46> H -2.7146191411656972 -0.2718256639637198 4.05602891505836
| 47> H 0.702517009235406 -1.1019497448239948 6.553114627824106
| 48> H -1.8119501753515654 -0.7386021124489839 6.3207314231303435
| 49> *
| 50>
| 51> % eprnmr
| 52> gtensor true
| 53> Nuclei = all H {aiso,adip,aorb,fgrad,rho}
| 54> Nuclei = all Cu {aiso,adip,aorb,fgrad,rho}
| 55> end
| 56>
| 57>                          ****END OF INPUT****

CARTESIAN COORDINATES (ANGSTROEM)
---------------------------------
  Cu    -0.000399    0.000382    0.000000
  Se     1.862978    1.463762    0.000000
  C      3.115987    0.455862    0.000000
  Se    -1.650798    1.701716    0.000000
  C     -2.960051    0.863360    0.000000
  Se     1.642126   -1.705242    0.000000
  C      3.079785   -0.899967    0.000000
  Se    -1.866341   -1.460517    0.000000
  C     -3.064612   -0.446359    0.000000
  C     -4.474042   -1.059272    0.000000
  C     -4.271361    1.667530    0.000000
  C     -5.555478    1.099041    0.000000
  H     -4.594972    2.776446    0.000000
  C     -5.645916   -0.342187    0.000000
  H     -4.866184   -2.117096    0.000000
  H     -6.449309    1.726167    0.000000
  H     -6.652116   -0.781225    0.000000
  C      4.461445    1.023453    0.000000
  C      4.288922   -1.627785    0.000000
  C      5.634031    0.341572    0.000000
  H      4.727538    2.088724    0.000000
  C      5.534942   -1.075876    0.000000
  H      4.076821   -2.697026    0.000000
  H      6.637210    0.773676    0.000000
  H      6.377136   -1.764223    0.000000

 Total Charge           Charge          ....   -2
 Multiplicity           Mult            ....    2
 Number of Electrons    NEL             ....  247
 Basis Dimension        Dim             ....  575

ORBITAL ENERGIES
----------------
                 SPIN UP ORBITALS
  NO   OCC          E(Eh)            E(eV)    Irrep
   0   1.0000    -443.575481    -12070.3025    1-A'
   1   1.0000    -443.564084    -12069.9924    2-A'
   2   1.0000    -443.554588    -12069.7339    3-A'
   3   1.0000    -443.545094    -12069.4756    4-A'
   4   1.0000    -318.185626     -8658.2711    5-A'
   5   1.0000     -56.380066     -1534.1796    6-A'
   6   1.0000     -56.371830     -1533.9555    7-A'
   7   1.0000     -56.361481     -1533.6739    8-A'
   8   1.0000     -56.355575     -1533.5132    9-A'
   9   1.0000     -51.289901     -1395.6692   10-A'
  10   1.0000     -51.288965     -1395.6437   11-A'
  11   1.0000     -51.288896     -1395.6418   12-A'
  12   1.0000     -51.288781     -1395.6387   13-A'
  13   1.0000     -51.288486     -1395.6306    1-A"
  14   1.0000     -51.287733     -1395.6102   14-A'
  15   1.0000     -51.287683     -1395.6088   15-A'
  16   1.0000     -51.287425     -1395.6018    2-A"
  17   1.0000     -51.287335     -1395.5993    3-A"
  18   1.0000     -51.282818     -1395.4764   16-A'
  19   1.0000     -51.281489     -1395.4403   17-A'
  20   1.0000     -51.280986     -1395.4266    4-A"
  21   1.0000     -38.026511     -1034.7540   18-A'
  22   1.0000     -33.528502      -912.3569   19-A'
  23   1.0000     -33.527770      -912.3370   20-A'
  24   1.0000     -33.516654      -912.0345    5-A"
  25   1.0000      -9.830665      -267.5060   21-A'
  26   1.0000      -9.826830      -267.4016   22-A'
  27   1.0000      -9.818727      -267.1811   23-A'
  28   1.0000      -9.818503      -267.1751   24-A'
  29   1.0000      -9.818416      -267.1727   25-A'
  30   1.0000      -9.816564      -267.1223   26-A'
  31   1.0000      -9.815613      -267.0964   27-A'
  32   1.0000      -9.815503      -267.0934   28-A'
  33   1.0000      -9.815001      -267.0798   29-A'
  34   1.0000      -9.812790      -267.0196   30-A'
  35   1.0000      -9.808971      -266.9157   31-A'
  36   1.0000      -9.804277      -266.7880   32-A'
  37   1.0000      -7.346993      -199.9218   33-A'
  38   1.0000      -7.342430      -199.7977   34-A'
  39   1.0000      -7.337212      -199.6557   35-A'
  40   1.0000      -7.332288      -199.5217   36-A'
  41   1.0000      -5.406965      -147.1310   37-A'
  42   1.0000      -5.406158      -147.1090   38-A'
  43   1.0000      -5.406129      -147.1082   39-A'
  44   1.0000      -5.401721      -146.9883    6-A"
  45   1.0000      -5.401693      -146.9875   40-A'
  46   1.0000      -5.401157      -146.9730   41-A'
  47   1.0000      -5.400928      -146.9667   42-A'
  48   1.0000      -5.400889      -146.9657    7-A"
  49   1.0000      -5.400834      -146.9642   43-A'
  50   1.0000      -5.400750      -146.9619    8-A"
  51   1.0000      -5.395901      -146.8299   44-A'
  52   1.0000      -5.395327      -146.8143    9-A"
  53   1.0000      -4.020827      -109.4123   45-A'
  54   1.0000      -2.540224       -69.1230   46-A'
  55   1.0000      -2.539542       -69.1044   47-A'
  56   1.0000      -2.516004       -68.4640   10-A"
  57   1.0000      -1.747529       -47.5527   48-A'
  58   1.0000      -1.746374       -47.5213   49-A'
  59   1.0000      -1.745638       -47.5012   50-A'
  60   1.0000      -1.743475       -47.4424   51-A'
  61   1.0000      -1.742945       -47.4279   11-A"
  62   1.0000      -1.742609       -47.4188   52-A'
  63   1.0000      -1.742396       -47.4130   53-A'
  64   1.0000      -1.742155       -47.4065   12-A"
  65   1.0000      -1.741959       -47.4011   13-A"
  66   1.0000      -1.740081       -47.3500   54-A'
  67   1.0000      -1.738541       -47.3081   14-A"
  68   1.0000      -1.738481       -47.3065   55-A'
  69   1.0000      -1.737746       -47.2865   56-A'
  70   1.0000      -1.737628       -47.2833   15-A"
  71   1.0000      -1.737584       -47.2821   57-A'
  72   1.0000      -1.737491       -47.2795   58-A'
  73   1.0000      -1.737455       -47.2786   16-A"
  74   1.0000      -1.736604       -47.2554   17-A"
  75   1.0000      -1.732336       -47.1393   18-A"
  76   1.0000      -1.732267       -47.1374   59-A'
  77   1.0000      -0.600564       -16.3422   60-A'
  78   1.0000      -0.598960       -16.2985   61-A'
  79   1.0000      -0.527015       -14.3408   62-A'
  80   1.0000      -0.523362       -14.2414   63-A'
  81   1.0000      -0.496314       -13.5054   64-A'
  82   1.0000      -0.491809       -13.3828   65-A'
  83   1.0000      -0.429042       -11.6748   66-A'
  84   1.0000      -0.418239       -11.3809   67-A'
  85   1.0000      -0.376447       -10.2436   68-A'
  86   1.0000      -0.368622       -10.0307   69-A'
  87   1.0000      -0.325298        -8.8518   70-A'
  88   1.0000      -0.322436        -8.7739   71-A'
  89   1.0000      -0.280342        -7.6285   72-A'
  90   1.0000      -0.261788        -7.1236   73-A'
  91   1.0000      -0.227162        -6.1814   74-A'
  92   1.0000      -0.224735        -6.1154   75-A'
  93   1.0000      -0.205175        -5.5831   76-A'
  94   1.0000      -0.202053        -5.4981   77-A'
  95   1.0000      -0.172389        -4.6910   78-A'
  96   1.0000      -0.161909        -4.4058   79-A'
  97   1.0000      -0.140234        -3.8159   80-A'
  98   1.0000      -0.134367        -3.6563   81-A'
  99   1.0000      -0.130935        -3.5629   19-A"
 100   1.0000      -0.129470        -3.5231   20-A"
 101   1.0000      -0.121161        -3.2970   82-A'
 102   1.0000      -0.102525        -2.7898   83-A'
 103   1.0000      -0.073123        -1.9898   84-A'
 104   1.0000      -0.068800        -1.8722   85-A'
 105   1.0000      -0.061802        -1.6817   86-A'
 106   1.0000      -0.059663        -1.6235   87-A'
 107   1.0000      -0.053034        -1.4431   21-A"
 108   1.0000      -0.050005        -1.3607   22-A"
 109   1.0000      -0.033101        -0.9007   88-A'
 110   1.0000      -0.031030        -0.8444   23-A"
 111   1.0000      -0.028152        -0.7661   89-A'
 112   1.0000      -0.023224        -0.6320   24-A"
 113   1.0000      -0.000478        -0.0130   25-A"
 114   1.0000       0.000886         0.0241   26-A"
 115   1.0000       0.000942         0.0256   90-A'
 116   1.0000       0.019712         0.5364   91-A'
 117   1.0000       0.024009         0.6533   92-A'
 118   1.0000       0.039829         1.0838   93-A'
 119   1.0000       0.047580         1.2947   27-A"
 120   1.0000       0.052174         1.4197   28-A"
 121   1.0000       0.075836         2.0636   29-A"
 122   1.0000       0.106086         2.8868   30-A"
 123   1.0000       0.117448         3.1959   94-A'
 124   0.0000       0.180513         4.9120   95-A'
 125   0.0000       0.181425         4.9368   96-A'
 126   0.0000       0.184943         5.0326   31-A"
 127   0.0000       0.194242         5.2856   97-A'
 128   0.0000       0.196347         5.3429   98-A'

                 SPIN DOWN ORBITALS
  NO   OCC          E(Eh)            E(eV)    Irrep
   0   1.0000    -443.575032    -12070.2903    1-A'
   1   1.0000    -443.563624    -12069.9798    2-A'
   2   1.0000    -443.554139    -12069.7217    3-A'
   3   1.0000    -443.544639    -12069.4632    4-A'
   4   1.0000    -318.185503     -8658.2677    5-A'
   5   1.0000     -56.379885     -1534.1747    6-A'
   6   1.0000     -56.371644     -1533.9504    7-A'
   7   1.0000     -56.361304     -1533.6690    8-A'
   8   1.0000     -56.355393     -1533.5082    9-A'
   9   1.0000     -51.289530     -1395.6591   10-A'
  10   1.0000     -51.288624     -1395.6344   11-A'
  11   1.0000     -51.288535     -1395.6320   12-A'
  12   1.0000     -51.288237     -1395.6239    1-A"
  13   1.0000     -51.288095     -1395.6200   13-A'
  14   1.0000     -51.287179     -1395.5951    2-A"
  15   1.0000     -51.287079     -1395.5924    3-A"
  16   1.0000     -51.287047     -1395.5915   14-A'
  17   1.0000     -51.286947     -1395.5888   15-A'
  18   1.0000     -51.282486     -1395.4674   16-A'
  19   1.0000     -51.280764     -1395.4205   17-A'
  20   1.0000     -51.280736     -1395.4198    4-A"
  21   1.0000     -38.012595     -1034.3753   18-A'
  22   1.0000     -33.515283      -911.9972   19-A'
  23   1.0000     -33.514550      -911.9773   20-A'
  24   1.0000     -33.512760      -911.9286    5-A"
  25   1.0000      -9.830463      -267.5005   21-A'
  26   1.0000      -9.826642      -267.3965   22-A'
  27   1.0000      -9.818665      -267.1795   23-A'
  28   1.0000      -9.818446      -267.1735   24-A'
  29   1.0000      -9.818358      -267.1711   25-A'
  30   1.0000      -9.816595      -267.1231   26-A'
  31   1.0000      -9.815571      -267.0953   27-A'
  32   1.0000      -9.815530      -267.0942   28-A'
  33   1.0000      -9.814860      -267.0759   29-A'
  34   1.0000      -9.812830      -267.0207   30-A'
  35   1.0000      -9.808822      -266.9116   31-A'
  36   1.0000      -9.804294      -266.7884   32-A'
  37   1.0000      -7.346601      -199.9112   33-A'
  38   1.0000      -7.342025      -199.7867   34-A'
  39   1.0000      -7.336811      -199.6448   35-A'
  40   1.0000      -7.331880      -199.5106   36-A'
  41   1.0000      -5.406575      -147.1204   37-A'
  42   1.0000      -5.405777      -147.0987   38-A'
  43   1.0000      -5.405750      -147.0979   39-A'
  44   1.0000      -5.401413      -146.9799    6-A"
  45   1.0000      -5.400891      -146.9657   40-A'
  46   1.0000      -5.400788      -146.9629   41-A'
  47   1.0000      -5.400583      -146.9573    7-A"
  48   1.0000      -5.400430      -146.9532    8-A"
  49   1.0000      -5.400135      -146.9451   42-A'
  50   1.0000      -5.400002      -146.9415   43-A'
  51   1.0000      -5.395080      -146.8076   44-A'
  52   1.0000      -5.395013      -146.8058    9-A"
  53   1.0000      -3.992491      -108.6412   45-A'
  54   1.0000      -2.505648       -68.1821   10-A"
  55   1.0000      -2.504854       -68.1605   46-A'
  56   1.0000      -2.504115       -68.1404   47-A'
  57   1.0000      -1.747084       -47.5406   48-A'
  58   1.0000      -1.745933       -47.5093   49-A'
  59   1.0000      -1.745187       -47.4890   50-A'
  60   1.0000      -1.742620       -47.4191   11-A"
  61   1.0000      -1.742561       -47.4175   51-A'
  62   1.0000      -1.741834       -47.3977   12-A"
  63   1.0000      -1.741710       -47.3943   52-A'
  64   1.0000      -1.741635       -47.3923   13-A"
  65   1.0000      -1.741480       -47.3881   53-A'
  66   1.0000      -1.739615       -47.3373   54-A'
  67   1.0000      -1.737787       -47.2876   14-A"
  68   1.0000      -1.737681       -47.2847   55-A'
  69   1.0000      -1.736961       -47.2651   56-A'
  70   1.0000      -1.736885       -47.2630   15-A"
  71   1.0000      -1.736757       -47.2596   57-A'
  72   1.0000      -1.736676       -47.2574   16-A"
  73   1.0000      -1.736599       -47.2553   58-A'
  74   1.0000      -1.736288       -47.2468   17-A"
  75   1.0000      -1.731571       -47.1184   18-A"
  76   1.0000      -1.731472       -47.1158   59-A'
  77   1.0000      -0.599690       -16.3184   60-A'
  78   1.0000      -0.597620       -16.2621   61-A'
  79   1.0000      -0.526236       -14.3196   62-A'
  80   1.0000      -0.522267       -14.2116   63-A'
  81   1.0000      -0.494604       -13.4589   64-A'
  82   1.0000      -0.489354       -13.3160   65-A'
  83   1.0000      -0.426936       -11.6175   66-A'
  84   1.0000      -0.415528       -11.3071   67-A'
  85   1.0000      -0.373956       -10.1759   68-A'
  86   1.0000      -0.366266        -9.9666   69-A'
  87   1.0000      -0.323625        -8.8063   70-A'
  88   1.0000      -0.320480        -8.7207   71-A'
  89   1.0000      -0.277954        -7.5635   72-A'
  90   1.0000      -0.259385        -7.0582   73-A'
  91   1.0000      -0.226287        -6.1576   74-A'
  92   1.0000      -0.223755        -6.0887   75-A'
  93   1.0000      -0.203490        -5.5372   76-A'
  94   1.0000      -0.200366        -5.4522   77-A'
  95   1.0000      -0.170315        -4.6345   78-A'
  96   1.0000      -0.159594        -4.3428   79-A'
  97   1.0000      -0.139145        -3.7863   80-A'
  98   1.0000      -0.132112        -3.5950   81-A'
  99   1.0000      -0.130311        -3.5459   19-A"
 100   1.0000      -0.129053        -3.5117   20-A"
 101   1.0000      -0.119958        -3.2642   82-A'
 102   1.0000      -0.100125        -2.7245   83-A'
 103   1.0000      -0.071784        -1.9533   84-A'
 104   1.0000      -0.067114        -1.8263   85-A'
 105   1.0000      -0.059030        -1.6063   86-A'
 106   1.0000      -0.052549        -1.4299   21-A"
 107   1.0000      -0.051611        -1.4044   87-A'
 108   1.0000      -0.049235        -1.3397   22-A"
 109   1.0000      -0.028220        -0.7679   23-A"
 110   1.0000      -0.022018        -0.5992   88-A'
 111   1.0000      -0.021965        -0.5977   24-A"
 112   1.0000      -0.003280        -0.0893   89-A'
 113   1.0000       0.009754         0.2654   25-A"
 114   1.0000       0.011134         0.3030   90-A'
 115   1.0000       0.011214         0.3052   26-A"
 116   1.0000       0.031906         0.8682   91-A'
 117   1.0000       0.032887         0.8949   92-A'
 118   1.0000       0.049506         1.3471   27-A"
 119   1.0000       0.050834         1.3833   93-A'
 120   1.0000       0.055537         1.5113   28-A"
 121   1.0000       0.077610         2.1119   29-A"
 122   1.0000       0.109234         2.9724   30-A"
 123   0.0000       0.147116         4.0032   94-A'
 124   0.0000       0.183084         4.9820   95-A'
 125   0.0000       0.183608         4.9962   96-A'
 126   0.0000       0.185156         5.0383   31-A"
 127   0.0000       0.198482         5.4010   97-A'

MULLIKEN ATOMIC CHARGES AND SPIN POPULATIONS
--------------------------------------------
   0 Cu:    0.615107    0.309165
   1 Se:   -0.680413    0.175743
   2 C :    0.176695   -0.004722
   3 Se:   -0.605200    0.172242
   4 C :    0.125841   -0.004928
   5 Se:   -0.748633    0.172943
   6 C :    0.243690   -0.003607
   7 Se:   -0.622011    0.170530
   8 C :    0.124926   -0.004614
   9 C :   -0.150455    0.002545
  10 C :   -0.134504    0.003226
  11 C :   -0.096355   -0.000528
  12 H :    0.040365    0.000868
  13 C :   -0.089405   -0.000845
  14 H :    0.057623    0.001330
  15 H :    0.027059    0.002292
  16 H :    0.020817    0.002256
  17 C :   -0.114824   -0.000771
  18 C :   -0.104394    0.001289
  19 C :   -0.120891   -0.000488
  20 H :    0.077786    0.002368
  21 C :   -0.174266   -0.001395
  22 H :    0.087833    0.001803
  23 H :    0.018732    0.001973
  24 H :    0.024876    0.001327
Sum of atomic charges         :   -2.0000000

LOEWDIN ATOMIC CHARGES AND SPIN POPULATIONS
-------------------------------------------
   0 Cu:   -0.595572    0.390827
   1 Se:   -0.213782    0.127037
   2 C :    0.025037    0.012357
   3 Se:   -0.239126    0.121883
   4 C :   -0.010360    0.014373
   5 Se:   -0.207301    0.121620
   6 C :    0.038972    0.011296
   7 Se:   -0.234137    0.120723
   8 C :    0.006562    0.014081
   9 C :    0.405016    0.009865
  10 C :    0.409760    0.010471
  11 C :    0.314433    0.000932
  12 H :   -0.410781    0.003369
  13 C :    0.305028    0.000710
  14 H :   -0.424736    0.004058
  15 H :   -0.418620    0.000745
  16 H :   -0.408599    0.000775
  17 C :    0.380954    0.008037
  18 C :    0.372829    0.007595
  19 C :    0.313957    0.000728
  20 H :   -0.442125    0.006263
  21 C :    0.318600    0.000045
  22 H :   -0.464705    0.011398
  23 H :   -0.401690    0.000653
  24 H :   -0.419616    0.000161

  Mayer bond orders larger than 0.100000
B(  0-Cu,  1-Se) :   0.5542 B(  0-Cu,  3-Se) :   0.5723 B(  0-Cu,  5-Se) :   0.5453
B(  0-Cu,  7-Se) :   0.5715 B(  1-Se,  2-C ) :   1.0707 B(  2-C ,  6-C ) :   1.1598
B(  2-C , 17-C ) :   1.2109 B(  3-Se,  4-C ) :   1.1125 B(  4-C ,  8-C ) :   1.1844
B(  4-C , 10-C ) :   1.1648 B(  5-Se,  6-C ) :   1.0140 B(  6-C , 18-C ) :   1.2256
B(  7-Se,  8-C ) :   1.0981 B(  8-C ,  9-C ) :   1.1699 B(  9-C , 13-C ) :   1.4781
B(  9-C , 14-H ) :   0.9836 B( 10-C , 11-C ) :   1.4661 B( 10-C , 12-H ) :   0.9842
B( 11-C , 13-C ) :   1.2177 B( 11-C , 15-H ) :   0.9833 B( 13-C , 16-H ) :   0.9843
B( 17-C , 19-C ) :   1.4359 B( 17-C , 20-H ) :   0.9737 B( 18-C , 21-C ) :   1.4293
B( 18-C , 22-H ) :   0.9552 B( 19-C , 21-C ) :   1.2631 B( 19-C , 23-H ) :   0.9917
B( 21-C , 24-H ) :   0.9927

FINAL SINGLE POINT ENERGY    -11627.045788513642

DIPOLE MOMENT
-------------
                                X             Y             Z
Electronic contribution:      0.62333       0.05855      -0.00000
Nuclear contribution   :     -0.57202       0.00602       0.00000
                        -----------------------------------------
Total Dipole Moment    :      0.05132       0.06457      -0.00000
                        -----------------------------------------
Magnitude (a.u.)       :      0.08247
Magnitude (Debye)      :      0.20963

Rotational constants in cm-1:     0.017585     0.004092     0.003320
Rotational constants in MHz :   527.177671   122.689984    99.527065

                             ****ORCA TERMINATED NORMALLY****
TOTAL RUN TIME: 0 days 17 hours 3 minutes 56 seconds 598 msec
