                         Program Version 5.0.4 -  RELEASE  -
|  1> ! RIJCOSX nofrozencore ReducedPop printbasis
|  2> ! M06L ano-rcc-dzp autoaux
|  3>
|  4> %maxcore 7500
|  5> %basis
|  6> PCDTrimBas overlap
|  7> PCDTrimAuxJ Coulomb
|  8> PCDTrimAuxJK Coulomb
|  9> PCDTrimAuxC Coulomb
| 10> PCDThresh -1
| 11> end
| 12>
| 13> %basis
| 14> newgto Cu "ano-rcc-tzp" end
| 15> newgto Se "ano-rcc-tzp" end
| 16> end
| 17>
| 18> %pal
| 19> nprocs 8
| 20> end
| 21>
| 22> % sym SymThresh 1e-2 end
| 23> * xyz -2 2
| 24> Cu 0.0 0.0 0.0
| 25> Se -0.017130434557938255 -1.3064563693969502 -1.975091128938864
| 26> C 1.0755234061447039 -0.5417522186388524 -2.986673242193691
| 27> Se -1.1773376882532631 -1.5666468492431085 1.3294624329532985
| 28> C -1.314679638412146 -0.8484652873706409 2.7944186938641753
| 29> Se 1.1877857214923502 1.561603398762803 -1.326147230894956
| 30> C 1.0089772516371573 0.996033237637383 -2.8914192640849095
| 31> Se 0.006678937691057697 1.3115014918316665 1.9717748278577936
| 32> C -0.7697604058833291 0.39415500916992047 3.0836930453121614
| 33> C -0.9705487262659329 0.8798286431966208 4.371568305716767
| 34> C -1.9420861239346052 -1.5146326518107185 3.8419867273929373
| 35> C -2.1264786781192746 -1.0345732989960097 5.121145467663033
| 36> H -2.3607268303202322 -2.483099807853133 3.6100012181492303
| 37> C -1.60549316894269 0.22118974033160582 5.4029473405040145
| 38> H -0.5464556386980584 1.8494750463360452 4.588218944086298
| 39> H -2.647144358748123 -1.6310481107529737 5.8629403454829
| 40> H -1.6942714353494732 0.6848247866384697 6.3798293508055846
| 41> C 0.8357732408092468 -0.8147698984996594 -4.4143341433488095
| 42> C 2.076800463334921 1.4496036569554214 -3.799241337418739
| 43> C 1.643687791865506 -0.23962672695769385 -5.390829082133549
| 44> H 0.7835078574659456 -1.9639038789009455 -4.513003433850339
| 45> C 2.0882883847312 1.053008195679084 -5.133262352255088
| 46> H 2.123856252778483 2.5974414261018106 -3.685161184456514
| 47> H 1.6852166463903209 -0.6804538798199253 -6.382702470971679
| 48> H 2.6562329576911945 1.6266617352706396 -5.860055367600839
| 49> *
| 50>
| 51> % eprnmr
| 52> gtensor true
| 53> Nuclei = all H {aiso,adip,aorb,fgrad,rho}
| 54> Nuclei = all Cu {aiso,adip,aorb,fgrad,rho}
| 55> end
| 56>
| 57>                          ****END OF INPUT****

CARTESIAN COORDINATES (ANGSTROEM)
---------------------------------
  Cu     0.000000   -0.000000    0.000000
  Se    -0.657683   -1.446421   -1.755969
  C      0.025370   -0.770667   -3.126639
  Se    -0.646661   -1.451337    1.755969
  C     -0.297083   -0.626835    3.126639
  Se     0.657683    1.446421   -1.755969
  C     -0.025370    0.770667   -3.126639
  Se     0.646661    1.451337    1.755969
  C      0.297083    0.626835    3.126639
  C      0.530826    1.207340    4.368893
  C     -0.530826   -1.207340    4.368893
  C     -0.284472   -0.633262    5.597896
  H     -0.990380   -2.184965    4.360734
  C      0.284472    0.633262    5.597896
  H      0.990380    2.184965    4.360734
  H     -0.520418   -1.167805    6.512078
  H      0.520418    1.167805    6.512078
  C     -0.672940   -1.143949   -4.368893
  C      0.672940    1.143949   -4.368893
  C     -0.244191   -0.651229   -5.597895
  H     -0.740459   -2.296443   -4.360735
  C      0.244191    0.651229   -5.597895
  H      0.740459    2.296443   -4.360735
  H     -0.529986   -1.163537   -6.512077
  H      0.529986    1.163537   -6.512077

 Total Charge           Charge          ....   -2
 Multiplicity           Mult            ....    2
 Number of Electrons    NEL             ....  247
 Basis Dimension        Dim             ....  575

ORBITAL ENERGIES
----------------
                 SPIN UP ORBITALS
  NO   OCC          E(Eh)            E(eV)    Irrep
   0   1.0000    -443.562607    -12069.9522    1-B
   1   1.0000    -443.548554    -12069.5697    1-A
   2   1.0000    -443.539297    -12069.3179    2-B
   3   1.0000    -443.538831    -12069.3052    2-A
   4   1.0000    -318.189709     -8658.3822    3-A
   5   1.0000     -56.371588     -1533.9489    3-B
   6   1.0000     -56.358768     -1533.6001    4-A
   7   1.0000     -56.356418     -1533.5361    4-B
   8   1.0000     -56.355988     -1533.5244    5-A
   9   1.0000     -51.287925     -1395.6154    5-B
  10   1.0000     -51.287877     -1395.6141    6-A
  11   1.0000     -51.286938     -1395.5885    6-B
  12   1.0000     -51.286928     -1395.5883    7-A
  13   1.0000     -51.286586     -1395.5790    7-B
  14   1.0000     -51.286528     -1395.5774    8-A
  15   1.0000     -51.286154     -1395.5672    9-A
  16   1.0000     -51.286106     -1395.5659    8-B
  17   1.0000     -51.285837     -1395.5586    9-B
  18   1.0000     -51.285826     -1395.5583   10-A
  19   1.0000     -51.285259     -1395.5429   10-B
  20   1.0000     -51.285248     -1395.5425   11-A
  21   1.0000     -38.030284     -1034.8566   12-A
  22   1.0000     -33.532297      -912.4602   11-B
  23   1.0000     -33.531309      -912.4333   13-A
  24   1.0000     -33.520730      -912.1454   12-B
  25   1.0000      -9.827417      -267.4176   14-A
  26   1.0000      -9.827309      -267.4147   13-B
  27   1.0000      -9.817897      -267.1586   15-A
  28   1.0000      -9.817528      -267.1485   16-A
  29   1.0000      -9.817495      -267.1476   14-B
  30   1.0000      -9.817080      -267.1363   15-B
  31   1.0000      -9.816881      -267.1309   17-A
  32   1.0000      -9.816846      -267.1300   16-B
  33   1.0000      -9.810093      -266.9462   18-A
  34   1.0000      -9.809645      -266.9340   17-B
  35   1.0000      -9.808143      -266.8931   19-A
  36   1.0000      -9.808140      -266.8931   18-B
  37   1.0000      -7.342816      -199.8082   19-B
  38   1.0000      -7.337555      -199.6650   20-B
  39   1.0000      -7.337315      -199.6585   20-A
  40   1.0000      -7.335532      -199.6100   21-A
  41   1.0000      -5.408864      -147.1827   21-B
  42   1.0000      -5.408857      -147.1825   22-A
  43   1.0000      -5.405746      -147.0978   22-B
  44   1.0000      -5.405728      -147.0973   23-A
  45   1.0000      -5.404302      -147.0585   24-A
  46   1.0000      -5.404294      -147.0583   23-B
  47   1.0000      -5.402849      -147.0190   24-B
  48   1.0000      -5.402835      -147.0186   25-A
  49   1.0000      -5.400440      -146.9534   25-B
  50   1.0000      -5.400415      -146.9528   26-A
  51   1.0000      -5.400082      -146.9437   27-A
  52   1.0000      -5.400057      -146.9430   26-B
  53   1.0000      -4.024386      -109.5091   28-A
  54   1.0000      -2.543798       -69.2203   27-B
  55   1.0000      -2.542529       -69.1857   29-A
  56   1.0000      -2.520091       -68.5752   28-B
  57   1.0000      -1.747559       -47.5535   30-A
  58   1.0000      -1.747537       -47.5529   29-B
  59   1.0000      -1.745406       -47.4949   31-A
  60   1.0000      -1.745401       -47.4948   30-B
  61   1.0000      -1.744794       -47.4783   32-A
  62   1.0000      -1.744765       -47.4775   31-B
  63   1.0000      -1.744527       -47.4710   33-A
  64   1.0000      -1.744466       -47.4693   32-B
  65   1.0000      -1.742041       -47.4033   34-A
  66   1.0000      -1.741959       -47.4011   33-B
  67   1.0000      -1.741335       -47.3841   34-B
  68   1.0000      -1.741329       -47.3840   35-A
  69   1.0000      -1.740563       -47.3631   36-A
  70   1.0000      -1.740504       -47.3615   35-B
  71   1.0000      -1.740418       -47.3592   36-B
  72   1.0000      -1.740412       -47.3590   37-A
  73   1.0000      -1.737011       -47.2665   38-A
  74   1.0000      -1.736947       -47.2647   37-B
  75   1.0000      -1.736904       -47.2636   38-B
  76   1.0000      -1.736883       -47.2630   39-A
  77   1.0000      -0.604252       -16.4425   40-A
  78   1.0000      -0.587495       -15.9865   41-A
  79   1.0000      -0.522982       -14.2311   42-A
  80   1.0000      -0.513399       -13.9703   43-A
  81   1.0000      -0.500942       -13.6313   39-B
  82   1.0000      -0.486828       -13.2473   40-B
  83   1.0000      -0.414342       -11.2748   41-B
  84   1.0000      -0.407831       -11.0977   42-B
  85   1.0000      -0.383345       -10.4313   44-A
  86   1.0000      -0.367948       -10.0124   45-A
  87   1.0000      -0.321345        -8.7442   46-A
  88   1.0000      -0.288055        -7.8384   47-A
  89   1.0000      -0.287927        -7.8349   43-B
  90   1.0000      -0.274610        -7.4725   44-B
  91   1.0000      -0.229798        -6.2531   48-A
  92   1.0000      -0.220250        -5.9933   49-A
  93   1.0000      -0.201595        -5.4857   50-A
  94   1.0000      -0.170689        -4.6447   45-B
  95   1.0000      -0.168459        -4.5840   51-A
  96   1.0000      -0.161255        -4.3880   46-B
  97   1.0000      -0.139570        -3.7979   47-B
  98   1.0000      -0.133018        -3.6196   52-A
  99   1.0000      -0.132058        -3.5935   48-B
 100   1.0000      -0.128351        -3.4926   49-B
 101   1.0000      -0.114196        -3.1074   50-B
 102   1.0000      -0.104536        -2.8446   53-A
 103   1.0000      -0.077438        -2.1072   51-B
 104   1.0000      -0.076956        -2.0941   54-A
 105   1.0000      -0.069850        -1.9007   52-B
 106   1.0000      -0.057094        -1.5536   55-A
 107   1.0000      -0.049908        -1.3581   53-B
 108   1.0000      -0.039672        -1.0795   54-B
 109   1.0000      -0.035733        -0.9723   56-A
 110   1.0000      -0.031537        -0.8582   57-A
 111   1.0000      -0.020103        -0.5470   58-A
 112   1.0000      -0.015793        -0.4298   55-B
 113   1.0000      -0.005032        -0.1369   59-A
 114   1.0000      -0.002923        -0.0795   56-B
 115   1.0000       0.000375         0.0102   60-A
 116   1.0000       0.017420         0.4740   61-A
 117   1.0000       0.033240         0.9045   62-A
 118   1.0000       0.039071         1.0632   57-B
 119   1.0000       0.052159         1.4193   63-A
 120   1.0000       0.053869         1.4659   64-A
 121   1.0000       0.066515         1.8100   58-B
 122   1.0000       0.094886         2.5820   59-B
 123   1.0000       0.115063         3.1310   60-B
 124   0.0000       0.162698         4.4273   65-A
 125   0.0000       0.167067         4.5461   61-B
 126   0.0000       0.181163         4.9297   66-A
 127   0.0000       0.183518         4.9938   67-A
 128   0.0000       0.195367         5.3162   62-B

                 SPIN DOWN ORBITALS
  NO   OCC          E(Eh)            E(eV)    Irrep
   0   1.0000    -443.562152    -12069.9398    1-B
   1   1.0000    -443.548098    -12069.5574    1-A
   2   1.0000    -443.538838    -12069.3054    2-B
   3   1.0000    -443.538373    -12069.2927    2-A
   4   1.0000    -318.189588     -8658.3789    3-A
   5   1.0000     -56.371404     -1533.9439    3-B
   6   1.0000     -56.358587     -1533.5951    4-A
   7   1.0000     -56.356234     -1533.5311    4-B
   8   1.0000     -56.355804     -1533.5194    5-A
   9   1.0000     -51.287600     -1395.6065    5-B
  10   1.0000     -51.287543     -1395.6050    6-A
  11   1.0000     -51.286632     -1395.5802    6-B
  12   1.0000     -51.286619     -1395.5799    7-A
  13   1.0000     -51.285903     -1395.5604    8-A
  14   1.0000     -51.285859     -1395.5592    7-B
  15   1.0000     -51.285843     -1395.5587    8-B
  16   1.0000     -51.285798     -1395.5575    9-A
  17   1.0000     -51.285226     -1395.5419   10-A
  18   1.0000     -51.285203     -1395.5413    9-B
  19   1.0000     -51.284867     -1395.5322   10-B
  20   1.0000     -51.284825     -1395.5310   11-A
  21   1.0000     -38.016541     -1034.4827   12-A
  22   1.0000     -33.519244      -912.1050   11-B
  23   1.0000     -33.518276      -912.0787   13-A
  24   1.0000     -33.516855      -912.0400   12-B
  25   1.0000      -9.827478      -267.4193   14-A
  26   1.0000      -9.827369      -267.4163   13-B
  27   1.0000      -9.817840      -267.1570   15-A
  28   1.0000      -9.817477      -267.1471   16-A
  29   1.0000      -9.817428      -267.1458   14-B
  30   1.0000      -9.817029      -267.1349   15-B
  31   1.0000      -9.816690      -267.1257   17-A
  32   1.0000      -9.816665      -267.1250   16-B
  33   1.0000      -9.810111      -266.9467   18-A
  34   1.0000      -9.809660      -266.9344   17-B
  35   1.0000      -9.808022      -266.8898   19-A
  36   1.0000      -9.808020      -266.8898   18-B
  37   1.0000      -7.342414      -199.7972   19-B
  38   1.0000      -7.337141      -199.6538   20-B
  39   1.0000      -7.336902      -199.6472   20-A
  40   1.0000      -7.335123      -199.5988   21-A
  41   1.0000      -5.408526      -147.1735   21-B
  42   1.0000      -5.408519      -147.1733   22-A
  43   1.0000      -5.405379      -147.0878   22-B
  44   1.0000      -5.405360      -147.0873   23-A
  45   1.0000      -5.403678      -147.0416   24-A
  46   1.0000      -5.403666      -147.0412   23-B
  47   1.0000      -5.402292      -147.0039   24-B
  48   1.0000      -5.402274      -147.0033   25-A
  49   1.0000      -5.399782      -146.9355   26-A
  50   1.0000      -5.399759      -146.9349   25-B
  51   1.0000      -5.399594      -146.9304   26-B
  52   1.0000      -5.399572      -146.9298   27-A
  53   1.0000      -3.996536      -108.7513   28-A
  54   1.0000      -2.509930       -68.2987   27-B
  55   1.0000      -2.508917       -68.2711   28-B
  56   1.0000      -2.507722       -68.2386   29-A
  57   1.0000      -1.747107       -47.5412   30-A
  58   1.0000      -1.747086       -47.5406   29-B
  59   1.0000      -1.744829       -47.4792   30-B
  60   1.0000      -1.744822       -47.4790   31-A
  61   1.0000      -1.744339       -47.4659   32-A
  62   1.0000      -1.744309       -47.4651   31-B
  63   1.0000      -1.743935       -47.4549   33-A
  64   1.0000      -1.743862       -47.4529   32-B
  65   1.0000      -1.741146       -47.3790   34-A
  66   1.0000      -1.741064       -47.3767   33-B
  67   1.0000      -1.741017       -47.3755   34-B
  68   1.0000      -1.741012       -47.3753   35-A
  69   1.0000      -1.739719       -47.3402   36-A
  70   1.0000      -1.739671       -47.3388   35-B
  71   1.0000      -1.739631       -47.3378   37-A
  72   1.0000      -1.739629       -47.3377   36-B
  73   1.0000      -1.736199       -47.2444   38-A
  74   1.0000      -1.736148       -47.2430   37-B
  75   1.0000      -1.736125       -47.2424   38-B
  76   1.0000      -1.736111       -47.2420   39-A
  77   1.0000      -0.603440       -16.4204   40-A
  78   1.0000      -0.586749       -15.9662   41-A
  79   1.0000      -0.521845       -14.2001   42-A
  80   1.0000      -0.512049       -13.9336   43-A
  81   1.0000      -0.499239       -13.5850   39-B
  82   1.0000      -0.485013       -13.1979   40-B
  83   1.0000      -0.411642       -11.2014   41-B
  84   1.0000      -0.405015       -11.0210   42-B
  85   1.0000      -0.380894       -10.3647   44-A
  86   1.0000      -0.365502        -9.9458   45-A
  87   1.0000      -0.319520        -8.6946   46-A
  88   1.0000      -0.286143        -7.7863   47-A
  89   1.0000      -0.285433        -7.7670   43-B
  90   1.0000      -0.272005        -7.4016   44-B
  91   1.0000      -0.228680        -6.2227   48-A
  92   1.0000      -0.219101        -5.9620   49-A
  93   1.0000      -0.200324        -5.4511   50-A
  94   1.0000      -0.169127        -4.6022   45-B
  95   1.0000      -0.166745        -4.5374   51-A
  96   1.0000      -0.158754        -4.3199   46-B
  97   1.0000      -0.138248        -3.7619   47-B
  98   1.0000      -0.131661        -3.5827   48-B
  99   1.0000      -0.131062        -3.5664   52-A
 100   1.0000      -0.127790        -3.4773   49-B
 101   1.0000      -0.113196        -3.0802   50-B
 102   1.0000      -0.102682        -2.7941   53-A
 103   1.0000      -0.076214        -2.0739   51-B
 104   1.0000      -0.075038        -2.0419   54-A
 105   1.0000      -0.062783        -1.7084   52-B
 106   1.0000      -0.055257        -1.5036   55-A
 107   1.0000      -0.048984        -1.3329   53-B
 108   1.0000      -0.031883        -0.8676   56-A
 109   1.0000      -0.029627        -0.8062   57-A
 110   1.0000      -0.019391        -0.5277   54-B
 111   1.0000      -0.014166        -0.3855   58-A
 112   1.0000      -0.003351        -0.0912   55-B
 113   1.0000       0.004768         0.1297   59-A
 114   1.0000       0.007691         0.2093   56-B
 115   1.0000       0.011003         0.2994   60-A
 116   1.0000       0.028784         0.7833   61-A
 117   1.0000       0.039404         1.0722   62-A
 118   1.0000       0.050160         1.3649   57-B
 119   1.0000       0.054477         1.4824   63-A
 120   1.0000       0.057264         1.5582   64-A
 121   1.0000       0.068412         1.8616   58-B
 122   1.0000       0.098288         2.6746   59-B
 123   0.0000       0.144262         3.9256   60-B
 124   0.0000       0.163344         4.4448   65-A
 125   0.0000       0.167620         4.5612   61-B
 126   0.0000       0.183119         4.9829   66-A
 127   0.0000       0.185285         5.0419   67-A

MULLIKEN ATOMIC CHARGES AND SPIN POPULATIONS
--------------------------------------------
   0 Cu:    0.655990    0.303624
   1 Se:   -0.544652    0.178429
   2 C :    0.039485   -0.007235
   3 Se:   -0.728651    0.173440
   4 C :    0.220496   -0.003217
   5 Se:   -0.544652    0.178429
   6 C :    0.039485   -0.007235
   7 Se:   -0.728651    0.173440
   8 C :    0.220496   -0.003217
   9 C :   -0.102917   -0.001354
  10 C :   -0.102917   -0.001354
  11 C :   -0.155928   -0.000642
  12 H :    0.092303    0.002636
  13 C :   -0.155928   -0.000642
  14 H :    0.092303    0.002636
  15 H :    0.021678    0.001614
  16 H :    0.021678    0.001614
  17 C :   -0.143363    0.002825
  18 C :   -0.143363    0.002825
  19 C :   -0.106049   -0.001435
  20 H :    0.043508    0.001172
  21 C :   -0.106049   -0.001435
  22 H :    0.043508    0.001172
  23 H :    0.036094    0.001955
  24 H :    0.036094    0.001955
Sum of atomic charges         :   -2.0000000

LOEWDIN ATOMIC CHARGES AND SPIN POPULATIONS
-------------------------------------------
   0 Cu:   -0.622444    0.386458
   1 Se:   -0.271199    0.127288
   2 C :    0.137756    0.007654
   3 Se:   -0.204571    0.123889
   4 C :    0.038697    0.011831
   5 Se:   -0.271199    0.127288
   6 C :    0.137756    0.007654
   7 Se:   -0.204571    0.123889
   8 C :    0.038697    0.011831
   9 C :    0.371421    0.007003
  10 C :    0.371421    0.007003
  11 C :    0.320176    0.000493
  12 H :   -0.459628    0.009364
  13 C :    0.320176    0.000493
  14 H :   -0.459628    0.009364
  15 H :   -0.411700    0.000405
  16 H :   -0.411700    0.000405
  17 C :    0.343529    0.009878
  18 C :    0.343529    0.009878
  19 C :    0.304712    0.000112
  20 H :   -0.437889    0.008478
  21 C :    0.304712    0.000112
  22 H :   -0.437889    0.008478
  23 H :   -0.420084    0.000375
  24 H :   -0.420084    0.000375

  Mayer bond orders larger than 0.100000
B(  0-Cu,  1-Se) :   0.5251 B(  0-Cu,  3-Se) :   0.5509 B(  0-Cu,  5-Se) :   0.5251
B(  0-Cu,  7-Se) :   0.5509 B(  1-Se,  2-C ) :   1.0860 B(  2-C ,  6-C ) :   1.1206
B(  2-C , 17-C ) :   1.2514 B(  3-Se,  4-C ) :   1.0386 B(  4-C ,  8-C ) :   1.1340
B(  4-C , 10-C ) :   1.2574 B(  5-Se,  6-C ) :   1.0860 B(  6-C , 18-C ) :   1.2514
B(  7-Se,  8-C ) :   1.0386 B(  8-C ,  9-C ) :   1.2574 B(  9-C , 13-C ) :   1.3798
B(  9-C , 14-H ) :   0.9598 B( 10-C , 11-C ) :   1.3798 B( 10-C , 12-H ) :   0.9598
B( 11-C , 13-C ) :   1.3122 B( 11-C , 15-H ) :   0.9953 B( 13-C , 16-H ) :   0.9953
B( 17-C , 19-C ) :   1.3735 B( 17-C , 20-H ) :   0.9807 B( 18-C , 21-C ) :   1.3735
B( 18-C , 22-H ) :   0.9807 B( 19-C , 21-C ) :   1.3265 B( 19-C , 23-H ) :   0.9779
B( 21-C , 24-H ) :   0.9779

FINAL SINGLE POINT ENERGY    -11626.936915482333

DIPOLE MOMENT
-------------
                                X             Y             Z
Electronic contribution:     -0.00000      -0.00000       0.32437
Nuclear contribution   :      0.00000       0.00000      -0.00000
                        -----------------------------------------
Total Dipole Moment    :     -0.00000      -0.00000       0.32436
                        -----------------------------------------
Magnitude (a.u.)       :      0.32436
Magnitude (Debye)      :      0.82447

Rotational constants in cm-1:     0.017552     0.004094     0.003325
Rotational constants in MHz :   526.194560   122.747702    99.666037

                             ****ORCA TERMINATED NORMALLY****
TOTAL RUN TIME: 0 days 17 hours 3 minutes 28 seconds 395 msec
