                         Program Version 5.0.4 -  RELEASE  -
|  1> ! RIJCOSX nofrozencore ReducedPop printbasis
|  2> ! M06L ano-rcc-dzp autoaux
|  3>
|  4> %maxcore 7500
|  5> %basis
|  6> PCDTrimBas overlap
|  7> PCDTrimAuxJ Coulomb
|  8> PCDTrimAuxJK Coulomb
|  9> PCDTrimAuxC Coulomb
| 10> PCDThresh -1
| 11> end
| 12>
| 13> %basis
| 14> newgto Cu "ano-rcc-tzp" end
| 15> newgto Se "ano-rcc-tzp" end
| 16> end
| 17>
| 18> %pal
| 19> nprocs 8
| 20> end
| 21>
| 22> % sym SymThresh 1e-2 end
| 23> * xyz -2 2
| 24> Cu 9.39623080211792e-07 0.00040840730987483104 -0.0001569349749076695
| 25> Se -0.5680266208471931 -0.06766221577817558 -2.2960162491582907
| 26> C -0.7953135849916455 -1.753282219980589 -2.56181394969886
| 27> Se 0.2502486017457686 2.350055352431336 0.09812026232189737
| 28> C 0.6760552522162262 2.5866328766664823 1.746104455510017
| 29> Se -0.2516119433096909 -2.3520370269169497 -0.10291482372135254
| 30> C -0.6625038706148203 -2.5634078236556066 -1.6998360209748498
| 31> Se 0.5693610135953907 0.07553863790222419 2.2983718629885606
| 32> C 0.7682174429750671 1.6893286125814986 2.4761947311468298
| 33> C 1.1699764280230027 2.0612651094829264 3.972561804815235
| 34> C 0.9336456485088679 4.101481447440488 2.2030397854537127
| 35> C 1.2305519906233207 4.246801928504659 3.3598774814463237
| 36> H 0.7112010908490511 4.5327500370659095 1.1236903248400387
| 37> C 1.3683498403038854 3.477937764346872 4.226008496391153
| 38> H 1.251575661542081 1.2037558967394324 4.643794242426181
| 39> H 1.347073929810709 5.3131176347525475 3.4165591534230497
| 40> H 1.620149516896975 3.3266562966038187 5.3151685170520855
| 41> C -1.1689115431595654 -2.1032369930973758 -3.951684498689139
| 42> C -0.8950268347445416 -4.024867868119623 -2.075288358655097
| 43> C -1.361250787921606 -3.3845051082538946 -4.233762063356431
| 44> H -1.242506662648118 -1.232302072681523 -4.595473506265145
| 45> C -1.2588579038860042 -4.327477959776907 -3.4438603463267543
| 46> H -0.7656023022386124 -4.743641937799935 -1.2631146086866423
| 47> H -1.626118504900984 -3.5245883474805417 -5.261656016288785
| 48> H -1.3523350445096864 -5.442815082161362 -3.3870139806910746
| 49> *
| 50>
| 51> % eprnmr
| 52> gtensor true
| 53> Nuclei = all H {aiso,adip,aorb,fgrad,rho}
| 54> Nuclei = all Cu {aiso,adip,aorb,fgrad,rho}
| 55> end
| 56>
| 57>                          ****END OF INPUT****

CARTESIAN COORDINATES (ANGSTROEM)
---------------------------------
  Cu     0.000409   -0.000157    0.000000
  Se    -0.094878   -2.364301    0.000000
  C     -1.791297   -2.657192    0.000000
  Se     2.361919    0.127881    0.000000
  C      2.618887    1.827028    0.000000
  Se    -2.363965   -0.132839    0.000000
  C     -2.595014   -1.779133    0.000000
  Se     0.102818    2.366816    0.000000
  C      1.726049    2.568324    0.000000
  C      2.117217    4.112943    0.000000
  C      4.145997    2.314723    0.000000
  C      4.305537    3.507238    0.000000
  H      4.566582    1.208569    0.000000
  C      3.543318    4.390043    0.000000
  H      1.263665    4.794105    0.000000
  H      5.377378    3.577781    0.000000
  H      3.404111    5.509499    0.000000
  C     -2.159135   -4.091932    0.000000
  C     -4.067536   -2.182339    0.000000
  C     -3.449550   -4.396956    0.000000
  H     -1.291774   -4.744690    0.000000
  C     -4.387564   -3.594613    0.000000
  H     -4.780069   -1.354504    0.000000
  H     -3.602318   -5.456676    0.000000
  H     -5.507320   -3.548850    0.000000

 Total Charge           Charge          ....   -2
 Multiplicity           Mult            ....    2
 Number of Electrons    NEL             ....  247
 Basis Dimension        Dim             ....  575

ORBITAL ENERGIES
----------------
                 SPIN UP ORBITALS
  NO   OCC          E(Eh)            E(eV)    Irrep
   0   1.0000    -443.547860    -12069.5509    1-A'
   1   1.0000    -443.545446    -12069.4852    2-A'
   2   1.0000    -443.527784    -12069.0046    3-A'
   3   1.0000    -443.527746    -12069.0035    4-A'
   4   1.0000    -318.175886     -8658.0060    5-A'
   5   1.0000     -56.357334     -1533.5610    6-A'
   6   1.0000     -56.356255     -1533.5317    7-A'
   7   1.0000     -56.341824     -1533.1390    8-A'
   8   1.0000     -56.341688     -1533.1353    9-A'
   9   1.0000     -51.276991     -1395.3179   10-A'
  10   1.0000     -51.276348     -1395.3004   11-A'
  11   1.0000     -51.275511     -1395.2776   12-A'
  12   1.0000     -51.274974     -1395.2630   13-A'
  13   1.0000     -51.274825     -1395.2589    1-A"
  14   1.0000     -51.274214     -1395.2423    2-A"
  15   1.0000     -51.272412     -1395.1932   14-A'
  16   1.0000     -51.271996     -1395.1819   15-A'
  17   1.0000     -51.270923     -1395.1527   16-A'
  18   1.0000     -51.270405     -1395.1387   17-A'
  19   1.0000     -51.270217     -1395.1335    3-A"
  20   1.0000     -51.269717     -1395.1199    4-A"
  21   1.0000     -38.015911     -1034.4655   18-A'
  22   1.0000     -33.517729      -912.0638   19-A'
  23   1.0000     -33.517381      -912.0543   20-A'
  24   1.0000     -33.506161      -911.7490    5-A"
  25   1.0000      -9.831831      -267.5377   21-A'
  26   1.0000      -9.825201      -267.3573   22-A'
  27   1.0000      -9.821010      -267.2433   23-A'
  28   1.0000      -9.819962      -267.2148   24-A'
  29   1.0000      -9.817770      -267.1551   25-A'
  30   1.0000      -9.814725      -267.0722   26-A'
  31   1.0000      -9.808088      -266.8916   27-A'
  32   1.0000      -9.798764      -266.6379   28-A'
  33   1.0000      -9.797432      -266.6017   29-A'
  34   1.0000      -9.793994      -266.5081   30-A'
  35   1.0000      -9.790024      -266.4001   31-A'
  36   1.0000      -9.784651      -266.2539   32-A'
  37   1.0000      -7.329925      -199.4574   33-A'
  38   1.0000      -7.329629      -199.4494   34-A'
  39   1.0000      -7.320756      -199.2079   35-A'
  40   1.0000      -7.320552      -199.2023   36-A'
  41   1.0000      -5.395555      -146.8205   37-A'
  42   1.0000      -5.394333      -146.7873   38-A'
  43   1.0000      -5.392641      -146.7412   39-A'
  44   1.0000      -5.392173      -146.7285   40-A'
  45   1.0000      -5.389814      -146.6643   41-A'
  46   1.0000      -5.388821      -146.6373   42-A'
  47   1.0000      -5.388625      -146.6319    6-A"
  48   1.0000      -5.387347      -146.5972    7-A"
  49   1.0000      -5.387085      -146.5900   43-A'
  50   1.0000      -5.386234      -146.5669   44-A'
  51   1.0000      -5.385763      -146.5541    8-A"
  52   1.0000      -5.384996      -146.5332    9-A"
  53   1.0000      -4.010174      -109.1224   45-A'
  54   1.0000      -2.529176       -68.8224   46-A'
  55   1.0000      -2.529131       -68.8211   47-A'
  56   1.0000      -2.505527       -68.1789   10-A"
  57   1.0000      -1.734097       -47.1872   48-A'
  58   1.0000      -1.733244       -47.1640   49-A'
  59   1.0000      -1.731741       -47.1231   50-A'
  60   1.0000      -1.730713       -47.0951   51-A'
  61   1.0000      -1.730611       -47.0923   52-A'
  62   1.0000      -1.730461       -47.0882   11-A"
  63   1.0000      -1.730066       -47.0775   53-A'
  64   1.0000      -1.729212       -47.0543   12-A"
  65   1.0000      -1.728825       -47.0437   54-A'
  66   1.0000      -1.728201       -47.0267   55-A'
  67   1.0000      -1.727478       -47.0071   13-A"
  68   1.0000      -1.726908       -46.9915   14-A"
  69   1.0000      -1.725750       -46.9600   15-A"
  70   1.0000      -1.725733       -46.9596   56-A'
  71   1.0000      -1.724620       -46.9293   16-A"
  72   1.0000      -1.724599       -46.9287   57-A'
  73   1.0000      -1.722983       -46.8848   17-A"
  74   1.0000      -1.722953       -46.8839   58-A'
  75   1.0000      -1.722116       -46.8612   18-A"
  76   1.0000      -1.722100       -46.8607   59-A'
  77   1.0000      -0.628148       -17.0928   60-A'
  78   1.0000      -0.616044       -16.7634   61-A'
  79   1.0000      -0.561013       -15.2659   62-A'
  80   1.0000      -0.548516       -14.9259   63-A'
  81   1.0000      -0.481004       -13.0888   64-A'
  82   1.0000      -0.479181       -13.0392   65-A'
  83   1.0000      -0.412449       -11.2233   66-A'
  84   1.0000      -0.401961       -10.9379   67-A'
  85   1.0000      -0.383435       -10.4338   68-A'
  86   1.0000      -0.380219       -10.3463   69-A'
  87   1.0000      -0.347583        -9.4582   70-A'
  88   1.0000      -0.343551        -9.3485   71-A'
  89   1.0000      -0.275913        -7.5080   72-A'
  90   1.0000      -0.271137        -7.3780   73-A'
  91   1.0000      -0.256515        -6.9801   74-A'
  92   1.0000      -0.248074        -6.7504   75-A'
  93   1.0000      -0.224119        -6.0986   76-A'
  94   1.0000      -0.208544        -5.6748   77-A'
  95   1.0000      -0.164155        -4.4669   78-A'
  96   1.0000      -0.155660        -4.2357   79-A'
  97   1.0000      -0.150583        -4.0976   19-A"
  98   1.0000      -0.140155        -3.8138   20-A"
  99   1.0000      -0.136464        -3.7134   80-A'
 100   1.0000      -0.127607        -3.4724   81-A'
 101   1.0000      -0.111781        -3.0417   82-A'
 102   1.0000      -0.111248        -3.0272   83-A'
 103   1.0000      -0.100192        -2.7263   84-A'
 104   1.0000      -0.089283        -2.4295   21-A"
 105   1.0000      -0.075729        -2.0607   85-A'
 106   1.0000      -0.073217        -1.9923   22-A"
 107   1.0000      -0.033562        -0.9133   86-A'
 108   1.0000      -0.024889        -0.6773   87-A'
 109   1.0000      -0.014822        -0.4033   88-A'
 110   1.0000      -0.011715        -0.3188   23-A"
 111   1.0000      -0.002081        -0.0566   24-A"
 112   1.0000       0.005804         0.1579   89-A'
 113   1.0000       0.006227         0.1694   25-A"
 114   1.0000       0.009529         0.2593   90-A'
 115   1.0000       0.011153         0.3035   26-A"
 116   1.0000       0.027073         0.7367   91-A'
 117   1.0000       0.029397         0.7999   92-A'
 118   1.0000       0.049182         1.3383   93-A'
 119   1.0000       0.057960         1.5772   27-A"
 120   1.0000       0.063493         1.7277   28-A"
 121   1.0000       0.069119         1.8808   29-A"
 122   1.0000       0.101090         2.7508   30-A"
 123   1.0000       0.129370         3.5203   94-A'
 124   0.0000       0.164865         4.4862   31-A"
 125   0.0000       0.171559         4.6684   32-A"
 126   0.0000       0.177340         4.8257   95-A'
 127   0.0000       0.178973         4.8701   96-A'
 128   0.0000       0.192101         5.2273   97-A'

                 SPIN DOWN ORBITALS
  NO   OCC          E(Eh)            E(eV)    Irrep
   0   1.0000    -443.547413    -12069.5387    1-A'
   1   1.0000    -443.544982    -12069.4726    2-A'
   2   1.0000    -443.527344    -12068.9926    3-A'
   3   1.0000    -443.527323    -12068.9920    4-A'
   4   1.0000    -318.175770     -8658.0029    5-A'
   5   1.0000     -56.357156     -1533.5562    6-A'
   6   1.0000     -56.356070     -1533.5266    7-A'
   7   1.0000     -56.341654     -1533.1343    8-A'
   8   1.0000     -56.341511     -1533.1305    9-A'
   9   1.0000     -51.276650     -1395.3086   10-A'
  10   1.0000     -51.276008     -1395.2911   11-A'
  11   1.0000     -51.274760     -1395.2571   12-A'
  12   1.0000     -51.274567     -1395.2519    1-A"
  13   1.0000     -51.274258     -1395.2435   13-A'
  14   1.0000     -51.273968     -1395.2356    2-A"
  15   1.0000     -51.272102     -1395.1848   14-A'
  16   1.0000     -51.271680     -1395.1733   15-A'
  17   1.0000     -51.270269     -1395.1350   16-A'
  18   1.0000     -51.269986     -1395.1273    3-A"
  19   1.0000     -51.269694     -1395.1193   17-A'
  20   1.0000     -51.269473     -1395.1133    4-A"
  21   1.0000     -38.002378     -1034.0973   18-A'
  22   1.0000     -33.504882      -911.7142   19-A'
  23   1.0000     -33.504512      -911.7041   20-A'
  24   1.0000     -33.502380      -911.6461    5-A"
  25   1.0000      -9.831608      -267.5317   21-A'
  26   1.0000      -9.825017      -267.3523   22-A'
  27   1.0000      -9.820947      -267.2415   23-A'
  28   1.0000      -9.819899      -267.2130   24-A'
  29   1.0000      -9.817501      -267.1478   25-A'
  30   1.0000      -9.814581      -267.0683   26-A'
  31   1.0000      -9.808042      -266.8904   27-A'
  32   1.0000      -9.798697      -266.6361   28-A'
  33   1.0000      -9.797477      -266.6029   29-A'
  34   1.0000      -9.794029      -266.5091   30-A'
  35   1.0000      -9.790070      -266.4013   31-A'
  36   1.0000      -9.784705      -266.2554   32-A'
  37   1.0000      -7.329524      -199.4465   33-A'
  38   1.0000      -7.329230      -199.4385   34-A'
  39   1.0000      -7.320376      -199.1976   35-A'
  40   1.0000      -7.320152      -199.1915   36-A'
  41   1.0000      -5.395162      -146.8098   37-A'
  42   1.0000      -5.393947      -146.7768   38-A'
  43   1.0000      -5.392286      -146.7316   39-A'
  44   1.0000      -5.391809      -146.7186   40-A'
  45   1.0000      -5.388977      -146.6415   41-A'
  46   1.0000      -5.388307      -146.6233    6-A"
  47   1.0000      -5.388020      -146.6155   42-A'
  48   1.0000      -5.387047      -146.5890    7-A"
  49   1.0000      -5.386358      -146.5702   43-A'
  50   1.0000      -5.385474      -146.5462    8-A"
  51   1.0000      -5.385444      -146.5454   44-A'
  52   1.0000      -5.384697      -146.5251    9-A"
  53   1.0000      -3.982790      -108.3772   45-A'
  54   1.0000      -2.495476       -67.9053   10-A"
  55   1.0000      -2.495045       -67.8936   46-A'
  56   1.0000      -2.494794       -67.8868   47-A'
  57   1.0000      -1.733589       -47.1733   48-A'
  58   1.0000      -1.732749       -47.1505   49-A'
  59   1.0000      -1.730818       -47.0980   50-A'
  60   1.0000      -1.730142       -47.0796   51-A'
  61   1.0000      -1.730131       -47.0792   11-A"
  62   1.0000      -1.729815       -47.0707   52-A'
  63   1.0000      -1.729583       -47.0643   53-A'
  64   1.0000      -1.728896       -47.0456   12-A"
  65   1.0000      -1.728021       -47.0218   54-A'
  66   1.0000      -1.727342       -47.0034   55-A'
  67   1.0000      -1.727171       -46.9987   13-A"
  68   1.0000      -1.726600       -46.9832   14-A"
  69   1.0000      -1.724981       -46.9391   15-A"
  70   1.0000      -1.724947       -46.9382   56-A'
  71   1.0000      -1.723889       -46.9094   16-A"
  72   1.0000      -1.723856       -46.9085   57-A'
  73   1.0000      -1.722313       -46.8665   17-A"
  74   1.0000      -1.722280       -46.8656   58-A'
  75   1.0000      -1.721396       -46.8416   18-A"
  76   1.0000      -1.721368       -46.8408   59-A'
  77   1.0000      -0.627788       -17.0830   60-A'
  78   1.0000      -0.615597       -16.7512   61-A'
  79   1.0000      -0.560134       -15.2420   62-A'
  80   1.0000      -0.547800       -14.9064   63-A'
  81   1.0000      -0.480038       -13.0625   64-A'
  82   1.0000      -0.477965       -13.0061   65-A'
  83   1.0000      -0.408967       -11.1286   66-A'
  84   1.0000      -0.398773       -10.8512   67-A'
  85   1.0000      -0.381551       -10.3825   68-A'
  86   1.0000      -0.378685       -10.3045   69-A'
  87   1.0000      -0.344895        -9.3851   70-A'
  88   1.0000      -0.340578        -9.2676   71-A'
  89   1.0000      -0.274227        -7.4621   72-A'
  90   1.0000      -0.268669        -7.3109   73-A'
  91   1.0000      -0.254963        -6.9379   74-A'
  92   1.0000      -0.247372        -6.7313   75-A'
  93   1.0000      -0.222661        -6.0589   76-A'
  94   1.0000      -0.207202        -5.6383   77-A'
  95   1.0000      -0.162555        -4.4234   78-A'
  96   1.0000      -0.153688        -4.1821   79-A'
  97   1.0000      -0.150520        -4.0959   19-A"
  98   1.0000      -0.139995        -3.8094   20-A"
  99   1.0000      -0.135189        -3.6787   80-A'
 100   1.0000      -0.125548        -3.4163   81-A'
 101   1.0000      -0.110614        -3.0100   82-A'
 102   1.0000      -0.107892        -2.9359   83-A'
 103   1.0000      -0.097978        -2.6661   84-A'
 104   1.0000      -0.088804        -2.4165   21-A"
 105   1.0000      -0.072817        -1.9814   22-A"
 106   1.0000      -0.072702        -1.9783   85-A'
 107   1.0000      -0.021952        -0.5973   86-A'
 108   1.0000      -0.014018        -0.3815   87-A'
 109   1.0000      -0.008210        -0.2234   23-A"
 110   1.0000      -0.001045        -0.0284   24-A"
 111   1.0000       0.004540         0.1236   88-A'
 112   1.0000       0.008724         0.2374   89-A'
 113   1.0000       0.017261         0.4697   25-A"
 114   1.0000       0.018493         0.5032   26-A"
 115   1.0000       0.018581         0.5056   90-A'
 116   1.0000       0.037177         1.0116   91-A'
 117   1.0000       0.041203         1.1212   92-A'
 118   1.0000       0.060255         1.6396   93-A'
 119   1.0000       0.060674         1.6510   27-A"
 120   1.0000       0.067231         1.8294   28-A"
 121   1.0000       0.071170         1.9366   29-A"
 122   1.0000       0.104754         2.8505   30-A"
 123   0.0000       0.158136         4.3031   94-A'
 124   0.0000       0.165060         4.4915   31-A"
 125   0.0000       0.171746         4.6734   32-A"
 126   0.0000       0.180271         4.9054   95-A'
 127   0.0000       0.182279         4.9601   96-A'

MULLIKEN ATOMIC CHARGES AND SPIN POPULATIONS
--------------------------------------------
   0 Cu:    0.665371    0.299749
   1 Se:   -0.852598    0.172411
   2 C :    0.316111   -0.004259
   3 Se:   -0.840387    0.161758
   4 C :    0.246279   -0.007249
   5 Se:   -0.791099    0.179895
   6 C :    0.305903   -0.005205
   7 Se:   -0.773544    0.176491
   8 C :    0.335497   -0.005787
   9 C :   -0.150572    0.000995
  10 C :   -0.140343    0.008840
  11 C :   -0.008102   -0.001522
  12 H :    0.052200    0.003339
  13 C :   -0.160256   -0.000241
  14 H :    0.100438    0.004368
  15 H :    0.010805    0.003725
  16 H :   -0.006074    0.003068
  17 C :   -0.173145   -0.000550
  18 C :   -0.139523   -0.000828
  19 C :   -0.068189   -0.001181
  20 H :    0.080063    0.003284
  21 C :   -0.141223   -0.000251
  22 H :    0.095469    0.003775
  23 H :    0.035294    0.002279
  24 H :    0.001623    0.003095
Sum of atomic charges         :   -2.0000000

LOEWDIN ATOMIC CHARGES AND SPIN POPULATIONS
-------------------------------------------
   0 Cu:   -0.623691    0.380874
   1 Se:   -0.204544    0.121935
   2 C :    0.036676    0.007515
   3 Se:   -0.176833    0.112602
   4 C :    0.064981    0.006861
   5 Se:   -0.210268    0.129315
   6 C :    0.002770    0.008731
   7 Se:   -0.214467    0.123503
   8 C :   -0.017835    0.008262
   9 C :    0.496747    0.010565
  10 C :    0.406119    0.011158
  11 C :    0.153628    0.000971
  12 H :   -0.435859    0.019425
  13 C :    0.289513    0.001448
  14 H :   -0.454895    0.011034
  15 H :   -0.414632    0.000996
  16 H :   -0.391674    0.001383
  17 C :    0.417663    0.007672
  18 C :    0.455766    0.009081
  19 C :    0.244523    0.000466
  20 H :   -0.451482    0.011947
  21 C :    0.290125    0.001300
  22 H :   -0.456718    0.010988
  23 H :   -0.418394    0.000757
  24 H :   -0.387220    0.001210

  Mayer bond orders larger than 0.100000
B(  0-Cu,  1-Se) :   0.5388 B(  0-Cu,  3-Se) :   0.5196 B(  0-Cu,  5-Se) :   0.5462
B(  0-Cu,  7-Se) :   0.5617 B(  1-Se,  2-C ) :   0.9326 B(  2-C ,  6-C ) :   1.2209
B(  2-C , 17-C ) :   1.1945 B(  3-Se,  4-C ) :   0.9547 B(  4-C ,  8-C ) :   1.2869
B(  4-C , 10-C ) :   1.0989 B(  5-Se,  6-C ) :   0.9774 B(  6-C , 18-C ) :   1.1878
B(  7-Se,  8-C ) :   0.9808 B(  8-C ,  9-C ) :   1.1211 B(  9-C , 10-C ) :   0.1374
B(  9-C , 13-C ) :   1.4155 B(  9-C , 14-H ) :   0.9400 B( 10-C , 11-C ) :   1.4580
B( 10-C , 12-H ) :   0.9243 B( 11-C , 13-C ) :   1.3160 B( 11-C , 15-H ) :   0.9732
B( 13-C , 16-H ) :   0.9721 B( 17-C , 18-C ) :   0.1173 B( 17-C , 19-C ) :   1.4021
B( 17-C , 20-H ) :   0.9646 B( 18-C , 21-C ) :   1.3839 B( 18-C , 22-H ) :   0.9504
B( 19-C , 21-C ) :   1.3323 B( 19-C , 23-H ) :   0.9823 B( 21-C , 24-H ) :   0.9794

FINAL SINGLE POINT ENERGY    -11626.749959514755

DIPOLE MOMENT
-------------
                                X             Y             Z
Electronic contribution:      0.49703       0.12207       0.00000
Nuclear contribution   :     -0.59727       0.01210       0.00000
                        -----------------------------------------
Total Dipole Moment    :     -0.10024       0.13416       0.00000
                        -----------------------------------------
Magnitude (a.u.)       :      0.16748
Magnitude (Debye)      :      0.42569

Rotational constants in cm-1:     0.017704     0.004092     0.003324
Rotational constants in MHz :   530.740264   122.679664    99.646544

                             ****ORCA TERMINATED NORMALLY****
TOTAL RUN TIME: 0 days 17 hours 6 minutes 26 seconds 964 msec
