                         Program Version 5.0.4 -  RELEASE  -
|  1> ! RIJCOSX nofrozencore ReducedPop printbasis
|  2> ! M06L ano-rcc-dzp autoaux
|  3>
|  4> %maxcore 7500
|  5> %basis
|  6> PCDTrimBas overlap
|  7> PCDTrimAuxJ Coulomb
|  8> PCDTrimAuxJK Coulomb
|  9> PCDTrimAuxC Coulomb
| 10> PCDThresh -1
| 11> end
| 12>
| 13> %basis
| 14> newgto Cu "ano-rcc-tzp" end
| 15> newgto Se "ano-rcc-tzp" end
| 16> end
| 17>
| 18> %pal
| 19> nprocs 8
| 20> end
| 21>
| 22> % sym SymThresh 1e-2 end
| 23> * xyz -2 2
| 24> Cu 3.1822681147686872e-06 -1.5062272314583303e-05 2.8286255261281747e-06
| 25> Se -1.2484629169062953 0.7478346788734923 1.8681660982027282
| 26> C -1.3662691051967117 -0.5639010435463503 2.8419762386475567
| 27> Se -0.026628119473179578 2.0719571112775217 -1.1463807846927785
| 28> C 0.8097733268786809 1.794296570995376 -2.5268110631258267
| 29> Se 0.02663876558575803 -2.071985240104534 1.1463774039564902
| 30> C -0.8094314786770491 -1.7940001375954768 2.5260103590316287
| 31> Se 1.248477359952231 -0.7478838149199897 -1.8681643525341742
| 32> C 1.3659000261120986 0.5638792088446749 -2.8412838075137214
| 33> C 2.0513618875552506 0.4723832306956136 -4.051096394058198
| 34> C 0.9925387245110757 2.812940816954782 -3.451173248538052
| 35> C 1.67138187092408 2.7480571278081425 -4.664148477237639
| 36> H 0.5283863909802685 3.8310037501017558 -3.1835954808758498
| 37> C 2.211251147558272 1.499506459250856 -4.938213370727533
| 38> H 2.450346586191497 -0.41992791626003806 -4.271190487031711
| 39> H 1.726986519749158 3.325219893165527 -5.09956848881618
| 40> H 2.961051653299082 1.2631916799000158 -6.1829818167009964
| 41> C -2.049624078239274 -0.4759064311413877 4.049928130646033
| 42> C -0.9910865205104413 -2.8167827973684254 3.4507149843765452
| 43> C -2.2221053739302445 -1.4959504973640756 4.9561549201847495
| 44> H -2.4737923386009215 0.4714716951490489 4.284638397939979
| 45> C -1.6696093109142742 -2.731296865393119 4.651213529043264
| 46> H -0.5494991660248777 -3.7839221760992583 3.195320609973781
| 47> H -2.8281067909122988 -1.3050894046969508 5.962274221764166
| 48> H -1.7470060018491003 -3.5325355568342296 5.256055932705635
| 49> *
| 50>
| 51> % eprnmr
| 52> gtensor true
| 53> Nuclei = all H {aiso,adip,aorb,fgrad,rho}
| 54> Nuclei = all Cu {aiso,adip,aorb,fgrad,rho}
| 55> end
| 56>
| 57>                          ****END OF INPUT****

CARTESIAN COORDINATES (ANGSTROEM)
---------------------------------
  Cu    -0.000016    0.000002    0.000000
  Se     0.933625    2.176306    0.000000
  C     -0.358221    3.183266    0.000000
  Se     2.072412   -1.145868    0.000000
  C      1.669901   -2.733393    0.000000
  Se    -2.072441    1.145862    0.000000
  C     -1.669656    2.732507    0.000000
  Se    -0.933676   -2.176307    0.000000
  C      0.358255   -3.182482    0.000000
  C      0.164207   -4.562417    0.000000
  C      2.659422   -3.706189    0.000000
  C      2.492933   -5.087720    0.000000
  H      3.745295   -3.326233    0.000000
  C      1.165620   -5.492307    0.000000
  H     -0.786364   -4.879061    0.000000
  H      3.060780   -5.538664    0.000000
  H      0.817361   -6.922764    0.000000
  C     -0.167985    4.560827    0.000000
  C     -2.663475    3.705381    0.000000
  C     -1.160444    5.512936    0.000000
  H      0.841333    4.898185    0.000000
  C     -2.476467    5.074296    0.000000
  H     -3.695131    3.343067    0.000000
  H     -0.879107    6.669133    0.000000
  H     -3.264742    5.700739    0.000000

 Total Charge           Charge          ....   -2
 Multiplicity           Mult            ....    2
 Number of Electrons    NEL             ....  247
 Basis Dimension        Dim             ....  575

ORBITAL ENERGIES
----------------
                 SPIN UP ORBITALS
  NO   OCC          E(Eh)            E(eV)    Irrep
   0   1.0000    -443.563869    -12069.9865    1-A'
   1   1.0000    -443.562609    -12069.9522    2-A'
   2   1.0000    -443.549040    -12069.5830    3-A'
   3   1.0000    -443.548610    -12069.5713    4-A'
   4   1.0000    -318.188984     -8658.3624    5-A'
   5   1.0000     -56.372461     -1533.9727    6-A'
   6   1.0000     -56.371775     -1533.9540    7-A'
   7   1.0000     -56.359212     -1533.6121    8-A'
   8   1.0000     -56.358702     -1533.5983    9-A'
   9   1.0000     -51.289675     -1395.6630   10-A'
  10   1.0000     -51.288290     -1395.6253   11-A'
  11   1.0000     -51.288075     -1395.6195   12-A'
  12   1.0000     -51.287901     -1395.6147    1-A"
  13   1.0000     -51.287721     -1395.6099   13-A'
  14   1.0000     -51.287187     -1395.5953   14-A'
  15   1.0000     -51.286740     -1395.5832   15-A'
  16   1.0000     -51.286393     -1395.5737   16-A'
  17   1.0000     -51.286289     -1395.5709    2-A"
  18   1.0000     -51.285931     -1395.5611    3-A"
  19   1.0000     -51.285850     -1395.5589   17-A'
  20   1.0000     -51.285361     -1395.5456    4-A"
  21   1.0000     -38.029543     -1034.8365   18-A'
  22   1.0000     -33.531623      -912.4418   19-A'
  23   1.0000     -33.530826      -912.4202   20-A'
  24   1.0000     -33.519586      -912.1143    5-A"
  25   1.0000      -9.849257      -268.0119   21-A'
  26   1.0000      -9.826916      -267.4040   22-A'
  27   1.0000      -9.818331      -267.1704   23-A'
  28   1.0000      -9.813064      -267.0270   24-A'
  29   1.0000      -9.810280      -266.9513   25-A'
  30   1.0000      -9.810002      -266.9437   26-A'
  31   1.0000      -9.809831      -266.9391   27-A'
  32   1.0000      -9.809601      -266.9328   28-A'
  33   1.0000      -9.809280      -266.9241   29-A'
  34   1.0000      -9.806299      -266.8430   30-A'
  35   1.0000      -9.801786      -266.7202   31-A'
  36   1.0000      -9.792490      -266.4672   32-A'
  37   1.0000      -7.343552      -199.8282   33-A'
  38   1.0000      -7.342860      -199.8094   34-A'
  39   1.0000      -7.335814      -199.6177   35-A'
  40   1.0000      -7.335460      -199.6080   36-A'
  41   1.0000      -5.407395      -147.1427   37-A'
  42   1.0000      -5.405854      -147.1008   38-A'
  43   1.0000      -5.405501      -147.0912   39-A'
  44   1.0000      -5.405071      -147.0794   40-A'
  45   1.0000      -5.401978      -146.9953   41-A'
  46   1.0000      -5.401779      -146.9899    6-A"
  47   1.0000      -5.400570      -146.9570   42-A'
  48   1.0000      -5.400235      -146.9479   43-A'
  49   1.0000      -5.400179      -146.9463    7-A"
  50   1.0000      -5.399783      -146.9356    8-A"
  51   1.0000      -5.399762      -146.9350   44-A'
  52   1.0000      -5.399221      -146.9203    9-A"
  53   1.0000      -4.023816      -109.4936   45-A'
  54   1.0000      -2.543419       -69.2100   46-A'
  55   1.0000      -2.542448       -69.1835   47-A'
  56   1.0000      -2.518832       -68.5409   10-A"
  57   1.0000      -1.746436       -47.5230   48-A'
  58   1.0000      -1.744903       -47.4812   49-A'
  59   1.0000      -1.744539       -47.4713   50-A'
  60   1.0000      -1.744087       -47.4590   51-A'
  61   1.0000      -1.743587       -47.4454   52-A'
  62   1.0000      -1.743008       -47.4297   11-A"
  63   1.0000      -1.742142       -47.4061   53-A'
  64   1.0000      -1.741796       -47.3967   54-A'
  65   1.0000      -1.741415       -47.3863   12-A"
  66   1.0000      -1.741368       -47.3850   55-A'
  67   1.0000      -1.741069       -47.3769   13-A"
  68   1.0000      -1.740571       -47.3634   14-A"
  69   1.0000      -1.738575       -47.3090   15-A"
  70   1.0000      -1.738544       -47.3082   56-A'
  71   1.0000      -1.737078       -47.2683   16-A"
  72   1.0000      -1.737048       -47.2675   57-A'
  73   1.0000      -1.736708       -47.2582   58-A'
  74   1.0000      -1.736660       -47.2569   17-A"
  75   1.0000      -1.736176       -47.2437   59-A'
  76   1.0000      -1.736127       -47.2424   18-A"
  77   1.0000      -0.607432       -16.5291   60-A'
  78   1.0000      -0.604427       -16.4473   61-A'
  79   1.0000      -0.533128       -14.5071   62-A'
  80   1.0000      -0.523188       -14.2367   63-A'
  81   1.0000      -0.503650       -13.7050   64-A'
  82   1.0000      -0.500980       -13.6324   65-A'
  83   1.0000      -0.429175       -11.6784   66-A'
  84   1.0000      -0.414642       -11.2830   67-A'
  85   1.0000      -0.385573       -10.4920   68-A'
  86   1.0000      -0.381371       -10.3776   69-A'
  87   1.0000      -0.324407        -8.8276   70-A'
  88   1.0000      -0.321424        -8.7464   71-A'
  89   1.0000      -0.309008        -8.4085   72-A'
  90   1.0000      -0.288080        -7.8391   73-A'
  91   1.0000      -0.231551        -6.3008   74-A'
  92   1.0000      -0.226667        -6.1679   75-A'
  93   1.0000      -0.203806        -5.5459   76-A'
  94   1.0000      -0.201676        -5.4879   77-A'
  95   1.0000      -0.168578        -4.5872   78-A'
  96   1.0000      -0.161947        -4.4068   79-A'
  97   1.0000      -0.153588        -4.1793   80-A'
  98   1.0000      -0.140669        -3.8278   81-A'
  99   1.0000      -0.133540        -3.6338   19-A"
 100   1.0000      -0.132131        -3.5955   20-A"
 101   1.0000      -0.127989        -3.4827   82-A'
 102   1.0000      -0.105803        -2.8790   83-A'
 103   1.0000      -0.083831        -2.2812   84-A'
 104   1.0000      -0.072113        -1.9623   85-A'
 105   1.0000      -0.067013        -1.8235   86-A'
 106   1.0000      -0.062211        -1.6928   87-A'
 107   1.0000      -0.051370        -1.3978   21-A"
 108   1.0000      -0.049844        -1.3563   22-A"
 109   1.0000      -0.035484        -0.9656   23-A"
 110   1.0000      -0.032016        -0.8712   88-A'
 111   1.0000      -0.031223        -0.8496   89-A'
 112   1.0000      -0.029214        -0.7949   24-A"
 113   1.0000      -0.003901        -0.1061   25-A"
 114   1.0000      -0.003021        -0.0822   26-A"
 115   1.0000      -0.001353        -0.0368   90-A'
 116   1.0000       0.017361         0.4724   91-A'
 117   1.0000       0.019048         0.5183   92-A'
 118   1.0000       0.039006         1.0614   93-A'
 119   1.0000       0.052800         1.4368   27-A"
 120   1.0000       0.054207         1.4750   28-A"
 121   1.0000       0.068498         1.8639   29-A"
 122   1.0000       0.097399         2.6504   30-A"
 123   1.0000       0.114155         3.1063   94-A'
 124   0.0000       0.172153         4.6845   95-A'
 125   0.0000       0.180413         4.9093   96-A'
 126   0.0000       0.195766         5.3271   97-A'
 127   0.0000       0.197935         5.3861   98-A'
 128   0.0000       0.199407         5.4261   31-A"

                 SPIN DOWN ORBITALS
  NO   OCC          E(Eh)            E(eV)    Irrep
   0   1.0000    -443.563420    -12069.9743    1-A'
   1   1.0000    -443.562157    -12069.9399    2-A'
   2   1.0000    -443.548593    -12069.5708    3-A'
   3   1.0000    -443.548156    -12069.5589    4-A'
   4   1.0000    -318.188862     -8658.3591    5-A'
   5   1.0000     -56.372280     -1533.9677    6-A'
   6   1.0000     -56.371591     -1533.9490    7-A'
   7   1.0000     -56.359033     -1533.6073    8-A'
   8   1.0000     -56.358521     -1533.5933    9-A'
   9   1.0000     -51.289355     -1395.6543   10-A'
  10   1.0000     -51.287746     -1395.6105   11-A'
  11   1.0000     -51.287655     -1395.6080    1-A"
  12   1.0000     -51.287575     -1395.6059   12-A'
  13   1.0000     -51.287397     -1395.6010   13-A'
  14   1.0000     -51.286864     -1395.5865   14-A'
  15   1.0000     -51.286036     -1395.5640    2-A"
  16   1.0000     -51.286001     -1395.5630   15-A'
  17   1.0000     -51.285682     -1395.5544    3-A"
  18   1.0000     -51.285663     -1395.5539   16-A'
  19   1.0000     -51.285118     -1395.5390   17-A'
  20   1.0000     -51.285112     -1395.5389    4-A"
  21   1.0000     -38.015667     -1034.4589   18-A'
  22   1.0000     -33.518436      -912.0830   19-A'
  23   1.0000     -33.517639      -912.0613   20-A'
  24   1.0000     -33.515715      -912.0090    5-A"
  25   1.0000      -9.849186      -268.0100   21-A'
  26   1.0000      -9.826864      -267.4026   22-A'
  27   1.0000      -9.818209      -267.1671   23-A'
  28   1.0000      -9.813094      -267.0279   24-A'
  29   1.0000      -9.810299      -266.9518   25-A'
  30   1.0000      -9.809927      -266.9417   26-A'
  31   1.0000      -9.809846      -266.9395   27-A'
  32   1.0000      -9.809566      -266.9319   28-A'
  33   1.0000      -9.809242      -266.9230   29-A'
  34   1.0000      -9.806180      -266.8397   30-A'
  35   1.0000      -9.801682      -266.7173   31-A'
  36   1.0000      -9.792441      -266.4659   32-A'
  37   1.0000      -7.343159      -199.8175   33-A'
  38   1.0000      -7.342460      -199.7985   34-A'
  39   1.0000      -7.335411      -199.6067   35-A'
  40   1.0000      -7.335052      -199.5969   36-A'
  41   1.0000      -5.407039      -147.1330   37-A'
  42   1.0000      -5.405486      -147.0908   38-A'
  43   1.0000      -5.405139      -147.0813   39-A'
  44   1.0000      -5.404710      -147.0696   40-A'
  45   1.0000      -5.401470      -146.9815    6-A"
  46   1.0000      -5.401172      -146.9734   41-A'
  47   1.0000      -5.399863      -146.9377    7-A"
  48   1.0000      -5.399735      -146.9343   42-A'
  49   1.0000      -5.399473      -146.9271    8-A"
  50   1.0000      -5.399412      -146.9255   43-A'
  51   1.0000      -5.398937      -146.9125   44-A'
  52   1.0000      -5.398911      -146.9118    9-A"
  53   1.0000      -3.995592      -108.7256   45-A'
  54   1.0000      -2.508521       -68.2603   10-A"
  55   1.0000      -2.508186       -68.2512   46-A'
  56   1.0000      -2.507137       -68.2227   47-A'
  57   1.0000      -1.746002       -47.5111   48-A'
  58   1.0000      -1.744449       -47.4689   49-A'
  59   1.0000      -1.744089       -47.4591   50-A'
  60   1.0000      -1.743634       -47.4467   51-A'
  61   1.0000      -1.742713       -47.4216   52-A'
  62   1.0000      -1.742700       -47.4213   11-A"
  63   1.0000      -1.741238       -47.3815   53-A'
  64   1.0000      -1.741100       -47.3777   12-A"
  65   1.0000      -1.740905       -47.3724   54-A'
  66   1.0000      -1.740759       -47.3685   13-A"
  67   1.0000      -1.740476       -47.3608   55-A'
  68   1.0000      -1.740262       -47.3549   14-A"
  69   1.0000      -1.737823       -47.2886   15-A"
  70   1.0000      -1.737752       -47.2866   56-A'
  71   1.0000      -1.736304       -47.2472   16-A"
  72   1.0000      -1.736235       -47.2454   57-A'
  73   1.0000      -1.735909       -47.2365   58-A'
  74   1.0000      -1.735897       -47.2362   17-A"
  75   1.0000      -1.735378       -47.2220   59-A'
  76   1.0000      -1.735363       -47.2216   18-A"
  77   1.0000      -0.606690       -16.5089   60-A'
  78   1.0000      -0.603626       -16.4255   61-A'
  79   1.0000      -0.532137       -14.4802   62-A'
  80   1.0000      -0.522060       -14.2060   63-A'
  81   1.0000      -0.502050       -13.6615   64-A'
  82   1.0000      -0.499292       -13.5864   65-A'
  83   1.0000      -0.426797       -11.6137   66-A'
  84   1.0000      -0.411955       -11.2099   67-A'
  85   1.0000      -0.382890       -10.4190   68-A'
  86   1.0000      -0.378949       -10.3117   69-A'
  87   1.0000      -0.322928        -8.7873   70-A'
  88   1.0000      -0.319636        -8.6977   71-A'
  89   1.0000      -0.306626        -8.3437   72-A'
  90   1.0000      -0.285586        -7.7712   73-A'
  91   1.0000      -0.229522        -6.2456   74-A'
  92   1.0000      -0.225316        -6.1312   75-A'
  93   1.0000      -0.202532        -5.5112   76-A'
  94   1.0000      -0.200428        -5.4539   77-A'
  95   1.0000      -0.166977        -4.5437   78-A'
  96   1.0000      -0.160316        -4.3624   79-A'
  97   1.0000      -0.152432        -4.1479   80-A'
  98   1.0000      -0.139483        -3.7955   81-A'
  99   1.0000      -0.133147        -3.6231   19-A"
 100   1.0000      -0.131741        -3.5849   20-A"
 101   1.0000      -0.125799        -3.4232   82-A'
 102   1.0000      -0.103768        -2.8237   83-A'
 103   1.0000      -0.081840        -2.2270   84-A'
 104   1.0000      -0.070355        -1.9145   85-A'
 105   1.0000      -0.061815        -1.6821   86-A'
 106   1.0000      -0.054941        -1.4950   87-A'
 107   1.0000      -0.050395        -1.3713   21-A"
 108   1.0000      -0.049081        -1.3356   22-A"
 109   1.0000      -0.033129        -0.9015   23-A"
 110   1.0000      -0.028226        -0.7681   24-A"
 111   1.0000      -0.025028        -0.6810   88-A'
 112   1.0000      -0.004039        -0.1099   89-A'
 113   1.0000       0.005747         0.1564   25-A"
 114   1.0000       0.008175         0.2225   26-A"
 115   1.0000       0.009011         0.2452   90-A'
 116   1.0000       0.027178         0.7395   91-A'
 117   1.0000       0.030215         0.8222   92-A'
 118   1.0000       0.050222         1.3666   93-A'
 119   1.0000       0.054763         1.4902   27-A"
 120   1.0000       0.057733         1.5710   28-A"
 121   1.0000       0.070227         1.9110   29-A"
 122   1.0000       0.100644         2.7387   30-A"
 123   0.0000       0.143733         3.9112   94-A'
 124   0.0000       0.174517         4.7489   95-A'
 125   0.0000       0.182591         4.9686   96-A'
 126   0.0000       0.198622         5.4048   97-A'
 127   0.0000       0.199197         5.4204   98-A'

MULLIKEN ATOMIC CHARGES AND SPIN POPULATIONS
--------------------------------------------
   0 Cu:    0.637961    0.310419
   1 Se:   -0.731393    0.174825
   2 C :    0.221588   -0.003274
   3 Se:   -0.730396    0.173033
   4 C :    0.219394   -0.002924
   5 Se:   -0.732115    0.173299
   6 C :    0.222485   -0.003030
   7 Se:   -0.728564    0.167577
   8 C :    0.215614   -0.003005
   9 C :   -0.137267   -0.002410
  10 C :   -0.124873   -0.001216
  11 C :   -0.719649    0.000156
  12 H :    0.015316    0.002322
  13 C :   -0.165690   -0.000544
  14 H :    0.198435    0.004038
  15 H :    0.805227   -0.000073
  16 H :   -0.171962    0.006133
  17 C :   -0.101204   -0.001724
  18 C :   -0.108842   -0.001475
  19 C :   -0.128229   -0.000985
  20 H :    0.114440    0.003170
  21 C :   -0.201691   -0.000410
  22 H :    0.073544    0.002634
  23 H :   -0.069276    0.002451
  24 H :    0.127146    0.001012
Sum of atomic charges         :   -2.0000000

LOEWDIN ATOMIC CHARGES AND SPIN POPULATIONS
-------------------------------------------
   0 Cu:   -0.614306    0.389987
   1 Se:   -0.198008    0.124749
   2 C :    0.040243    0.011877
   3 Se:   -0.211591    0.122614
   4 C :    0.033324    0.011885
   5 Se:   -0.203556    0.122900
   6 C :    0.037080    0.011741
   7 Se:   -0.186300    0.120612
   8 C :    0.049538    0.011573
   9 C :    0.376086    0.006618
  10 C :    0.416022    0.006674
  11 C :    0.563854    0.000394
  12 H :   -0.376296    0.009480
  13 C :    0.289471    0.001342
  14 H :   -0.559765    0.009134
  15 H :   -0.916807   -0.000236
  16 H :   -0.176580    0.004101
  17 C :    0.364325    0.006960
  18 C :    0.377947    0.006804
  19 C :    0.286429    0.000498
  20 H :   -0.480610    0.009507
  21 C :    0.350057    0.000409
  22 H :   -0.442608    0.009395
  23 H :   -0.320405    0.000845
  24 H :   -0.497544    0.000138

  Mayer bond orders larger than 0.100000
B(  0-Cu,  1-Se) :   0.5523 B(  0-Cu,  3-Se) :   0.5536 B(  0-Cu,  5-Se) :   0.5524
B(  0-Cu,  7-Se) :   0.5447 B(  1-Se,  2-C ) :   1.0395 B(  2-C ,  6-C ) :   1.1334
B(  2-C , 17-C ) :   1.2578 B(  3-Se,  4-C ) :   1.0346 B(  4-C ,  8-C ) :   1.1329
B(  4-C , 10-C ) :   1.2617 B(  5-Se,  6-C ) :   1.0375 B(  6-C , 18-C ) :   1.2578
B(  7-Se,  8-C ) :   1.0500 B(  8-C ,  9-C ) :   1.2575 B(  9-C , 13-C ) :   1.4127
B(  9-C , 14-H ) :   0.8924 B( 10-C , 11-C ) :   1.4630 B( 10-C , 12-H ) :   0.9940
B( 11-C , 13-C ) :   1.4296 B( 13-C , 16-H ) :   0.9651 B( 17-C , 19-C ) :   1.3803
B( 17-C , 20-H ) :   0.9473 B( 18-C , 21-C ) :   1.3853 B( 18-C , 22-H ) :   0.9695
B( 19-C , 21-C ) :   1.3207 B( 19-C , 23-H ) :   1.0187 B( 21-C , 24-H ) :   0.9366

FINAL SINGLE POINT ENERGY    -11626.903666071534

DIPOLE MOMENT
-------------
                                X             Y             Z
Electronic contribution:      0.16323       0.36861      -0.00000
Nuclear contribution   :     -0.14973      -0.05209       0.00000
                        -----------------------------------------
Total Dipole Moment    :      0.01350       0.31652      -0.00000
                        -----------------------------------------
Magnitude (a.u.)       :      0.31681
Magnitude (Debye)      :      0.80525

Rotational constants in cm-1:     0.017614     0.004097     0.003324
Rotational constants in MHz :   528.056329   122.837655    99.655555

                             ****ORCA TERMINATED NORMALLY****
TOTAL RUN TIME: 0 days 16 hours 50 minutes 14 seconds 653 msec
