                         Program Version 5.0.4 -  RELEASE  -
|  1> ! RIJCOSX nofrozencore ReducedPop printbasis
|  2> ! M06L ano-rcc-dzp autoaux
|  3>
|  4> %maxcore 7500
|  5> %basis
|  6> PCDTrimBas overlap
|  7> PCDTrimAuxJ Coulomb
|  8> PCDTrimAuxJK Coulomb
|  9> PCDTrimAuxC Coulomb
| 10> PCDThresh -1
| 11> end
| 12>
| 13> %basis
| 14> newgto Cu "ano-rcc-tzp" end
| 15> newgto Se "ano-rcc-tzp" end
| 16> end
| 17>
| 18> %pal
| 19> nprocs 8
| 20> end
| 21>
| 22> % sym SymThresh 1e-2 end
| 23> * xyz -2 2
| 24> Cu 0.00024107377332064492 -0.00036935872802542794 -8.921079446112035e-05
| 25> Se 2.0133603233672552 -0.5549847688068679 -1.118186875415236
| 26> C 2.114035769308482 -2.1443284142535513 -0.9437713239647337
| 27> Se 0.1264062570515549 2.3275437519280757 -0.41864727808477675
| 28> C -1.2114994754937298 2.9416439312239078 0.2882217503103651
| 29> Se -0.12047172395431138 -2.331096001937247 0.4156339973494211
| 30> C 1.1750867841346246 -2.85244434130439 -0.2796749031620651
| 31> Se -2.0129958120686693 0.5503693829149421 1.1186503639068037
| 32> C -2.148893240427423 2.179994573909292 0.959287176651693
| 33> C -3.239818245439605 2.8471908350253927 1.5111141229318337
| 34> C -1.4609862816241037 4.315710824756172 0.2342563664846255
| 35> C -2.5318709000699084 4.979608855230242 0.7746248998771917
| 36> H -0.7633505924605745 4.963891442700883 -0.2771672326503186
| 37> C -3.472160911533643 4.204260939332736 1.4494370935969885
| 38> H -3.926474689239138 2.1814739252229867 2.0185801803905714
| 39> H -2.671424373917763 6.054301093593059 0.6992913963298696
| 40> H -4.368997758513322 4.587453194561756 1.9274690909873775
| 41> C 3.2652910170012426 -2.8333864232274264 -1.52833303500202
| 42> C 1.434348152521279 -4.32936652822309 -0.216364787607265
| 43> C 3.483584621886662 -4.208945868271691 -1.4555550824501386
| 44> H 4.028788243797965 -2.280234900269779 -2.064995193773577
| 45> C 2.5180365860087397 -5.004474308508204 -0.7627115220296453
| 46> H 0.9501150361437105 -5.307122678258393 0.21647448478540143
| 47> H 4.384524023660819 -4.59319063008633 -1.935877129413253
| 48> H 2.7499634986123542 -6.080969006143353 -0.7421705077760883
| 49> *
| 50>
| 51> % eprnmr
| 52> gtensor true
| 53> Nuclei = all H {aiso,adip,aorb,fgrad,rho}
| 54> Nuclei = all Cu {aiso,adip,aorb,fgrad,rho}
| 55> end
| 56>
| 57>                          ****END OF INPUT****

CARTESIAN COORDINATES (ANGSTROEM)
---------------------------------
  Cu     0.000267   -0.000363    0.000000
  Se     2.321263   -0.472981    0.000000
  C      2.378330   -2.074016    0.000000
  Se     0.234999    2.356582    0.000000
  C     -1.298243    2.918670    0.000000
  Se    -0.228229   -2.359912    0.000000
  C      1.259253   -2.830153    0.000000
  Se    -2.321013    0.468335    0.000000
  C     -2.417534    2.108526    0.000000
  C     -3.661446    2.734995    0.000000
  C     -1.536564    4.295776    0.000000
  C     -2.757287    4.919785    0.000000
  H     -0.700482    4.980870    0.000000
  C     -3.880464    4.095677    0.000000
  H     -4.485418    2.032664    0.000000
  H     -2.879029    5.999272    0.000000
  H     -4.909316    4.443717    0.000000
  C      3.691601   -2.719942    0.000000
  C      1.505059   -4.310729    0.000000
  C      3.893577   -4.099913    0.000000
  H      4.600712   -2.127972    0.000000
  C      2.740254   -4.945504    0.000000
  H      0.904784   -5.319445    0.000000
  H      4.927162   -4.448837    0.000000
  H      2.969390   -6.022792    0.000000

 Total Charge           Charge          ....   -2
 Multiplicity           Mult            ....    2
 Number of Electrons    NEL             ....  247
 Basis Dimension        Dim             ....  575

ORBITAL ENERGIES
----------------
                 SPIN UP ORBITALS
  NO   OCC          E(Eh)            E(eV)    Irrep
   0   1.0000    -443.573677    -12070.2534    1-A'
   1   1.0000    -443.561259    -12069.9155    2-A'
   2   1.0000    -443.552160    -12069.6679    3-A'
   3   1.0000    -443.546690    -12069.5190    4-A'
   4   1.0000    -318.186857     -8658.3046    5-A'
   5   1.0000     -56.378890     -1534.1476    6-A'
   6   1.0000     -56.370149     -1533.9097    7-A'
   7   1.0000     -56.360409     -1533.6447    8-A'
   8   1.0000     -56.356935     -1533.5502    9-A'
   9   1.0000     -51.292142     -1395.7301   10-A'
  10   1.0000     -51.290992     -1395.6988   11-A'
  11   1.0000     -51.290759     -1395.6925    1-A"
  12   1.0000     -51.286863     -1395.5865   12-A'
  13   1.0000     -51.286553     -1395.5781   13-A'
  14   1.0000     -51.285561     -1395.5511   14-A'
  15   1.0000     -51.285519     -1395.5499   15-A'
  16   1.0000     -51.285329     -1395.5448   16-A'
  17   1.0000     -51.285096     -1395.5384    2-A"
  18   1.0000     -51.284946     -1395.5343    3-A"
  19   1.0000     -51.284218     -1395.5145   17-A'
  20   1.0000     -51.283749     -1395.5018    4-A"
  21   1.0000     -38.027637     -1034.7846   18-A'
  22   1.0000     -33.529666      -912.3886   19-A'
  23   1.0000     -33.528897      -912.3677   20-A'
  24   1.0000     -33.517734      -912.0639    5-A"
  25   1.0000      -9.828592      -267.4496   21-A'
  26   1.0000      -9.820133      -267.2194   22-A'
  27   1.0000      -9.819613      -267.2052   23-A'
  28   1.0000      -9.816513      -267.1209   24-A'
  29   1.0000      -9.815962      -267.1059   25-A'
  30   1.0000      -9.815739      -267.0998   26-A'
  31   1.0000      -9.815079      -267.0819   27-A'
  32   1.0000      -9.810546      -266.9585   28-A'
  33   1.0000      -9.809374      -266.9266   29-A'
  34   1.0000      -9.807772      -266.8830   30-A'
  35   1.0000      -9.807116      -266.8652   31-A'
  36   1.0000      -9.806328      -266.8437   32-A'
  37   1.0000      -7.347031      -199.9229   33-A'
  38   1.0000      -7.341257      -199.7658   34-A'
  39   1.0000      -7.336270      -199.6301   35-A'
  40   1.0000      -7.333733      -199.5610   36-A'
  41   1.0000      -5.408951      -147.1851   37-A'
  42   1.0000      -5.404517      -147.0644   38-A'
  43   1.0000      -5.404247      -147.0570   39-A'
  44   1.0000      -5.403899      -147.0476    6-A"
  45   1.0000      -5.403645      -147.0407   40-A'
  46   1.0000      -5.403563      -147.0384   41-A'
  47   1.0000      -5.399203      -146.9198   42-A'
  48   1.0000      -5.399088      -146.9167   43-A'
  49   1.0000      -5.398867      -146.9106    7-A"
  50   1.0000      -5.398832      -146.9097    8-A"
  51   1.0000      -5.398288      -146.8949   44-A'
  52   1.0000      -5.397812      -146.8819    9-A"
  53   1.0000      -4.021947      -109.4428   45-A'
  54   1.0000      -2.541444       -69.1562   46-A'
  55   1.0000      -2.540621       -69.1338   47-A'
  56   1.0000      -2.517048       -68.4924   10-A"
  57   1.0000      -1.749399       -47.6036   48-A'
  58   1.0000      -1.745357       -47.4936   49-A'
  59   1.0000      -1.745044       -47.4851   11-A"
  60   1.0000      -1.743895       -47.4538   50-A'
  61   1.0000      -1.743629       -47.4465   51-A'
  62   1.0000      -1.742523       -47.4165   52-A'
  63   1.0000      -1.740783       -47.3691   53-A'
  64   1.0000      -1.740689       -47.3666   54-A'
  65   1.0000      -1.740572       -47.3634   12-A"
  66   1.0000      -1.740559       -47.3630   55-A'
  67   1.0000      -1.740103       -47.3506   13-A"
  68   1.0000      -1.740056       -47.3493   14-A"
  69   1.0000      -1.739855       -47.3439   56-A'
  70   1.0000      -1.739109       -47.3236   15-A"
  71   1.0000      -1.735753       -47.2322   57-A'
  72   1.0000      -1.735723       -47.2314   16-A"
  73   1.0000      -1.735721       -47.2314   58-A'
  74   1.0000      -1.735672       -47.2300   17-A"
  75   1.0000      -1.734769       -47.2055   59-A'
  76   1.0000      -1.734689       -47.2033   18-A"
  77   1.0000      -0.602895       -16.4056   60-A'
  78   1.0000      -0.598028       -16.2732   61-A'
  79   1.0000      -0.524358       -14.2685   62-A'
  80   1.0000      -0.521704       -14.1963   63-A'
  81   1.0000      -0.499062       -13.5802   64-A'
  82   1.0000      -0.494859       -13.4658   65-A'
  83   1.0000      -0.423489       -11.5237   66-A'
  84   1.0000      -0.413360       -11.2481   67-A'
  85   1.0000      -0.381514       -10.3815   68-A'
  86   1.0000      -0.372450       -10.1349   69-A'
  87   1.0000      -0.322709        -8.7814   70-A'
  88   1.0000      -0.319969        -8.7068   71-A'
  89   1.0000      -0.286013        -7.7828   72-A'
  90   1.0000      -0.270154        -7.3513   73-A'
  91   1.0000      -0.228113        -6.2073   74-A'
  92   1.0000      -0.220231        -5.9928   75-A'
  93   1.0000      -0.207557        -5.6479   76-A'
  94   1.0000      -0.201458        -5.4820   77-A'
  95   1.0000      -0.169626        -4.6158   78-A'
  96   1.0000      -0.164592        -4.4788   79-A'
  97   1.0000      -0.138852        -3.7784   80-A'
  98   1.0000      -0.136320        -3.7094   81-A'
  99   1.0000      -0.130723        -3.5572   19-A"
 100   1.0000      -0.129542        -3.5250   20-A"
 101   1.0000      -0.126538        -3.4433   82-A'
 102   1.0000      -0.105799        -2.8789   83-A'
 103   1.0000      -0.074287        -2.0215   84-A'
 104   1.0000      -0.070931        -1.9301   85-A'
 105   1.0000      -0.064064        -1.7433   86-A'
 106   1.0000      -0.058112        -1.5813   87-A'
 107   1.0000      -0.050483        -1.3737   21-A"
 108   1.0000      -0.048591        -1.3222   22-A"
 109   1.0000      -0.032980        -0.8974   23-A"
 110   1.0000      -0.032622        -0.8877   88-A'
 111   1.0000      -0.029047        -0.7904   89-A'
 112   1.0000      -0.025724        -0.7000   24-A"
 113   1.0000      -0.001206        -0.0328   25-A"
 114   1.0000      -0.000723        -0.0197   26-A"
 115   1.0000       0.000286         0.0078   90-A'
 116   1.0000       0.019011         0.5173   91-A'
 117   1.0000       0.022476         0.6116   92-A'
 118   1.0000       0.039590         1.0773   93-A'
 119   1.0000       0.050696         1.3795   27-A"
 120   1.0000       0.054941         1.4950   28-A"
 121   1.0000       0.073116         1.9896   29-A"
 122   1.0000       0.102961         2.8017   30-A"
 123   1.0000       0.116111         3.1595   94-A'
 124   0.0000       0.181430         4.9370   95-A'
 125   0.0000       0.181955         4.9512   96-A'
 126   0.0000       0.191023         5.1980   31-A"
 127   0.0000       0.195574         5.3218   97-A'
 128   0.0000       0.196300         5.3416   98-A'

                 SPIN DOWN ORBITALS
  NO   OCC          E(Eh)            E(eV)    Irrep
   0   1.0000    -443.573228    -12070.2412    1-A'
   1   1.0000    -443.560799    -12069.9030    2-A'
   2   1.0000    -443.551715    -12069.6558    3-A'
   3   1.0000    -443.546230    -12069.5065    4-A'
   4   1.0000    -318.186733     -8658.3012    5-A'
   5   1.0000     -56.378709     -1534.1427    6-A'
   6   1.0000     -56.369963     -1533.9047    7-A'
   7   1.0000     -56.360232     -1533.6399    8-A'
   8   1.0000     -56.356751     -1533.5452    9-A'
   9   1.0000     -51.291784     -1395.7204   10-A'
  10   1.0000     -51.290511     -1395.6858    1-A"
  11   1.0000     -51.290296     -1395.6799   11-A'
  12   1.0000     -51.286532     -1395.5775   12-A'
  13   1.0000     -51.286209     -1395.5687   13-A'
  14   1.0000     -51.285223     -1395.5419   14-A'
  15   1.0000     -51.284842     -1395.5315    2-A"
  16   1.0000     -51.284782     -1395.5299   15-A'
  17   1.0000     -51.284702     -1395.5277    3-A"
  18   1.0000     -51.284636     -1395.5259   16-A'
  19   1.0000     -51.283496     -1395.4949    4-A"
  20   1.0000     -51.283480     -1395.4944   17-A'
  21   1.0000     -38.013700     -1034.4054   18-A'
  22   1.0000     -33.516425      -912.0283   19-A'
  23   1.0000     -33.515656      -912.0074   20-A'
  24   1.0000     -33.513838      -911.9579    5-A"
  25   1.0000      -9.828425      -267.4450   21-A'
  26   1.0000      -9.820062      -267.2175   22-A'
  27   1.0000      -9.819643      -267.2061   23-A'
  28   1.0000      -9.816461      -267.1195   24-A'
  29   1.0000      -9.815818      -267.1020   25-A'
  30   1.0000      -9.815690      -267.0985   26-A'
  31   1.0000      -9.815024      -267.0804   27-A'
  32   1.0000      -9.810553      -266.9587   28-A'
  33   1.0000      -9.809397      -266.9273   29-A'
  34   1.0000      -9.807654      -266.8798   30-A'
  35   1.0000      -9.807123      -266.8654   31-A'
  36   1.0000      -9.806208      -266.8405   32-A'
  37   1.0000      -7.346637      -199.9122   33-A'
  38   1.0000      -7.340852      -199.7547   34-A'
  39   1.0000      -7.335872      -199.6192   35-A'
  40   1.0000      -7.333321      -199.5498   36-A'
  41   1.0000      -5.408569      -147.1746   37-A'
  42   1.0000      -5.404147      -147.0543   38-A'
  43   1.0000      -5.403873      -147.0469   39-A'
  44   1.0000      -5.403589      -147.0391    6-A"
  45   1.0000      -5.403192      -147.0283   40-A'
  46   1.0000      -5.402842      -147.0188   41-A'
  47   1.0000      -5.398550      -146.9020    7-A"
  48   1.0000      -5.398525      -146.9013    8-A"
  49   1.0000      -5.398367      -146.8970   42-A'
  50   1.0000      -5.398296      -146.8951   43-A'
  51   1.0000      -5.397494      -146.8733    9-A"
  52   1.0000      -5.397456      -146.8723   44-A'
  53   1.0000      -3.993574      -108.6707   45-A'
  54   1.0000      -2.506677       -68.2102   10-A"
  55   1.0000      -2.506029       -68.1925   46-A'
  56   1.0000      -2.505143       -68.1684   47-A'
  57   1.0000      -1.748966       -47.5918   48-A'
  58   1.0000      -1.744724       -47.4763   11-A"
  59   1.0000      -1.744448       -47.4688   49-A'
  60   1.0000      -1.743449       -47.4417   50-A'
  61   1.0000      -1.743175       -47.4342   51-A'
  62   1.0000      -1.742058       -47.4038   52-A'
  63   1.0000      -1.739875       -47.3444   53-A'
  64   1.0000      -1.739815       -47.3428   12-A"
  65   1.0000      -1.739811       -47.3427   54-A'
  66   1.0000      -1.739788       -47.3420   13-A"
  67   1.0000      -1.739745       -47.3409   55-A'
  68   1.0000      -1.739739       -47.3407   14-A"
  69   1.0000      -1.738949       -47.3192   56-A'
  70   1.0000      -1.738789       -47.3149   15-A"
  71   1.0000      -1.734976       -47.2111   57-A'
  72   1.0000      -1.734943       -47.2102   16-A"
  73   1.0000      -1.734931       -47.2099   17-A"
  74   1.0000      -1.734906       -47.2092   58-A'
  75   1.0000      -1.733963       -47.1835   59-A'
  76   1.0000      -1.733913       -47.1822   18-A"
  77   1.0000      -0.602085       -16.3836   60-A'
  78   1.0000      -0.596792       -16.2395   61-A'
  79   1.0000      -0.523427       -14.2432   62-A'
  80   1.0000      -0.520573       -14.1655   63-A'
  81   1.0000      -0.497363       -13.5339   64-A'
  82   1.0000      -0.492595       -13.4042   65-A'
  83   1.0000      -0.421284       -11.4637   66-A'
  84   1.0000      -0.410628       -11.1738   67-A'
  85   1.0000      -0.379027       -10.3138   68-A'
  86   1.0000      -0.370171       -10.0729   69-A'
  87   1.0000      -0.320963        -8.7339   70-A'
  88   1.0000      -0.318049        -8.6545   71-A'
  89   1.0000      -0.283492        -7.7142   72-A'
  90   1.0000      -0.267775        -7.2865   73-A'
  91   1.0000      -0.227001        -6.1770   74-A'
  92   1.0000      -0.219395        -5.9700   75-A'
  93   1.0000      -0.205673        -5.5966   76-A'
  94   1.0000      -0.200160        -5.4466   77-A'
  95   1.0000      -0.168037        -4.5725   78-A'
  96   1.0000      -0.162309        -4.4167   79-A'
  97   1.0000      -0.137606        -3.7445   80-A'
  98   1.0000      -0.134287        -3.6541   81-A'
  99   1.0000      -0.130340        -3.5467   19-A"
 100   1.0000      -0.128954        -3.5090   20-A"
 101   1.0000      -0.125139        -3.4052   82-A'
 102   1.0000      -0.103605        -2.8192   83-A'
 103   1.0000      -0.072656        -1.9771   84-A'
 104   1.0000      -0.069152        -1.8817   85-A'
 105   1.0000      -0.056848        -1.5469   86-A'
 106   1.0000      -0.053943        -1.4679   87-A'
 107   1.0000      -0.049803        -1.3552   21-A"
 108   1.0000      -0.047794        -1.3005   22-A"
 109   1.0000      -0.030351        -0.8259   23-A"
 110   1.0000      -0.024546        -0.6679   24-A"
 111   1.0000      -0.022835        -0.6214   88-A'
 112   1.0000      -0.003470        -0.0944   89-A'
 113   1.0000       0.008650         0.2354   25-A"
 114   1.0000       0.010238         0.2786   26-A"
 115   1.0000       0.010623         0.2891   90-A'
 116   1.0000       0.030434         0.8282   91-A'
 117   1.0000       0.032016         0.8712   92-A'
 118   1.0000       0.050693         1.3794   93-A'
 119   1.0000       0.052707         1.4342   27-A"
 120   1.0000       0.058129         1.5818   28-A"
 121   1.0000       0.074882         2.0376   29-A"
 122   1.0000       0.106108         2.8873   30-A"
 123   0.0000       0.145886         3.9698   94-A'
 124   0.0000       0.183791         5.0012   95-A'
 125   0.0000       0.184012         5.0072   96-A'
 126   0.0000       0.191203         5.2029   31-A"
 127   0.0000       0.199249         5.4218   97-A'

MULLIKEN ATOMIC CHARGES AND SPIN POPULATIONS
--------------------------------------------
   0 Cu:    0.622775    0.310289
   1 Se:   -0.675192    0.169554
   2 C :    0.162686   -0.002995
   3 Se:   -0.726506    0.175636
   4 C :    0.208507   -0.003354
   5 Se:   -0.601076    0.171773
   6 C :    0.126938   -0.004750
   7 Se:   -0.739058    0.174672
   8 C :    0.238682   -0.003479
   9 C :   -0.105332   -0.000329
  10 C :   -0.102389   -0.001960
  11 C :   -0.150120   -0.000612
  12 H :    0.091071    0.002878
  13 C :   -0.162958   -0.000878
  14 H :    0.091980    0.002253
  15 H :    0.019463    0.001656
  16 H :    0.022264    0.001572
  17 C :   -0.121300   -0.000330
  18 C :   -0.129847    0.001611
  19 C :   -0.142404   -0.001174
  20 H :    0.087405    0.002570
  21 C :   -0.087339    0.000137
  22 H :    0.024240    0.001163
  23 H :    0.024498    0.001859
  24 H :    0.023012    0.002238
Sum of atomic charges         :   -2.0000000

LOEWDIN ATOMIC CHARGES AND SPIN POPULATIONS
-------------------------------------------
   0 Cu:   -0.602596    0.391451
   1 Se:   -0.225132    0.118894
   2 C :    0.025896    0.013542
   3 Se:   -0.204882    0.125903
   4 C :    0.034671    0.011952
   5 Se:   -0.228156    0.122473
   6 C :   -0.003347    0.014312
   7 Se:   -0.201041    0.124102
   8 C :    0.040939    0.011569
   9 C :    0.371473    0.007135
  10 C :    0.370166    0.007017
  11 C :    0.318410    0.000496
  12 H :   -0.455316    0.008527
  13 C :    0.319806    0.000349
  14 H :   -0.464976    0.010509
  15 H :   -0.408633    0.000455
  16 H :   -0.414278    0.000319
  17 C :    0.399402    0.008089
  18 C :    0.386841    0.009291
  19 C :    0.319951    0.000314
  20 H :   -0.452755    0.007444
  21 C :    0.302340    0.001236
  22 H :   -0.404644    0.003310
  23 H :   -0.421096    0.000494
  24 H :   -0.403044    0.000819

  Mayer bond orders larger than 0.100000
B(  0-Cu,  1-Se) :   0.5652 B(  0-Cu,  3-Se) :   0.5511 B(  0-Cu,  5-Se) :   0.5664
B(  0-Cu,  7-Se) :   0.5449 B(  1-Se,  2-C ) :   1.0642 B(  2-C ,  6-C ) :   1.1588
B(  2-C , 17-C ) :   1.2165 B(  3-Se,  4-C ) :   1.0456 B(  4-C ,  8-C ) :   1.1377
B(  4-C , 10-C ) :   1.2504 B(  5-Se,  6-C ) :   1.1256 B(  6-C , 18-C ) :   1.1945
B(  7-Se,  8-C ) :   1.0288 B(  8-C ,  9-C ) :   1.2532 B(  9-C , 13-C ) :   1.3868
B(  9-C , 14-H ) :   0.9567 B( 10-C , 11-C ) :   1.3866 B( 10-C , 12-H ) :   0.9630
B( 11-C , 13-C ) :   1.3054 B( 11-C , 15-H ) :   0.9962 B( 13-C , 16-H ) :   0.9943
B( 17-C , 19-C ) :   1.4338 B( 17-C , 20-H ) :   0.9665 B( 18-C , 21-C ) :   1.4336
B( 18-C , 22-H ) :   0.9879 B( 19-C , 21-C ) :   1.2504 B( 19-C , 23-H ) :   0.9876
B( 21-C , 24-H ) :   0.9828

FINAL SINGLE POINT ENERGY    -11627.087574516036

DIPOLE MOMENT
-------------
                                X             Y             Z
Electronic contribution:     -0.38261       0.45061       0.00000
Nuclear contribution   :      0.32775      -0.34999       0.00000
                        -----------------------------------------
Total Dipole Moment    :     -0.05485       0.10062       0.00000
                        -----------------------------------------
Magnitude (a.u.)       :      0.11460
Magnitude (Debye)      :      0.29128

Rotational constants in cm-1:     0.017598     0.004096     0.003323
Rotational constants in MHz :   527.589729   122.794062    99.610241

                             ****ORCA TERMINATED NORMALLY****
TOTAL RUN TIME: 0 days 16 hours 54 minutes 22 seconds 947 msec
