                         Program Version 5.0.4 -  RELEASE  -
|  1> ! RIJCOSX nofrozencore ReducedPop printbasis
|  2> ! M06L ano-rcc-dzp autoaux
|  3>
|  4> %maxcore 7500
|  5> %basis
|  6> PCDTrimBas overlap
|  7> PCDTrimAuxJ Coulomb
|  8> PCDTrimAuxJK Coulomb
|  9> PCDTrimAuxC Coulomb
| 10> PCDThresh -1
| 11> end
| 12>
| 13> %basis
| 14> newgto Cu "ano-rcc-tzp" end
| 15> newgto Se "ano-rcc-tzp" end
| 16> end
| 17>
| 18> %pal
| 19> nprocs 8
| 20> end
| 21>
| 22> % sym SymThresh 1e-2 end
| 23> * xyz -2 2
| 24> Cu 0.00033831420588802314 0.00022991307946184565 -0.00022475647707402634
| 25> Se -0.06267697232570463 0.9994530329418597 -2.1470803948388615
| 26> C -1.4431075654404784 0.7902465908924285 -2.761012340313123
| 27> Se 2.244234712309161 0.5863514790957556 0.4809087512593603
| 28> C 2.4819991259837177 -0.03623570113593646 1.9700209909478752
| 29> Se -2.2434162227179186 -0.5910253848878414 -0.4704671096529972
| 30> C -2.4428257243002305 0.09614084975077689 -2.0659543353593883
| 31> Se 0.05147233116640412 -1.0021603530914132 2.144217057607739
| 32> C 1.5703744919556861 -0.7196942368749079 2.7099361177535095
| 33> C 1.9564254804879524 -1.170184372993454 3.9507265892268983
| 34> C 3.7966557308530944 0.14968503477334413 2.582672879841785
| 35> C 4.14295375305804 -0.3104687928867381 3.8134271452606456
| 36> H 4.535942909164493 0.6920277543775961 2.0076542185736197
| 37> C 3.1739393065691974 -1.0169791480472687 4.557968578699956
| 38> H 1.1206954865622056 -1.6933228093604236 4.411816971258874
| 39> H 5.152219405306683 -0.11061497168769242 4.163782668579831
| 40> H 3.412489891087174 -1.4008418864891965 5.546263172792221
| 41> C -1.9577332468802153 1.1092936519324017 -3.8238294371046844
| 42> C -3.8946410735560195 -0.18288532089173998 -2.5877074819161354
| 43> C -3.196966087184682 1.0323877628417997 -4.607903668742932
| 44> H -1.136667681244038 1.6302821778089385 -4.291593962514144
| 45> C -4.082614524631031 0.3279287652991899 -3.8040577415341765
| 46> H -4.7211295860658495 -0.7121120522916168 -2.1067774323256665
| 47> H -3.665350213097965 1.3270804779547798 -5.584281795145192
| 48> H -5.1506504823594215 0.006216230327856506 -3.9433060556335424
| 49> *
| 50>
| 51> % eprnmr
| 52> gtensor true
| 53> Nuclei = all H {aiso,adip,aorb,fgrad,rho}
| 54> Nuclei = all Cu {aiso,adip,aorb,fgrad,rho}
| 55> end
| 56>
| 57>                          ****END OF INPUT****

CARTESIAN COORDINATES (ANGSTROEM)
---------------------------------
  Cu    -0.000275    0.000377    0.000000
  Se    -2.366647    0.108493    0.000000
  C     -2.936683   -1.306190    0.000000
  Se     0.355473    2.342074    0.000000
  C      1.981654    2.472987    0.000000
  Se    -0.344004   -2.342056    0.000000
  C     -2.090684   -2.423602    0.000000
  Se     2.364362   -0.120148    0.000000
  C      2.870302    1.445391    0.000000
  C      4.210589    1.753884    0.000000
  C      2.555426    3.817984    0.000000
  C      3.887740    4.085115    0.000000
  H      1.862407    4.649279    0.000000
  C      4.785991    2.996248    0.000000
  H      4.785320    0.829543    0.000000
  H      4.195703    5.127452    0.000000
  H      5.858933    3.168814    0.000000
  C     -4.070323   -1.765615    0.000000
  C     -2.553315   -3.921542    0.000000
  C     -4.839344   -3.016611    0.000000
  H     -4.651277   -0.856289    0.000000
  C     -3.882115   -4.021855    0.000000
  H     -1.957394   -4.837695    0.000000
  H     -5.881129   -3.434015    0.000000
  H     -3.952299   -5.143757    0.000000

 Total Charge           Charge          ....   -2
 Multiplicity           Mult            ....    2
 Number of Electrons    NEL             ....  247
 Basis Dimension        Dim             ....  575

ORBITAL ENERGIES
----------------
                 SPIN UP ORBITALS
  NO   OCC          E(Eh)            E(eV)    Irrep
   0   1.0000    -443.574206    -12070.2678    1-A'
   1   1.0000    -443.563290    -12069.9707    2-A'
   2   1.0000    -443.548022    -12069.5553    3-A'
   3   1.0000    -443.539472    -12069.3226    4-A'
   4   1.0000    -318.189081     -8658.3651    5-A'
   5   1.0000     -56.376516     -1534.0830    6-A'
   6   1.0000     -56.372182     -1533.9651    7-A'
   7   1.0000     -56.358297     -1533.5872    8-A'
   8   1.0000     -56.355389     -1533.5081    9-A'
   9   1.0000     -51.290999     -1395.6991   10-A'
  10   1.0000     -51.289841     -1395.6675   11-A'
  11   1.0000     -51.289787     -1395.6661   12-A'
  12   1.0000     -51.289282     -1395.6523    1-A"
  13   1.0000     -51.288479     -1395.6305   13-A'
  14   1.0000     -51.288135     -1395.6211    2-A"
  15   1.0000     -51.286503     -1395.5767   14-A'
  16   1.0000     -51.286053     -1395.5645   15-A'
  17   1.0000     -51.285125     -1395.5392   16-A'
  18   1.0000     -51.284871     -1395.5323    3-A"
  19   1.0000     -51.284734     -1395.5286   17-A'
  20   1.0000     -51.284136     -1395.5123    4-A"
  21   1.0000     -38.029565     -1034.8371   18-A'
  22   1.0000     -33.531620      -912.4418   19-A'
  23   1.0000     -33.530822      -912.4201   20-A'
  24   1.0000     -33.519673      -912.1167    5-A"
  25   1.0000      -9.832267      -267.5496   21-A'
  26   1.0000      -9.829311      -267.4692   22-A'
  27   1.0000      -9.820835      -267.2385   23-A'
  28   1.0000      -9.819527      -267.2029   24-A'
  29   1.0000      -9.812862      -267.0215   25-A'
  30   1.0000      -9.812689      -267.0168   26-A'
  31   1.0000      -9.812442      -267.0101   27-A'
  32   1.0000      -9.810550      -266.9586   28-A'
  33   1.0000      -9.810029      -266.9445   29-A'
  34   1.0000      -9.806672      -266.8531   30-A'
  35   1.0000      -9.803868      -266.7768   31-A'
  36   1.0000      -9.797033      -266.5908   32-A'
  37   1.0000      -7.344838      -199.8632   33-A'
  38   1.0000      -7.343417      -199.8245   34-A'
  39   1.0000      -7.335241      -199.6020   35-A'
  40   1.0000      -7.334982      -199.5950   36-A'
  41   1.0000      -5.407438      -147.1439   37-A'
  42   1.0000      -5.407022      -147.1325   38-A'
  43   1.0000      -5.406836      -147.1275   39-A'
  44   1.0000      -5.404062      -147.0520   40-A'
  45   1.0000      -5.402173      -147.0006   41-A'
  46   1.0000      -5.402126      -146.9993    6-A"
  47   1.0000      -5.401951      -146.9946    7-A"
  48   1.0000      -5.401640      -146.9861   42-A'
  49   1.0000      -5.401266      -146.9759   43-A'
  50   1.0000      -5.400353      -146.9511    8-A"
  51   1.0000      -5.398854      -146.9103   44-A'
  52   1.0000      -5.397962      -146.8860    9-A"
  53   1.0000      -4.023824      -109.4938   45-A'
  54   1.0000      -2.543363       -69.2084   46-A'
  55   1.0000      -2.542419       -69.1827   47-A'
  56   1.0000      -2.518943       -68.5439   10-A"
  57   1.0000      -1.748085       -47.5678   48-A'
  58   1.0000      -1.746567       -47.5265   49-A'
  59   1.0000      -1.744760       -47.4773   50-A'
  60   1.0000      -1.743692       -47.4483   51-A'
  61   1.0000      -1.743496       -47.4429   52-A'
  62   1.0000      -1.743226       -47.4356   11-A"
  63   1.0000      -1.742962       -47.4284   53-A'
  64   1.0000      -1.742828       -47.4248   54-A'
  65   1.0000      -1.742715       -47.4217   12-A"
  66   1.0000      -1.742403       -47.4132   13-A"
  67   1.0000      -1.740488       -47.3611   55-A'
  68   1.0000      -1.739383       -47.3310   14-A"
  69   1.0000      -1.738881       -47.3174   56-A'
  70   1.0000      -1.738850       -47.3165   15-A"
  71   1.0000      -1.738608       -47.3099   57-A'
  72   1.0000      -1.738595       -47.3096   16-A"
  73   1.0000      -1.737379       -47.2765   58-A'
  74   1.0000      -1.737371       -47.2763   17-A"
  75   1.0000      -1.735058       -47.2133   18-A"
  76   1.0000      -1.735055       -47.2133   59-A'
  77   1.0000      -0.620697       -16.8900   60-A'
  78   1.0000      -0.604184       -16.4407   61-A'
  79   1.0000      -0.536455       -14.5977   62-A'
  80   1.0000      -0.524218       -14.2647   63-A'
  81   1.0000      -0.499065       -13.5803   64-A'
  82   1.0000      -0.480480       -13.0745   65-A'
  83   1.0000      -0.419689       -11.4203   66-A'
  84   1.0000      -0.416133       -11.3236   67-A'
  85   1.0000      -0.397083       -10.8052   68-A'
  86   1.0000      -0.380147       -10.3443   69-A'
  87   1.0000      -0.326058        -8.8725   70-A'
  88   1.0000      -0.323743        -8.8095   71-A'
  89   1.0000      -0.285956        -7.7813   72-A'
  90   1.0000      -0.272035        -7.4025   73-A'
  91   1.0000      -0.232942        -6.3387   74-A'
  92   1.0000      -0.227410        -6.1881   75-A'
  93   1.0000      -0.201097        -5.4721   76-A'
  94   1.0000      -0.197480        -5.3737   77-A'
  95   1.0000      -0.167364        -4.5542   78-A'
  96   1.0000      -0.163403        -4.4464   79-A'
  97   1.0000      -0.144099        -3.9211   80-A'
  98   1.0000      -0.143157        -3.8955   19-A"
  99   1.0000      -0.140675        -3.8280   81-A'
 100   1.0000      -0.132180        -3.5968   20-A"
 101   1.0000      -0.130320        -3.5462   82-A'
 102   1.0000      -0.114089        -3.1045   83-A'
 103   1.0000      -0.078493        -2.1359   84-A'
 104   1.0000      -0.067711        -1.8425   85-A'
 105   1.0000      -0.058201        -1.5837   86-A'
 106   1.0000      -0.056814        -1.5460   21-A"
 107   1.0000      -0.051264        -1.3950   22-A"
 108   1.0000      -0.040846        -1.1115   87-A'
 109   1.0000      -0.031450        -0.8558   23-A"
 110   1.0000      -0.028475        -0.7748   88-A'
 111   1.0000      -0.022487        -0.6119   89-A'
 112   1.0000      -0.022053        -0.6001   24-A"
 113   1.0000      -0.005474        -0.1490   25-A"
 114   1.0000      -0.000043        -0.0012   90-A'
 115   1.0000       0.001336         0.0364   26-A"
 116   1.0000       0.017578         0.4783   91-A'
 117   1.0000       0.024285         0.6608   92-A'
 118   1.0000       0.039097         1.0639   93-A'
 119   1.0000       0.051259         1.3948   27-A"
 120   1.0000       0.054486         1.4826   28-A"
 121   1.0000       0.068967         1.8767   29-A"
 122   1.0000       0.097074         2.6415   30-A"
 123   1.0000       0.114167         3.1067   94-A'
 124   0.0000       0.180948         4.9238   95-A'
 125   0.0000       0.183353         4.9893   96-A'
 126   0.0000       0.184914         5.0318   31-A"
 127   0.0000       0.195704         5.3254   97-A'
 128   0.0000       0.197990         5.3876   98-A'

                 SPIN DOWN ORBITALS
  NO   OCC          E(Eh)            E(eV)    Irrep
   0   1.0000    -443.573788    -12070.2564    1-A'
   1   1.0000    -443.562841    -12069.9585    2-A'
   2   1.0000    -443.547558    -12069.5426    3-A'
   3   1.0000    -443.538995    -12069.3097    4-A'
   4   1.0000    -318.188958     -8658.3617    5-A'
   5   1.0000     -56.376344     -1534.0783    6-A'
   6   1.0000     -56.372000     -1533.9601    7-A'
   7   1.0000     -56.358111     -1533.5822    8-A'
   8   1.0000     -56.355198     -1533.5029    9-A'
   9   1.0000     -51.290697     -1395.6908   10-A'
  10   1.0000     -51.289477     -1395.6576   11-A'
  11   1.0000     -51.289172     -1395.6493   12-A'
  12   1.0000     -51.289057     -1395.6462    1-A"
  13   1.0000     -51.287896     -1395.6146    2-A"
  14   1.0000     -51.287777     -1395.6114   13-A'
  15   1.0000     -51.286153     -1395.5672   14-A'
  16   1.0000     -51.285704     -1395.5549   15-A'
  17   1.0000     -51.284597     -1395.5248    3-A"
  18   1.0000     -51.284353     -1395.5182   16-A'
  19   1.0000     -51.283960     -1395.5075   17-A'
  20   1.0000     -51.283871     -1395.5051    4-A"
  21   1.0000     -38.015714     -1034.4602   18-A'
  22   1.0000     -33.518463      -912.0838   19-A'
  23   1.0000     -33.517655      -912.0618   20-A'
  24   1.0000     -33.515802      -912.0113    5-A"
  25   1.0000      -9.832174      -267.5471   21-A'
  26   1.0000      -9.829306      -267.4690   22-A'
  27   1.0000      -9.820787      -267.2372   23-A'
  28   1.0000      -9.819479      -267.2016   24-A'
  29   1.0000      -9.812851      -267.0212   25-A'
  30   1.0000      -9.812687      -267.0168   26-A'
  31   1.0000      -9.812356      -267.0078   27-A'
  32   1.0000      -9.810474      -266.9566   28-A'
  33   1.0000      -9.809870      -266.9401   29-A'
  34   1.0000      -9.806466      -266.8475   30-A'
  35   1.0000      -9.803896      -266.7776   31-A'
  36   1.0000      -9.797069      -266.5918   32-A'
  37   1.0000      -7.344464      -199.8530   33-A'
  38   1.0000      -7.343024      -199.8138   34-A'
  39   1.0000      -7.334812      -199.5904   35-A'
  40   1.0000      -7.334561      -199.5836   36-A'
  41   1.0000      -5.407088      -147.1344   37-A'
  42   1.0000      -5.406704      -147.1239   38-A'
  43   1.0000      -5.406434      -147.1165   39-A'
  44   1.0000      -5.403675      -147.0415   40-A'
  45   1.0000      -5.401831      -146.9913    6-A"
  46   1.0000      -5.401622      -146.9856    7-A"
  47   1.0000      -5.401387      -146.9792   41-A'
  48   1.0000      -5.400788      -146.9629   42-A'
  49   1.0000      -5.400487      -146.9547   43-A'
  50   1.0000      -5.400054      -146.9430    8-A"
  51   1.0000      -5.397976      -146.8864   44-A'
  52   1.0000      -5.397628      -146.8769    9-A"
  53   1.0000      -3.995671      -108.7277   45-A'
  54   1.0000      -2.508643       -68.2637   10-A"
  55   1.0000      -2.508200       -68.2516   46-A'
  56   1.0000      -2.507218       -68.2249   47-A'
  57   1.0000      -1.747654       -47.5561   48-A'
  58   1.0000      -1.746153       -47.5153   49-A'
  59   1.0000      -1.744292       -47.4646   50-A'
  60   1.0000      -1.742934       -47.4277   11-A"
  61   1.0000      -1.742840       -47.4251   51-A'
  62   1.0000      -1.742663       -47.4203   52-A'
  63   1.0000      -1.742464       -47.4149   53-A'
  64   1.0000      -1.742376       -47.4124   12-A"
  65   1.0000      -1.742116       -47.4054   13-A"
  66   1.0000      -1.741907       -47.3997   54-A'
  67   1.0000      -1.739532       -47.3351   55-A'
  68   1.0000      -1.739050       -47.3220   14-A"
  69   1.0000      -1.738123       -47.2967   15-A"
  70   1.0000      -1.738112       -47.2964   56-A'
  71   1.0000      -1.737819       -47.2885   16-A"
  72   1.0000      -1.737765       -47.2870   57-A'
  73   1.0000      -1.736627       -47.2560   17-A"
  74   1.0000      -1.736618       -47.2558   58-A'
  75   1.0000      -1.734237       -47.1910   18-A"
  76   1.0000      -1.734212       -47.1903   59-A'
  77   1.0000      -0.619612       -16.8605   60-A'
  78   1.0000      -0.603382       -16.4189   61-A'
  79   1.0000      -0.535618       -14.5749   62-A'
  80   1.0000      -0.523138       -14.2353   63-A'
  81   1.0000      -0.497400       -13.5350   64-A'
  82   1.0000      -0.478804       -13.0289   65-A'
  83   1.0000      -0.416532       -11.3344   66-A'
  84   1.0000      -0.413409       -11.2494   67-A'
  85   1.0000      -0.395227       -10.7547   68-A'
  86   1.0000      -0.377681       -10.2772   69-A'
  87   1.0000      -0.323777        -8.8104   70-A'
  88   1.0000      -0.321198        -8.7402   71-A'
  89   1.0000      -0.283536        -7.7154   72-A'
  90   1.0000      -0.270056        -7.3486   73-A'
  91   1.0000      -0.231975        -6.3123   74-A'
  92   1.0000      -0.226514        -6.1637   75-A'
  93   1.0000      -0.199887        -5.4392   76-A'
  94   1.0000      -0.196455        -5.3458   77-A'
  95   1.0000      -0.165443        -4.5019   78-A'
  96   1.0000      -0.161766        -4.4019   79-A'
  97   1.0000      -0.143203        -3.8968   80-A'
  98   1.0000      -0.142676        -3.8824   19-A"
  99   1.0000      -0.138746        -3.7755   81-A'
 100   1.0000      -0.131794        -3.5863   20-A"
 101   1.0000      -0.127212        -3.4616   82-A'
 102   1.0000      -0.111786        -3.0419   83-A'
 103   1.0000      -0.076591        -2.0841   84-A'
 104   1.0000      -0.062221        -1.6931   85-A'
 105   1.0000      -0.056404        -1.5348   21-A"
 106   1.0000      -0.054230        -1.4757   86-A'
 107   1.0000      -0.050451        -1.3728   22-A"
 108   1.0000      -0.029577        -0.8048   87-A'
 109   1.0000      -0.029022        -0.7897   23-A"
 110   1.0000      -0.019599        -0.5333   24-A"
 111   1.0000      -0.019291        -0.5249   88-A'
 112   1.0000      -0.003826        -0.1041   89-A'
 113   1.0000       0.004842         0.1318   25-A"
 114   1.0000       0.010366         0.2821   90-A'
 115   1.0000       0.010746         0.2924   26-A"
 116   1.0000       0.029289         0.7970   91-A'
 117   1.0000       0.032401         0.8817   92-A'
 118   1.0000       0.050217         1.3665   93-A'
 119   1.0000       0.053559         1.4574   27-A"
 120   1.0000       0.057625         1.5681   28-A"
 121   1.0000       0.070607         1.9213   29-A"
 122   1.0000       0.100256         2.7281   30-A"
 123   0.0000       0.143861         3.9147   94-A'
 124   0.0000       0.182648         4.9701   95-A'
 125   0.0000       0.184552         5.0219   96-A'
 126   0.0000       0.185501         5.0477   31-A"
 127   0.0000       0.198343         5.3972   32-A"

MULLIKEN ATOMIC CHARGES AND SPIN POPULATIONS
--------------------------------------------
   0 Cu:    0.644331    0.309449
   1 Se:   -0.744605    0.150960
   2 C :    0.267635   -0.005324
   3 Se:   -0.695076    0.168789
   4 C :    0.211072   -0.004078
   5 Se:   -0.686018    0.190859
   6 C :    0.178329    0.002703
   7 Se:   -0.766286    0.182232
   8 C :    0.263971   -0.004514
   9 C :   -0.106222    0.001411
  10 C :   -0.110496   -0.001037
  11 C :   -0.126598   -0.000732
  12 H :    0.088113    0.002851
  13 C :   -0.206494   -0.000984
  14 H :    0.093358    0.001568
  15 H :    0.026728    0.001782
  16 H :    0.017579    0.001189
  17 C :   -0.087978    0.003936
  18 C :   -0.109433   -0.007323
  19 C :   -0.352623   -0.002857
  20 H :    0.100002   -0.000156
  21 C :    0.052764    0.000558
  22 H :    0.052407    0.004250
  23 H :   -0.008089    0.000680
  24 H :    0.003626    0.003788
Sum of atomic charges         :   -2.0000000

LOEWDIN ATOMIC CHARGES AND SPIN POPULATIONS
-------------------------------------------
   0 Cu:   -0.610540    0.389613
   1 Se:   -0.154863    0.103753
   2 C :   -0.136205    0.016712
   3 Se:   -0.193082    0.118960
   4 C :    0.051430    0.010234
   5 Se:   -0.206848    0.139131
   6 C :    0.195188    0.011487
   7 Se:   -0.200784    0.129467
   8 C :    0.023920    0.011782
   9 C :    0.366880    0.007842
  10 C :    0.384142    0.007000
  11 C :    0.315264    0.000462
  12 H :   -0.457252    0.008797
  13 C :    0.323387    0.000222
  14 H :   -0.471839    0.012330
  15 H :   -0.412192    0.000499
  16 H :   -0.414085    0.000151
  17 C :    0.368601    0.006422
  18 C :    0.379093    0.005571
  19 C :    0.348708   -0.001448
  20 H :   -0.516194    0.010616
  21 C :    0.255997    0.001570
  22 H :   -0.420691    0.007674
  23 H :   -0.391729   -0.000315
  24 H :   -0.426307    0.001468

  Mayer bond orders larger than 0.100000
B(  0-Cu,  1-Se) :   0.5380 B(  0-Cu,  3-Se) :   0.5539 B(  0-Cu,  5-Se) :   0.5471
B(  0-Cu,  7-Se) :   0.5527 B(  1-Se,  2-C ) :   1.1212 B(  2-C ,  6-C ) :   1.1061
B(  2-C , 17-C ) :   1.2345 B(  3-Se,  4-C ) :   1.0533 B(  4-C ,  8-C ) :   1.1475
B(  4-C , 10-C ) :   1.2190 B(  5-Se,  6-C ) :   1.0226 B(  6-C , 18-C ) :   1.2371
B(  7-Se,  8-C ) :   1.0055 B(  8-C ,  9-C ) :   1.2364 B(  9-C , 13-C ) :   1.4092
B(  9-C , 14-H ) :   0.9527 B( 10-C , 11-C ) :   1.4319 B( 10-C , 12-H ) :   0.9639
B( 11-C , 13-C ) :   1.2790 B( 11-C , 15-H ) :   0.9889 B( 13-C , 16-H ) :   1.0020
B( 17-C , 19-C ) :   1.2792 B( 17-C , 20-H ) :   0.9417 B( 18-C , 21-C ) :   1.4016
B( 18-C , 22-H ) :   0.9871 B( 19-C , 21-C ) :   1.3138 B( 19-C , 23-H ) :   1.0330
B( 21-C , 24-H ) :   0.9721

FINAL SINGLE POINT ENERGY    -11626.974863997515

DIPOLE MOMENT
-------------
                                X             Y             Z
Electronic contribution:      0.21380       0.46857      -0.00000
Nuclear contribution   :      0.15112      -0.34820       0.00000
                        -----------------------------------------
Total Dipole Moment    :      0.36492       0.12037      -0.00000
                        -----------------------------------------
Magnitude (a.u.)       :      0.38426
Magnitude (Debye)      :      0.97672

Rotational constants in cm-1:     0.017599     0.004096     0.003322
Rotational constants in MHz :   527.597724   122.782186    99.602711

                             ****ORCA TERMINATED NORMALLY****
TOTAL RUN TIME: 0 days 17 hours 6 minutes 37 seconds 175 msec
