                         Program Version 5.0.4 -  RELEASE  -
|  1> ! RIJCOSX nofrozencore ReducedPop printbasis
|  2> ! M06L ano-rcc-dzp autoaux
|  3>
|  4> %maxcore 7500
|  5> %basis
|  6> PCDTrimBas overlap
|  7> PCDTrimAuxJ Coulomb
|  8> PCDTrimAuxJK Coulomb
|  9> PCDTrimAuxC Coulomb
| 10> PCDThresh -1
| 11> end
| 12>
| 13> %basis
| 14> newgto Cu "ano-rcc-tzp" end
| 15> newgto Se "ano-rcc-tzp" end
| 16> end
| 17>
| 18> %pal
| 19> nprocs 8
| 20> end
| 21>
| 22> % sym SymThresh 1e-2 end
| 23> * xyz -2 2
| 24> Cu 0.00019396503397220438 7.173663437090923e-05 4.6609236051410244e-05
| 25> Se 1.3775497752100554 -0.8929325869708821 1.7062962043543946
| 26> C 0.5124039635913016 -2.1084964345378947 2.3766711058972607
| 27> Se 1.5357556447679637 1.6582477515825584 -0.7001262673794817
| 28> C 0.8360931973880132 2.467761635630587 -1.9158624592470979
| 29> Se -1.538069497843762 -1.6592643938832405 0.6997280220077797
| 30> C -0.7796603414829069 -2.446108538698188 1.9286564447336316
| 31> Se -1.379550386701327 0.8929726622638002 -1.707541841392977
| 32> C -0.46968850968860176 2.1180069865548994 -2.360240895818927
| 33> C -1.0724170789374863 2.8210696582499977 -3.4131359777018013
| 34> C 1.321984858153704 3.4949053981392213 -2.6301472415153233
| 35> C 0.906506866775856 4.236288158237745 -3.607711821795483
| 36> H 2.3215327377768284 3.9577025874887592 -2.481278274769116
| 37> C -0.3427838704101694 3.8854280630795204 -4.016943038067848
| 38> H -2.0686607091206843 2.4949457937691824 -3.694041397103959
| 39> H 1.7453688004677979 4.9695565286345165 -3.8209718382971167
| 40> H -0.6419772820232552 4.555241131119417 -4.8542049461583225
| 41> C 0.9904162076826558 -2.8673268762032293 3.4090529438204884
| 42> C -1.410614601802372 -3.493952557105347 2.575770500212303
| 43> C 0.37949908877880995 -3.8933072182026316 4.046808438361314
| 44> H 1.9746455891142676 -2.6843050456452047 3.8230471451469517
| 45> C -0.8804304105287114 -4.222322473305709 3.609740047367233
| 46> H -2.4026912861314678 -3.783039224776428 2.26105711111769
| 47> H 0.9945273057600839 -4.324390377575577 4.840402972842792
| 48> H -1.4934223185146016 -5.017703881216548 4.020107350551334
| 49> *
| 50>
| 51> % eprnmr
| 52> gtensor true
| 53> Nuclei = all H {aiso,adip,aorb,fgrad,rho}
| 54> Nuclei = all Cu {aiso,adip,aorb,fgrad,rho}
| 55> end
| 56>
| 57>                          ****END OF INPUT****

CARTESIAN COORDINATES (ANGSTROEM)
---------------------------------
  Cu     0.000204    0.000057    0.000000
  Se     1.811172   -1.525147    0.000000
  C      1.131259   -3.012828    0.000000
  Se     1.335617    1.953109    0.000000
  C      0.324019    3.217831    0.000000
  Se    -1.338011   -1.954012    0.000000
  C     -0.264822   -3.200141    0.000000
  Se    -1.813479    1.525632    0.000000
  C     -1.084680    3.016748    0.000000
  C     -1.957596    4.114101    0.000000
  C      0.617154    4.527560    0.000000
  C     -0.050705    5.637455    0.000000
  H      1.645236    4.950037    0.000000
  C     -1.394278    5.422718    0.000000
  H     -3.017091    3.879074    0.000000
  H      0.723270    6.466800    0.000000
  H     -1.910229    6.409109    0.000000
  C      1.875390   -4.160173    0.000000
  C     -0.719129   -4.507215    0.000000
  C      1.438450   -5.441450    0.000000
  H      2.957955   -4.119576    0.000000
  C      0.077039   -5.623829    0.000000
  H     -1.783381   -4.692147    0.000000
  H      2.255426   -6.167008    0.000000
  H     -0.421682   -6.587193    0.000000

 Total Charge           Charge          ....   -2
 Multiplicity           Mult            ....    2
 Number of Electrons    NEL             ....  247
 Basis Dimension        Dim             ....  575

ORBITAL ENERGIES
----------------
                 SPIN UP ORBITALS
  NO   OCC          E(Eh)            E(eV)    Irrep
   0   1.0000    -443.562607    -12069.9522    1-A'
   1   1.0000    -443.560947    -12069.9070    2-A'
   2   1.0000    -443.547226    -12069.5336    3-A'
   3   1.0000    -443.545457    -12069.4855    4-A'
   4   1.0000    -318.187803     -8658.3303    5-A'
   5   1.0000     -56.370740     -1533.9258    6-A'
   6   1.0000     -56.370122     -1533.9090    7-A'
   7   1.0000     -56.357548     -1533.5668    8-A'
   8   1.0000     -56.356957     -1533.5508    9-A'
   9   1.0000     -51.288910     -1395.6422   10-A'
  10   1.0000     -51.287491     -1395.6036   11-A'
  11   1.0000     -51.287139     -1395.5940    1-A"
  12   1.0000     -51.286854     -1395.5862   12-A'
  13   1.0000     -51.286487     -1395.5763   13-A'
  14   1.0000     -51.285495     -1395.5493   14-A'
  15   1.0000     -51.285159     -1395.5401   15-A'
  16   1.0000     -51.285079     -1395.5379    2-A"
  17   1.0000     -51.284963     -1395.5348   16-A'
  18   1.0000     -51.284693     -1395.5275    3-A"
  19   1.0000     -51.283672     -1395.4997   17-A'
  20   1.0000     -51.283166     -1395.4859    4-A"
  21   1.0000     -38.028378     -1034.8048   18-A'
  22   1.0000     -33.530490      -912.4110   19-A'
  23   1.0000     -33.529629      -912.3876   20-A'
  24   1.0000     -33.518420      -912.0826    5-A"
  25   1.0000      -9.821797      -267.2647   21-A'
  26   1.0000      -9.817627      -267.1512   22-A'
  27   1.0000      -9.814047      -267.0538   23-A'
  28   1.0000      -9.813896      -267.0497   24-A'
  29   1.0000      -9.811827      -266.9934   25-A'
  30   1.0000      -9.809961      -266.9426   26-A'
  31   1.0000      -9.808380      -266.8996   27-A'
  32   1.0000      -9.808224      -266.8954   28-A'
  33   1.0000      -9.807508      -266.8759   29-A'
  34   1.0000      -9.805224      -266.8137   30-A'
  35   1.0000      -9.800642      -266.6890   31-A'
  36   1.0000      -9.791900      -266.4512   32-A'
  37   1.0000      -7.342084      -199.7883   33-A'
  38   1.0000      -7.341459      -199.7712   34-A'
  39   1.0000      -7.334343      -199.5776   35-A'
  40   1.0000      -7.334216      -199.5742   36-A'
  41   1.0000      -5.406027      -147.1055   37-A'
  42   1.0000      -5.404518      -147.0644   38-A'
  43   1.0000      -5.404483      -147.0635   39-A'
  44   1.0000      -5.403838      -147.0459   40-A'
  45   1.0000      -5.400475      -146.9544   41-A'
  46   1.0000      -5.400309      -146.9499    6-A"
  47   1.0000      -5.399262      -146.9214   42-A'
  48   1.0000      -5.399135      -146.9179   43-A'
  49   1.0000      -5.398826      -146.9095    7-A"
  50   1.0000      -5.398773      -146.9081    8-A"
  51   1.0000      -5.398646      -146.9046   44-A'
  52   1.0000      -5.398071      -146.8890    9-A"
  53   1.0000      -4.022693      -109.4630   45-A'
  54   1.0000      -2.542376       -69.1816   46-A'
  55   1.0000      -2.541280       -69.1518   47-A'
  56   1.0000      -2.517689       -68.5098   10-A"
  57   1.0000      -1.745252       -47.4907   48-A'
  58   1.0000      -1.743536       -47.4440   49-A'
  59   1.0000      -1.743405       -47.4405   50-A'
  60   1.0000      -1.742591       -47.4183   51-A'
  61   1.0000      -1.742165       -47.4067   52-A'
  62   1.0000      -1.741618       -47.3918   11-A"
  63   1.0000      -1.740830       -47.3704   53-A'
  64   1.0000      -1.740747       -47.3681   54-A'
  65   1.0000      -1.740217       -47.3537   55-A'
  66   1.0000      -1.740055       -47.3493   12-A"
  67   1.0000      -1.740039       -47.3489   13-A"
  68   1.0000      -1.739312       -47.3291   14-A"
  69   1.0000      -1.737081       -47.2684   56-A'
  70   1.0000      -1.736967       -47.2653   15-A"
  71   1.0000      -1.735772       -47.2328   57-A'
  72   1.0000      -1.735654       -47.2295   16-A"
  73   1.0000      -1.735639       -47.2291   58-A'
  74   1.0000      -1.735630       -47.2289   17-A"
  75   1.0000      -1.735068       -47.2136   18-A"
  76   1.0000      -1.735067       -47.2136   59-A'
  77   1.0000      -0.609985       -16.5985   60-A'
  78   1.0000      -0.605630       -16.4800   61-A'
  79   1.0000      -0.530051       -14.4234   62-A'
  80   1.0000      -0.522935       -14.2298   63-A'
  81   1.0000      -0.502254       -13.6670   64-A'
  82   1.0000      -0.500831       -13.6283   65-A'
  83   1.0000      -0.418451       -11.3866   66-A'
  84   1.0000      -0.417377       -11.3574   67-A'
  85   1.0000      -0.384246       -10.4559   68-A'
  86   1.0000      -0.378776       -10.3070   69-A'
  87   1.0000      -0.327629        -8.9152   70-A'
  88   1.0000      -0.318790        -8.6747   71-A'
  89   1.0000      -0.288558        -7.8521   72-A'
  90   1.0000      -0.277577        -7.5532   73-A'
  91   1.0000      -0.230317        -6.2673   74-A'
  92   1.0000      -0.223778        -6.0893   75-A'
  93   1.0000      -0.204416        -5.5624   76-A'
  94   1.0000      -0.202393        -5.5074   77-A'
  95   1.0000      -0.167338        -4.5535   78-A'
  96   1.0000      -0.160566        -4.3692   79-A'
  97   1.0000      -0.141984        -3.8636   80-A'
  98   1.0000      -0.135798        -3.6952   81-A'
  99   1.0000      -0.134810        -3.6684   19-A"
 100   1.0000      -0.134058        -3.6479   82-A'
 101   1.0000      -0.132277        -3.5994   20-A"
 102   1.0000      -0.107716        -2.9311   83-A'
 103   1.0000      -0.075608        -2.0574   84-A'
 104   1.0000      -0.070168        -1.9094   85-A'
 105   1.0000      -0.064576        -1.7572   86-A'
 106   1.0000      -0.052655        -1.4328   21-A"
 107   1.0000      -0.050239        -1.3671   87-A'
 108   1.0000      -0.049465        -1.3460   22-A"
 109   1.0000      -0.035591        -0.9685   23-A"
 110   1.0000      -0.030853        -0.8396   88-A'
 111   1.0000      -0.029911        -0.8139   24-A"
 112   1.0000      -0.027644        -0.7522   89-A'
 113   1.0000      -0.003464        -0.0943   25-A"
 114   1.0000      -0.001608        -0.0438   26-A"
 115   1.0000       0.000521         0.0142   90-A'
 116   1.0000       0.019364         0.5269   91-A'
 117   1.0000       0.022030         0.5995   92-A'
 118   1.0000       0.040741         1.1086   93-A'
 119   1.0000       0.053933         1.4676   27-A"
 120   1.0000       0.055032         1.4975   28-A"
 121   1.0000       0.070107         1.9077   29-A"
 122   1.0000       0.098886         2.6908   30-A"
 123   1.0000       0.114968         3.1284   94-A'
 124   0.0000       0.180124         4.9014   95-A'
 125   0.0000       0.182127         4.9559   96-A'
 126   0.0000       0.194729         5.2988   97-A'
 127   0.0000       0.196508         5.3472   98-A'
 128   0.0000       0.204351         5.5607   31-A"

                 SPIN DOWN ORBITALS
  NO   OCC          E(Eh)            E(eV)    Irrep
   0   1.0000    -443.562166    -12069.9402    1-A'
   1   1.0000    -443.560498    -12069.8948    2-A'
   2   1.0000    -443.546772    -12069.5213    3-A'
   3   1.0000    -443.544998    -12069.4730    4-A'
   4   1.0000    -318.187679     -8658.3269    5-A'
   5   1.0000     -56.370561     -1533.9209    6-A'
   6   1.0000     -56.369939     -1533.9040    7-A'
   7   1.0000     -56.357366     -1533.5619    8-A'
   8   1.0000     -56.356774     -1533.5458    9-A'
   9   1.0000     -51.288603     -1395.6338   10-A'
  10   1.0000     -51.286898     -1395.5874    1-A"
  11   1.0000     -51.286786     -1395.5844   11-A'
  12   1.0000     -51.286542     -1395.5777   12-A'
  13   1.0000     -51.286151     -1395.5671   13-A'
  14   1.0000     -51.284837     -1395.5314    2-A"
  15   1.0000     -51.284781     -1395.5298   14-A'
  16   1.0000     -51.284628     -1395.5257   15-A'
  17   1.0000     -51.284436     -1395.5204    3-A"
  18   1.0000     -51.284407     -1395.5197   16-A'
  19   1.0000     -51.282920     -1395.4792   17-A'
  20   1.0000     -51.282909     -1395.4789    4-A"
  21   1.0000     -38.014467     -1034.4262   18-A'
  22   1.0000     -33.517270      -912.0513   19-A'
  23   1.0000     -33.516412      -912.0279   20-A'
  24   1.0000     -33.514535      -911.9769    5-A"
  25   1.0000      -9.821728      -267.2628   21-A'
  26   1.0000      -9.817521      -267.1483   22-A'
  27   1.0000      -9.813992      -267.0523   23-A'
  28   1.0000      -9.813867      -267.0489   24-A'
  29   1.0000      -9.811782      -266.9922   25-A'
  30   1.0000      -9.809966      -266.9427   26-A'
  31   1.0000      -9.808397      -266.9000   27-A'
  32   1.0000      -9.808259      -266.8963   28-A'
  33   1.0000      -9.807469      -266.8748   29-A'
  34   1.0000      -9.805114      -266.8107   30-A'
  35   1.0000      -9.800536      -266.6861   31-A'
  36   1.0000      -9.791791      -266.4482   32-A'
  37   1.0000      -7.341694      -199.7776   33-A'
  38   1.0000      -7.341061      -199.7604   34-A'
  39   1.0000      -7.333936      -199.5665   35-A'
  40   1.0000      -7.333805      -199.5630   36-A'
  41   1.0000      -5.405687      -147.0962   37-A'
  42   1.0000      -5.404167      -147.0549   38-A'
  43   1.0000      -5.404108      -147.0532   39-A'
  44   1.0000      -5.403459      -147.0356   40-A'
  45   1.0000      -5.400001      -146.9415    6-A"
  46   1.0000      -5.399675      -146.9326   41-A'
  47   1.0000      -5.398523      -146.9013    7-A"
  48   1.0000      -5.398452      -146.8993    8-A"
  49   1.0000      -5.398418      -146.8984   42-A'
  50   1.0000      -5.398332      -146.8961   43-A'
  51   1.0000      -5.397805      -146.8818   44-A'
  52   1.0000      -5.397754      -146.8804    9-A"
  53   1.0000      -3.994399      -108.6931   45-A'
  54   1.0000      -2.507346       -68.2283   10-A"
  55   1.0000      -2.507065       -68.2207   46-A'
  56   1.0000      -2.505878       -68.1884   47-A'
  57   1.0000      -1.744838       -47.4794   48-A'
  58   1.0000      -1.743105       -47.4323   49-A'
  59   1.0000      -1.742940       -47.4278   50-A'
  60   1.0000      -1.742112       -47.4053   51-A'
  61   1.0000      -1.741323       -47.3838   11-A"
  62   1.0000      -1.741299       -47.3832   52-A'
  63   1.0000      -1.739937       -47.3461   53-A'
  64   1.0000      -1.739850       -47.3437   54-A'
  65   1.0000      -1.739761       -47.3413   12-A"
  66   1.0000      -1.739721       -47.3402   13-A"
  67   1.0000      -1.739305       -47.3289   55-A'
  68   1.0000      -1.738997       -47.3205   14-A"
  69   1.0000      -1.736295       -47.2470   56-A'
  70   1.0000      -1.736210       -47.2447   15-A"
  71   1.0000      -1.734959       -47.2106   57-A'
  72   1.0000      -1.734897       -47.2090   16-A"
  73   1.0000      -1.734857       -47.2079   58-A'
  74   1.0000      -1.734847       -47.2076   17-A"
  75   1.0000      -1.734287       -47.1924   18-A"
  76   1.0000      -1.734261       -47.1916   59-A'
  77   1.0000      -0.609304       -16.5800   60-A'
  78   1.0000      -0.604890       -16.4599   61-A'
  79   1.0000      -0.528742       -14.3878   62-A'
  80   1.0000      -0.521684       -14.1957   63-A'
  81   1.0000      -0.500715       -13.6251   64-A'
  82   1.0000      -0.499192       -13.5837   65-A'
  83   1.0000      -0.415779       -11.3139   66-A'
  84   1.0000      -0.414686       -11.2842   67-A'
  85   1.0000      -0.381588       -10.3835   68-A'
  86   1.0000      -0.376290       -10.2394   69-A'
  87   1.0000      -0.325931        -8.8690   70-A'
  88   1.0000      -0.317205        -8.6316   71-A'
  89   1.0000      -0.285917        -7.7802   72-A'
  90   1.0000      -0.274763        -7.4767   73-A'
  91   1.0000      -0.229192        -6.2366   74-A'
  92   1.0000      -0.222656        -6.0588   75-A'
  93   1.0000      -0.202918        -5.5217   76-A'
  94   1.0000      -0.201011        -5.4698   77-A'
  95   1.0000      -0.165990        -4.5168   78-A'
  96   1.0000      -0.159464        -4.3392   79-A'
  97   1.0000      -0.140525        -3.8239   80-A'
  98   1.0000      -0.134489        -3.6596   19-A"
  99   1.0000      -0.134186        -3.6514   81-A'
 100   1.0000      -0.131928        -3.5899   20-A"
 101   1.0000      -0.131638        -3.5820   82-A'
 102   1.0000      -0.105296        -2.8652   83-A'
 103   1.0000      -0.073757        -2.0070   84-A'
 104   1.0000      -0.067893        -1.8475   85-A'
 105   1.0000      -0.054689        -1.4882   86-A'
 106   1.0000      -0.051656        -1.4056   21-A"
 107   1.0000      -0.048568        -1.3216   22-A"
 108   1.0000      -0.048397        -1.3170   87-A'
 109   1.0000      -0.033400        -0.9089   23-A"
 110   1.0000      -0.028993        -0.7889   24-A"
 111   1.0000      -0.021766        -0.5923   88-A'
 112   1.0000      -0.002410        -0.0656   89-A'
 113   1.0000       0.006353         0.1729   25-A"
 114   1.0000       0.009591         0.2610   26-A"
 115   1.0000       0.011083         0.3016   90-A'
 116   1.0000       0.029858         0.8125   91-A'
 117   1.0000       0.031894         0.8679   92-A'
 118   1.0000       0.051938         1.4133   93-A'
 119   1.0000       0.055838         1.5194   27-A"
 120   1.0000       0.058698         1.5972   28-A"
 121   1.0000       0.071822         1.9544   29-A"
 122   1.0000       0.102123         2.7789   30-A"
 123   0.0000       0.144761         3.9391   94-A'
 124   0.0000       0.182312         4.9610   95-A'
 125   0.0000       0.184294         5.0149   96-A'
 126   0.0000       0.198422         5.3993   97-A'
 127   0.0000       0.199439         5.4270   98-A'

MULLIKEN ATOMIC CHARGES AND SPIN POPULATIONS
--------------------------------------------
   0 Cu:    0.630035    0.310674
   1 Se:   -0.746749    0.169748
   2 C :    0.194687   -0.003035
   3 Se:   -0.760921    0.165687
   4 C :    0.151649   -0.004489
   5 Se:   -0.733030    0.177861
   6 C :    0.210773   -0.002414
   7 Se:   -0.706435    0.178599
   8 C :    0.262757   -0.001034
   9 C :   -0.175723   -0.002351
  10 C :    0.073147   -0.000638
  11 C :   -0.081374   -0.001638
  12 H :    0.041977    0.002066
  13 C :   -0.191833    0.000035
  14 H :    0.079474    0.002954
  15 H :   -0.015018    0.002698
  16 H :    0.006975    0.001584
  17 C :   -0.040056   -0.001905
  18 C :   -0.086102   -0.002304
  19 C :   -0.150884   -0.001179
  20 H :    0.083075    0.002837
  21 C :   -0.165247   -0.000665
  22 H :    0.086193    0.003195
  23 H :    0.012114    0.001917
  24 H :    0.020516    0.001797
Sum of atomic charges         :   -2.0000000

LOEWDIN ATOMIC CHARGES AND SPIN POPULATIONS
-------------------------------------------
   0 Cu:   -0.622053    0.390464
   1 Se:   -0.203236    0.120654
   2 C :    0.034599    0.012547
   3 Se:   -0.197250    0.119985
   4 C :    0.017487    0.014475
   5 Se:   -0.206282    0.127862
   6 C :    0.048090    0.012468
   7 Se:   -0.212696    0.125934
   8 C :    0.070639    0.011449
   9 C :    0.385120    0.007428
  10 C :    0.313414    0.005815
  11 C :    0.288672    0.000298
  12 H :   -0.442926    0.005726
  13 C :    0.313390    0.000861
  14 H :   -0.460492    0.011159
  15 H :   -0.345584    0.000548
  16 H :   -0.422287    0.000525
  17 C :    0.352506    0.006366
  18 C :    0.365290    0.006991
  19 C :    0.314353    0.000294
  20 H :   -0.445331    0.007737
  21 C :    0.317637    0.000576
  22 H :   -0.449999    0.009040
  23 H :   -0.399214    0.000364
  24 H :   -0.413847    0.000435

  Mayer bond orders larger than 0.100000
B(  0-Cu,  1-Se) :   0.5561 B(  0-Cu,  3-Se) :   0.5586 B(  0-Cu,  5-Se) :   0.5514
B(  0-Cu,  7-Se) :   0.5490 B(  1-Se,  2-C ) :   1.0454 B(  2-C ,  6-C ) :   1.1368
B(  2-C , 17-C ) :   1.2549 B(  3-Se,  4-C ) :   1.0679 B(  4-C ,  8-C ) :   1.1295
B(  4-C , 10-C ) :   1.2313 B(  5-Se,  6-C ) :   1.0377 B(  6-C , 18-C ) :   1.2655
B(  7-Se,  8-C ) :   1.0257 B(  8-C ,  9-C ) :   1.2911 B(  9-C , 13-C ) :   1.3875
B(  9-C , 14-H ) :   0.9704 B( 10-C , 11-C ) :   1.2951 B( 10-C , 12-H ) :   0.9696
B( 11-C , 13-C ) :   1.3240 B( 11-C , 15-H ) :   0.9966 B( 13-C , 16-H ) :   1.0017
B( 17-C , 19-C ) :   1.3541 B( 17-C , 20-H ) :   0.9622 B( 18-C , 21-C ) :   1.3718
B( 18-C , 22-H ) :   0.9633 B( 19-C , 21-C ) :   1.3225 B( 19-C , 23-H ) :   0.9970
B( 21-C , 24-H ) :   0.9963

FINAL SINGLE POINT ENERGY    -11627.078717027332

DIPOLE MOMENT
-------------
                                X             Y             Z
Electronic contribution:     -0.47827      -0.26761      -0.00000
Nuclear contribution   :      0.46901       0.13451       0.00000
                        -----------------------------------------
Total Dipole Moment    :     -0.00925      -0.13311      -0.00000
                        -----------------------------------------
Magnitude (a.u.)       :      0.13343
Magnitude (Debye)      :      0.33914

Rotational constants in cm-1:     0.017624     0.004102     0.003328
Rotational constants in MHz :   528.360574   122.985279    99.763547

                             ****ORCA TERMINATED NORMALLY****
TOTAL RUN TIME: 0 days 19 hours 26 minutes 34 seconds 662 msec
