                         Program Version 5.0.4 -  RELEASE  -
|  1> ! RIJCOSX nofrozencore ReducedPop printbasis
|  2> ! M06L ano-rcc-dzp autoaux
|  3>
|  4> %maxcore 7500
|  5> %basis
|  6> PCDTrimBas overlap
|  7> PCDTrimAuxJ Coulomb
|  8> PCDTrimAuxJK Coulomb
|  9> PCDTrimAuxC Coulomb
| 10> PCDThresh -1
| 11> end
| 12>
| 13> %basis
| 14> newgto Cu "ano-rcc-tzp" end
| 15> newgto Se "ano-rcc-tzp" end
| 16> end
| 17>
| 18> %pal
| 19> nprocs 8
| 20> end
| 21>
| 22> % sym SymThresh 1e-2 end
| 23> * xyz -2 2
| 24> Cu -6.206009061484524e-05 -0.00010877918362174185 -0.00010895702989465416
| 25> Se 0.44375095164754613 -1.831422503271908 1.4370900588436184
| 26> C -0.877835331481457 -1.9285093126370947 2.4015214172525803
| 27> Se 2.119484877700648 -0.008670466994953241 -1.0601594165814683
| 28> C 1.9966644819625623 1.125505100458416 -2.2368763071429014
| 29> Se -2.1195682475814137 0.008524335922979456 1.0600130465955255
| 30> C -1.9966256848851738 -1.1254367794398041 2.2369459708005857
| 31> Se -0.4437579709676922 1.8314098824376805 -1.4371039312510554
| 32> C 0.8779017939004449 1.9286261255809356 -2.4014031823887985
| 33> C 0.9151132429528844 2.8459348984054533 -3.448629923493415
| 34> C 3.0427544687767596 1.318575416346114 -3.135734203797371
| 35> C 3.074116507506699 2.228377922555052 -4.173655694106073
| 36> H 3.9098302036940575 0.6885818133876207 -3.002185527296989
| 37> C 1.9541691748857917 3.032340091173794 -4.338362821642088
| 38> H 0.039832513629958585 3.466725120898561 -3.571310564117293
| 39> H 3.9434403321646774 2.297586422424867 -4.821438948804582
| 40> H 1.8808877355322464 3.778221116860614 -5.124762582807901
| 41> C -0.914948830270396 -2.84564639783445 3.4489201266814886
| 42> C -3.0426352926663456 -1.3183662066258235 3.135944986499798
| 43> C -1.9539284955859206 -3.031917910160267 4.338786923830753
| 44> H -0.03966847480343769 -3.466437275623845 3.571600110937716
| 45> C -3.073894810917936 -2.2279893318569335 4.174044920122505
| 46> H -3.9097469177565296 -0.6884355121108703 3.002333298705019
| 47> H -1.8805508323876297 -3.7776325845263465 5.125352775964986
| 48> H -3.9431457336622406 -2.297070048950807 4.821956166512757
| 49> *
| 50>
| 51> % eprnmr
| 52> gtensor true
| 53> Nuclei = all H {aiso,adip,aorb,fgrad,rho}
| 54> Nuclei = all Cu {aiso,adip,aorb,fgrad,rho}
| 55> end
| 56>
| 57>                          ****END OF INPUT****

CARTESIAN COORDINATES (ANGSTROEM)
---------------------------------
  Cu     0.000000    0.000000    0.000000
  Se    -1.174501    1.308529    1.588883
  C     -1.977570    2.421846    0.693488
  Se     1.174501   -1.308529    1.588883
  C      1.977570   -2.421846    0.693488
  Se    -1.174501    1.308529   -1.588883
  C     -1.977570    2.421846   -0.693488
  Se     1.174501   -1.308529   -1.588883
  C      1.977570   -2.421846   -0.693488
  C      2.702050   -3.433567   -1.318862
  C      2.702050   -3.433567    1.318862
  C      3.417420   -4.435611    0.694220
  H      2.696176   -3.427824    2.398899
  C      3.417420   -4.435611   -0.694220
  H      2.696176   -3.427824   -2.398899
  H      3.949336   -5.181138    1.278516
  H      3.949336   -5.181138   -1.278516
  C     -2.702050    3.433567    1.318862
  C     -2.702050    3.433567   -1.318862
  C     -3.417420    4.435611    0.694220
  H     -2.696176    3.427824    2.398899
  C     -3.417420    4.435611   -0.694220
  H     -2.696176    3.427824   -2.398899
  H     -3.949336    5.181138    1.278516
  H     -3.949336    5.181138   -1.278516

 Total Charge           Charge          ....   -2
 Multiplicity           Mult            ....    2
 Number of Electrons    NEL             ....  247
 Basis Dimension        Dim             ....  575

ORBITAL ENERGIES
----------------
                 SPIN UP ORBITALS
  NO   OCC          E(Eh)            E(eV)    Irrep
   0   1.0000    -443.561259    -12069.9155    1-Au
   1   1.0000    -443.560176    -12069.8860    1-Bg
   2   1.0000    -443.546604    -12069.5167    1-Ag
   3   1.0000    -443.546541    -12069.5150    1-Bu
   4   1.0000    -318.186921     -8658.3063    2-Ag
   5   1.0000     -56.369891     -1533.9027    2-Au
   6   1.0000     -56.369589     -1533.8945    2-Bg
   7   1.0000     -56.356949     -1533.5506    3-Ag
   8   1.0000     -56.356682     -1533.5433    2-Bu
   9   1.0000     -51.286088     -1395.5654    3-Bg
  10   1.0000     -51.286024     -1395.5637    3-Bu
  11   1.0000     -51.286022     -1395.5636    3-Au
  12   1.0000     -51.285992     -1395.5628    4-Ag
  13   1.0000     -51.284726     -1395.5283    4-Bg
  14   1.0000     -51.284719     -1395.5282    4-Au
  15   1.0000     -51.284682     -1395.5271    4-Bu
  16   1.0000     -51.284648     -1395.5262    5-Ag
  17   1.0000     -51.284282     -1395.5162    5-Au
  18   1.0000     -51.284253     -1395.5155    5-Bg
  19   1.0000     -51.284235     -1395.5150    6-Ag
  20   1.0000     -51.284201     -1395.5141    5-Bu
  21   1.0000     -38.027444     -1034.7794    7-Ag
  22   1.0000     -33.529516      -912.3845    6-Au
  23   1.0000     -33.528746      -912.3636    6-Bu
  24   1.0000     -33.517536      -912.0585    7-Bu
  25   1.0000      -9.816308      -267.1153    8-Bu
  26   1.0000      -9.816308      -267.1153    8-Ag
  27   1.0000      -9.815860      -267.1031    6-Bg
  28   1.0000      -9.815860      -267.1031    7-Au
  29   1.0000      -9.808809      -266.9112    9-Bu
  30   1.0000      -9.808802      -266.9111    9-Ag
  31   1.0000      -9.808356      -266.8989    7-Bg
  32   1.0000      -9.808354      -266.8989    8-Au
  33   1.0000      -9.806789      -266.8563   10-Bu
  34   1.0000      -9.806788      -266.8563   10-Ag
  35   1.0000      -9.806787      -266.8562    8-Bg
  36   1.0000      -9.806786      -266.8562    9-Au
  37   1.0000      -7.340979      -199.7582   10-Au
  38   1.0000      -7.340926      -199.7568    9-Bg
  39   1.0000      -7.333684      -199.5597   11-Ag
  40   1.0000      -7.333571      -199.5566   11-Bu
  41   1.0000      -5.403931      -147.0484   10-Bg
  42   1.0000      -5.403904      -147.0477   12-Bu
  43   1.0000      -5.403891      -147.0474   11-Au
  44   1.0000      -5.403883      -147.0471   12-Ag
  45   1.0000      -5.398628      -146.9041   11-Bg
  46   1.0000      -5.398626      -146.9041   12-Au
  47   1.0000      -5.398610      -146.9036   13-Bu
  48   1.0000      -5.398595      -146.9032   13-Ag
  49   1.0000      -5.398146      -146.8910   13-Au
  50   1.0000      -5.398131      -146.8906   12-Bg
  51   1.0000      -5.398120      -146.8903   14-Ag
  52   1.0000      -5.398104      -146.8899   14-Bu
  53   1.0000      -4.021791      -109.4385   15-Ag
  54   1.0000      -2.541352       -69.1537   14-Au
  55   1.0000      -2.540447       -69.1291   15-Bu
  56   1.0000      -2.516866       -68.4874   16-Bu
  57   1.0000      -1.742917       -47.4272   16-Ag
  58   1.0000      -1.742903       -47.4268   17-Bu
  59   1.0000      -1.742887       -47.4264   15-Au
  60   1.0000      -1.742875       -47.4260   13-Bg
  61   1.0000      -1.740256       -47.3548   17-Ag
  62   1.0000      -1.740238       -47.3543   18-Bu
  63   1.0000      -1.740172       -47.3525   16-Au
  64   1.0000      -1.740161       -47.3522   14-Bg
  65   1.0000      -1.739421       -47.3320   19-Bu
  66   1.0000      -1.739419       -47.3320   18-Ag
  67   1.0000      -1.739413       -47.3318   15-Bg
  68   1.0000      -1.739410       -47.3318   17-Au
  69   1.0000      -1.735111       -47.2148   19-Ag
  70   1.0000      -1.735104       -47.2146   20-Bu
  71   1.0000      -1.735048       -47.2130   16-Bg
  72   1.0000      -1.735046       -47.2130   18-Au
  73   1.0000      -1.735031       -47.2126   21-Bu
  74   1.0000      -1.735031       -47.2126   20-Ag
  75   1.0000      -1.735001       -47.2118   17-Bg
  76   1.0000      -1.735001       -47.2118   19-Au
  77   1.0000      -0.602020       -16.3818   21-Ag
  78   1.0000      -0.601817       -16.3763   22-Bu
  79   1.0000      -0.521370       -14.1872   22-Ag
  80   1.0000      -0.520639       -14.1673   23-Bu
  81   1.0000      -0.498561       -13.5665   20-Au
  82   1.0000      -0.498324       -13.5601   18-Bg
  83   1.0000      -0.412651       -11.2288   21-Au
  84   1.0000      -0.411517       -11.1979   19-Bg
  85   1.0000      -0.383433       -10.4337   23-Ag
  86   1.0000      -0.378947       -10.3117   24-Bu
  87   1.0000      -0.320641        -8.7251   24-Ag
  88   1.0000      -0.318339        -8.6624   25-Bu
  89   1.0000      -0.287386        -7.8202   22-Au
  90   1.0000      -0.284234        -7.7344   20-Bg
  91   1.0000      -0.230014        -6.2590   25-Ag
  92   1.0000      -0.223489        -6.0814   26-Bu
  93   1.0000      -0.200028        -5.4430   26-Ag
  94   1.0000      -0.199056        -5.4166   27-Bu
  95   1.0000      -0.170475        -4.6389   23-Au
  96   1.0000      -0.165657        -4.5078   21-Bg
  97   1.0000      -0.138327        -3.7641   24-Au
  98   1.0000      -0.136858        -3.7241   27-Ag
  99   1.0000      -0.136768        -3.7217   22-Bg
 100   1.0000      -0.130057        -3.5390   28-Bu
 101   1.0000      -0.129782        -3.5315   28-Ag
 102   1.0000      -0.110821        -3.0156   29-Bu
 103   1.0000      -0.082206        -2.2369   29-Ag
 104   1.0000      -0.071562        -1.9473   25-Au
 105   1.0000      -0.065850        -1.7919   23-Bg
 106   1.0000      -0.062762        -1.7078   30-Bu
 107   1.0000      -0.048643        -1.3237   30-Ag
 108   1.0000      -0.047708        -1.2982   31-Bu
 109   1.0000      -0.034007        -0.9254   24-Bg
 110   1.0000      -0.029286        -0.7969   31-Ag
 111   1.0000      -0.028682        -0.7805   25-Bg
 112   1.0000      -0.026610        -0.7241   26-Au
 113   1.0000      -0.001638        -0.0446   26-Bg
 114   1.0000      -0.000944        -0.0257   32-Ag
 115   1.0000       0.000720         0.0196   33-Ag
 116   1.0000       0.019333         0.5261   34-Ag
 117   1.0000       0.020998         0.5714   32-Bu
 118   1.0000       0.040714         1.1079   27-Au
 119   1.0000       0.055506         1.5104   28-Au
 120   1.0000       0.056299         1.5320   27-Bg
 121   1.0000       0.070802         1.9266   33-Bu
 122   1.0000       0.098818         2.6890   35-Ag
 123   1.0000       0.115843         3.1522   28-Bg
 124   0.0000       0.182194         4.9577   34-Bu
 125   0.0000       0.182306         4.9608   36-Ag
 126   0.0000       0.196272         5.3408   29-Bg
 127   0.0000       0.196664         5.3515   29-Au
 128   0.0000       0.201618         5.4863   35-Bu

                 SPIN DOWN ORBITALS
  NO   OCC          E(Eh)            E(eV)    Irrep
   0   1.0000    -443.560808    -12069.9032    1-Au
   1   1.0000    -443.559725    -12069.8737    1-Bg
   2   1.0000    -443.546152    -12069.5044    1-Ag
   3   1.0000    -443.546090    -12069.5027    1-Bu
   4   1.0000    -318.186798     -8658.3029    2-Ag
   5   1.0000     -56.369707     -1533.8977    2-Au
   6   1.0000     -56.369406     -1533.8895    2-Bg
   7   1.0000     -56.356769     -1533.5456    3-Ag
   8   1.0000     -56.356502     -1533.5384    2-Bu
   9   1.0000     -51.285769     -1395.5567    3-Bg
  10   1.0000     -51.285701     -1395.5549    3-Au
  11   1.0000     -51.285696     -1395.5547    3-Bu
  12   1.0000     -51.285663     -1395.5538    4-Ag
  13   1.0000     -51.284058     -1395.5102    4-Au
  14   1.0000     -51.284040     -1395.5097    4-Bg
  15   1.0000     -51.284010     -1395.5088    5-Ag
  16   1.0000     -51.283998     -1395.5085    4-Bu
  17   1.0000     -51.283960     -1395.5075    5-Au
  18   1.0000     -51.283954     -1395.5073    5-Bg
  19   1.0000     -51.283907     -1395.5061    5-Bu
  20   1.0000     -51.283897     -1395.5058    6-Ag
  21   1.0000     -38.013534     -1034.4008    7-Ag
  22   1.0000     -33.516298      -912.0248    6-Au
  23   1.0000     -33.515543      -912.0043    6-Bu
  24   1.0000     -33.513636      -911.9524    7-Bu
  25   1.0000      -9.816257      -267.1139    8-Bu
  26   1.0000      -9.816256      -267.1139    8-Ag
  27   1.0000      -9.815809      -267.1017    6-Bg
  28   1.0000      -9.815809      -267.1017    7-Au
  29   1.0000      -9.808826      -266.9117    9-Bu
  30   1.0000      -9.808820      -266.9116    9-Ag
  31   1.0000      -9.808371      -266.8994    7-Bg
  32   1.0000      -9.808369      -266.8993    8-Au
  33   1.0000      -9.806672      -266.8531   10-Bu
  34   1.0000      -9.806671      -266.8531   10-Ag
  35   1.0000      -9.806671      -266.8531    8-Bg
  36   1.0000      -9.806670      -266.8531    9-Au
  37   1.0000      -7.340579      -199.7473   10-Au
  38   1.0000      -7.340529      -199.7460    9-Bg
  39   1.0000      -7.333278      -199.5486   11-Ag
  40   1.0000      -7.333165      -199.5456   11-Bu
  41   1.0000      -5.403569      -147.0386   10-Bg
  42   1.0000      -5.403540      -147.0378   12-Bu
  43   1.0000      -5.403529      -147.0375   11-Au
  44   1.0000      -5.403519      -147.0372   12-Ag
  45   1.0000      -5.397981      -146.8865   12-Au
  46   1.0000      -5.397971      -146.8863   11-Bg
  47   1.0000      -5.397955      -146.8858   13-Ag
  48   1.0000      -5.397949      -146.8856   13-Bu
  49   1.0000      -5.397656      -146.8777   13-Au
  50   1.0000      -5.397653      -146.8776   12-Bg
  51   1.0000      -5.397630      -146.8770   14-Bu
  52   1.0000      -5.397625      -146.8768   14-Ag
  53   1.0000      -3.993475      -108.6680   15-Ag
  54   1.0000      -2.506619       -68.2086   15-Bu
  55   1.0000      -2.506009       -68.1920   14-Au
  56   1.0000      -2.504933       -68.1627   16-Bu
  57   1.0000      -1.742467       -47.4149   16-Ag
  58   1.0000      -1.742454       -47.4146   17-Bu
  59   1.0000      -1.742437       -47.4141   15-Au
  60   1.0000      -1.742426       -47.4138   13-Bg
  61   1.0000      -1.739388       -47.3312   17-Ag
  62   1.0000      -1.739371       -47.3307   18-Bu
  63   1.0000      -1.739313       -47.3291   16-Au
  64   1.0000      -1.739302       -47.3288   14-Bg
  65   1.0000      -1.739093       -47.3231   19-Bu
  66   1.0000      -1.739092       -47.3231   18-Ag
  67   1.0000      -1.739073       -47.3226   15-Bg
  68   1.0000      -1.739071       -47.3225   17-Au
  69   1.0000      -1.734309       -47.1929   19-Ag
  70   1.0000      -1.734303       -47.1928   20-Bu
  71   1.0000      -1.734261       -47.1916   20-Ag
  72   1.0000      -1.734261       -47.1916   18-Au
  73   1.0000      -1.734261       -47.1916   16-Bg
  74   1.0000      -1.734259       -47.1916   21-Bu
  75   1.0000      -1.734224       -47.1906   17-Bg
  76   1.0000      -1.734221       -47.1906   19-Au
  77   1.0000      -0.601208       -16.3597   21-Ag
  78   1.0000      -0.601019       -16.3546   22-Bu
  79   1.0000      -0.520225       -14.1561   22-Ag
  80   1.0000      -0.519528       -14.1371   23-Bu
  81   1.0000      -0.496867       -13.5204   20-Au
  82   1.0000      -0.496645       -13.5144   18-Bg
  83   1.0000      -0.409967       -11.1558   21-Au
  84   1.0000      -0.408809       -11.1243   19-Bg
  85   1.0000      -0.380950       -10.3662   23-Ag
  86   1.0000      -0.376646       -10.2491   24-Bu
  87   1.0000      -0.318892        -8.6775   24-Ag
  88   1.0000      -0.316431        -8.6105   25-Bu
  89   1.0000      -0.285017        -7.7557   22-Au
  90   1.0000      -0.281608        -7.6629   20-Bg
  91   1.0000      -0.228896        -6.2286   25-Ag
  92   1.0000      -0.222424        -6.0525   26-Bu
  93   1.0000      -0.198729        -5.4077   26-Ag
  94   1.0000      -0.197833        -5.3833   27-Bu
  95   1.0000      -0.169050        -4.6001   23-Au
  96   1.0000      -0.163581        -4.4513   21-Bg
  97   1.0000      -0.137466        -3.7406   24-Au
  98   1.0000      -0.135130        -3.6771   22-Bg
  99   1.0000      -0.134938        -3.6719   27-Ag
 100   1.0000      -0.129669        -3.5285   28-Bu
 101   1.0000      -0.129332        -3.5193   28-Ag
 102   1.0000      -0.109074        -2.9681   29-Bu
 103   1.0000      -0.080840        -2.1998   29-Ag
 104   1.0000      -0.070117        -1.9080   25-Au
 105   1.0000      -0.060566        -1.6481   30-Bu
 106   1.0000      -0.054302        -1.4776   23-Bg
 107   1.0000      -0.047471        -1.2917   30-Ag
 108   1.0000      -0.047135        -1.2826   31-Bu
 109   1.0000      -0.030562        -0.8316   24-Bg
 110   1.0000      -0.025613        -0.6970   26-Au
 111   1.0000      -0.022862        -0.6221   31-Ag
 112   1.0000      -0.001803        -0.0491   25-Bg
 113   1.0000       0.008049         0.2190   26-Bg
 114   1.0000       0.010115         0.2752   32-Ag
 115   1.0000       0.011255         0.3063   33-Ag
 116   1.0000       0.029153         0.7933   32-Bu
 117   1.0000       0.032168         0.8753   34-Ag
 118   1.0000       0.051049         1.3891   27-Au
 119   1.0000       0.058277         1.5858   28-Au
 120   1.0000       0.059911         1.6303   27-Bg
 121   1.0000       0.072514         1.9732   33-Bu
 122   1.0000       0.102071         2.7775   35-Ag
 123   0.0000       0.145668         3.9638   28-Bg
 124   0.0000       0.184066         5.0087   34-Bu
 125   0.0000       0.184197         5.0122   36-Ag
 126   0.0000       0.199502         5.4287   29-Bg
 127   0.0000       0.199981         5.4418   29-Au

MULLIKEN ATOMIC CHARGES AND SPIN POPULATIONS
--------------------------------------------
   0 Cu:    0.637260    0.310511
   1 Se:   -0.734570    0.173155
   2 C :    0.223242   -0.003028
   3 Se:   -0.734570    0.173155
   4 C :    0.223242   -0.003028
   5 Se:   -0.734570    0.173155
   6 C :    0.223242   -0.003028
   7 Se:   -0.734570    0.173155
   8 C :    0.223242   -0.003028
   9 C :   -0.105254   -0.001450
  10 C :   -0.105254   -0.001450
  11 C :   -0.155369   -0.000457
  12 H :    0.092783    0.002591
  13 C :   -0.155369   -0.000457
  14 H :    0.092783    0.002591
  15 H :    0.019852    0.001562
  16 H :    0.019852    0.001562
  17 C :   -0.105254   -0.001450
  18 C :   -0.105254   -0.001450
  19 C :   -0.155369   -0.000457
  20 H :    0.092783    0.002591
  21 C :   -0.155369   -0.000457
  22 H :    0.092783    0.002591
  23 H :    0.019852    0.001562
  24 H :    0.019852    0.001562
Sum of atomic charges         :   -2.0000000

LOEWDIN ATOMIC CHARGES AND SPIN POPULATIONS
-------------------------------------------
   0 Cu:   -0.615846    0.390694
   1 Se:   -0.202991    0.123286
   2 C :    0.038915    0.011847
   3 Se:   -0.202991    0.123286
   4 C :    0.038915    0.011847
   5 Se:   -0.202991    0.123286
   6 C :    0.038915    0.011847
   7 Se:   -0.202991    0.123286
   8 C :    0.038915    0.011847
   9 C :    0.371460    0.006864
  10 C :    0.371460    0.006864
  11 C :    0.318731    0.000573
  12 H :   -0.460867    0.009341
  13 C :    0.318731    0.000573
  14 H :   -0.460867    0.009341
  15 H :   -0.411287    0.000416
  16 H :   -0.411287    0.000416
  17 C :    0.371460    0.006864
  18 C :    0.371460    0.006864
  19 C :    0.318731    0.000573
  20 H :   -0.460867    0.009341
  21 C :    0.318731    0.000573
  22 H :   -0.460867    0.009341
  23 H :   -0.411287    0.000416
  24 H :   -0.411287    0.000416

  Mayer bond orders larger than 0.100000
B(  0-Cu,  1-Se) :   0.5498 B(  0-Cu,  3-Se) :   0.5498 B(  0-Cu,  5-Se) :   0.5498
B(  0-Cu,  7-Se) :   0.5498 B(  1-Se,  2-C ) :   1.0378 B(  2-C ,  6-C ) :   1.1345
B(  2-C , 17-C ) :   1.2581 B(  3-Se,  4-C ) :   1.0378 B(  4-C ,  8-C ) :   1.1345
B(  4-C , 10-C ) :   1.2581 B(  5-Se,  6-C ) :   1.0378 B(  6-C , 18-C ) :   1.2581
B(  7-Se,  8-C ) :   1.0378 B(  8-C ,  9-C ) :   1.2581 B(  9-C , 13-C ) :   1.3785
B(  9-C , 14-H ) :   0.9599 B( 10-C , 11-C ) :   1.3785 B( 10-C , 12-H ) :   0.9599
B( 11-C , 13-C ) :   1.3129 B( 11-C , 15-H ) :   0.9961 B( 13-C , 16-H ) :   0.9961
B( 17-C , 19-C ) :   1.3785 B( 17-C , 20-H ) :   0.9599 B( 18-C , 21-C ) :   1.3785
B( 18-C , 22-H ) :   0.9599 B( 19-C , 21-C ) :   1.3129 B( 19-C , 23-H ) :   0.9961
B( 21-C , 24-H ) :   0.9961

FINAL SINGLE POINT ENERGY    -11627.146910971573

DIPOLE MOMENT
-------------
                                X             Y             Z
Electronic contribution:     -0.00000       0.00000      -0.00000
Nuclear contribution   :      0.00000      -0.00000      -0.00000
                        -----------------------------------------
Total Dipole Moment    :     -0.00000       0.00000      -0.00000
                        -----------------------------------------
Magnitude (a.u.)       :      0.00000
Magnitude (Debye)      :      0.00000

Rotational constants in cm-1:     0.017547     0.004094     0.003325
Rotational constants in MHz :   526.041945   122.739359    99.666014

                             ****ORCA TERMINATED NORMALLY****
TOTAL RUN TIME: 0 days 17 hours 13 minutes 30 seconds 226 msec
