                         Program Version 5.0.4 -  RELEASE  -
|  1> ! RIJCOSX nofrozencore ReducedPop printbasis
|  2> ! M06L ano-rcc-dzp autoaux
|  3>
|  4> %maxcore 7500
|  5> %basis
|  6> PCDTrimBas overlap
|  7> PCDTrimAuxJ Coulomb
|  8> PCDTrimAuxJK Coulomb
|  9> PCDTrimAuxC Coulomb
| 10> PCDThresh -1
| 11> end
| 12>
| 13> %basis
| 14> newgto Cu "ano-rcc-tzp" end
| 15> newgto Se "ano-rcc-tzp" end
| 16> end
| 17>
| 18> %pal
| 19> nprocs 8
| 20> end
| 21>
| 22> % sym SymThresh 1e-2 end
| 23> * xyz -2 2
| 24> Cu 0.0 0.0 0.0
| 25> Se 0.18560432160313034 -0.08698658744163301 -2.359246661890507
| 26> C -0.9320256420754044 1.0144647805230596 -2.9038510726168845
| 27> Se 1.354072007442666 -1.8983043584255315 0.4134079736396232
| 28> C 1.3921174254830615 -2.0343829104985174 2.04456760545769
| 29> Se -1.3619178583287679 1.892624581307618 -0.41377811518535634
| 30> C -1.1625358327329474 2.2005818729980633 -2.0337366979059124
| 31> Se -0.1777560424128235 0.09266812246023318 2.359616917995679
| 32> C 0.7023987209801317 -1.1806965571687529 2.893018026622255
| 33> C 0.8318321506037314 -1.4168596769331603 4.257607195419961
| 34> C 2.0948758577968944 -3.075602495962384 2.641745530779162
| 35> C 2.2110231020376245 -3.312071880528184 3.9949893483772168
| 36> H 2.626997664703774 -3.7377858338248506 1.9745104424014008
| 37> C 1.5389826481884403 -2.4441589868430977 4.845202911436735
| 38> H 0.29423495200923966 -0.7462935949716806 4.911957139047364
| 39> H 2.7975538498638466 -4.149133532432406 4.3589154619494455
| 40> H 1.5648453317372715 -2.5471460553257104 5.924953098837048
| 41> C -0.730616719116738 1.4901324215211944 -4.252832956691278
| 42> C -2.196046295886546 3.002363079662898 -2.6465184206646093
| 43> C -1.5676669218395267 2.4233945921102786 -4.846556915310171
| 44> H -0.47225959931519196 0.6174177938799043 -4.920355758787786
| 45> C -2.1823428755602134 3.3328333454265255 -3.9936355354361788
| 46> H -2.4491090024332975 3.866563192478186 -1.9661182379895341
| 47> H -1.558045270528756 2.5520687632146606 -5.924632294222821
| 48> H -2.804379960348588 4.144192185799277 -4.359236086498352
| 49> *
| 50>
| 51> % eprnmr
| 52> gtensor true
| 53> Nuclei = all H {aiso,adip,aorb,fgrad,rho}
| 54> Nuclei = all Cu {aiso,adip,aorb,fgrad,rho}
| 55> end
| 56>
| 57>                          ****END OF INPUT****

CARTESIAN COORDINATES (ANGSTROEM)
---------------------------------
  Cu     0.000000    0.000000    0.000000
  Se     0.962223   -1.264421   -1.755969
  C      0.200308   -0.717045   -3.126639
  Se     0.954474   -1.270247    1.755969
  C      0.427026   -0.546570    3.126639
  Se    -0.962223    1.264421   -1.755969
  C     -0.200308    0.717045   -3.126639
  Se    -0.954474    1.270247    1.755969
  C     -0.427026    0.546570    3.126639
  C     -0.788091    1.057517    4.368893
  C      0.788091   -1.057517    4.368893
  C      0.418389   -0.553980    5.597896
  H      1.450945   -1.910395    4.360734
  C     -0.418389    0.553980    5.597896
  H     -1.450945    1.910395    4.360734
  H      0.768081   -1.022083    6.512078
  H     -0.768081    1.022083    6.512078
  C      0.888012   -0.982384   -4.368893
  C     -0.888012    0.982384   -4.368893
  C      0.390068   -0.575276   -5.597895
  H      1.275225   -2.042523   -4.360734
  C     -0.390068    0.575276   -5.597895
  H     -1.275225    2.042523   -4.360734
  H      0.774809   -1.017025   -6.512077
  H     -0.774809    1.017025   -6.512077

 Total Charge           Charge          ....   -2
 Multiplicity           Mult            ....    2
 Number of Electrons    NEL             ....  247
 Basis Dimension        Dim             ....  575

ORBITAL ENERGIES
----------------
                 SPIN UP ORBITALS
  NO   OCC          E(Eh)            E(eV)    Irrep
   0   1.0000    -443.562015    -12069.9361    1-B
   1   1.0000    -443.547860    -12069.5509    1-A
   2   1.0000    -443.539273    -12069.3172    2-B
   3   1.0000    -443.538274    -12069.2900    2-A
   4   1.0000    -318.188554     -8658.3507    3-A
   5   1.0000     -56.370951     -1533.9316    3-B
   6   1.0000     -56.358041     -1533.5803    4-A
   7   1.0000     -56.355662     -1533.5155    4-B
   8   1.0000     -56.354737     -1533.4904    5-A
   9   1.0000     -51.287201     -1395.5957    5-B
  10   1.0000     -51.287153     -1395.5944    6-A
  11   1.0000     -51.285862     -1395.5592    6-B
  12   1.0000     -51.285804     -1395.5577    7-A
  13   1.0000     -51.285429     -1395.5475    8-A
  14   1.0000     -51.285381     -1395.5462    7-B
  15   1.0000     -51.284992     -1395.5356    8-B
  16   1.0000     -51.284975     -1395.5351    9-A
  17   1.0000     -51.283857     -1395.5047    9-B
  18   1.0000     -51.283835     -1395.5041   10-A
  19   1.0000     -51.283313     -1395.4899   11-A
  20   1.0000     -51.283311     -1395.4898   10-B
  21   1.0000     -38.029114     -1034.8248   12-A
  22   1.0000     -33.531142      -912.4288   11-B
  23   1.0000     -33.530239      -912.4042   13-A
  24   1.0000     -33.519413      -912.1096   12-B
  25   1.0000      -9.821821      -267.2653   14-A
  26   1.0000      -9.821640      -267.2604   13-B
  27   1.0000      -9.816970      -267.1333   15-A
  28   1.0000      -9.816808      -267.1289   16-A
  29   1.0000      -9.816530      -267.1214   14-B
  30   1.0000      -9.816359      -267.1167   15-B
  31   1.0000      -9.813364      -267.0352   16-B
  32   1.0000      -9.813363      -267.0352   17-A
  33   1.0000      -9.809406      -266.9275   18-A
  34   1.0000      -9.808957      -266.9153   17-B
  35   1.0000      -9.807407      -266.8731   19-A
  36   1.0000      -9.807404      -266.8730   18-B
  37   1.0000      -7.342110      -199.7890   19-B
  38   1.0000      -7.336116      -199.6259   20-B
  39   1.0000      -7.335506      -199.6093   20-A
  40   1.0000      -7.334784      -199.5896   21-A
  41   1.0000      -5.406616      -147.1215   21-B
  42   1.0000      -5.406606      -147.1212   22-A
  43   1.0000      -5.405000      -147.0775   22-B
  44   1.0000      -5.404981      -147.0770   23-A
  45   1.0000      -5.401844      -146.9916   24-A
  46   1.0000      -5.401839      -146.9915   23-B
  47   1.0000      -5.400667      -146.9596   24-B
  48   1.0000      -5.400657      -146.9594   25-A
  49   1.0000      -5.399681      -146.9328   25-B
  50   1.0000      -5.399656      -146.9321   26-A
  51   1.0000      -5.399351      -146.9238   27-A
  52   1.0000      -5.399326      -146.9231   26-B
  53   1.0000      -4.023298      -109.4795   28-A
  54   1.0000      -2.542758       -69.1920   27-B
  55   1.0000      -2.541641       -69.1616   29-A
  56   1.0000      -2.518757       -68.5389   28-B
  57   1.0000      -1.745427       -47.4955   30-A
  58   1.0000      -1.745401       -47.4948   29-B
  59   1.0000      -1.744037       -47.4576   31-A
  60   1.0000      -1.744007       -47.4569   30-B
  61   1.0000      -1.743119       -47.4327   32-A
  62   1.0000      -1.743098       -47.4321   31-B
  63   1.0000      -1.742348       -47.4117   33-A
  64   1.0000      -1.742302       -47.4104   32-B
  65   1.0000      -1.741295       -47.3830   34-A
  66   1.0000      -1.741214       -47.3809   33-B
  67   1.0000      -1.740606       -47.3643   34-B
  68   1.0000      -1.740600       -47.3641   35-A
  69   1.0000      -1.738169       -47.2980   36-A
  70   1.0000      -1.738116       -47.2965   35-B
  71   1.0000      -1.738077       -47.2955   36-B
  72   1.0000      -1.738074       -47.2954   37-A
  73   1.0000      -1.736225       -47.2451   37-B
  74   1.0000      -1.736217       -47.2449   38-A
  75   1.0000      -1.736179       -47.2438   39-A
  76   1.0000      -1.736128       -47.2424   38-B
  77   1.0000      -0.603550       -16.4234   40-A
  78   1.0000      -0.592859       -16.1325   41-A
  79   1.0000      -0.522279       -14.2119   42-A
  80   1.0000      -0.516345       -14.0505   43-A
  81   1.0000      -0.500219       -13.6117   39-B
  82   1.0000      -0.491272       -13.3682   40-B
  83   1.0000      -0.413645       -11.2558   41-B
  84   1.0000      -0.409381       -11.1398   42-B
  85   1.0000      -0.382796       -10.4164   44-A
  86   1.0000      -0.372054       -10.1241   45-A
  87   1.0000      -0.320720        -8.7272   46-A
  88   1.0000      -0.298053        -8.1104   47-A
  89   1.0000      -0.287314        -7.8182   43-B
  90   1.0000      -0.278237        -7.5712   44-B
  91   1.0000      -0.229590        -6.2475   48-A
  92   1.0000      -0.221452        -6.0260   49-A
  93   1.0000      -0.200928        -5.4675   50-A
  94   1.0000      -0.178038        -4.8447   51-A
  95   1.0000      -0.170055        -4.6274   45-B
  96   1.0000      -0.160857        -4.3771   46-B
  97   1.0000      -0.138865        -3.7787   47-B
  98   1.0000      -0.134064        -3.6481   52-A
  99   1.0000      -0.133407        -3.6302   48-B
 100   1.0000      -0.131398        -3.5755   49-B
 101   1.0000      -0.118570        -3.2265   50-B
 102   1.0000      -0.106560        -2.8996   53-A
 103   1.0000      -0.077955        -2.1213   54-A
 104   1.0000      -0.077378        -2.1056   51-B
 105   1.0000      -0.068962        -1.8766   52-B
 106   1.0000      -0.059410        -1.6166   55-A
 107   1.0000      -0.049225        -1.3395   53-B
 108   1.0000      -0.040074        -1.0905   54-B
 109   1.0000      -0.035299        -0.9605   56-A
 110   1.0000      -0.030823        -0.8387   57-A
 111   1.0000      -0.021703        -0.5906   58-A
 112   1.0000      -0.021179        -0.5763   55-B
 113   1.0000      -0.003848        -0.1047   59-A
 114   1.0000      -0.002138        -0.0582   56-B
 115   1.0000       0.000880         0.0239   60-A
 116   1.0000       0.018363         0.4997   61-A
 117   1.0000       0.028335         0.7710   62-A
 118   1.0000       0.039802         1.0831   57-B
 119   1.0000       0.053244         1.4489   63-A
 120   1.0000       0.054720         1.4890   64-A
 121   1.0000       0.068273         1.8578   58-B
 122   1.0000       0.096687         2.6310   59-B
 123   1.0000       0.115639         3.1467   60-B
 124   0.0000       0.178077         4.8457   65-A
 125   0.0000       0.178167         4.8482   61-B
 126   0.0000       0.181598         4.9415   66-A
 127   0.0000       0.184302         5.0151   67-A
 128   0.0000       0.195757         5.3268   62-B

                 SPIN DOWN ORBITALS
  NO   OCC          E(Eh)            E(eV)    Irrep
   0   1.0000    -443.561561    -12069.9237    1-B
   1   1.0000    -443.547406    -12069.5385    1-A
   2   1.0000    -443.538816    -12069.3048    2-B
   3   1.0000    -443.537818    -12069.2776    2-A
   4   1.0000    -318.188432     -8658.3474    3-A
   5   1.0000     -56.370767     -1533.9266    3-B
   6   1.0000     -56.357859     -1533.5753    4-A
   7   1.0000     -56.355479     -1533.5105    4-B
   8   1.0000     -56.354554     -1533.4854    5-A
   9   1.0000     -51.286877     -1395.5869    5-B
  10   1.0000     -51.286820     -1395.5853    6-A
  11   1.0000     -51.285179     -1395.5407    7-A
  12   1.0000     -51.285134     -1395.5394    6-B
  13   1.0000     -51.285121     -1395.5391    7-B
  14   1.0000     -51.285075     -1395.5378    8-A
  15   1.0000     -51.284678     -1395.5270    8-B
  16   1.0000     -51.284656     -1395.5264    9-A
  17   1.0000     -51.283232     -1395.4877   10-A
  18   1.0000     -51.283209     -1395.4871    9-B
  19   1.0000     -51.282950     -1395.4800   10-B
  20   1.0000     -51.282913     -1395.4790   11-A
  21   1.0000     -38.015293     -1034.4487   12-A
  22   1.0000     -33.518014      -912.0715   11-B
  23   1.0000     -33.517120      -912.0472   13-A
  24   1.0000     -33.515530      -912.0039   12-B
  25   1.0000      -9.821863      -267.2665   14-A
  26   1.0000      -9.821681      -267.2615   13-B
  27   1.0000      -9.816920      -267.1320   15-A
  28   1.0000      -9.816757      -267.1275   16-A
  29   1.0000      -9.816480      -267.1200   14-B
  30   1.0000      -9.816309      -267.1153   15-B
  31   1.0000      -9.813200      -267.0307   16-B
  32   1.0000      -9.813200      -267.0307   17-A
  33   1.0000      -9.809425      -266.9280   18-A
  34   1.0000      -9.808973      -266.9157   17-B
  35   1.0000      -9.807286      -266.8698   19-A
  36   1.0000      -9.807285      -266.8698   18-B
  37   1.0000      -7.341709      -199.7781   19-B
  38   1.0000      -7.335706      -199.6147   20-B
  39   1.0000      -7.335095      -199.5981   20-A
  40   1.0000      -7.334376      -199.5785   21-A
  41   1.0000      -5.406270      -147.1121   21-B
  42   1.0000      -5.406260      -147.1118   22-A
  43   1.0000      -5.404633      -147.0675   22-B
  44   1.0000      -5.404614      -147.0670   23-A
  45   1.0000      -5.401218      -146.9746   24-A
  46   1.0000      -5.401206      -146.9743   23-B
  47   1.0000      -5.400132      -146.9451   24-B
  48   1.0000      -5.400115      -146.9446   25-A
  49   1.0000      -5.399044      -146.9155   26-A
  50   1.0000      -5.399019      -146.9148   25-B
  51   1.0000      -5.398848      -146.9101   26-B
  52   1.0000      -5.398824      -146.9095   27-A
  53   1.0000      -3.995249      -108.7162   28-A
  54   1.0000      -2.508542       -68.2609   27-B
  55   1.0000      -2.507648       -68.2366   28-B
  56   1.0000      -2.506574       -68.2073   29-A
  57   1.0000      -1.744979       -47.4833   30-A
  58   1.0000      -1.744953       -47.4826   29-B
  59   1.0000      -1.743586       -47.4454   31-A
  60   1.0000      -1.743556       -47.4446   30-B
  61   1.0000      -1.742473       -47.4151   31-B
  62   1.0000      -1.742470       -47.4150   32-A
  63   1.0000      -1.741805       -47.3969   33-A
  64   1.0000      -1.741733       -47.3950   32-B
  65   1.0000      -1.740412       -47.3590   34-A
  66   1.0000      -1.740351       -47.3574   33-B
  67   1.0000      -1.740272       -47.3552   35-A
  68   1.0000      -1.740257       -47.3548   34-B
  69   1.0000      -1.737356       -47.2759   36-A
  70   1.0000      -1.737334       -47.2752   35-B
  71   1.0000      -1.737286       -47.2739   37-A
  72   1.0000      -1.737261       -47.2733   36-B
  73   1.0000      -1.735455       -47.2241   37-B
  74   1.0000      -1.735439       -47.2237   38-A
  75   1.0000      -1.735382       -47.2221   39-A
  76   1.0000      -1.735327       -47.2206   38-B
  77   1.0000      -0.602740       -16.4014   40-A
  78   1.0000      -0.592086       -16.1115   41-A
  79   1.0000      -0.521141       -14.1810   42-A
  80   1.0000      -0.515086       -14.0162   43-A
  81   1.0000      -0.498521       -13.5654   39-B
  82   1.0000      -0.489513       -13.3203   40-B
  83   1.0000      -0.410949       -11.1825   41-B
  84   1.0000      -0.406620       -11.0647   42-B
  85   1.0000      -0.380336       -10.3495   44-A
  86   1.0000      -0.369640       -10.0584   45-A
  87   1.0000      -0.318903        -8.6778   46-A
  88   1.0000      -0.296181        -8.0595   47-A
  89   1.0000      -0.284840        -7.7509   43-B
  90   1.0000      -0.275643        -7.5006   44-B
  91   1.0000      -0.228464        -6.2168   48-A
  92   1.0000      -0.220326        -5.9954   49-A
  93   1.0000      -0.199655        -5.4329   50-A
  94   1.0000      -0.176486        -4.8024   51-A
  95   1.0000      -0.168498        -4.5851   45-B
  96   1.0000      -0.158319        -4.3081   46-B
  97   1.0000      -0.137530        -3.7424   47-B
  98   1.0000      -0.132993        -3.6189   48-B
  99   1.0000      -0.132102        -3.5947   52-A
 100   1.0000      -0.131002        -3.5648   49-B
 101   1.0000      -0.117661        -3.2017   50-B
 102   1.0000      -0.104709        -2.8493   53-A
 103   1.0000      -0.076229        -2.0743   54-A
 104   1.0000      -0.075960        -2.0670   51-B
 105   1.0000      -0.061588        -1.6759   52-B
 106   1.0000      -0.057538        -1.5657   55-A
 107   1.0000      -0.048316        -1.3147   53-B
 108   1.0000      -0.031618        -0.8604   56-A
 109   1.0000      -0.028768        -0.7828   57-A
 110   1.0000      -0.025782        -0.7016   54-B
 111   1.0000      -0.016368        -0.4454   58-A
 112   1.0000      -0.002989        -0.0813   55-B
 113   1.0000       0.005944         0.1617   59-A
 114   1.0000       0.008800         0.2395   56-B
 115   1.0000       0.011382         0.3097   60-A
 116   1.0000       0.029860         0.8125   61-A
 117   1.0000       0.035536         0.9670   62-A
 118   1.0000       0.050957         1.3866   57-B
 119   1.0000       0.055437         1.5085   63-A
 120   1.0000       0.058215         1.5841   64-A
 121   1.0000       0.070107         1.9077   58-B
 122   1.0000       0.100038         2.7222   59-B
 123   0.0000       0.145154         3.9498   60-B
 124   0.0000       0.178546         4.8585   61-B
 125   0.0000       0.178890         4.8678   65-A
 126   0.0000       0.183553         4.9947   66-A
 127   0.0000       0.185927         5.0593   67-A

MULLIKEN ATOMIC CHARGES AND SPIN POPULATIONS
--------------------------------------------
   0 Cu:    0.654044    0.306394
   1 Se:   -0.589434    0.176791
   2 C :    0.077805   -0.005330
   3 Se:   -0.730327    0.173380
   4 C :    0.220857   -0.003299
   5 Se:   -0.589434    0.176791
   6 C :    0.077805   -0.005330
   7 Se:   -0.730327    0.173380
   8 C :    0.220857   -0.003299
   9 C :   -0.102740   -0.001318
  10 C :   -0.102740   -0.001318
  11 C :   -0.156313   -0.000657
  12 H :    0.091866    0.002583
  13 C :   -0.156313   -0.000657
  14 H :    0.091866    0.002583
  15 H :    0.021481    0.001612
  16 H :    0.021481    0.001612
  17 C :   -0.134099    0.000817
  18 C :   -0.134099    0.000817
  19 C :   -0.116058   -0.001196
  20 H :    0.058322    0.001619
  21 C :   -0.116058   -0.001196
  22 H :    0.058322    0.001619
  23 H :    0.031620    0.001803
  24 H :    0.031620    0.001803
Sum of atomic charges         :   -2.0000000

LOEWDIN ATOMIC CHARGES AND SPIN POPULATIONS
-------------------------------------------
   0 Cu:   -0.619927    0.388540
   1 Se:   -0.250803    0.125960
   2 C :    0.107369    0.009284
   3 Se:   -0.203759    0.123558
   4 C :    0.038527    0.011806
   5 Se:   -0.250803    0.125960
   6 C :    0.107369    0.009284
   7 Se:   -0.203759    0.123558
   8 C :    0.038527    0.011806
   9 C :    0.371259    0.006981
  10 C :    0.371259    0.006981
  11 C :    0.319955    0.000479
  12 H :   -0.459799    0.009378
  13 C :    0.319955    0.000479
  14 H :   -0.459799    0.009378
  15 H :   -0.411972    0.000401
  16 H :   -0.411972    0.000401
  17 C :    0.352387    0.008535
  18 C :    0.352387    0.008535
  19 C :    0.309350    0.000175
  20 H :   -0.445032    0.008802
  21 C :    0.309350    0.000175
  22 H :   -0.445032    0.008802
  23 H :   -0.417520    0.000371
  24 H :   -0.417520    0.000371

  Mayer bond orders larger than 0.100000
B(  0-Cu,  1-Se) :   0.5290 B(  0-Cu,  3-Se) :   0.5513 B(  0-Cu,  5-Se) :   0.5290
B(  0-Cu,  7-Se) :   0.5513 B(  1-Se,  2-C ) :   1.0650 B(  2-C ,  6-C ) :   1.1515
B(  2-C , 17-C ) :   1.2706 B(  3-Se,  4-C ) :   1.0393 B(  4-C ,  8-C ) :   1.1344
B(  4-C , 10-C ) :   1.2572 B(  5-Se,  6-C ) :   1.0650 B(  6-C , 18-C ) :   1.2706
B(  7-Se,  8-C ) :   1.0393 B(  8-C ,  9-C ) :   1.2572 B(  9-C , 13-C ) :   1.3795
B(  9-C , 14-H ) :   0.9596 B( 10-C , 11-C ) :   1.3795 B( 10-C , 12-H ) :   0.9596
B( 11-C , 13-C ) :   1.3126 B( 11-C , 15-H ) :   0.9954 B( 13-C , 16-H ) :   0.9954
B( 17-C , 19-C ) :   1.3742 B( 17-C , 20-H ) :   0.9776 B( 18-C , 21-C ) :   1.3742
B( 18-C , 22-H ) :   0.9776 B( 19-C , 21-C ) :   1.3249 B( 19-C , 23-H ) :   0.9820
B( 21-C , 24-H ) :   0.9820

FINAL SINGLE POINT ENERGY    -11626.990127273648

DIPOLE MOMENT
-------------
                                X             Y             Z
Electronic contribution:      0.00000      -0.00000       0.20678
Nuclear contribution   :     -0.00000       0.00000       0.00000
                        -----------------------------------------
Total Dipole Moment    :      0.00000      -0.00000       0.20678
                        -----------------------------------------
Magnitude (a.u.)       :      0.20678
Magnitude (Debye)      :      0.52559

Rotational constants in cm-1:     0.017574     0.004096     0.003325
Rotational constants in MHz :   526.868961   122.784365    99.666038

                             ****ORCA TERMINATED NORMALLY****
TOTAL RUN TIME: 0 days 17 hours 8 minutes 2 seconds 996 msec
