                         Program Version 5.0.4 -  RELEASE  -
|  1> ! RIJCOSX nofrozencore ReducedPop printbasis
|  2> ! M06L ano-rcc-dzp autoaux
|  3>
|  4> %maxcore 7500
|  5> %basis
|  6> PCDTrimBas overlap
|  7> PCDTrimAuxJ Coulomb
|  8> PCDTrimAuxJK Coulomb
|  9> PCDTrimAuxC Coulomb
| 10> PCDThresh -1
| 11> end
| 12>
| 13> %basis
| 14> newgto Cu "ano-rcc-tzp" end
| 15> newgto Se "ano-rcc-tzp" end
| 16> end
| 17>
| 18> %pal
| 19> nprocs 8
| 20> end
| 21>
| 22> % sym SymThresh 1e-2 end
| 23> * xyz -2 2
| 24> Cu -0.0006692564406580383 -0.0014823999953119905 -0.0007118111199867167
| 25> Se -0.39508227186298334 -2.300308404167291 0.37826381469407455
| 26> C -1.094485427645433 -2.7413977047360185 -0.9864164045457083
| 27> Se 1.0120569793262786 0.40825246793579617 2.1035952441242824
| 28> C 1.3918038771958663 2.033669029653478 2.068097508868437
| 29> Se -1.0119951825339413 -0.4235109591715055 -2.094904289092398
| 30> C -1.346373921534565 -1.9852781741669208 -1.9905161743291853
| 31> Se 0.39657100010051616 2.304432580165288 -0.37714355464733645
| 32> C 1.1200513814803932 2.8770105411706126 0.9693545477981936
| 33> C 1.4924680180829804 4.231563882263347 1.0687146222251342
| 34> C 2.008307795824732 2.5858572116103526 3.1794882390908974
| 35> C 2.363942995468257 3.9091738006746404 3.257675284960204
| 36> H 2.211023400018434 1.92997873521373 4.014105053756782
| 37> C 2.1040300536635064 4.759104181287764 2.1825255557209546
| 38> H 1.2846604648174618 4.877622917108056 0.22785942345288293
| 39> H 2.8450064800866075 4.29176876286638 4.151953462865352
| 40> H 2.3833589438963525 5.809066484002121 2.2380084983434476
| 41> C -1.5250977291029517 -4.048647122692625 -1.2463870562769583
| 42> C -1.9603198428488178 -2.7084803270663595 -3.000196499202959
| 43> C -2.1472518265778064 -4.825781315636268 -2.2447757808307176
| 44> H -1.3125810740205779 -4.68554955598712 -0.3998069761846197
| 45> C -2.416568652372462 -4.01201127291474 -3.321338299675719
| 46> H -2.1693910587090004 -2.064963582032668 -3.8425318143097082
| 47> H -2.322693526455251 -5.897064028974197 -2.0489026202153884
| 48> H -2.8855451060664614 -4.186355604748366 -4.304433566814202
| 49> *
| 50>
| 51> % eprnmr
| 52> gtensor true
| 53> Nuclei = all H {aiso,adip,aorb,fgrad,rho}
| 54> Nuclei = all Cu {aiso,adip,aorb,fgrad,rho}
| 55> end
| 56>
| 57>                          ****END OF INPUT****

CARTESIAN COORDINATES (ANGSTROEM)
---------------------------------
  Cu    -0.001560   -0.000847    0.000000
  Se    -2.345276    0.300452    0.000000
  C     -2.868727   -1.206889    0.000000
  Se     0.527607    2.310341    0.000000
  C      2.196691    2.350427    0.000000
  Se    -0.542846   -2.301616    0.000000
  C     -2.142965   -2.263605    0.000000
  Se     2.349574   -0.299032    0.000000
  C      3.007260    1.194880    0.000000
  C      4.404819    1.368689    0.000000
  C      2.821354    3.587348    0.000000
  C      4.185716    3.736589    0.000000
  H      2.189943    4.464374    0.000000
  C      5.004270    2.607052    0.000000
  H      5.025817    0.484396    0.000000
  H      4.624901    4.728885    0.000000
  H      6.086462    2.718329    0.000000
  C     -4.225900   -1.553293    0.000000
  C     -2.938210   -3.398061    0.000000
  C     -5.076006   -2.678065    0.000000
  H     -4.837191   -0.662322    0.000000
  C     -4.294698   -3.810892    0.000000
  H     -2.319902   -4.284091    0.000000
  H     -6.167220   -2.516678    0.000000
  H     -4.524361   -4.889811    0.000000

 Total Charge           Charge          ....   -2
 Multiplicity           Mult            ....    2
 Number of Electrons    NEL             ....  247
 Basis Dimension        Dim             ....  575

ORBITAL ENERGIES
----------------
                 SPIN UP ORBITALS
  NO   OCC          E(Eh)            E(eV)    Irrep
   0   1.0000    -443.576812    -12070.3387    1-A'
   1   1.0000    -443.558974    -12069.8533    2-A'
   2   1.0000    -443.556474    -12069.7853    3-A'
   3   1.0000    -443.545274    -12069.4805    4-A'
   4   1.0000    -318.188782     -8658.3569    5-A'
   5   1.0000     -56.380977     -1534.2044    6-A'
   6   1.0000     -56.368949     -1533.8771    7-A'
   7   1.0000     -56.362868     -1533.7116    8-A'
   8   1.0000     -56.356766     -1533.5456    9-A'
   9   1.0000     -51.290614     -1395.6886   10-A'
  10   1.0000     -51.289465     -1395.6573   11-A'
  11   1.0000     -51.289323     -1395.6534   12-A'
  12   1.0000     -51.288929     -1395.6427    1-A"
  13   1.0000     -51.288153     -1395.6216   13-A'
  14   1.0000     -51.287725     -1395.6099    2-A"
  15   1.0000     -51.287391     -1395.6009   14-A'
  16   1.0000     -51.286233     -1395.5694   15-A'
  17   1.0000     -51.286073     -1395.5650   16-A'
  18   1.0000     -51.285693     -1395.5547    3-A"
  19   1.0000     -51.284844     -1395.5316   17-A'
  20   1.0000     -51.284319     -1395.5173    4-A"
  21   1.0000     -38.029331     -1034.8307   18-A'
  22   1.0000     -33.531357      -912.4346   19-A'
  23   1.0000     -33.530636      -912.4150   20-A'
  24   1.0000     -33.519400      -912.1093    5-A"
  25   1.0000      -9.824161      -267.3290   21-A'
  26   1.0000      -9.823653      -267.3152   22-A'
  27   1.0000      -9.818427      -267.1730   23-A'
  28   1.0000      -9.815335      -267.0888   24-A'
  29   1.0000      -9.814119      -267.0558   25-A'
  30   1.0000      -9.812316      -267.0067   26-A'
  31   1.0000      -9.812102      -267.0009   27-A'
  32   1.0000      -9.808768      -266.9101   28-A'
  33   1.0000      -9.800286      -266.6793   29-A'
  34   1.0000      -9.799915      -266.6693   30-A'
  35   1.0000      -9.799794      -266.6659   31-A'
  36   1.0000      -9.798318      -266.6258   32-A'
  37   1.0000      -7.346922      -199.9199   33-A'
  38   1.0000      -7.341369      -199.7688   34-A'
  39   1.0000      -7.337219      -199.6559   35-A'
  40   1.0000      -7.334329      -199.5772   36-A'
  41   1.0000      -5.406628      -147.1218   37-A'
  42   1.0000      -5.405598      -147.0938   38-A'
  43   1.0000      -5.405403      -147.0885   39-A'
  44   1.0000      -5.404911      -147.0751   40-A'
  45   1.0000      -5.401362      -146.9785   41-A'
  46   1.0000      -5.401100      -146.9714    6-A"
  47   1.0000      -5.400309      -146.9499   42-A'
  48   1.0000      -5.400146      -146.9454   43-A'
  49   1.0000      -5.399944      -146.9399    7-A"
  50   1.0000      -5.399913      -146.9391    8-A"
  51   1.0000      -5.399520      -146.9284   44-A'
  52   1.0000      -5.398886      -146.9111    9-A"
  53   1.0000      -4.023639      -109.4888   45-A'
  54   1.0000      -2.543139       -69.2023   46-A'
  55   1.0000      -2.542358       -69.1811   47-A'
  56   1.0000      -2.518691       -68.5371   10-A"
  57   1.0000      -1.746295       -47.5191   48-A'
  58   1.0000      -1.745154       -47.4881   49-A'
  59   1.0000      -1.744572       -47.4722   50-A'
  60   1.0000      -1.743497       -47.4430   51-A'
  61   1.0000      -1.742997       -47.4293   52-A'
  62   1.0000      -1.742315       -47.4108   11-A"
  63   1.0000      -1.741944       -47.4007   53-A'
  64   1.0000      -1.741688       -47.3937   54-A'
  65   1.0000      -1.741227       -47.3812   12-A"
  66   1.0000      -1.741105       -47.3779   13-A"
  67   1.0000      -1.741091       -47.3775   55-A'
  68   1.0000      -1.740266       -47.3550   14-A"
  69   1.0000      -1.737928       -47.2914   56-A'
  70   1.0000      -1.737923       -47.2913   15-A"
  71   1.0000      -1.736827       -47.2615   57-A'
  72   1.0000      -1.736776       -47.2601   58-A'
  73   1.0000      -1.736766       -47.2598   16-A"
  74   1.0000      -1.736726       -47.2587   17-A"
  75   1.0000      -1.735888       -47.2359   59-A'
  76   1.0000      -1.735795       -47.2334   18-A"
  77   1.0000      -0.622752       -16.9460   60-A'
  78   1.0000      -0.599744       -16.3199   61-A'
  79   1.0000      -0.537164       -14.6170   62-A'
  80   1.0000      -0.518219       -14.1015   63-A'
  81   1.0000      -0.501506       -13.6467   64-A'
  82   1.0000      -0.490063       -13.3353   65-A'
  83   1.0000      -0.413574       -11.2539   66-A'
  84   1.0000      -0.407171       -11.0797   67-A'
  85   1.0000      -0.400296       -10.8926   68-A'
  86   1.0000      -0.379276       -10.3206   69-A'
  87   1.0000      -0.323952        -8.8152   70-A'
  88   1.0000      -0.319404        -8.6914   71-A'
  89   1.0000      -0.287134        -7.8133   72-A'
  90   1.0000      -0.283951        -7.7267   73-A'
  91   1.0000      -0.236159        -6.4262   74-A'
  92   1.0000      -0.225304        -6.1308   75-A'
  93   1.0000      -0.200354        -5.4519   76-A'
  94   1.0000      -0.199499        -5.4287   77-A'
  95   1.0000      -0.174502        -4.7484   78-A'
  96   1.0000      -0.161316        -4.3896   79-A'
  97   1.0000      -0.146555        -3.9880   80-A'
  98   1.0000      -0.144508        -3.9323   19-A"
  99   1.0000      -0.143961        -3.9174   81-A'
 100   1.0000      -0.128610        -3.4997   20-A"
 101   1.0000      -0.112841        -3.0706   82-A'
 102   1.0000      -0.086717        -2.3597   83-A'
 103   1.0000      -0.081162        -2.2085   84-A'
 104   1.0000      -0.071540        -1.9467   85-A'
 105   1.0000      -0.066644        -1.8135   86-A'
 106   1.0000      -0.057296        -1.5591   21-A"
 107   1.0000      -0.056300        -1.5320   87-A'
 108   1.0000      -0.047223        -1.2850   22-A"
 109   1.0000      -0.033804        -0.9199   23-A"
 110   1.0000      -0.031811        -0.8656   88-A'
 111   1.0000      -0.030001        -0.8164   89-A'
 112   1.0000      -0.022012        -0.5990   24-A"
 113   1.0000      -0.003491        -0.0950   25-A"
 114   1.0000      -0.000945        -0.0257   90-A'
 115   1.0000       0.000033         0.0009   26-A"
 116   1.0000       0.017569         0.4781   91-A'
 117   1.0000       0.020025         0.5449   92-A'
 118   1.0000       0.038944         1.0597   93-A'
 119   1.0000       0.053144         1.4461   27-A"
 120   1.0000       0.062223         1.6932   28-A"
 121   1.0000       0.066613         1.8126   29-A"
 122   1.0000       0.096180         2.6172   30-A"
 123   1.0000       0.114611         3.1187   94-A'
 124   0.0000       0.181501         4.9389   95-A'
 125   0.0000       0.182330         4.9614   96-A'
 126   0.0000       0.195801         5.3280   97-A'
 127   0.0000       0.196394         5.3442   98-A'
 128   0.0000       0.198755         5.4084   31-A"

                 SPIN DOWN ORBITALS
  NO   OCC          E(Eh)            E(eV)    Irrep
   0   1.0000    -443.576365    -12070.3265    1-A'
   1   1.0000    -443.558516    -12069.8408    2-A'
   2   1.0000    -443.556028    -12069.7731    3-A'
   3   1.0000    -443.544811    -12069.4679    4-A'
   4   1.0000    -318.188660     -8658.3536    5-A'
   5   1.0000     -56.380795     -1534.1994    6-A'
   6   1.0000     -56.368763     -1533.8720    7-A'
   7   1.0000     -56.362690     -1533.7068    8-A'
   8   1.0000     -56.356581     -1533.5405    9-A'
   9   1.0000     -51.290277     -1395.6794   10-A'
  10   1.0000     -51.289137     -1395.6484   11-A'
  11   1.0000     -51.288680     -1395.6359    1-A"
  12   1.0000     -51.288605     -1395.6339   12-A'
  13   1.0000     -51.287482     -1395.6033    2-A"
  14   1.0000     -51.287448     -1395.6024   13-A'
  15   1.0000     -51.287060     -1395.5919   14-A'
  16   1.0000     -51.285903     -1395.5604   15-A'
  17   1.0000     -51.285442     -1395.5478    3-A"
  18   1.0000     -51.285347     -1395.5453   16-A'
  19   1.0000     -51.284082     -1395.5108   17-A'
  20   1.0000     -51.284061     -1395.5102    4-A"
  21   1.0000     -38.015405     -1034.4518   18-A'
  22   1.0000     -33.518124      -912.0745   19-A'
  23   1.0000     -33.517402      -912.0549   20-A'
  24   1.0000     -33.515516      -912.0035    5-A"
  25   1.0000      -9.824113      -267.3277   21-A'
  26   1.0000      -9.823603      -267.3138   22-A'
  27   1.0000      -9.818377      -267.1716   23-A'
  28   1.0000      -9.815283      -267.0874   24-A'
  29   1.0000      -9.814145      -267.0565   25-A'
  30   1.0000      -9.812315      -267.0067   26-A'
  31   1.0000      -9.811976      -266.9975   27-A'
  32   1.0000      -9.808661      -266.9072   28-A'
  33   1.0000      -9.800281      -266.6792   29-A'
  34   1.0000      -9.799799      -266.6661   30-A'
  35   1.0000      -9.799673      -266.6627   31-A'
  36   1.0000      -9.798351      -266.6267   32-A'
  37   1.0000      -7.346531      -199.9093   33-A'
  38   1.0000      -7.340964      -199.7578   34-A'
  39   1.0000      -7.336821      -199.6450   35-A'
  40   1.0000      -7.333914      -199.5660   36-A'
  41   1.0000      -5.406260      -147.1118   37-A'
  42   1.0000      -5.405241      -147.0841   38-A'
  43   1.0000      -5.405037      -147.0785   39-A'
  44   1.0000      -5.404538      -147.0650   40-A'
  45   1.0000      -5.400789      -146.9629    6-A"
  46   1.0000      -5.400542      -146.9562   41-A'
  47   1.0000      -5.399629      -146.9314    7-A"
  48   1.0000      -5.399609      -146.9308    8-A"
  49   1.0000      -5.399507      -146.9281   42-A'
  50   1.0000      -5.399322      -146.9230   43-A'
  51   1.0000      -5.398669      -146.9053   44-A'
  52   1.0000      -5.398566      -146.9025    9-A"
  53   1.0000      -3.995312      -108.7180   45-A'
  54   1.0000      -2.508344       -68.2555   10-A"
  55   1.0000      -2.507779       -68.2401   46-A'
  56   1.0000      -2.506921       -68.2168   47-A'
  57   1.0000      -1.745859       -47.5072   48-A'
  58   1.0000      -1.744727       -47.4764   49-A'
  59   1.0000      -1.744124       -47.4600   50-A'
  60   1.0000      -1.743020       -47.4300   51-A'
  61   1.0000      -1.742091       -47.4047   52-A'
  62   1.0000      -1.742006       -47.4024   11-A"
  63   1.0000      -1.741059       -47.3766   53-A'
  64   1.0000      -1.740928       -47.3731   12-A"
  65   1.0000      -1.740790       -47.3693   13-A"
  66   1.0000      -1.740790       -47.3693   54-A'
  67   1.0000      -1.740177       -47.3526   55-A'
  68   1.0000      -1.739951       -47.3465   14-A"
  69   1.0000      -1.737156       -47.2704   15-A"
  70   1.0000      -1.737122       -47.2695   56-A'
  71   1.0000      -1.736048       -47.2403   57-A'
  72   1.0000      -1.735990       -47.2387   16-A"
  73   1.0000      -1.735981       -47.2385   17-A"
  74   1.0000      -1.735966       -47.2380   58-A'
  75   1.0000      -1.735077       -47.2138   59-A'
  76   1.0000      -1.735009       -47.2120   18-A"
  77   1.0000      -0.621920       -16.9233   60-A'
  78   1.0000      -0.598952       -16.2983   61-A'
  79   1.0000      -0.536345       -14.5947   62-A'
  80   1.0000      -0.516978       -14.0677   63-A'
  81   1.0000      -0.499939       -13.6040   64-A'
  82   1.0000      -0.487696       -13.2709   65-A'
  83   1.0000      -0.410705       -11.1758   66-A'
  84   1.0000      -0.405061       -11.0223   67-A'
  85   1.0000      -0.397485       -10.8161   68-A'
  86   1.0000      -0.376949       -10.2573   69-A'
  87   1.0000      -0.322406        -8.7731   70-A'
  88   1.0000      -0.317451        -8.6383   71-A'
  89   1.0000      -0.284785        -7.7494   72-A'
  90   1.0000      -0.281392        -7.6571   73-A'
  91   1.0000      -0.235417        -6.4060   74-A'
  92   1.0000      -0.224135        -6.0990   75-A'
  93   1.0000      -0.199033        -5.4160   76-A'
  94   1.0000      -0.198308        -5.3962   77-A'
  95   1.0000      -0.173171        -4.7122   78-A'
  96   1.0000      -0.159074        -4.3286   79-A'
  97   1.0000      -0.144223        -3.9245   80-A'
  98   1.0000      -0.144085        -3.9207   19-A"
  99   1.0000      -0.142063        -3.8657   81-A'
 100   1.0000      -0.128233        -3.4894   20-A"
 101   1.0000      -0.111039        -3.0215   82-A'
 102   1.0000      -0.085886        -2.3371   83-A'
 103   1.0000      -0.079441        -2.1617   84-A'
 104   1.0000      -0.069978        -1.9042   85-A'
 105   1.0000      -0.056775        -1.5449   21-A"
 106   1.0000      -0.054689        -1.4882   86-A'
 107   1.0000      -0.054351        -1.4790   87-A'
 108   1.0000      -0.046238        -1.2582   22-A"
 109   1.0000      -0.031681        -0.8621   23-A"
 110   1.0000      -0.024169        -0.6577   88-A'
 111   1.0000      -0.019501        -0.5306   24-A"
 112   1.0000      -0.004079        -0.1110   89-A'
 113   1.0000       0.007724         0.2102   25-A"
 114   1.0000       0.009027         0.2456   26-A"
 115   1.0000       0.009451         0.2572   90-A'
 116   1.0000       0.028120         0.7652   91-A'
 117   1.0000       0.030415         0.8276   92-A'
 118   1.0000       0.050152         1.3647   93-A'
 119   1.0000       0.055921         1.5217   27-A"
 120   1.0000       0.064381         1.7519   28-A"
 121   1.0000       0.068411         1.8615   29-A"
 122   1.0000       0.099445         2.7060   30-A"
 123   0.0000       0.144533         3.9330   94-A'
 124   0.0000       0.183491         4.9930   95-A'
 125   0.0000       0.183883         5.0037   96-A'
 126   0.0000       0.198845         5.4108   31-A"
 127   0.0000       0.198958         5.4139   97-A'

MULLIKEN ATOMIC CHARGES AND SPIN POPULATIONS
--------------------------------------------
   0 Cu:    0.633770    0.310538
   1 Se:   -0.765140    0.172807
   2 C :    0.296817   -0.005050
   3 Se:   -0.743291    0.179235
   4 C :    0.230359   -0.002444
   5 Se:   -0.781029    0.169936
   6 C :    0.308687   -0.004850
   7 Se:   -0.698391    0.172843
   8 C :    0.183905   -0.003380
   9 C :   -0.121466   -0.001217
  10 C :   -0.089545   -0.002230
  11 C :   -0.147476   -0.000628
  12 H :    0.084533    0.002889
  13 C :   -0.144922   -0.000763
  14 H :    0.082361    0.002599
  15 H :    0.028556    0.001349
  16 H :    0.021921    0.001940
  17 C :   -0.128153    0.000410
  18 C :   -0.122105    0.000287
  19 C :   -0.159657   -0.000361
  20 H :    0.108515    0.001896
  21 C :   -0.170625   -0.000660
  22 H :    0.109797    0.001847
  23 H :   -0.008329    0.001581
  24 H :   -0.009091    0.001426
Sum of atomic charges         :   -2.0000000

LOEWDIN ATOMIC CHARGES AND SPIN POPULATIONS
-------------------------------------------
   0 Cu:   -0.602067    0.391258
   1 Se:   -0.147541    0.121565
   2 C :   -0.019484    0.012278
   3 Se:   -0.204673    0.128362
   4 C :    0.062660    0.011118
   5 Se:   -0.147390    0.118512
   6 C :   -0.023444    0.011952
   7 Se:   -0.216921    0.123818
   8 C :    0.044474    0.012595
   9 C :    0.371036    0.007094
  10 C :    0.363835    0.006999
  11 C :    0.317368    0.000426
  12 H :   -0.452551    0.010086
  13 C :    0.318496    0.000543
  14 H :   -0.448634    0.008343
  15 H :   -0.418438    0.000303
  16 H :   -0.411623    0.000612
  17 C :    0.384660    0.006653
  18 C :    0.384118    0.006360
  19 C :    0.317903    0.000506
  20 H :   -0.509395    0.009936
  21 C :    0.321668    0.000270
  22 H :   -0.510816    0.009939
  23 H :   -0.386555    0.000293
  24 H :   -0.386686    0.000176

  Mayer bond orders larger than 0.100000
B(  0-Cu,  1-Se) :   0.5589 B(  0-Cu,  3-Se) :   0.5492 B(  0-Cu,  5-Se) :   0.5637
B(  0-Cu,  7-Se) :   0.5444 B(  1-Se,  2-C ) :   1.1018 B(  2-C ,  6-C ) :   1.0536
B(  2-C , 17-C ) :   1.1928 B(  3-Se,  4-C ) :   1.0083 B(  4-C ,  8-C ) :   1.1558
B(  4-C , 10-C ) :   1.2696 B(  5-Se,  6-C ) :   1.0878 B(  6-C , 18-C ) :   1.1968
B(  7-Se,  8-C ) :   1.0519 B(  8-C ,  9-C ) :   1.2610 B(  9-C , 13-C ) :   1.3851
B(  9-C , 14-H ) :   0.9675 B( 10-C , 11-C ) :   1.3756 B( 10-C , 12-H ) :   0.9640
B( 11-C , 13-C ) :   1.3116 B( 11-C , 15-H ) :   0.9905 B( 13-C , 16-H ) :   0.9936
B( 17-C , 19-C ) :   1.3784 B( 17-C , 20-H ) :   0.9525 B( 18-C , 21-C ) :   1.3701
B( 18-C , 22-H ) :   0.9515 B( 19-C , 21-C ) :   1.2841 B( 19-C , 23-H ) :   1.0146
B( 21-C , 24-H ) :   1.0163

FINAL SINGLE POINT ENERGY    -11627.088503435496

DIPOLE MOMENT
-------------
                                X             Y             Z
Electronic contribution:     -0.00028       0.22620       0.00000
Nuclear contribution   :      0.19426      -0.05954       0.00000
                        -----------------------------------------
Total Dipole Moment    :      0.19398       0.16666       0.00000
                        -----------------------------------------
Magnitude (a.u.)       :      0.25574
Magnitude (Debye)      :      0.65004

Rotational constants in cm-1:     0.017848     0.004083     0.003323
Rotational constants in MHz :   535.075767   122.407597    99.618245

                             ****ORCA TERMINATED NORMALLY****
TOTAL RUN TIME: 0 days 19 hours 16 minutes 8 seconds 16 msec
