                         Program Version 5.0.4 -  RELEASE  -
|  1> ! RIJCOSX nofrozencore ReducedPop printbasis
|  2> ! M06L ano-rcc-dzp autoaux
|  3>
|  4> %maxcore 7500
|  5> %basis
|  6> PCDTrimBas overlap
|  7> PCDTrimAuxJ Coulomb
|  8> PCDTrimAuxJK Coulomb
|  9> PCDTrimAuxC Coulomb
| 10> PCDThresh -1
| 11> end
| 12>
| 13> %basis
| 14> newgto Cu "ano-rcc-tzp" end
| 15> newgto Se "ano-rcc-tzp" end
| 16> end
| 17>
| 18> %pal
| 19> nprocs 8
| 20> end
| 21>
| 22> % sym SymThresh 1e-2 end
| 23> * xyz -2 2
| 24> Cu -1.136484319414155e-05 3.835851581666196e-06 5.012642199080583e-06
| 25> Se -1.121010778354504 -1.605265373405106 -1.3320988668603368
| 26> C -1.52179145103362 -0.8013071461717356 -2.7021401873892663
| 27> Se 0.33556784744460444 -1.4285506598839788 1.858659945271712
| 28> C 1.1408457838903048 -0.5099707424989718 2.9487818868340807
| 29> Se -0.3432985634727424 1.4311599241560307 -1.8552501918127529
| 30> C -1.0890325895495063 0.4924828000726494 -2.971634908207551
| 31> Se 1.1292590318573292 1.6024814303533352 1.3284608453873887
| 32> C 1.4625456492438527 0.8213037355324677 2.728271476760935
| 33> C 2.126029859776226 1.4829880682395111 3.7560763580381487
| 34> C 1.519712877029502 -1.0506553440668873 4.173019274090572
| 35> C 2.1266096746505476 -0.3731533121448426 5.211361228801456
| 36> H 1.2737040346724886 -2.090388662974495 4.3338410016479285
| 37> C 2.5404591589674266 0.928538534507844 4.950122707961646
| 38> H 2.3789599769550414 2.517279934945351 3.5743911437689073
| 39> H 2.3271672384255395 -0.8734435072309799 6.153832686405513
| 40> H 3.113971238525238 1.5155126776632324 5.66185716196979
| 41> C -2.2419228281530486 -1.4438721688226226 -3.7049610395551658
| 42> C -1.4004432188005227 1.010399557044832 -4.225625026030616
| 43> C -2.3798192658695676 -0.9827577560380822 -5.020976541818138
| 44> H -2.576821439760256 -2.450498103528448 -3.4871223362189863
| 45> C -2.2902201629156136 0.4283751662654273 -5.139197167391698
| 46> H -1.0488995683240037 2.0145128630995814 -4.432994534636496
| 47> H -2.726032316093216 -1.6464494714034081 -5.832963703435406
| 48> H -2.6980835827163445 0.9986360842438653 -5.99023318501013
| 49> *
| 50>
| 51> % eprnmr
| 52> gtensor true
| 53> Nuclei = all H {aiso,adip,aorb,fgrad,rho}
| 54> Nuclei = all Cu {aiso,adip,aorb,fgrad,rho}
| 55> end
| 56>
| 57>                          ****END OF INPUT****

CARTESIAN COORDINATES (ANGSTROEM)
---------------------------------
  Cu    -0.000011    0.000004    0.000005
  Se    -1.121011   -1.605265   -1.332099
  C     -1.521792   -0.801307   -2.702140
  Se     0.335568   -1.428551    1.858660
  C      1.140846   -0.509971    2.948782
  Se    -0.343299    1.431160   -1.855250
  C     -1.089033    0.492483   -2.971635
  Se     1.129259    1.602481    1.328461
  C      1.462546    0.821304    2.728272
  C      2.126030    1.482988    3.756076
  C      1.519713   -1.050655    4.173019
  C      2.126610   -0.373153    5.211361
  H      1.273704   -2.090389    4.333841
  C      2.540459    0.928539    4.950123
  H      2.378960    2.517280    3.574391
  H      2.327167   -0.873443    6.153833
  H      3.113971    1.515513    5.661857
  C     -2.241923   -1.443872   -3.704961
  C     -1.400443    1.010400   -4.225625
  C     -2.379819   -0.982758   -5.020976
  H     -2.576822   -2.450498   -3.487122
  C     -2.290220    0.428375   -5.139197
  H     -1.048900    2.014513   -4.432994
  H     -2.726032   -1.646449   -5.832964
  H     -2.698084    0.998636   -5.990233

 Total Charge           Charge          ....   -2
 Multiplicity           Mult            ....    2
 Number of Electrons    NEL             ....  247
 Basis Dimension        Dim             ....  575

ORBITAL ENERGIES
----------------
                 SPIN UP ORBITALS
  NO   OCC          E(Eh)            E(eV)
   0   1.0000    -443.561054    -12069.9099
   1   1.0000    -443.559400    -12069.8649
   2   1.0000    -443.546653    -12069.5180
   3   1.0000    -443.546472    -12069.5131
   4   1.0000    -318.186594     -8658.2974
   5   1.0000     -56.369853     -1533.9017
   6   1.0000     -56.369183     -1533.8834
   7   1.0000     -56.357269     -1533.5593
   8   1.0000     -56.356802     -1533.5465
   9   1.0000     -51.286451     -1395.5753
  10   1.0000     -51.286378     -1395.5733
  11   1.0000     -51.286022     -1395.5636
  12   1.0000     -51.285961     -1395.5619
  13   1.0000     -51.285140     -1395.5396
  14   1.0000     -51.285067     -1395.5376
  15   1.0000     -51.284685     -1395.5272
  16   1.0000     -51.284678     -1395.5270
  17   1.0000     -51.284614     -1395.5253
  18   1.0000     -51.284609     -1395.5252
  19   1.0000     -51.284252     -1395.5154
  20   1.0000     -51.284188     -1395.5137
  21   1.0000     -38.027094     -1034.7698
  22   1.0000     -33.529128      -912.3740
  23   1.0000     -33.528338      -912.3524
  24   1.0000     -33.517273      -912.0514
  25   1.0000      -9.824528      -267.3390
  26   1.0000      -9.824127      -267.3281
  27   1.0000      -9.816400      -267.1178
  28   1.0000      -9.815955      -267.1057
  29   1.0000      -9.809975      -266.9430
  30   1.0000      -9.809653      -266.9342
  31   1.0000      -9.808500      -266.9029
  32   1.0000      -9.808369      -266.8993
  33   1.0000      -9.808065      -266.8910
  34   1.0000      -9.807922      -266.8871
  35   1.0000      -9.806626      -266.8519
  36   1.0000      -9.806497      -266.8484
  37   1.0000      -7.341207      -199.7644
  38   1.0000      -7.340963      -199.7577
  39   1.0000      -7.334340      -199.5775
  40   1.0000      -7.333623      -199.5580
  41   1.0000      -5.404616      -147.0671
  42   1.0000      -5.404553      -147.0654
  43   1.0000      -5.403874      -147.0469
  44   1.0000      -5.403826      -147.0456
  45   1.0000      -5.399497      -146.9278
  46   1.0000      -5.399429      -146.9259
  47   1.0000      -5.398758      -146.9077
  48   1.0000      -5.398700      -146.9061
  49   1.0000      -5.398529      -146.9014
  50   1.0000      -5.398477      -146.9000
  51   1.0000      -5.398189      -146.8922
  52   1.0000      -5.398143      -146.8909
  53   1.0000      -4.021403      -109.4279
  54   1.0000      -2.540902       -69.1414
  55   1.0000      -2.539960       -69.1158
  56   1.0000      -2.516636       -68.4812
  57   1.0000      -1.743658       -47.4474
  58   1.0000      -1.743581       -47.4453
  59   1.0000      -1.742908       -47.4269
  60   1.0000      -1.742842       -47.4251
  61   1.0000      -1.740971       -47.3742
  62   1.0000      -1.740870       -47.3715
  63   1.0000      -1.740167       -47.3524
  64   1.0000      -1.740127       -47.3512
  65   1.0000      -1.740102       -47.3506
  66   1.0000      -1.740076       -47.3499
  67   1.0000      -1.739425       -47.3322
  68   1.0000      -1.739410       -47.3317
  69   1.0000      -1.735845       -47.2347
  70   1.0000      -1.735828       -47.2343
  71   1.0000      -1.735776       -47.2329
  72   1.0000      -1.735720       -47.2313
  73   1.0000      -1.735059       -47.2134
  74   1.0000      -1.735049       -47.2131
  75   1.0000      -1.735007       -47.2119
  76   1.0000      -1.734956       -47.2105
  77   1.0000      -0.602359       -16.3910
  78   1.0000      -0.600375       -16.3370
  79   1.0000      -0.520950       -14.1758
  80   1.0000      -0.516927       -14.0663
  81   1.0000      -0.499069       -13.5804
  82   1.0000      -0.497680       -13.5426
  83   1.0000      -0.412331       -11.2201
  84   1.0000      -0.408807       -11.1242
  85   1.0000      -0.382375       -10.4050
  86   1.0000      -0.377103       -10.2615
  87   1.0000      -0.319900        -8.7049
  88   1.0000      -0.316652        -8.6165
  89   1.0000      -0.287758        -7.8303
  90   1.0000      -0.284628        -7.7451
  91   1.0000      -0.228503        -6.2179
  92   1.0000      -0.220788        -6.0079
  93   1.0000      -0.199431        -5.4268
  94   1.0000      -0.192444        -5.2367
  95   1.0000      -0.175586        -4.7779
  96   1.0000      -0.167724        -4.5640
  97   1.0000      -0.139765        -3.8032
  98   1.0000      -0.137924        -3.7531
  99   1.0000      -0.137251        -3.7348
 100   1.0000      -0.129935        -3.5357
 101   1.0000      -0.125615        -3.4182
 102   1.0000      -0.112389        -3.0583
 103   1.0000      -0.085341        -2.3223
 104   1.0000      -0.076882        -2.0921
 105   1.0000      -0.067940        -1.8487
 106   1.0000      -0.064776        -1.7627
 107   1.0000      -0.046928        -1.2770
 108   1.0000      -0.035114        -0.9555
 109   1.0000      -0.031426        -0.8551
 110   1.0000      -0.029587        -0.8051
 111   1.0000      -0.029410        -0.8003
 112   1.0000      -0.022128        -0.6021
 113   1.0000       0.000067         0.0018
 114   1.0000       0.000321         0.0087
 115   1.0000       0.000902         0.0245
 116   1.0000       0.019444         0.5291
 117   1.0000       0.021293         0.5794
 118   1.0000       0.040808         1.1104
 119   1.0000       0.055908         1.5213
 120   1.0000       0.059705         1.6246
 121   1.0000       0.071409         1.9431
 122   1.0000       0.099775         2.7150
 123   1.0000       0.116848         3.1796
 124   0.0000       0.181042         4.9264
 125   0.0000       0.182187         4.9576
 126   0.0000       0.194779         5.3002
 127   0.0000       0.196425         5.3450
 128   0.0000       0.198336         5.3970

                 SPIN DOWN ORBITALS
  NO   OCC          E(Eh)            E(eV)
   0   1.0000    -443.560606    -12069.8977
   1   1.0000    -443.558948    -12069.8526
   2   1.0000    -443.546205    -12069.5058
   3   1.0000    -443.546019    -12069.5008
   4   1.0000    -318.186472     -8658.2941
   5   1.0000     -56.369671     -1533.8967
   6   1.0000     -56.368998     -1533.8784
   7   1.0000     -56.357087     -1533.5543
   8   1.0000     -56.356622     -1533.5417
   9   1.0000     -51.286128     -1395.5665
  10   1.0000     -51.286049     -1395.5643
  11   1.0000     -51.285702     -1395.5549
  12   1.0000     -51.285635     -1395.5531
  13   1.0000     -51.284469     -1395.5213
  14   1.0000     -51.284407     -1395.5197
  15   1.0000     -51.284352     -1395.5182
  16   1.0000     -51.284293     -1395.5165
  17   1.0000     -51.284005     -1395.5087
  18   1.0000     -51.283958     -1395.5075
  19   1.0000     -51.283939     -1395.5069
  20   1.0000     -51.283892     -1395.5056
  21   1.0000     -38.013310     -1034.3948
  22   1.0000     -33.516033      -912.0176
  23   1.0000     -33.515242      -911.9961
  24   1.0000     -33.513415      -911.9464
  25   1.0000      -9.824487      -267.3379
  26   1.0000      -9.824086      -267.3270
  27   1.0000      -9.816351      -267.1165
  28   1.0000      -9.815905      -267.1044
  29   1.0000      -9.809866      -266.9400
  30   1.0000      -9.809544      -266.9313
  31   1.0000      -9.808478      -266.9023
  32   1.0000      -9.808387      -266.8998
  33   1.0000      -9.808042      -266.8904
  34   1.0000      -9.807937      -266.8875
  35   1.0000      -9.806507      -266.8486
  36   1.0000      -9.806377      -266.8451
  37   1.0000      -7.340806      -199.7535
  38   1.0000      -7.340567      -199.7470
  39   1.0000      -7.333932      -199.5664
  40   1.0000      -7.333220      -199.5471
  41   1.0000      -5.404254      -147.0572
  42   1.0000      -5.404189      -147.0555
  43   1.0000      -5.403513      -147.0371
  44   1.0000      -5.403464      -147.0357
  45   1.0000      -5.398843      -146.9100
  46   1.0000      -5.398773      -146.9081
  47   1.0000      -5.398270      -146.8944
  48   1.0000      -5.398213      -146.8928
  49   1.0000      -5.397882      -146.8838
  50   1.0000      -5.397835      -146.8826
  51   1.0000      -5.397709      -146.8791
  52   1.0000      -5.397660      -146.8778
  53   1.0000      -3.993420      -108.6665
  54   1.0000      -2.506380       -68.2021
  55   1.0000      -2.505956       -68.1905
  56   1.0000      -2.504964       -68.1635
  57   1.0000      -1.743204       -47.4350
  58   1.0000      -1.743128       -47.4329
  59   1.0000      -1.742461       -47.4148
  60   1.0000      -1.742396       -47.4130
  61   1.0000      -1.740142       -47.3517
  62   1.0000      -1.740044       -47.3490
  63   1.0000      -1.739764       -47.3414
  64   1.0000      -1.739730       -47.3405
  65   1.0000      -1.739289       -47.3285
  66   1.0000      -1.739195       -47.3259
  67   1.0000      -1.739113       -47.3237
  68   1.0000      -1.739100       -47.3233
  69   1.0000      -1.735062       -47.2134
  70   1.0000      -1.735038       -47.2128
  71   1.0000      -1.734992       -47.2115
  72   1.0000      -1.734938       -47.2100
  73   1.0000      -1.734288       -47.1924
  74   1.0000      -1.734262       -47.1917
  75   1.0000      -1.734235       -47.1909
  76   1.0000      -1.734171       -47.1892
  77   1.0000      -0.601554       -16.3691
  78   1.0000      -0.599454       -16.3120
  79   1.0000      -0.519827       -14.1452
  80   1.0000      -0.515796       -14.0355
  81   1.0000      -0.497385       -13.5345
  82   1.0000      -0.495922       -13.4947
  83   1.0000      -0.409672       -11.1477
  84   1.0000      -0.406126       -11.0513
  85   1.0000      -0.379887       -10.3372
  86   1.0000      -0.374737       -10.1971
  87   1.0000      -0.318144        -8.6571
  88   1.0000      -0.314777        -8.5655
  89   1.0000      -0.285466        -7.7679
  90   1.0000      -0.282089        -7.6760
  91   1.0000      -0.227383        -6.1874
  92   1.0000      -0.219725        -5.9790
  93   1.0000      -0.198167        -5.3924
  94   1.0000      -0.191196        -5.2027
  95   1.0000      -0.173957        -4.7336
  96   1.0000      -0.165751        -4.5103
  97   1.0000      -0.138969        -3.7815
  98   1.0000      -0.136562        -3.7160
  99   1.0000      -0.135320        -3.6822
 100   1.0000      -0.129526        -3.5246
 101   1.0000      -0.124944        -3.3999
 102   1.0000      -0.110740        -3.0134
 103   1.0000      -0.083959        -2.2846
 104   1.0000      -0.074786        -2.0350
 105   1.0000      -0.062520        -1.7012
 106   1.0000      -0.057957        -1.5771
 107   1.0000      -0.045734        -1.2445
 108   1.0000      -0.032866        -0.8943
 109   1.0000      -0.028899        -0.7864
 110   1.0000      -0.023410        -0.6370
 111   1.0000      -0.020288        -0.5521
 112   1.0000      -0.002134        -0.0581
 113   1.0000       0.009390         0.2555
 114   1.0000       0.011157         0.3036
 115   1.0000       0.011237         0.3058
 116   1.0000       0.029257         0.7961
 117   1.0000       0.032184         0.8758
 118   1.0000       0.051784         1.4091
 119   1.0000       0.058320         1.5870
 120   1.0000       0.062543         1.7019
 121   1.0000       0.073449         1.9986
 122   1.0000       0.103217         2.8087
 123   0.0000       0.146186         3.9779
 124   0.0000       0.182438         4.9644
 125   0.0000       0.184061         5.0086
 126   0.0000       0.196614         5.3501
 127   0.0000       0.199019         5.4156

MULLIKEN ATOMIC CHARGES AND SPIN POPULATIONS
--------------------------------------------
   0 Cu:    0.639365    0.307413
   1 Se:   -0.724755    0.175272
   2 C :    0.235958    0.000034
   3 Se:   -0.734215    0.171311
   4 C :    0.223000   -0.003140
   5 Se:   -0.725095    0.175307
   6 C :    0.235988   -0.000021
   7 Se:   -0.733998    0.171352
   8 C :    0.222654   -0.003148
   9 C :   -0.103572   -0.001154
  10 C :   -0.103142   -0.001289
  11 C :   -0.159079   -0.000680
  12 H :    0.091619    0.002698
  13 C :   -0.157810   -0.000684
  14 H :    0.092144    0.002640
  15 H :    0.021364    0.001570
  16 H :    0.020413    0.001563
  17 C :   -0.111416   -0.002129
  18 C :   -0.110395   -0.002162
  19 C :   -0.162906   -0.001382
  20 H :    0.092851    0.002331
  21 C :   -0.165755   -0.001460
  22 H :    0.091656    0.002312
  23 H :    0.011407    0.001726
  24 H :    0.013720    0.001722
Sum of atomic charges         :   -2.0000000

LOEWDIN ATOMIC CHARGES AND SPIN POPULATIONS
-------------------------------------------
   0 Cu:   -0.615934    0.387767
   1 Se:   -0.203736    0.125855
   2 C :    0.035168    0.013884
   3 Se:   -0.203022    0.122038
   4 C :    0.037964    0.011739
   5 Se:   -0.204191    0.125823
   6 C :    0.034720    0.013897
   7 Se:   -0.202818    0.122117
   8 C :    0.038154    0.011731
   9 C :    0.370836    0.006983
  10 C :    0.370975    0.006949
  11 C :    0.320100    0.000445
  12 H :   -0.460065    0.009341
  13 C :    0.319886    0.000443
  14 H :   -0.460573    0.009353
  15 H :   -0.412380    0.000384
  16 H :   -0.411550    0.000383
  17 C :    0.368593    0.006358
  18 C :    0.368951    0.006340
  19 C :    0.320883   -0.000225
  20 H :   -0.463596    0.008984
  21 C :    0.321419   -0.000261
  22 H :   -0.462228    0.008932
  23 H :   -0.402599    0.000376
  24 H :   -0.404954    0.000363

  Mayer bond orders larger than 0.100000
B(  0-Cu,  1-Se) :   0.5470 B(  0-Cu,  3-Se) :   0.5494 B(  0-Cu,  5-Se) :   0.5470
B(  0-Cu,  7-Se) :   0.5494 B(  1-Se,  2-C ) :   1.0357 B(  2-C ,  6-C ) :   1.1312
B(  2-C , 17-C ) :   1.2643 B(  3-Se,  4-C ) :   1.0385 B(  4-C ,  8-C ) :   1.1339
B(  4-C , 10-C ) :   1.2576 B(  5-Se,  6-C ) :   1.0351 B(  6-C , 18-C ) :   1.2645
B(  7-Se,  8-C ) :   1.0395 B(  8-C ,  9-C ) :   1.2579 B(  9-C , 13-C ) :   1.3789
B(  9-C , 14-H ) :   0.9597 B( 10-C , 11-C ) :   1.3792 B( 10-C , 12-H ) :   0.9600
B( 11-C , 13-C ) :   1.3124 B( 11-C , 15-H ) :   0.9956 B( 13-C , 16-H ) :   0.9961
B( 17-C , 19-C ) :   1.3754 B( 17-C , 20-H ) :   0.9587 B( 18-C , 21-C ) :   1.3747
B( 18-C , 22-H ) :   0.9593 B( 19-C , 21-C ) :   1.3034 B( 19-C , 23-H ) :   1.0000
B( 21-C , 24-H ) :   0.9993

FINAL SINGLE POINT ENERGY    -11627.112942096408

DIPOLE MOMENT
-------------
                                X             Y             Z
Electronic contribution:     -0.01365       0.01146       0.04496
Nuclear contribution   :      0.03599      -0.01215      -0.01587
                        -----------------------------------------
Total Dipole Moment    :      0.02234      -0.00068       0.02909
                        -----------------------------------------
Magnitude (a.u.)       :      0.03668
Magnitude (Debye)      :      0.09324

Rotational constants in cm-1:     0.017593     0.004097     0.003325
Rotational constants in MHz :   527.410793   122.813769    99.666038

                             ****ORCA TERMINATED NORMALLY****
TOTAL RUN TIME: 0 days 17 hours 8 minutes 2 seconds 408 msec
