                         Program Version 5.0.4 -  RELEASE  -
|  1> ! RIJCOSX nofrozencore ReducedPop printbasis
|  2> ! M06L ano-rcc-dzp autoaux
|  3>
|  4> %maxcore 7500
|  5> %basis
|  6> PCDTrimBas overlap
|  7> PCDTrimAuxJ Coulomb
|  8> PCDTrimAuxJK Coulomb
|  9> PCDTrimAuxC Coulomb
| 10> PCDThresh -1
| 11> end
| 12>
| 13> %basis
| 14> newgto Cu "ano-rcc-tzp" end
| 15> newgto Se "ano-rcc-tzp" end
| 16> end
| 17>
| 18> %pal
| 19> nprocs 8
| 20> end
| 21>
| 22> % sym SymThresh 1e-2 end
| 23> * xyz -2 2
| 24> Cu -3.485337059032502e-05 2.0717457340646418e-05 1.0955798457071139e-05
| 25> Se 1.1987264252082572 1.0450417186384244 1.754816792627561
| 26> C 1.7712160176467797 2.4317995002882946 1.0982733844075814
| 27> Se -0.6791031605423077 -1.8823275161403894 1.2668182924051108
| 28> C -1.598533450847273 -2.7650773848829537 0.23756734953514536
| 29> Se 0.6898894488978563 1.8759159563662533 -1.27020885117523
| 30> C 1.5915561379919527 2.7692248225334337 -0.23537410302497738
| 31> Se -1.209494457036354 -1.0386410108657524 -1.7514319726090146
| 32> C -1.7642768775306774 -2.4359242473902585 -1.1004546317099155
| 33> C -2.42817518306201 -3.367611135318633 -1.8999682733489849
| 34> C -2.2707320290453463 -3.8998101931768723 0.694247564330889
| 35> C -2.9987468817063454 -4.778249825841579 -0.080309568336469
| 36> H -2.2066582176051535 -4.108095855238751 1.7590982604629672
| 37> C -3.02193257360024 -4.533590925144006 -1.4646101201957307
| 38> H -2.483488646392345 -3.145744517623966 -2.962562557928538
| 39> H -3.480923305631679 -5.641367973089334 0.376195342935226
| 40> H -3.522926308607145 -5.19120655278857 -2.173431903271333
| 41> C 2.4699026740052474 3.3428087311510097 1.8868519729144904
| 42> C 2.228975201551666 3.924631186889348 -0.6811217352222851
| 43> C 3.055088624904728 4.5138835356638 1.4541881636246432
| 44> H 2.561226307892643 3.0995370338411043 2.9381268308691353
| 45> C 2.9657020292508838 4.797891116767412 0.09069657069343179
| 46> H 2.128911965608335 4.154309596746621 -1.7346595260380606
| 47> H 3.5834500164794014 5.155230194843743 2.154406898398285
| 48> H 3.4206337564319695 5.677204157896755 -0.35724525273110685
| 49> *
| 50>
| 51> % eprnmr
| 52> gtensor true
| 53> Nuclei = all H {aiso,adip,aorb,fgrad,rho}
| 54> Nuclei = all Cu {aiso,adip,aorb,fgrad,rho}
| 55> end
| 56>
| 57>                          ****END OF INPUT****

CARTESIAN COORDINATES (ANGSTROEM)
---------------------------------
  Cu    -0.000000   -0.000000   -0.000000
  Se     1.545146    0.370859    1.755969
  C      0.680028    0.136930    3.126639
  Se     1.542286    0.383527   -1.755969
  C      0.681874    0.128750   -3.126639
  Se    -1.545146   -0.370859    1.755969
  C     -0.680028   -0.136930    3.126639
  Se    -1.542286   -0.383527   -1.755969
  C     -0.681874   -0.128750   -3.126639
  C     -1.317707   -0.152131   -4.368893
  C      1.317707    0.152131   -4.368893
  C      0.701531    0.044998   -5.597896
  H      2.398064    0.271104   -4.360734
  C     -0.701531   -0.044998   -5.597896
  H     -2.398064   -0.271104   -4.360734
  H      1.292073    0.082460   -6.512078
  H     -1.292073   -0.082460   -6.512078
  C      1.306630    0.201198    4.368893
  C     -1.306630   -0.201198    4.368893
  C      0.692748    0.083906    5.597895
  H      2.377435    0.362487    4.360734
  C     -0.692748   -0.083906    5.597895
  H     -2.377435   -0.362487    4.360734
  H      1.276044    0.153466    6.512077
  H     -1.276044   -0.153466    6.512077

 Total Charge           Charge          ....   -2
 Multiplicity           Mult            ....    2
 Number of Electrons    NEL             ....  247
 Basis Dimension        Dim             ....  575

ORBITAL ENERGIES
----------------
                 SPIN UP ORBITALS
  NO   OCC          E(Eh)            E(eV)    Irrep
   0   1.0000    -443.561202    -12069.9139    1-B
   1   1.0000    -443.560122    -12069.8845    2-B
   2   1.0000    -443.546762    -12069.5210    1-A
   3   1.0000    -443.546714    -12069.5197    2-A
   4   1.0000    -318.186511     -8658.2951    3-A
   5   1.0000     -56.369921     -1533.9035    3-B
   6   1.0000     -56.369618     -1533.8953    4-B
   7   1.0000     -56.357189     -1533.5571    4-A
   8   1.0000     -56.356907     -1533.5494    5-A
   9   1.0000     -51.286315     -1395.5716    5-B
  10   1.0000     -51.286263     -1395.5702    6-A
  11   1.0000     -51.286160     -1395.5674    6-B
  12   1.0000     -51.286119     -1395.5662    7-A
  13   1.0000     -51.285003     -1395.5359    7-B
  14   1.0000     -51.284953     -1395.5345    8-A
  15   1.0000     -51.284847     -1395.5316    8-B
  16   1.0000     -51.284791     -1395.5301    9-A
  17   1.0000     -51.284516     -1395.5226   10-A
  18   1.0000     -51.284476     -1395.5215    9-B
  19   1.0000     -51.284379     -1395.5189   11-A
  20   1.0000     -51.284335     -1395.5177   10-B
  21   1.0000     -38.026992     -1034.7671   12-A
  22   1.0000     -33.529052      -912.3719   11-B
  23   1.0000     -33.528249      -912.3500   13-A
  24   1.0000     -33.517149      -912.0480   12-B
  25   1.0000      -9.818170      -267.1660   14-A
  26   1.0000      -9.817787      -267.1556   13-B
  27   1.0000      -9.816762      -267.1277   15-A
  28   1.0000      -9.816341      -267.1162   14-B
  29   1.0000      -9.809301      -266.9247   16-A
  30   1.0000      -9.808905      -266.9139   15-B
  31   1.0000      -9.808801      -266.9110   17-A
  32   1.0000      -9.808446      -266.9014   18-A
  33   1.0000      -9.808392      -266.8999   16-B
  34   1.0000      -9.808357      -266.8990   17-B
  35   1.0000      -9.807234      -266.8684   19-A
  36   1.0000      -9.807226      -266.8682   18-B
  37   1.0000      -7.341158      -199.7631   19-B
  38   1.0000      -7.341077      -199.7609   20-B
  39   1.0000      -7.334005      -199.5684   20-A
  40   1.0000      -7.333778      -199.5622   21-A
  41   1.0000      -5.404232      -147.0566   21-B
  42   1.0000      -5.404213      -147.0561   22-A
  43   1.0000      -5.404020      -147.0509   22-B
  44   1.0000      -5.404003      -147.0504   23-A
  45   1.0000      -5.399159      -146.9186   23-B
  46   1.0000      -5.399150      -146.9183   24-A
  47   1.0000      -5.398849      -146.9101   24-B
  48   1.0000      -5.398835      -146.9098   25-A
  49   1.0000      -5.398319      -146.8957   26-A
  50   1.0000      -5.398309      -146.8955   25-B
  51   1.0000      -5.398188      -146.8922   27-A
  52   1.0000      -5.398175      -146.8918   26-B
  53   1.0000      -4.021326      -109.4258   28-A
  54   1.0000      -2.540857       -69.1402   27-B
  55   1.0000      -2.539918       -69.1147   29-A
  56   1.0000      -2.516509       -68.4777   28-B
  57   1.0000      -1.743243       -47.4360   30-A
  58   1.0000      -1.743214       -47.4353   29-B
  59   1.0000      -1.743028       -47.4302   31-A
  60   1.0000      -1.742999       -47.4294   30-B
  61   1.0000      -1.740669       -47.3660   32-A
  62   1.0000      -1.740600       -47.3641   31-B
  63   1.0000      -1.740423       -47.3593   33-A
  64   1.0000      -1.740350       -47.3573   32-B
  65   1.0000      -1.739709       -47.3399   34-A
  66   1.0000      -1.739704       -47.3397   33-B
  67   1.0000      -1.739532       -47.3351   35-A
  68   1.0000      -1.739531       -47.3350   34-B
  69   1.0000      -1.735465       -47.2244   36-A
  70   1.0000      -1.735411       -47.2229   35-B
  71   1.0000      -1.735389       -47.2223   36-B
  72   1.0000      -1.735378       -47.2220   37-A
  73   1.0000      -1.735243       -47.2184   38-A
  74   1.0000      -1.735187       -47.2168   37-B
  75   1.0000      -1.735166       -47.2163   38-B
  76   1.0000      -1.735155       -47.2160   39-A
  77   1.0000      -0.601929       -16.3793   40-A
  78   1.0000      -0.601017       -16.3545   41-A
  79   1.0000      -0.520470       -14.1627   42-A
  80   1.0000      -0.519050       -14.1241   43-A
  81   1.0000      -0.498959       -13.5774   39-B
  82   1.0000      -0.498508       -13.5651   40-B
  83   1.0000      -0.413538       -11.2530   41-B
  84   1.0000      -0.412339       -11.2203   42-B
  85   1.0000      -0.382197       -10.4001   44-A
  86   1.0000      -0.377458       -10.2712   45-A
  87   1.0000      -0.320092        -8.7101   46-A
  88   1.0000      -0.317722        -8.6456   47-A
  89   1.0000      -0.287702        -7.8288   43-B
  90   1.0000      -0.284502        -7.7417   44-B
  91   1.0000      -0.228858        -6.2275   48-A
  92   1.0000      -0.222101        -6.0437   49-A
  93   1.0000      -0.199834        -5.4377   50-A
  94   1.0000      -0.198567        -5.4033   51-A
  95   1.0000      -0.170803        -4.6478   45-B
  96   1.0000      -0.165892        -4.5141   46-B
  97   1.0000      -0.139563        -3.7977   47-B
  98   1.0000      -0.137879        -3.7519   48-B
  99   1.0000      -0.136253        -3.7076   52-A
 100   1.0000      -0.130114        -3.5406   49-B
 101   1.0000      -0.129505        -3.5240   50-B
 102   1.0000      -0.110064        -2.9950   53-A
 103   1.0000      -0.082585        -2.2473   54-A
 104   1.0000      -0.071712        -1.9514   51-B
 105   1.0000      -0.065709        -1.7880   52-B
 106   1.0000      -0.063137        -1.7181   55-A
 107   1.0000      -0.047602        -1.2953   53-B
 108   1.0000      -0.046298        -1.2598   54-B
 109   1.0000      -0.033656        -0.9158   56-A
 110   1.0000      -0.029848        -0.8122   55-B
 111   1.0000      -0.028691        -0.7807   57-A
 112   1.0000      -0.026694        -0.7264   58-A
 113   1.0000      -0.001578        -0.0429   59-A
 114   1.0000      -0.000432        -0.0118   56-B
 115   1.0000       0.001019         0.0277   60-A
 116   1.0000       0.019493         0.5304   61-A
 117   1.0000       0.021116         0.5746   62-A
 118   1.0000       0.040789         1.1099   57-B
 119   1.0000       0.054439         1.4814   63-A
 120   1.0000       0.055659         1.5146   64-A
 121   1.0000       0.070862         1.9282   58-B
 122   1.0000       0.099196         2.6993   59-B
 123   1.0000       0.116864         3.1800   60-B
 124   0.0000       0.182295         4.9605   65-A
 125   0.0000       0.182479         4.9655   66-A
 126   0.0000       0.196142         5.3373   61-B
 127   0.0000       0.196495         5.3469   62-B
 128   0.0000       0.202044         5.4979   63-B

                 SPIN DOWN ORBITALS
  NO   OCC          E(Eh)            E(eV)    Irrep
   0   1.0000    -443.560750    -12069.9016    1-B
   1   1.0000    -443.559670    -12069.8722    2-B
   2   1.0000    -443.546310    -12069.5087    1-A
   3   1.0000    -443.546262    -12069.5074    2-A
   4   1.0000    -318.186389     -8658.2918    3-A
   5   1.0000     -56.369737     -1533.8985    3-B
   6   1.0000     -56.369434     -1533.8903    4-B
   7   1.0000     -56.357008     -1533.5521    4-A
   8   1.0000     -56.356726     -1533.5445    5-A
   9   1.0000     -51.285995     -1395.5629    5-B
  10   1.0000     -51.285935     -1395.5612    6-A
  11   1.0000     -51.285839     -1395.5586    6-B
  12   1.0000     -51.285790     -1395.5573    7-A
  13   1.0000     -51.284330     -1395.5176    8-A
  14   1.0000     -51.284313     -1395.5171    7-B
  15   1.0000     -51.284179     -1395.5134    8-B
  16   1.0000     -51.284168     -1395.5131    9-A
  17   1.0000     -51.284159     -1395.5129   10-A
  18   1.0000     -51.284147     -1395.5126    9-B
  19   1.0000     -51.284049     -1395.5099   10-B
  20   1.0000     -51.284027     -1395.5093   11-A
  21   1.0000     -38.013169     -1034.3909   12-A
  22   1.0000     -33.515920      -912.0146   11-B
  23   1.0000     -33.515113      -911.9926   13-A
  24   1.0000     -33.513285      -911.9428   12-B
  25   1.0000      -9.818123      -267.1647   14-A
  26   1.0000      -9.817740      -267.1543   13-B
  27   1.0000      -9.816713      -267.1263   15-A
  28   1.0000      -9.816293      -267.1149   14-B
  29   1.0000      -9.809305      -266.9248   16-A
  30   1.0000      -9.808891      -266.9135   15-B
  31   1.0000      -9.808815      -266.9114   17-A
  32   1.0000      -9.808368      -266.8993   18-A
  33   1.0000      -9.808333      -266.8983   16-B
  34   1.0000      -9.808296      -266.8973   17-B
  35   1.0000      -9.807116      -266.8652   19-A
  36   1.0000      -9.807110      -266.8650   18-B
  37   1.0000      -7.340758      -199.7522   19-B
  38   1.0000      -7.340679      -199.7500   20-B
  39   1.0000      -7.333599      -199.5574   20-A
  40   1.0000      -7.333372      -199.5512   21-A
  41   1.0000      -5.403869      -147.0467   21-B
  42   1.0000      -5.403848      -147.0462   22-A
  43   1.0000      -5.403656      -147.0410   22-B
  44   1.0000      -5.403638      -147.0405   23-A
  45   1.0000      -5.398511      -146.9009   24-A
  46   1.0000      -5.398503      -146.9007   23-B
  47   1.0000      -5.398201      -146.8925   25-A
  48   1.0000      -5.398192      -146.8923   24-B
  49   1.0000      -5.397828      -146.8824   25-B
  50   1.0000      -5.397822      -146.8822   26-A
  51   1.0000      -5.397698      -146.8788   26-B
  52   1.0000      -5.397690      -146.8786   27-A
  53   1.0000      -3.993251      -108.6619   28-A
  54   1.0000      -2.506254       -68.1986   27-B
  55   1.0000      -2.505786       -68.1859   28-B
  56   1.0000      -2.504786       -68.1587   29-A
  57   1.0000      -1.742791       -47.4238   30-A
  58   1.0000      -1.742762       -47.4230   29-B
  59   1.0000      -1.742579       -47.4180   31-A
  60   1.0000      -1.742549       -47.4172   30-B
  61   1.0000      -1.739855       -47.3439   32-A
  62   1.0000      -1.739809       -47.3426   31-B
  63   1.0000      -1.739588       -47.3366   33-A
  64   1.0000      -1.739536       -47.3352   32-B
  65   1.0000      -1.739325       -47.3295   34-A
  66   1.0000      -1.739296       -47.3287   33-B
  67   1.0000      -1.739168       -47.3252   35-A
  68   1.0000      -1.739144       -47.3245   34-B
  69   1.0000      -1.734669       -47.2027   36-A
  70   1.0000      -1.734648       -47.2022   35-B
  71   1.0000      -1.734610       -47.2011   37-A
  72   1.0000      -1.734591       -47.2006   36-B
  73   1.0000      -1.734446       -47.1967   38-A
  74   1.0000      -1.734422       -47.1960   37-B
  75   1.0000      -1.734386       -47.1951   39-A
  76   1.0000      -1.734371       -47.1946   38-B
  77   1.0000      -0.601107       -16.3569   40-A
  78   1.0000      -0.600174       -16.3316   41-A
  79   1.0000      -0.519335       -14.1318   42-A
  80   1.0000      -0.517932       -14.0936   43-A
  81   1.0000      -0.497281       -13.5317   39-B
  82   1.0000      -0.496848       -13.5199   40-B
  83   1.0000      -0.410854       -11.1799   41-B
  84   1.0000      -0.409640       -11.1469   42-B
  85   1.0000      -0.379683       -10.3317   44-A
  86   1.0000      -0.375122       -10.2076   45-A
  87   1.0000      -0.318358        -8.6630   46-A
  88   1.0000      -0.315837        -8.5944   47-A
  89   1.0000      -0.285326        -7.7641   43-B
  90   1.0000      -0.281883        -7.6704   44-B
  91   1.0000      -0.227727        -6.1968   48-A
  92   1.0000      -0.221034        -6.0146   49-A
  93   1.0000      -0.198542        -5.4026   50-A
  94   1.0000      -0.197345        -5.3700   51-A
  95   1.0000      -0.169361        -4.6086   45-B
  96   1.0000      -0.163838        -4.4582   46-B
  97   1.0000      -0.138711        -3.7745   47-B
  98   1.0000      -0.136369        -3.7108   48-B
  99   1.0000      -0.134269        -3.6537   52-A
 100   1.0000      -0.129643        -3.5278   49-B
 101   1.0000      -0.128825        -3.5055   50-B
 102   1.0000      -0.108321        -2.9476   53-A
 103   1.0000      -0.081211        -2.2099   54-A
 104   1.0000      -0.070264        -1.9120   51-B
 105   1.0000      -0.060927        -1.6579   55-A
 106   1.0000      -0.054604        -1.4859   52-B
 107   1.0000      -0.046508        -1.2655   53-B
 108   1.0000      -0.045381        -1.2349   54-B
 109   1.0000      -0.030816        -0.8386   56-A
 110   1.0000      -0.025767        -0.7011   57-A
 111   1.0000      -0.022531        -0.6131   58-A
 112   1.0000      -0.002079        -0.0566   55-B
 113   1.0000       0.007938         0.2160   59-A
 114   1.0000       0.010765         0.2929   56-B
 115   1.0000       0.011331         0.3083   60-A
 116   1.0000       0.029166         0.7936   61-A
 117   1.0000       0.032296         0.8788   62-A
 118   1.0000       0.051808         1.4098   57-B
 119   1.0000       0.056351         1.5334   63-A
 120   1.0000       0.059306         1.6138   64-A
 121   1.0000       0.072843         1.9822   58-B
 122   1.0000       0.102666         2.7937   59-B
 123   0.0000       0.146394         3.9836   60-B
 124   0.0000       0.184149         5.0110   65-A
 125   0.0000       0.184324         5.0157   66-A
 126   0.0000       0.199155         5.4193   61-B
 127   0.0000       0.199567         5.4305   62-B

MULLIKEN ATOMIC CHARGES AND SPIN POPULATIONS
--------------------------------------------
   0 Cu:    0.638133    0.308064
   1 Se:   -0.732646    0.172927
   2 C :    0.221135   -0.002842
   3 Se:   -0.729961    0.173775
   4 C :    0.220892   -0.002451
   5 Se:   -0.732646    0.172927
   6 C :    0.221135   -0.002842
   7 Se:   -0.729961    0.173775
   8 C :    0.220892   -0.002451
   9 C :   -0.094831   -0.001262
  10 C :   -0.094831   -0.001262
  11 C :   -0.160229   -0.000715
  12 H :    0.084983    0.002725
  13 C :   -0.160229   -0.000715
  14 H :    0.084983    0.002725
  15 H :    0.019864    0.001520
  16 H :    0.019864    0.001520
  17 C :   -0.099712   -0.001339
  18 C :   -0.099712   -0.001339
  19 C :   -0.158229   -0.000685
  20 H :    0.089130    0.002754
  21 C :   -0.158229   -0.000685
  22 H :    0.089130    0.002754
  23 H :    0.020538    0.001561
  24 H :    0.020538    0.001561
Sum of atomic charges         :   -2.0000000

LOEWDIN ATOMIC CHARGES AND SPIN POPULATIONS
-------------------------------------------
   0 Cu:   -0.617122    0.388939
   1 Se:   -0.203319    0.123518
   2 C :    0.037958    0.011997
   3 Se:   -0.204067    0.124436
   4 C :    0.037673    0.012358
   5 Se:   -0.203319    0.123518
   6 C :    0.037958    0.011997
   7 Se:   -0.204067    0.124436
   8 C :    0.037673    0.012358
   9 C :    0.366449    0.006872
  10 C :    0.366449    0.006872
  11 C :    0.319753    0.000389
  12 H :   -0.452776    0.008765
  13 C :    0.319753    0.000389
  14 H :   -0.452776    0.008765
  15 H :   -0.412489    0.000380
  16 H :   -0.412489    0.000380
  17 C :    0.369091    0.006902
  18 C :    0.369091    0.006902
  19 C :    0.319742    0.000431
  20 H :   -0.457094    0.009095
  21 C :    0.319742    0.000431
  22 H :   -0.457094    0.009095
  23 H :   -0.412361    0.000387
  24 H :   -0.412361    0.000387

  Mayer bond orders larger than 0.100000
B(  0-Cu,  1-Se) :   0.5497 B(  0-Cu,  3-Se) :   0.5490 B(  0-Cu,  5-Se) :   0.5497
B(  0-Cu,  7-Se) :   0.5490 B(  1-Se,  2-C ) :   1.0400 B(  2-C ,  6-C ) :   1.1345
B(  2-C , 17-C ) :   1.2549 B(  3-Se,  4-C ) :   1.0398 B(  4-C ,  8-C ) :   1.1361
B(  4-C , 10-C ) :   1.2517 B(  5-Se,  6-C ) :   1.0400 B(  6-C , 18-C ) :   1.2549
B(  7-Se,  8-C ) :   1.0398 B(  8-C ,  9-C ) :   1.2517 B(  9-C , 13-C ) :   1.3863
B(  9-C , 14-H ) :   0.9637 B( 10-C , 11-C ) :   1.3863 B( 10-C , 12-H ) :   0.9637
B( 11-C , 13-C ) :   1.3044 B( 11-C , 15-H ) :   0.9963 B( 13-C , 16-H ) :   0.9963
B( 17-C , 19-C ) :   1.3821 B( 17-C , 20-H ) :   0.9615 B( 18-C , 21-C ) :   1.3821
B( 18-C , 22-H ) :   0.9615 B( 19-C , 21-C ) :   1.3091 B( 19-C , 23-H ) :   0.9960
B( 21-C , 24-H ) :   0.9960

FINAL SINGLE POINT ENERGY    -11627.143382611384

DIPOLE MOMENT
-------------
                                X             Y             Z
Electronic contribution:      0.00000       0.00000       0.01347
Nuclear contribution   :      0.00000      -0.00000       0.00000
                        -----------------------------------------
Total Dipole Moment    :      0.00000       0.00000       0.01347
                        -----------------------------------------
Magnitude (a.u.)       :      0.01347
Magnitude (Debye)      :      0.03423

Rotational constants in cm-1:     0.017584     0.004096     0.003325
Rotational constants in MHz :   527.166580   122.800522    99.666038

                             ****ORCA TERMINATED NORMALLY****
TOTAL RUN TIME: 0 days 17 hours 0 minutes 54 seconds 889 msec
