                         Program Version 5.0.4 -  RELEASE  -
|  1> ! RIJCOSX nofrozencore ReducedPop printbasis
|  2> ! M06L ano-rcc-dzp autoaux
|  3>
|  4> %maxcore 7500
|  5> %basis
|  6> PCDTrimBas overlap
|  7> PCDTrimAuxJ Coulomb
|  8> PCDTrimAuxJK Coulomb
|  9> PCDTrimAuxC Coulomb
| 10> PCDThresh -1
| 11> end
| 12>
| 13> %basis
| 14> newgto Cu "ano-rcc-tzp" end
| 15> newgto Se "ano-rcc-tzp" end
| 16> end
| 17>
| 18> %pal
| 19> nprocs 8
| 20> end
| 21>
| 22> % sym SymThresh 1e-2 end
| 23> * xyz -2 2
| 24> Cu -1.5464202873772004e-05 1.7680953870957058e-05 -6.806057816160476e-05
| 25> Se 1.3402809173621735 -1.794346943968069 -0.769378911745222
| 26> C 0.310629355789916 -3.062088949913586 -0.8855836737907116
| 27> Se 1.741396900169481 1.6047506612156162 0.01736981229509338
| 28> C 1.0427917585603739 2.9697514269579686 0.5942592874063238
| 29> Se -1.741916669210516 -1.604156384710509 -0.019657403949969537
| 30> C -1.034635680228032 -2.979076656712076 -0.5583630041409242
| 31> Se -1.3407991829390402 1.79493950149155 0.7670979370910005
| 32> C -0.30248530517092037 3.0527774720124894 0.9214270210508745
| 33> C -0.7820985370940627 4.309617198869244 1.2815479929143256
| 34> C 1.7763187241139262 4.151725039111214 0.65932689664632
| 35> C 1.3055621310467136 5.384650849918103 1.0588224722199753
| 36> H 2.8137143919560854 4.089738727425771 0.3620735565793743
| 37> C -0.04113759609940663 5.467766495250879 1.3863240345604952
| 38> H -1.8397866928238178 4.376880251445465 1.4940378003454533
| 39> H 2.0571556483025453 6.142498713187564 1.479874059736184
| 40> H -0.42269962838561065 6.295223216552064 2.084359139154177
| 41> C 0.7799609260958571 -4.30717426566398 -1.290955702602394
| 42> C -1.7784360312240601 -4.149304221843715 -0.6686455241396131
| 43> C 0.03528535470256367 -5.46107644958453 -1.4120804622944656
| 44> H 1.831247546177657 -4.367118140044037 -1.5316197535350025
| 45> C -1.3113986792164876 -5.377976550146046 -1.0845103887181
| 46> H -2.8222547127737214 -4.07997417508173 -0.3996609561549283
| 47> H 0.4704039021034562 -6.349765766849518 -1.874404544241128
| 48> H -2.0097284378442875 -6.196724434623191 -1.2711346411159006
| 49> *
| 50>
| 51> % eprnmr
| 52> gtensor true
| 53> Nuclei = all H {aiso,adip,aorb,fgrad,rho}
| 54> Nuclei = all Cu {aiso,adip,aorb,fgrad,rho}
| 55> end
| 56>
| 57>                          ****END OF INPUT****

CARTESIAN COORDINATES (ANGSTROEM)
---------------------------------
  Cu     0.000017   -0.000070    0.000000
  Se    -1.705388   -0.418427    1.588883
  C     -3.031645   -0.765076    0.693488
  Se     1.705965    0.416080    1.588883
  C      3.022577    0.801922    0.693488
  Se    -1.705388   -0.418427   -1.588883
  C     -3.031645   -0.765076   -0.693488
  Se     1.705965    0.416080   -1.588883
  C      3.022577    0.801922   -0.693488
  C      4.245860    1.029619   -1.318862
  C      4.245860    1.029619    1.318862
  C      5.445525    1.297836    0.694220
  H      4.248187    0.986022    2.398899
  C      5.445525    1.297836   -0.694220
  H      4.248187    0.986022   -2.398899
  H      6.243847    1.879471    1.278516
  H      6.243847    1.879471   -1.278516
  C     -4.243494   -1.039238    1.318862
  C     -4.243494   -1.039238   -1.318862
  C     -5.439022   -1.324258    0.694220
  H     -4.238686   -1.024631    2.398899
  C     -5.439022   -1.324258   -0.694220
  H     -4.238686   -1.024631   -2.398899
  H     -6.296768   -1.664423    1.278516
  H     -6.296768   -1.664423   -1.278516

 Total Charge           Charge          ....   -2
 Multiplicity           Mult            ....    2
 Number of Electrons    NEL             ....  247
 Basis Dimension        Dim             ....  575

ORBITAL ENERGIES
----------------
                 SPIN UP ORBITALS
  NO   OCC          E(Eh)            E(eV)    Irrep
   0   1.0000    -443.562842    -12069.9586    1-A"
   1   1.0000    -443.561710    -12069.9278    2-A"
   2   1.0000    -443.548196    -12069.5600    1-A'
   3   1.0000    -443.548128    -12069.5582    2-A'
   4   1.0000    -318.188474     -8658.3486    3-A'
   5   1.0000     -56.371513     -1533.9469    3-A"
   6   1.0000     -56.371219     -1533.9389    4-A"
   7   1.0000     -56.358683     -1533.5977    4-A'
   8   1.0000     -56.358268     -1533.5864    5-A'
   9   1.0000     -51.287947     -1395.6160    5-A"
  10   1.0000     -51.287897     -1395.6146    6-A'
  11   1.0000     -51.287504     -1395.6039    6-A"
  12   1.0000     -51.287459     -1395.6027    7-A'
  13   1.0000     -51.286598     -1395.5793    7-A"
  14   1.0000     -51.286541     -1395.5777    8-A'
  15   1.0000     -51.286183     -1395.5680    8-A"
  16   1.0000     -51.286176     -1395.5678    9-A"
  17   1.0000     -51.286134     -1395.5667    9-A'
  18   1.0000     -51.286116     -1395.5662   10-A'
  19   1.0000     -51.285728     -1395.5556   10-A"
  20   1.0000     -51.285679     -1395.5543   11-A'
  21   1.0000     -38.029040     -1034.8228   12-A'
  22   1.0000     -33.531099      -912.4276   11-A"
  23   1.0000     -33.530305      -912.4060   13-A'
  24   1.0000     -33.519118      -912.1016   14-A'
  25   1.0000      -9.820381      -267.2262   15-A'
  26   1.0000      -9.819935      -267.2140   12-A"
  27   1.0000      -9.817316      -267.1428   16-A'
  28   1.0000      -9.816868      -267.1306   13-A"
  29   1.0000      -9.811202      -266.9764   17-A'
  30   1.0000      -9.810745      -266.9639   14-A"
  31   1.0000      -9.809752      -266.9369   18-A'
  32   1.0000      -9.809299      -266.9246   15-A"
  33   1.0000      -9.807489      -266.8753   19-A'
  34   1.0000      -9.807489      -266.8753   16-A"
  35   1.0000      -9.807459      -266.8745   17-A"
  36   1.0000      -9.807455      -266.8744   20-A'
  37   1.0000      -7.342842      -199.8089   18-A"
  38   1.0000      -7.342452      -199.7983   19-A"
  39   1.0000      -7.335603      -199.6119   21-A'
  40   1.0000      -7.335075      -199.5975   22-A'
  41   1.0000      -5.405921      -147.1026   20-A"
  42   1.0000      -5.405903      -147.1021   23-A'
  43   1.0000      -5.405310      -147.0860   21-A"
  44   1.0000      -5.405292      -147.0855   24-A'
  45   1.0000      -5.400562      -146.9568   22-A"
  46   1.0000      -5.400537      -146.9561   25-A'
  47   1.0000      -5.400262      -146.9486   23-A"
  48   1.0000      -5.400236      -146.9479   26-A'
  49   1.0000      -5.400012      -146.9418   24-A"
  50   1.0000      -5.399986      -146.9411   27-A'
  51   1.0000      -5.399616      -146.9310   25-A"
  52   1.0000      -5.399590      -146.9303   28-A'
  53   1.0000      -4.023336      -109.4805   29-A'
  54   1.0000      -2.542900       -69.1958   26-A"
  55   1.0000      -2.541961       -69.1703   30-A'
  56   1.0000      -2.518409       -68.5294   31-A'
  57   1.0000      -1.744926       -47.4819   32-A'
  58   1.0000      -1.744897       -47.4811   27-A"
  59   1.0000      -1.744328       -47.4656   33-A'
  60   1.0000      -1.744299       -47.4648   28-A"
  61   1.0000      -1.742237       -47.4087   34-A'
  62   1.0000      -1.742157       -47.4065   29-A"
  63   1.0000      -1.741665       -47.3931   35-A'
  64   1.0000      -1.741585       -47.3909   30-A"
  65   1.0000      -1.741504       -47.3887   36-A'
  66   1.0000      -1.741497       -47.3886   31-A"
  67   1.0000      -1.740860       -47.3712   37-A'
  68   1.0000      -1.740853       -47.3710   32-A"
  69   1.0000      -1.737156       -47.2704   38-A'
  70   1.0000      -1.737091       -47.2686   33-A"
  71   1.0000      -1.737062       -47.2679   39-A'
  72   1.0000      -1.737036       -47.2671   34-A"
  73   1.0000      -1.736548       -47.2539   40-A'
  74   1.0000      -1.736485       -47.2522   35-A"
  75   1.0000      -1.736458       -47.2514   41-A'
  76   1.0000      -1.736430       -47.2507   36-A"
  77   1.0000      -0.603809       -16.4305   42-A'
  78   1.0000      -0.603600       -16.4248   43-A'
  79   1.0000      -0.522302       -14.2126   44-A'
  80   1.0000      -0.520749       -14.1703   45-A'
  81   1.0000      -0.500363       -13.6156   37-A"
  82   1.0000      -0.499808       -13.6005   38-A"
  83   1.0000      -0.413653       -11.2561   39-A"
  84   1.0000      -0.411495       -11.1973   40-A"
  85   1.0000      -0.383439       -10.4339   46-A'
  86   1.0000      -0.378117       -10.2891   47-A'
  87   1.0000      -0.322053        -8.7635   48-A'
  88   1.0000      -0.319784        -8.7018   49-A'
  89   1.0000      -0.286780        -7.8037   41-A"
  90   1.0000      -0.279982        -7.6187   42-A"
  91   1.0000      -0.228290        -6.2121   50-A'
  92   1.0000      -0.218090        -5.9345   51-A'
  93   1.0000      -0.201348        -5.4790   52-A'
  94   1.0000      -0.200249        -5.4491   53-A'
  95   1.0000      -0.169930        -4.6240   43-A"
  96   1.0000      -0.164505        -4.4764   44-A"
  97   1.0000      -0.142068        -3.8659   54-A'
  98   1.0000      -0.138592        -3.7713   45-A"
  99   1.0000      -0.132674        -3.6103   46-A"
 100   1.0000      -0.132528        -3.6063   55-A'
 101   1.0000      -0.128184        -3.4881   56-A'
 102   1.0000      -0.110020        -2.9938   57-A'
 103   1.0000      -0.084108        -2.2887   58-A'
 104   1.0000      -0.072605        -1.9757   47-A"
 105   1.0000      -0.066979        -1.8226   48-A"
 106   1.0000      -0.064781        -1.7628   59-A'
 107   1.0000      -0.048804        -1.3280   60-A'
 108   1.0000      -0.043927        -1.1953   61-A'
 109   1.0000      -0.034145        -0.9291   49-A"
 110   1.0000      -0.031497        -0.8571   50-A"
 111   1.0000      -0.029912        -0.8140   62-A'
 112   1.0000      -0.027412        -0.7459   51-A"
 113   1.0000      -0.002825        -0.0769   52-A"
 114   1.0000      -0.002459        -0.0669   63-A'
 115   1.0000      -0.000786        -0.0214   64-A'
 116   1.0000       0.017779         0.4838   65-A'
 117   1.0000       0.019731         0.5369   66-A'
 118   1.0000       0.039392         1.0719   53-A"
 119   1.0000       0.054246         1.4761   54-A"
 120   1.0000       0.055470         1.5094   55-A"
 121   1.0000       0.068486         1.8636   67-A'
 122   1.0000       0.097219         2.6455   68-A'
 123   1.0000       0.114820         3.1244   56-A"
 124   0.0000       0.181538         4.9399   69-A'
 125   0.0000       0.181649         4.9429   70-A'
 126   0.0000       0.195919         5.3312   57-A"
 127   0.0000       0.197436         5.3725   58-A"
 128   0.0000       0.197731         5.3805   71-A'

                 SPIN DOWN ORBITALS
  NO   OCC          E(Eh)            E(eV)    Irrep
   0   1.0000    -443.562388    -12069.9462    1-A"
   1   1.0000    -443.561258    -12069.9154    2-A"
   2   1.0000    -443.547743    -12069.5477    1-A'
   3   1.0000    -443.547674    -12069.5458    2-A'
   4   1.0000    -318.188351     -8658.3452    3-A'
   5   1.0000     -56.371329     -1533.9419    3-A"
   6   1.0000     -56.371036     -1533.9339    4-A"
   7   1.0000     -56.358502     -1533.5928    4-A'
   8   1.0000     -56.358087     -1533.5815    5-A'
   9   1.0000     -51.287626     -1395.6072    5-A"
  10   1.0000     -51.287568     -1395.6057    6-A'
  11   1.0000     -51.287181     -1395.5951    6-A"
  12   1.0000     -51.287127     -1395.5937    7-A'
  13   1.0000     -51.285933     -1395.5612    7-A"
  14   1.0000     -51.285884     -1395.5599    8-A'
  15   1.0000     -51.285863     -1395.5593    8-A"
  16   1.0000     -51.285814     -1395.5579    9-A'
  17   1.0000     -51.285477     -1395.5488    9-A"
  18   1.0000     -51.285437     -1395.5477   10-A"
  19   1.0000     -51.285428     -1395.5474   10-A'
  20   1.0000     -51.285386     -1395.5463   11-A'
  21   1.0000     -38.015134     -1034.4444   12-A'
  22   1.0000     -33.517886      -912.0680   11-A"
  23   1.0000     -33.517093      -912.0465   13-A'
  24   1.0000     -33.515233      -911.9958   14-A'
  25   1.0000      -9.820333      -267.2248   15-A'
  26   1.0000      -9.819887      -267.2127   12-A"
  27   1.0000      -9.817266      -267.1414   16-A'
  28   1.0000      -9.816818      -267.1292   13-A"
  29   1.0000      -9.811221      -266.9769   17-A'
  30   1.0000      -9.810763      -266.9644   14-A"
  31   1.0000      -9.809770      -266.9374   18-A'
  32   1.0000      -9.809316      -266.9251   15-A"
  33   1.0000      -9.807370      -266.8721   16-A"
  34   1.0000      -9.807369      -266.8721   19-A'
  35   1.0000      -9.807338      -266.8712   17-A"
  36   1.0000      -9.807334      -266.8711   20-A'
  37   1.0000      -7.342443      -199.7980   18-A"
  38   1.0000      -7.342052      -199.7874   19-A"
  39   1.0000      -7.335197      -199.6009   21-A'
  40   1.0000      -7.334667      -199.5864   22-A'
  41   1.0000      -5.405558      -147.0927   20-A"
  42   1.0000      -5.405538      -147.0922   23-A'
  43   1.0000      -5.404944      -147.0760   21-A"
  44   1.0000      -5.404925      -147.0755   24-A'
  45   1.0000      -5.399950      -146.9401   22-A"
  46   1.0000      -5.399923      -146.9394   25-A'
  47   1.0000      -5.399741      -146.9344   23-A"
  48   1.0000      -5.399716      -146.9338   26-A'
  49   1.0000      -5.399304      -146.9225   24-A"
  50   1.0000      -5.399277      -146.9218   27-A'
  51   1.0000      -5.399185      -146.9193   25-A"
  52   1.0000      -5.399160      -146.9186   28-A'
  53   1.0000      -3.995072      -108.7114   29-A'
  54   1.0000      -2.508068       -68.2480   30-A'
  55   1.0000      -2.507613       -68.2356   26-A"
  56   1.0000      -2.506610       -68.2083   31-A'
  57   1.0000      -1.744483       -47.4698   32-A'
  58   1.0000      -1.744454       -47.4690   27-A"
  59   1.0000      -1.743879       -47.4534   33-A'
  60   1.0000      -1.743850       -47.4526   28-A"
  61   1.0000      -1.741349       -47.3845   34-A'
  62   1.0000      -1.741270       -47.3824   29-A"
  63   1.0000      -1.741189       -47.3802   35-A'
  64   1.0000      -1.741178       -47.3799   30-A"
  65   1.0000      -1.740768       -47.3687   36-A'
  66   1.0000      -1.740686       -47.3665   31-A"
  67   1.0000      -1.740548       -47.3627   37-A'
  68   1.0000      -1.740539       -47.3625   32-A"
  69   1.0000      -1.736362       -47.2488   38-A'
  70   1.0000      -1.736308       -47.2473   33-A"
  71   1.0000      -1.736288       -47.2468   39-A'
  72   1.0000      -1.736256       -47.2459   34-A"
  73   1.0000      -1.735751       -47.2322   40-A'
  74   1.0000      -1.735700       -47.2308   35-A"
  75   1.0000      -1.735680       -47.2303   41-A'
  76   1.0000      -1.735647       -47.2294   36-A"
  77   1.0000      -0.602989       -16.4082   42-A'
  78   1.0000      -0.602792       -16.4028   43-A'
  79   1.0000      -0.521160       -14.1815   44-A'
  80   1.0000      -0.519626       -14.1397   45-A'
  81   1.0000      -0.498655       -13.5691   37-A"
  82   1.0000      -0.498080       -13.5534   38-A"
  83   1.0000      -0.410953       -11.1826   39-A"
  84   1.0000      -0.408765       -11.1230   40-A"
  85   1.0000      -0.380924       -10.3655   46-A'
  86   1.0000      -0.375753       -10.2247   47-A'
  87   1.0000      -0.320315        -8.7162   48-A'
  88   1.0000      -0.317876        -8.6498   49-A'
  89   1.0000      -0.284303        -7.7363   41-A"
  90   1.0000      -0.277300        -7.5457   42-A"
  91   1.0000      -0.227153        -6.1811   50-A'
  92   1.0000      -0.217037        -5.9059   51-A'
  93   1.0000      -0.200055        -5.4438   52-A'
  94   1.0000      -0.199024        -5.4157   53-A'
  95   1.0000      -0.168491        -4.5849   43-A"
  96   1.0000      -0.162744        -4.4285   44-A"
  97   1.0000      -0.140693        -3.8284   54-A'
  98   1.0000      -0.137465        -3.7406   45-A"
  99   1.0000      -0.132037        -3.5929   55-A'
 100   1.0000      -0.130912        -3.5623   46-A"
 101   1.0000      -0.127155        -3.4601   56-A'
 102   1.0000      -0.108435        -2.9507   57-A'
 103   1.0000      -0.082784        -2.2527   58-A'
 104   1.0000      -0.071197        -1.9374   47-A"
 105   1.0000      -0.062597        -1.7033   59-A'
 106   1.0000      -0.055697        -1.5156   48-A"
 107   1.0000      -0.047807        -1.3009   60-A'
 108   1.0000      -0.042805        -1.1648   61-A'
 109   1.0000      -0.031605        -0.8600   49-A"
 110   1.0000      -0.026362        -0.7173   50-A"
 111   1.0000      -0.023765        -0.6467   62-A'
 112   1.0000      -0.003603        -0.0981   51-A"
 113   1.0000       0.006791         0.1848   52-A"
 114   1.0000       0.008598         0.2340   63-A'
 115   1.0000       0.009674         0.2633   64-A'
 116   1.0000       0.027904         0.7593   65-A'
 117   1.0000       0.030619         0.8332   66-A'
 118   1.0000       0.050614         1.3773   53-A"
 119   1.0000       0.056217         1.5298   54-A"
 120   1.0000       0.058934         1.6037   55-A"
 121   1.0000       0.070222         1.9108   67-A'
 122   1.0000       0.100484         2.7343   68-A'
 123   0.0000       0.144639         3.9358   56-A"
 124   0.0000       0.183083         4.9819   69-A'
 125   0.0000       0.183467         4.9924   70-A'
 126   0.0000       0.197891         5.3849   71-A'
 127   0.0000       0.199050         5.4164   57-A"

MULLIKEN ATOMIC CHARGES AND SPIN POPULATIONS
--------------------------------------------
   0 Cu:    0.639191    0.310275
   1 Se:   -0.731521    0.173894
   2 C :    0.221840   -0.003192
   3 Se:   -0.725328    0.172829
   4 C :    0.224241   -0.003131
   5 Se:   -0.731521    0.173894
   6 C :    0.221840   -0.003192
   7 Se:   -0.725328    0.172829
   8 C :    0.224241   -0.003131
   9 C :   -0.086344   -0.001387
  10 C :   -0.086344   -0.001387
  11 C :   -0.145730   -0.000877
  12 H :    0.094473    0.002717
  13 C :   -0.145730   -0.000877
  14 H :    0.094473    0.002717
  15 H :   -0.023155    0.001786
  16 H :   -0.023155    0.001786
  17 C :   -0.100962   -0.001503
  18 C :   -0.100962   -0.001503
  19 C :   -0.154880   -0.000689
  20 H :    0.092350    0.002798
  21 C :   -0.154880   -0.000689
  22 H :    0.092350    0.002798
  23 H :    0.015419    0.001616
  24 H :    0.015419    0.001616
Sum of atomic charges         :   -2.0000000

LOEWDIN ATOMIC CHARGES AND SPIN POPULATIONS
-------------------------------------------
   0 Cu:   -0.614832    0.390642
   1 Se:   -0.201289    0.123731
   2 C :    0.038704    0.011811
   3 Se:   -0.199385    0.123120
   4 C :    0.040694    0.011755
   5 Se:   -0.201289    0.123731
   6 C :    0.038704    0.011811
   7 Se:   -0.199385    0.123120
   8 C :    0.040694    0.011755
   9 C :    0.361201    0.006934
  10 C :    0.361201    0.006934
  11 C :    0.278709    0.000270
  12 H :   -0.464201    0.009316
  13 C :    0.278709    0.000270
  14 H :   -0.464201    0.009316
  15 H :   -0.365488    0.000552
  16 H :   -0.365488    0.000552
  17 C :    0.370105    0.006929
  18 C :    0.370105    0.006929
  19 C :    0.314966    0.000429
  20 H :   -0.460313    0.009426
  21 C :    0.314966    0.000429
  22 H :   -0.460313    0.009426
  23 H :   -0.406288    0.000405
  24 H :   -0.406288    0.000405

  Mayer bond orders larger than 0.100000
B(  0-Cu,  1-Se) :   0.5515 B(  0-Cu,  3-Se) :   0.5481 B(  0-Cu,  5-Se) :   0.5515
B(  0-Cu,  7-Se) :   0.5481 B(  1-Se,  2-C ) :   1.0390 B(  2-C ,  6-C ) :   1.1330
B(  2-C , 17-C ) :   1.2582 B(  3-Se,  4-C ) :   1.0408 B(  4-C ,  8-C ) :   1.1275
B(  4-C , 10-C ) :   1.2638 B(  5-Se,  6-C ) :   1.0390 B(  6-C , 18-C ) :   1.2582
B(  7-Se,  8-C ) :   1.0408 B(  8-C ,  9-C ) :   1.2638 B(  9-C , 13-C ) :   1.3681
B(  9-C , 14-H ) :   0.9564 B( 10-C , 11-C ) :   1.3681 B( 10-C , 12-H ) :   0.9564
B( 11-C , 13-C ) :   1.3126 B( 11-C , 15-H ) :   1.0167 B( 13-C , 16-H ) :   1.0167
B( 17-C , 19-C ) :   1.3782 B( 17-C , 20-H ) :   0.9594 B( 18-C , 21-C ) :   1.3782
B( 18-C , 22-H ) :   0.9594 B( 19-C , 21-C ) :   1.3119 B( 19-C , 23-H ) :   0.9991
B( 21-C , 24-H ) :   0.9991

FINAL SINGLE POINT ENERGY    -11627.127622326665

DIPOLE MOMENT
-------------
                                X             Y             Z
Electronic contribution:     -0.15058      -0.35760       0.00000
Nuclear contribution   :     -0.09344       0.37971      -0.00000
                        -----------------------------------------
Total Dipole Moment    :     -0.24402       0.02211       0.00000
                        -----------------------------------------
Magnitude (a.u.)       :      0.24502
Magnitude (Debye)      :      0.62280

Rotational constants in cm-1:     0.017608     0.004097     0.003325
Rotational constants in MHz :   527.883848   122.839402    99.666038

                             ****ORCA TERMINATED NORMALLY****
TOTAL RUN TIME: 0 days 17 hours 9 minutes 1 seconds 461 msec
