                         Program Version 5.0.4 -  RELEASE  -
|  1> ! RIJCOSX nofrozencore ReducedPop printbasis
|  2> ! M06L ano-rcc-dzp autoaux
|  3>
|  4> %maxcore 7500
|  5> %basis
|  6> PCDTrimBas overlap
|  7> PCDTrimAuxJ Coulomb
|  8> PCDTrimAuxJK Coulomb
|  9> PCDTrimAuxC Coulomb
| 10> PCDThresh -1
| 11> end
| 12>
| 13> %basis
| 14> newgto Cu "ano-rcc-tzp" end
| 15> newgto Se "ano-rcc-tzp" end
| 16> end
| 17>
| 18> %pal
| 19> nprocs 8
| 20> end
| 21>
| 22> % sym SymThresh 1e-2 end
| 23> * xyz -2 2
| 24> Cu 0.00017799873507387724 -0.0003255196899473128 0.00011015163080365651
| 25> Se -2.328651563396687 0.4102850132529631 -0.13937127277592526
| 26> C -3.0496373375285293 -0.9604540591298696 0.32409432994401716
| 27> Se 0.6626844010386054 2.15262237500088 -0.7279506664504648
| 28> C 2.3408205667332713 2.1783938196028387 -0.7362402225141487
| 29> Se -0.6647650631514109 -2.1530383140235014 0.728090826722285
| 30> C -2.308254550659242 -2.113969947995611 0.7144572952957625
| 31> Se 2.330804713217054 -0.4083054777440785 0.13870224809766707
| 32> C 2.976960107883775 0.959803092039539 -0.3238926593934538
| 33> C 4.410598247244578 1.0634546153925915 -0.3585872670679388
| 34> C 3.005138311175223 3.200678006766068 -1.081856209101247
| 35> C 4.422551194849578 3.2985566743369343 -1.1146022957911186
| 36> H 2.3775441219624853 4.032061483584241 -1.3632296427319515
| 37> C 5.128126261679197 2.2374423521540447 -0.75550306902124
| 38> H 5.372663501689816 0.4206978845456949 -0.14093117120745047
| 39> H 4.863419934809443 4.235296042526592 -1.4313398792239083
| 40> H 6.209636283243992 2.1492905590955997 -0.7254103702307098
| 41> C -4.3780482831257 -1.0761933514296442 0.3629044083718684
| 42> C -3.02032818955352 -3.2295555710459225 1.0916201078161751
| 43> C -5.124050155366477 -2.2403841986210575 0.7564991803061472
| 44> H -4.988435456166102 -0.23194150560463977 0.07718266305167006
| 45> C -4.418986055018382 -3.324878616939262 1.1235065400388804
| 46> H -2.591537213517853 -4.180515448229326 1.413389327417281
| 47> H -6.20516687541238 -2.183737741512429 0.7370631883523674
| 48> H -4.874981227467733 -4.258385746967034 1.439146972339942
| 49> *
| 50>
| 51> % eprnmr
| 52> gtensor true
| 53> Nuclei = all H {aiso,adip,aorb,fgrad,rho}
| 54> Nuclei = all Cu {aiso,adip,aorb,fgrad,rho}
| 55> end
| 56>
| 57>                          ****END OF INPUT****

CARTESIAN COORDINATES (ANGSTROEM)
---------------------------------
  Cu     0.000178   -0.000344    0.000000
  Se    -2.328669    0.433215    0.000000
  C     -3.049596   -1.013786    0.000000
  Se     0.662592    2.272404    0.000000
  C      2.340727    2.299541    0.000000
  Se    -0.664672   -2.272843    0.000000
  C     -2.308164   -2.231533    0.000000
  Se     2.330822   -0.431126    0.000000
  C      2.976919    1.013101    0.000000
  C      4.410553    1.122463    0.000000
  C      3.005000    3.378695    0.000000
  C      4.422409    3.481964    0.000000
  H      2.377370    4.256376    0.000000
  C      5.128030    2.361762    0.000000
  H      5.372646    0.443893    0.000000
  H      4.863238    4.470821    0.000000
  H      6.209544    2.268660    0.000000
  C     -4.378002   -1.135912    0.000000
  C     -3.020189   -3.409179    0.000000
  C     -5.123954   -2.364868    0.000000
  H     -4.988426   -0.244647    0.000000
  C     -4.418843   -3.509751    0.000000
  H     -2.591357   -4.413084    0.000000
  H     -6.205073   -2.305025    0.000000
  H     -4.874798   -4.495195    0.000000

 Total Charge           Charge          ....   -2
 Multiplicity           Mult            ....    2
 Number of Electrons    NEL             ....  247
 Basis Dimension        Dim             ....  575

ORBITAL ENERGIES
----------------
                 SPIN UP ORBITALS
  NO   OCC          E(Eh)            E(eV)    Irrep
   0   1.0000    -443.569742    -12070.1463    1-A'
   1   1.0000    -443.562930    -12069.9609    2-A'
   2   1.0000    -443.548137    -12069.5584    3-A'
   3   1.0000    -443.541060    -12069.3659    4-A'
   4   1.0000    -318.187401     -8658.3194    5-A'
   5   1.0000     -56.376588     -1534.0849    6-A'
   6   1.0000     -56.371284     -1533.9406    7-A'
   7   1.0000     -56.358153     -1533.5833    8-A'
   8   1.0000     -56.353217     -1533.4490    9-A'
   9   1.0000     -51.295091     -1395.8104   10-A'
  10   1.0000     -51.293901     -1395.7780   11-A'
  11   1.0000     -51.293699     -1395.7725    1-A"
  12   1.0000     -51.287159     -1395.5946   12-A'
  13   1.0000     -51.286908     -1395.5877   13-A'
  14   1.0000     -51.285803     -1395.5577   14-A'
  15   1.0000     -51.285582     -1395.5516   15-A'
  16   1.0000     -51.285400     -1395.5467    2-A"
  17   1.0000     -51.285129     -1395.5393    3-A"
  18   1.0000     -51.280231     -1395.4060   16-A'
  19   1.0000     -51.278790     -1395.3668   17-A'
  20   1.0000     -51.278121     -1395.3486    4-A"
  21   1.0000     -38.027988     -1034.7941   18-A'
  22   1.0000     -33.530039      -912.3987   19-A'
  23   1.0000     -33.529259      -912.3775   20-A'
  24   1.0000     -33.518105      -912.0740    5-A"
  25   1.0000      -9.824548      -267.3395   21-A'
  26   1.0000      -9.817797      -267.1558   22-A'
  27   1.0000      -9.814589      -267.0686   23-A'
  28   1.0000      -9.813901      -267.0498   24-A'
  29   1.0000      -9.812087      -267.0005   25-A'
  30   1.0000      -9.811571      -266.9864   26-A'
  31   1.0000      -9.809167      -266.9210   27-A'
  32   1.0000      -9.808003      -266.8893   28-A'
  33   1.0000      -9.805947      -266.8334   29-A'
  34   1.0000      -9.803366      -266.7632   30-A'
  35   1.0000      -9.803205      -266.7588   31-A'
  36   1.0000      -9.796377      -266.5730   32-A'
  37   1.0000      -7.347773      -199.9431   33-A'
  38   1.0000      -7.342057      -199.7875   34-A'
  39   1.0000      -7.334795      -199.5899   35-A'
  40   1.0000      -7.330339      -199.4687   36-A'
  41   1.0000      -5.412033      -147.2689   37-A'
  42   1.0000      -5.407148      -147.1360    6-A"
  43   1.0000      -5.406702      -147.1238   38-A'
  44   1.0000      -5.405314      -147.0861   39-A'
  45   1.0000      -5.404283      -147.0580   40-A'
  46   1.0000      -5.399961      -146.9404   41-A'
  47   1.0000      -5.399695      -146.9332    7-A"
  48   1.0000      -5.399429      -146.9259   42-A'
  49   1.0000      -5.398904      -146.9116   43-A'
  50   1.0000      -5.398451      -146.8993    8-A"
  51   1.0000      -5.393950      -146.7768   44-A'
  52   1.0000      -5.392732      -146.7437    9-A"
  53   1.0000      -4.022342      -109.4535   45-A'
  54   1.0000      -2.541903       -69.1687   46-A'
  55   1.0000      -2.540941       -69.1425   47-A'
  56   1.0000      -2.517484       -68.5042   10-A"
  57   1.0000      -1.752050       -47.6757   48-A'
  58   1.0000      -1.748308       -47.5739   49-A'
  59   1.0000      -1.748167       -47.5701   11-A"
  60   1.0000      -1.744257       -47.4637   50-A'
  61   1.0000      -1.743726       -47.4492   51-A'
  62   1.0000      -1.743703       -47.4486   12-A"
  63   1.0000      -1.743605       -47.4459   52-A'
  64   1.0000      -1.741551       -47.3900   53-A'
  65   1.0000      -1.740930       -47.3731   13-A"
  66   1.0000      -1.740612       -47.3645   54-A'
  67   1.0000      -1.739812       -47.3427   14-A"
  68   1.0000      -1.737861       -47.2896   55-A'
  69   1.0000      -1.736562       -47.2542   56-A'
  70   1.0000      -1.736481       -47.2521   15-A"
  71   1.0000      -1.735737       -47.2318   57-A'
  72   1.0000      -1.735359       -47.2215   58-A'
  73   1.0000      -1.735319       -47.2204   16-A"
  74   1.0000      -1.734420       -47.1960   17-A"
  75   1.0000      -1.729931       -47.0738   59-A'
  76   1.0000      -1.729877       -47.0724   18-A"
  77   1.0000      -0.605099       -16.4656   60-A'
  78   1.0000      -0.603094       -16.4110   61-A'
  79   1.0000      -0.524126       -14.2622   62-A'
  80   1.0000      -0.522238       -14.2108   63-A'
  81   1.0000      -0.506269       -13.7763   64-A'
  82   1.0000      -0.501586       -13.6489   65-A'
  83   1.0000      -0.410350       -11.1662   66-A'
  84   1.0000      -0.409027       -11.1302   67-A'
  85   1.0000      -0.387303       -10.5390   68-A'
  86   1.0000      -0.382229       -10.4010   69-A'
  87   1.0000      -0.320126        -8.7111   70-A'
  88   1.0000      -0.316050        -8.6002   71-A'
  89   1.0000      -0.287771        -7.8306   72-A'
  90   1.0000      -0.281756        -7.6670   73-A'
  91   1.0000      -0.227268        -6.1843   74-A'
  92   1.0000      -0.220559        -6.0017   75-A'
  93   1.0000      -0.207379        -5.6431   76-A'
  94   1.0000      -0.202756        -5.5173   77-A'
  95   1.0000      -0.172154        -4.6845   78-A'
  96   1.0000      -0.163531        -4.4499   79-A'
  97   1.0000      -0.141782        -3.8581   80-A'
  98   1.0000      -0.132915        -3.6168   19-A"
  99   1.0000      -0.131113        -3.5678   20-A"
 100   1.0000      -0.128356        -3.4928   81-A'
 101   1.0000      -0.128066        -3.4848   82-A'
 102   1.0000      -0.109929        -2.9913   83-A'
 103   1.0000      -0.077468        -2.1080   84-A'
 104   1.0000      -0.070275        -1.9123   85-A'
 105   1.0000      -0.065045        -1.7700   86-A'
 106   1.0000      -0.054898        -1.4938   87-A'
 107   1.0000      -0.050819        -1.3829   21-A"
 108   1.0000      -0.048276        -1.3136   22-A"
 109   1.0000      -0.037115        -1.0100   23-A"
 110   1.0000      -0.033219        -0.9039   88-A'
 111   1.0000      -0.031355        -0.8532   24-A"
 112   1.0000      -0.027630        -0.7519   89-A'
 113   1.0000      -0.002474        -0.0673   25-A"
 114   1.0000      -0.001830        -0.0498   26-A"
 115   1.0000       0.000714         0.0194   90-A'
 116   1.0000       0.019334         0.5261   91-A'
 117   1.0000       0.022169         0.6032   92-A'
 118   1.0000       0.040956         1.1145   93-A'
 119   1.0000       0.059994         1.6325   27-A"
 120   1.0000       0.060967         1.6590   28-A"
 121   1.0000       0.067922         1.8483   29-A"
 122   1.0000       0.095951         2.6110   30-A"
 123   1.0000       0.115647         3.1469   94-A'
 124   0.0000       0.181668         4.9434   95-A'
 125   0.0000       0.182245         4.9592   96-A'
 126   0.0000       0.194768         5.2999   97-A'
 127   0.0000       0.195318         5.3149   98-A'
 128   0.0000       0.197647         5.3782   31-A"

                 SPIN DOWN ORBITALS
  NO   OCC          E(Eh)            E(eV)    Irrep
   0   1.0000    -443.569282    -12070.1338    1-A'
   1   1.0000    -443.562479    -12069.9487    2-A'
   2   1.0000    -443.547685    -12069.5461    3-A'
   3   1.0000    -443.540615    -12069.3537    4-A'
   4   1.0000    -318.187280     -8658.3161    5-A'
   5   1.0000     -56.376402     -1534.0799    6-A'
   6   1.0000     -56.371101     -1533.9357    7-A'
   7   1.0000     -56.357972     -1533.5784    8-A'
   8   1.0000     -56.353038     -1533.4441    9-A'
   9   1.0000     -51.294750     -1395.8011   10-A'
  10   1.0000     -51.293442     -1395.7655    1-A"
  11   1.0000     -51.293167     -1395.7580   11-A'
  12   1.0000     -51.286833     -1395.5857   12-A'
  13   1.0000     -51.286581     -1395.5788   13-A'
  14   1.0000     -51.285148     -1395.5398    2-A"
  15   1.0000     -51.285068     -1395.5377   14-A'
  16   1.0000     -51.284883     -1395.5326    3-A"
  17   1.0000     -51.284862     -1395.5320   15-A'
  18   1.0000     -51.279916     -1395.3974   16-A'
  19   1.0000     -51.278064     -1395.3471   17-A'
  20   1.0000     -51.277877     -1395.3420    4-A"
  21   1.0000     -38.014161     -1034.4179   18-A'
  22   1.0000     -33.516898      -912.0412   19-A'
  23   1.0000     -33.516115      -912.0199   20-A'
  24   1.0000     -33.514254      -911.9692    5-A"
  25   1.0000      -9.824570      -267.3401   21-A'
  26   1.0000      -9.817686      -267.1528   22-A'
  27   1.0000      -9.814581      -267.0683   23-A'
  28   1.0000      -9.813839      -267.0481   24-A'
  29   1.0000      -9.812021      -266.9987   25-A'
  30   1.0000      -9.811482      -266.9840   26-A'
  31   1.0000      -9.809112      -266.9195   27-A'
  32   1.0000      -9.808002      -266.8893   28-A'
  33   1.0000      -9.805864      -266.8311   29-A'
  34   1.0000      -9.803255      -266.7601   30-A'
  35   1.0000      -9.803172      -266.7579   31-A'
  36   1.0000      -9.796280      -266.5703   32-A'
  37   1.0000      -7.347366      -199.9320   33-A'
  38   1.0000      -7.341660      -199.7767   34-A'
  39   1.0000      -7.334390      -199.5789   35-A'
  40   1.0000      -7.329941      -199.4578   36-A'
  41   1.0000      -5.411655      -147.2586   37-A'
  42   1.0000      -5.406827      -147.1272    6-A"
  43   1.0000      -5.405871      -147.1012   38-A'
  44   1.0000      -5.404946      -147.0761   39-A'
  45   1.0000      -5.403921      -147.0482   40-A'
  46   1.0000      -5.399380      -146.9246    7-A"
  47   1.0000      -5.399138      -146.9180   41-A'
  48   1.0000      -5.399078      -146.9164   42-A'
  49   1.0000      -5.398141      -146.8909    8-A"
  50   1.0000      -5.398089      -146.8895   43-A'
  51   1.0000      -5.393132      -146.7546   44-A'
  52   1.0000      -5.392428      -146.7354    9-A"
  53   1.0000      -3.994228      -108.6885   45-A'
  54   1.0000      -2.507217       -68.2248   10-A"
  55   1.0000      -2.506812       -68.2138   46-A'
  56   1.0000      -2.505745       -68.1848   47-A'
  57   1.0000      -1.751616       -47.6639   48-A'
  58   1.0000      -1.747849       -47.5614   11-A"
  59   1.0000      -1.747396       -47.5490   49-A'
  60   1.0000      -1.743808       -47.4514   50-A'
  61   1.0000      -1.743155       -47.4337   51-A'
  62   1.0000      -1.742919       -47.4272   12-A"
  63   1.0000      -1.742891       -47.4265   52-A'
  64   1.0000      -1.740652       -47.3656   53-A'
  65   1.0000      -1.740619       -47.3647   13-A"
  66   1.0000      -1.739725       -47.3403   54-A'
  67   1.0000      -1.739505       -47.3343   14-A"
  68   1.0000      -1.737391       -47.2768   55-A'
  69   1.0000      -1.735759       -47.2324   56-A'
  70   1.0000      -1.735711       -47.2311   15-A"
  71   1.0000      -1.734857       -47.2079   57-A'
  72   1.0000      -1.734567       -47.2000   58-A'
  73   1.0000      -1.734557       -47.1997   16-A"
  74   1.0000      -1.734124       -47.1879   17-A"
  75   1.0000      -1.729170       -47.0531   59-A'
  76   1.0000      -1.729121       -47.0518   18-A"
  77   1.0000      -0.604203       -16.4412   60-A'
  78   1.0000      -0.602197       -16.3866   61-A'
  79   1.0000      -0.522853       -14.2275   62-A'
  80   1.0000      -0.521086       -14.1795   63-A'
  81   1.0000      -0.504456       -13.7270   64-A'
  82   1.0000      -0.499749       -13.5989   65-A'
  83   1.0000      -0.408051       -11.1036   66-A'
  84   1.0000      -0.406509       -11.0617   67-A'
  85   1.0000      -0.384732       -10.4691   68-A'
  86   1.0000      -0.379625       -10.3301   69-A'
  87   1.0000      -0.318246        -8.6599   70-A'
  88   1.0000      -0.314217        -8.5503   71-A'
  89   1.0000      -0.285345        -7.7646   72-A'
  90   1.0000      -0.279320        -7.6007   73-A'
  91   1.0000      -0.226086        -6.1521   74-A'
  92   1.0000      -0.219472        -5.9721   75-A'
  93   1.0000      -0.205760        -5.5990   76-A'
  94   1.0000      -0.201346        -5.4789   77-A'
  95   1.0000      -0.170826        -4.6484   78-A'
  96   1.0000      -0.162051        -4.4096   79-A'
  97   1.0000      -0.140003        -3.8097   80-A'
  98   1.0000      -0.132497        -3.6054   19-A"
  99   1.0000      -0.130684        -3.5561   20-A"
 100   1.0000      -0.126805        -3.4505   81-A'
 101   1.0000      -0.125397        -3.4122   82-A'
 102   1.0000      -0.107638        -2.9290   83-A'
 103   1.0000      -0.075637        -2.0582   84-A'
 104   1.0000      -0.068455        -1.8628   85-A'
 105   1.0000      -0.056678        -1.5423   86-A'
 106   1.0000      -0.052748        -1.4354   87-A'
 107   1.0000      -0.049762        -1.3541   21-A"
 108   1.0000      -0.047509        -1.2928   22-A"
 109   1.0000      -0.035082        -0.9546   23-A"
 110   1.0000      -0.030292        -0.8243   24-A"
 111   1.0000      -0.022325        -0.6075   88-A'
 112   1.0000      -0.002824        -0.0769   89-A'
 113   1.0000       0.007598         0.2067   25-A"
 114   1.0000       0.009297         0.2530   26-A"
 115   1.0000       0.011202         0.3048   90-A'
 116   1.0000       0.030044         0.8175   91-A'
 117   1.0000       0.031796         0.8652   92-A'
 118   1.0000       0.052054         1.4165   93-A'
 119   1.0000       0.062068         1.6890   27-A"
 120   1.0000       0.064010         1.7418   28-A"
 121   1.0000       0.069599         1.8939   29-A"
 122   1.0000       0.099183         2.6989   30-A"
 123   0.0000       0.145154         3.9498   94-A'
 124   0.0000       0.184790         5.0284   95-A'
 125   0.0000       0.185178         5.0389   96-A'
 126   0.0000       0.197875         5.3844   31-A"
 127   0.0000       0.199429         5.4267   97-A'

MULLIKEN ATOMIC CHARGES AND SPIN POPULATIONS
--------------------------------------------
   0 Cu:    0.627158    0.309046
   1 Se:   -0.727229    0.170347
   2 C :    0.224603   -0.002334
   3 Se:   -0.813661    0.169892
   4 C :    0.299428    0.000118
   5 Se:   -0.721944    0.173540
   6 C :    0.184628   -0.001179
   7 Se:   -0.605332    0.175501
   8 C :    0.128944   -0.004475
   9 C :   -0.095686   -0.002792
  10 C :   -0.116010   -0.001340
  11 C :   -0.190518   -0.001065
  12 H :    0.090176    0.002606
  13 C :   -0.063613    0.000996
  14 H :    0.012491    0.002323
  15 H :    0.018851    0.001596
  16 H :    0.020753    0.003527
  17 C :   -0.107226   -0.002564
  18 C :   -0.099193   -0.004091
  19 C :   -0.163549   -0.000095
  20 H :    0.090444    0.002897
  21 C :   -0.111463    0.000048
  22 H :    0.076737    0.003390
  23 H :    0.022738    0.001825
  24 H :    0.018474    0.002280
Sum of atomic charges         :   -2.0000000

LOEWDIN ATOMIC CHARGES AND SPIN POPULATIONS
-------------------------------------------
   0 Cu:   -0.616906    0.389271
   1 Se:   -0.202892    0.120638
   2 C :    0.013788    0.013346
   3 Se:   -0.203885    0.119449
   4 C :    0.032131    0.012183
   5 Se:   -0.214167    0.125719
   6 C :    0.054743    0.012772
   7 Se:   -0.214459    0.127963
   8 C :    0.029620    0.013725
   9 C :    0.371165    0.007322
  10 C :    0.349975    0.006448
  11 C :    0.319545    0.000412
  12 H :   -0.460046    0.011260
  13 C :    0.302129    0.002106
  14 H :   -0.391224    0.003805
  15 H :   -0.418012    0.000261
  16 H :   -0.409694    0.001355
  17 C :    0.373890    0.006632
  18 C :    0.364628    0.006364
  19 C :    0.327481    0.000830
  20 H :   -0.453923    0.008537
  21 C :    0.308620    0.001105
  22 H :   -0.439194    0.007209
  23 H :   -0.416570    0.000522
  24 H :   -0.406745    0.000765

  Mayer bond orders larger than 0.100000
B(  0-Cu,  1-Se) :   0.5544 B(  0-Cu,  3-Se) :   0.5504 B(  0-Cu,  5-Se) :   0.5506
B(  0-Cu,  7-Se) :   0.5505 B(  1-Se,  2-C ) :   1.0607 B(  2-C ,  6-C ) :   1.1053
B(  2-C , 17-C ) :   1.3027 B(  3-Se,  4-C ) :   0.9684 B(  4-C ,  8-C ) :   1.0878
B(  4-C , 10-C ) :   1.3464 B(  5-Se,  6-C ) :   1.0480 B(  6-C , 18-C ) :   1.3107
B(  7-Se,  8-C ) :   1.1404 B(  8-C ,  9-C ) :   1.2861 B(  9-C , 13-C ) :   1.2848
B(  9-C , 14-H ) :   0.9857 B( 10-C , 11-C ) :   1.2802 B( 10-C , 12-H ) :   0.9550
B( 11-C , 13-C ) :   1.4003 B( 11-C , 15-H ) :   0.9970 B( 13-C , 16-H ) :   0.9884
B( 17-C , 19-C ) :   1.3029 B( 17-C , 20-H ) :   0.9607 B( 18-C , 21-C ) :   1.3095
B( 18-C , 22-H ) :   0.9695 B( 19-C , 21-C ) :   1.3779 B( 19-C , 23-H ) :   0.9952
B( 21-C , 24-H ) :   0.9942

FINAL SINGLE POINT ENERGY    -11627.076149196429

DIPOLE MOMENT
-------------
                                X             Y             Z
Electronic contribution:     -0.13286      -0.12105      -0.00000
Nuclear contribution   :      0.15139      -0.03227       0.00000
                        -----------------------------------------
Total Dipole Moment    :      0.01853      -0.15332      -0.00000
                        -----------------------------------------
Magnitude (a.u.)       :      0.15443
Magnitude (Debye)      :      0.39254

Rotational constants in cm-1:     0.017610     0.004102     0.003327
Rotational constants in MHz :   527.935684   122.980870    99.745488

                             ****ORCA TERMINATED NORMALLY****
TOTAL RUN TIME: 0 days 16 hours 49 minutes 26 seconds 528 msec
