                         Program Version 5.0.4 -  RELEASE  -
|  1> ! RIJCOSX nofrozencore ReducedPop printbasis
|  2> ! M06L ano-rcc-dzp autoaux
|  3>
|  4> %maxcore 7500
|  5> %basis
|  6> PCDTrimBas overlap
|  7> PCDTrimAuxJ Coulomb
|  8> PCDTrimAuxJK Coulomb
|  9> PCDTrimAuxC Coulomb
| 10> PCDThresh -1
| 11> end
| 12>
| 13> %basis
| 14> newgto Cu "ano-rcc-tzp" end
| 15> newgto Se "ano-rcc-tzp" end
| 16> end
| 17>
| 18> %pal
| 19> nprocs 8
| 20> end
| 21>
| 22> % sym SymThresh 1e-2 end
| 23> * xyz -2 2
| 24> Cu -1.6951474727976596e-05 1.3230132895177373e-05 9.089064205005726e-06
| 25> Se 2.0997691189027767 0.6977850172769278 -0.8438276135124365
| 26> C 2.8305596002184306 -0.6830184214122316 -1.333485132501605
| 27> Se -0.748241337913749 2.167282934114397 0.5922993290309665
| 28> C -2.241590213438617 1.9340469498249082 1.2241743180328464
| 29> Se 0.7483359755363651 -2.1672768322878664 -0.5923404202477723
| 30> C 2.24057709020482 -1.933650906732273 -1.2236787373815738
| 31> Se -2.0997688222499185 -0.697814316777649 0.8438239459172354
| 32> C -2.8294176891019163 0.6826388858440643 1.3329346229608359
| 33> C -4.112686940605233 0.6236885849827466 1.8929955834450292
| 34> C -2.976352163000434 3.0348302647926744 1.6817884069305697
| 35> C -4.228804735879605 2.9368524842341452 2.223518425484249
| 36> H -2.6109626214611494 3.7803478417415968 1.61027917068854
| 37> C -4.80455173782076 1.722302309288871 2.331388217924836
| 38> H -4.462795754539057 -0.1448434066945093 1.9549732150183807
| 39> H -4.920290137953953 4.219896365225762 2.6840042941838753
| 40> H -6.167324651076265 1.5197177642337818 2.909251211969208
| 41> C 4.10347012675267 -0.6397527251870765 -1.89086091674907
| 42> C 2.9827984994863956 -3.0160822866657546 -1.682374642431281
| 43> C 4.837084597101603 -1.7159049117419651 -2.3449948417764634
| 44> H 4.561315551173461 0.34775461209791103 -1.9740251621328888
| 45> C 4.24610603570428 -2.9711801656847023 -2.2353086013780095
| 46> H 2.5102890372141546 -4.0003138880569855 -1.5923338352433631
| 47> H 5.801023048467867 -1.575845974373612 -2.75412882664066
| 48> H 4.7200644615238625 -3.845127254060137 -2.550273985654955
| 49> *
| 50>
| 51> % eprnmr
| 52> gtensor true
| 53> Nuclei = all H {aiso,adip,aorb,fgrad,rho}
| 54> Nuclei = all Cu {aiso,adip,aorb,fgrad,rho}
| 55> end
| 56>
| 57>                          ****END OF INPUT****

CARTESIAN COORDINATES (ANGSTROEM)
---------------------------------
  Cu    -0.000019    0.000014    0.000000
  Se     2.278013    0.647022    0.000000
  C      3.110462   -0.762753    0.000000
  Se    -0.870716    2.202193    0.000000
  C     -2.497250    2.006890    0.000000
  Se     0.870819   -2.202189    0.000000
  C      2.496133   -2.006465    0.000000
  Se    -2.278012   -0.647052    0.000000
  C     -3.109204    0.762341    0.000000
  C     -4.510375    0.736973    0.000000
  C     -3.327206    3.134801    0.000000
  C     -4.693742    3.069317    0.000000
  H     -2.946030    3.875830    0.000000
  C     -5.293392    1.861562    0.000000
  H     -4.874288   -0.027636    0.000000
  H     -5.480845    4.379611    0.000000
  H     -6.777955    1.693666    0.000000
  C      4.500693   -0.752904    0.000000
  C      3.333795   -3.116093    0.000000
  C      5.328794   -1.855982    0.000000
  H      4.977018    0.229350    0.000000
  C      4.713490   -3.104342    0.000000
  H      2.841362   -4.094661    0.000000
  H      6.378958   -1.740482    0.000000
  H      5.252853   -3.996929    0.000000

 Total Charge           Charge          ....   -2
 Multiplicity           Mult            ....    2
 Number of Electrons    NEL             ....  247
 Basis Dimension        Dim             ....  575

ORBITAL ENERGIES
----------------
                 SPIN UP ORBITALS
  NO   OCC          E(Eh)            E(eV)    Irrep
   0   1.0000    -443.566528    -12070.0588    1-A'
   1   1.0000    -443.564783    -12070.0114    2-A'
   2   1.0000    -443.552041    -12069.6646    3-A'
   3   1.0000    -443.550619    -12069.6260    4-A'
   4   1.0000    -318.191457     -8658.4297    5-A'
   5   1.0000     -56.374901     -1534.0390    6-A'
   6   1.0000     -56.373811     -1534.0094    7-A'
   7   1.0000     -56.361828     -1533.6833    8-A'
   8   1.0000     -56.360715     -1533.6530    9-A'
   9   1.0000     -51.290787     -1395.6933   10-A'
  10   1.0000     -51.290701     -1395.6909   11-A'
  11   1.0000     -51.289914     -1395.6695   12-A'
  12   1.0000     -51.289867     -1395.6682   13-A'
  13   1.0000     -51.289406     -1395.6557   14-A'
  14   1.0000     -51.289303     -1395.6529   15-A'
  15   1.0000     -51.288985     -1395.6442    1-A"
  16   1.0000     -51.288890     -1395.6416    2-A"
  17   1.0000     -51.288610     -1395.6340   16-A'
  18   1.0000     -51.288551     -1395.6324   17-A'
  19   1.0000     -51.288126     -1395.6208    3-A"
  20   1.0000     -51.288077     -1395.6195    4-A"
  21   1.0000     -38.031996     -1034.9032   18-A'
  22   1.0000     -33.534106      -912.5094   19-A'
  23   1.0000     -33.533306      -912.4877   20-A'
  24   1.0000     -33.522015      -912.1804    5-A"
  25   1.0000      -9.854983      -268.1677   21-A'
  26   1.0000      -9.853373      -268.1239   22-A'
  27   1.0000      -9.815548      -267.0947   23-A'
  28   1.0000      -9.814562      -267.0678   24-A'
  29   1.0000      -9.814161      -267.0569   25-A'
  30   1.0000      -9.814071      -267.0544   26-A'
  31   1.0000      -9.811599      -266.9872   27-A'
  32   1.0000      -9.811172      -266.9756   28-A'
  33   1.0000      -9.810577      -266.9594   29-A'
  34   1.0000      -9.810198      -266.9491   30-A'
  35   1.0000      -9.794310      -266.5167   31-A'
  36   1.0000      -9.793122      -266.4844   32-A'
  37   1.0000      -7.345619      -199.8844   33-A'
  38   1.0000      -7.344862      -199.8639   34-A'
  39   1.0000      -7.338203      -199.6827   35-A'
  40   1.0000      -7.337460      -199.6624   36-A'
  41   1.0000      -5.408357      -147.1689   37-A'
  42   1.0000      -5.408336      -147.1683   38-A'
  43   1.0000      -5.407673      -147.1503   39-A'
  44   1.0000      -5.407652      -147.1497   40-A'
  45   1.0000      -5.402994      -147.0229   41-A'
  46   1.0000      -5.402928      -147.0212   42-A'
  47   1.0000      -5.402649      -147.0135    6-A"
  48   1.0000      -5.402610      -147.0125    7-A"
  49   1.0000      -5.402461      -147.0084   43-A'
  50   1.0000      -5.402423      -147.0074   44-A'
  51   1.0000      -5.401953      -146.9946    8-A"
  52   1.0000      -5.401927      -146.9939    9-A"
  53   1.0000      -4.026285      -109.5608   45-A'
  54   1.0000      -2.545924       -69.2781   46-A'
  55   1.0000      -2.544967       -69.2521   47-A'
  56   1.0000      -2.521227       -68.6061   10-A"
  57   1.0000      -1.747376       -47.5485   48-A'
  58   1.0000      -1.747330       -47.5473   49-A'
  59   1.0000      -1.746719       -47.5306   50-A'
  60   1.0000      -1.746683       -47.5297   51-A'
  61   1.0000      -1.744618       -47.4735   52-A'
  62   1.0000      -1.744535       -47.4712   53-A'
  63   1.0000      -1.744045       -47.4579   54-A'
  64   1.0000      -1.743963       -47.4556   55-A'
  65   1.0000      -1.743928       -47.4547   11-A"
  66   1.0000      -1.743860       -47.4528   12-A"
  67   1.0000      -1.743212       -47.4352   13-A"
  68   1.0000      -1.743174       -47.4342   14-A"
  69   1.0000      -1.739539       -47.3353   56-A'
  70   1.0000      -1.739457       -47.3330   15-A"
  71   1.0000      -1.739424       -47.3321   16-A"
  72   1.0000      -1.739411       -47.3318   57-A'
  73   1.0000      -1.738946       -47.3191   58-A'
  74   1.0000      -1.738892       -47.3177   17-A"
  75   1.0000      -1.738843       -47.3163   59-A'
  76   1.0000      -1.738832       -47.3160   18-A"
  77   1.0000      -0.613937       -16.7061   60-A'
  78   1.0000      -0.605338       -16.4721   61-A'
  79   1.0000      -0.527229       -14.3466   62-A'
  80   1.0000      -0.524757       -14.2794   63-A'
  81   1.0000      -0.519962       -14.1489   64-A'
  82   1.0000      -0.501874       -13.6567   65-A'
  83   1.0000      -0.419530       -11.4160   66-A'
  84   1.0000      -0.416408       -11.3310   67-A'
  85   1.0000      -0.394870       -10.7449   68-A'
  86   1.0000      -0.385427       -10.4880   69-A'
  87   1.0000      -0.348792        -9.4911   70-A'
  88   1.0000      -0.321143        -8.7388   71-A'
  89   1.0000      -0.292425        -7.9573   72-A'
  90   1.0000      -0.270712        -7.3664   73-A'
  91   1.0000      -0.233206        -6.3459   74-A'
  92   1.0000      -0.211407        -5.7527   75-A'
  93   1.0000      -0.208975        -5.6865   76-A'
  94   1.0000      -0.204430        -5.5628   77-A'
  95   1.0000      -0.202346        -5.5061   78-A'
  96   1.0000      -0.171943        -4.6788   79-A'
  97   1.0000      -0.140965        -3.8359   80-A'
  98   1.0000      -0.137906        -3.7526   19-A"
  99   1.0000      -0.135114        -3.6767   81-A'
 100   1.0000      -0.133233        -3.6255   20-A"
 101   1.0000      -0.114909        -3.1268   82-A'
 102   1.0000      -0.109399        -2.9769   83-A'
 103   1.0000      -0.095334        -2.5942   84-A'
 104   1.0000      -0.072960        -1.9854   85-A'
 105   1.0000      -0.069163        -1.8820   86-A'
 106   1.0000      -0.061370        -1.6700   87-A'
 107   1.0000      -0.058443        -1.5903   21-A"
 108   1.0000      -0.050785        -1.3819   22-A"
 109   1.0000      -0.038098        -1.0367   23-A"
 110   1.0000      -0.034008        -0.9254   88-A'
 111   1.0000      -0.033423        -0.9095   89-A'
 112   1.0000      -0.031393        -0.8543   24-A"
 113   1.0000      -0.006391        -0.1739   25-A"
 114   1.0000      -0.005425        -0.1476   26-A"
 115   1.0000      -0.003587        -0.0976   90-A'
 116   1.0000       0.015271         0.4156   91-A'
 117   1.0000       0.017450         0.4748   92-A'
 118   1.0000       0.036180         0.9845   93-A'
 119   1.0000       0.049792         1.3549   27-A"
 120   1.0000       0.052497         1.4285   28-A"
 121   1.0000       0.066694         1.8148   29-A"
 122   1.0000       0.095635         2.6024   30-A"
 123   1.0000       0.111211         3.0262   94-A'
 124   0.0000       0.151952         4.1348   95-A'
 125   0.0000       0.181229         4.9315   96-A'
 126   0.0000       0.187253         5.0954   97-A'
 127   0.0000       0.195161         5.3106   31-A"
 128   0.0000       0.195218         5.3122   98-A'

                 SPIN DOWN ORBITALS
  NO   OCC          E(Eh)            E(eV)    Irrep
   0   1.0000    -443.566091    -12070.0470    1-A'
   1   1.0000    -443.564323    -12069.9988    2-A'
   2   1.0000    -443.551607    -12069.6528    3-A'
   3   1.0000    -443.550156    -12069.6134    4-A'
   4   1.0000    -318.191334     -8658.4264    5-A'
   5   1.0000     -56.374723     -1534.0342    6-A'
   6   1.0000     -56.373624     -1534.0043    7-A'
   7   1.0000     -56.361653     -1533.6786    8-A'
   8   1.0000     -56.360530     -1533.6480    9-A'
   9   1.0000     -51.290470     -1395.6846   10-A'
  10   1.0000     -51.290380     -1395.6822   11-A'
  11   1.0000     -51.289584     -1395.6605   12-A'
  12   1.0000     -51.289529     -1395.6590   13-A'
  13   1.0000     -51.288744     -1395.6377    1-A"
  14   1.0000     -51.288709     -1395.6367   14-A'
  15   1.0000     -51.288650     -1395.6351    2-A"
  16   1.0000     -51.288615     -1395.6342   15-A'
  17   1.0000     -51.287870     -1395.6139    3-A"
  18   1.0000     -51.287857     -1395.6135   16-A'
  19   1.0000     -51.287821     -1395.6126    4-A"
  20   1.0000     -51.287806     -1395.6121   17-A'
  21   1.0000     -38.018084     -1034.5246   18-A'
  22   1.0000     -33.520885      -912.1496   19-A'
  23   1.0000     -33.520085      -912.1279   20-A'
  24   1.0000     -33.518133      -912.0748    5-A"
  25   1.0000      -9.854926      -268.1662   21-A'
  26   1.0000      -9.853322      -268.1225   22-A'
  27   1.0000      -9.815498      -267.0933   23-A'
  28   1.0000      -9.814580      -267.0683   24-A'
  29   1.0000      -9.814109      -267.0555   25-A'
  30   1.0000      -9.814087      -267.0549   26-A'
  31   1.0000      -9.811615      -266.9876   27-A'
  32   1.0000      -9.811179      -266.9757   28-A'
  33   1.0000      -9.810467      -266.9564   29-A'
  34   1.0000      -9.810081      -266.9459   30-A'
  35   1.0000      -9.794206      -266.5139   31-A'
  36   1.0000      -9.793020      -266.4816   32-A'
  37   1.0000      -7.345236      -199.8740   33-A'
  38   1.0000      -7.344455      -199.8528   34-A'
  39   1.0000      -7.337814      -199.6721   35-A'
  40   1.0000      -7.337045      -199.6511   36-A'
  41   1.0000      -5.408002      -147.1592   37-A'
  42   1.0000      -5.407981      -147.1586   38-A'
  43   1.0000      -5.407300      -147.1401   39-A'
  44   1.0000      -5.407279      -147.1395   40-A'
  45   1.0000      -5.402345      -147.0053    6-A"
  46   1.0000      -5.402307      -147.0043    7-A"
  47   1.0000      -5.402212      -147.0017   41-A'
  48   1.0000      -5.402150      -147.0000   42-A'
  49   1.0000      -5.401636      -146.9860    8-A"
  50   1.0000      -5.401618      -146.9855   43-A'
  51   1.0000      -5.401609      -146.9853    9-A"
  52   1.0000      -5.401579      -146.9844   44-A'
  53   1.0000      -3.997952      -108.7898   45-A'
  54   1.0000      -2.510890       -68.3248   10-A"
  55   1.0000      -2.510556       -68.3157   46-A'
  56   1.0000      -2.509526       -68.2877   47-A'
  57   1.0000      -1.746943       -47.5367   48-A'
  58   1.0000      -1.746896       -47.5355   49-A'
  59   1.0000      -1.746258       -47.5181   50-A'
  60   1.0000      -1.746224       -47.5172   51-A'
  61   1.0000      -1.743763       -47.4502   52-A'
  62   1.0000      -1.743679       -47.4479   53-A'
  63   1.0000      -1.743624       -47.4464   11-A"
  64   1.0000      -1.743556       -47.4446   12-A"
  65   1.0000      -1.743128       -47.4329   54-A'
  66   1.0000      -1.743043       -47.4306   55-A'
  67   1.0000      -1.742900       -47.4267   13-A"
  68   1.0000      -1.742860       -47.4256   14-A"
  69   1.0000      -1.738778       -47.3146   56-A'
  70   1.0000      -1.738726       -47.3132   15-A"
  71   1.0000      -1.738693       -47.3122   16-A"
  72   1.0000      -1.738653       -47.3111   57-A'
  73   1.0000      -1.738132       -47.2970   58-A'
  74   1.0000      -1.738106       -47.2963   17-A"
  75   1.0000      -1.738049       -47.2947   18-A"
  76   1.0000      -1.738029       -47.2942   59-A'
  77   1.0000      -0.613210       -16.6863   60-A'
  78   1.0000      -0.604510       -16.4496   61-A'
  79   1.0000      -0.525979       -14.3126   62-A'
  80   1.0000      -0.523619       -14.2484   63-A'
  81   1.0000      -0.518647       -14.1131   64-A'
  82   1.0000      -0.500132       -13.6093   65-A'
  83   1.0000      -0.416402       -11.3309   66-A'
  84   1.0000      -0.413683       -11.2569   67-A'
  85   1.0000      -0.393741       -10.7142   68-A'
  86   1.0000      -0.382993       -10.4218   69-A'
  87   1.0000      -0.345951        -9.4138   70-A'
  88   1.0000      -0.319271        -8.6878   71-A'
  89   1.0000      -0.289892        -7.8884   72-A'
  90   1.0000      -0.268315        -7.3012   73-A'
  91   1.0000      -0.232057        -6.3146   74-A'
  92   1.0000      -0.210040        -5.7155   75-A'
  93   1.0000      -0.207696        -5.6517   76-A'
  94   1.0000      -0.203287        -5.5317   77-A'
  95   1.0000      -0.201080        -5.4717   78-A'
  96   1.0000      -0.169968        -4.6251   79-A'
  97   1.0000      -0.139890        -3.8066   80-A'
  98   1.0000      -0.137542        -3.7427   19-A"
  99   1.0000      -0.133119        -3.6224   81-A'
 100   1.0000      -0.132836        -3.6146   20-A"
 101   1.0000      -0.112198        -3.0531   82-A'
 102   1.0000      -0.108108        -2.9418   83-A'
 103   1.0000      -0.093604        -2.5471   84-A'
 104   1.0000      -0.068879        -1.8743   85-A'
 105   1.0000      -0.066879        -1.8199   86-A'
 106   1.0000      -0.057558        -1.5662   21-A"
 107   1.0000      -0.053260        -1.4493   87-A'
 108   1.0000      -0.049912        -1.3582   22-A"
 109   1.0000      -0.035877        -0.9763   23-A"
 110   1.0000      -0.030285        -0.8241   24-A"
 111   1.0000      -0.026992        -0.7345   88-A'
 112   1.0000      -0.006576        -0.1789   89-A'
 113   1.0000       0.003266         0.0889   25-A"
 114   1.0000       0.005833         0.1587   26-A"
 115   1.0000       0.006832         0.1859   90-A'
 116   1.0000       0.025487         0.6935   91-A'
 117   1.0000       0.028028         0.7627   92-A'
 118   1.0000       0.047420         1.2904   93-A'
 119   1.0000       0.052042         1.4161   27-A"
 120   1.0000       0.055760         1.5173   28-A"
 121   1.0000       0.068422         1.8619   29-A"
 122   1.0000       0.098855         2.6900   30-A"
 123   0.0000       0.140930         3.8349   94-A'
 124   0.0000       0.152566         4.1515   95-A'
 125   0.0000       0.182968         4.9788   96-A'
 126   0.0000       0.189221         5.1490   97-A'
 127   0.0000       0.195225         5.3123   31-A"

MULLIKEN ATOMIC CHARGES AND SPIN POPULATIONS
--------------------------------------------
   0 Cu:    0.642640    0.310901
   1 Se:   -0.726196    0.177929
   2 C :    0.222047   -0.003236
   3 Se:   -0.750160    0.165498
   4 C :    0.184092   -0.002357
   5 Se:   -0.727510    0.178350
   6 C :    0.223910   -0.003466
   7 Se:   -0.746364    0.166199
   8 C :    0.182302   -0.002276
   9 C :   -0.331341   -0.003295
  10 C :   -0.354847   -0.003210
  11 C :   -0.112859   -0.000377
  12 H :    0.519275    0.004187
  13 C :   -0.109953   -0.000602
  14 H :    0.489273    0.004137
  15 H :   -0.159731    0.004159
  16 H :   -0.150640    0.003108
  17 C :   -0.100519   -0.001490
  18 C :   -0.100242   -0.001328
  19 C :   -0.179808   -0.000629
  20 H :    0.077225    0.002765
  21 C :   -0.186734   -0.000548
  22 H :    0.072155    0.002677
  23 H :    0.052933    0.001492
  24 H :    0.071052    0.001414
Sum of atomic charges         :   -2.0000000

LOEWDIN ATOMIC CHARGES AND SPIN POPULATIONS
-------------------------------------------
   0 Cu:   -0.611876    0.390771
   1 Se:   -0.200193    0.126549
   2 C :    0.037412    0.011907
   3 Se:   -0.171834    0.117861
   4 C :    0.083713    0.012304
   5 Se:   -0.200704    0.126577
   6 C :    0.036867    0.011974
   7 Se:   -0.173439    0.118498
   8 C :    0.080299    0.012319
   9 C :    0.484835    0.006570
  10 C :    0.493046    0.006558
  11 C :    0.194582    0.000681
  12 H :   -0.786971    0.008391
  13 C :    0.193596    0.000369
  14 H :   -0.765633    0.008470
  15 H :   -0.168301    0.003221
  16 H :   -0.176103    0.002275
  17 C :    0.371088    0.007002
  18 C :    0.371539    0.007016
  19 C :    0.341563    0.000462
  20 H :   -0.446577    0.009585
  21 C :    0.346821    0.000479
  22 H :   -0.442252    0.009567
  23 H :   -0.438409    0.000313
  24 H :   -0.453069    0.000281

  Mayer bond orders larger than 0.100000
B(  0-Cu,  1-Se) :   0.5556 B(  0-Cu,  3-Se) :   0.5404 B(  0-Cu,  5-Se) :   0.5572
B(  0-Cu,  7-Se) :   0.5395 B(  1-Se,  2-C ) :   1.0387 B(  2-C ,  6-C ) :   1.1335
B(  2-C , 17-C ) :   1.2558 B(  3-Se,  4-C ) :   1.0562 B(  4-C ,  8-C ) :   1.1377
B(  4-C , 10-C ) :   1.3156 B(  5-Se,  6-C ) :   1.0367 B(  6-C , 18-C ) :   1.2557
B(  7-Se,  8-C ) :   1.0594 B(  8-C ,  9-C ) :   1.3119 B(  9-C , 13-C ) :   1.4391
B(  9-C , 14-H ) :   0.5942 B( 10-C , 11-C ) :   1.4492 B( 10-C , 12-H ) :   0.5563
B( 11-C , 13-C ) :   1.3605 B( 11-C , 15-H ) :   0.9522 B( 13-C , 16-H ) :   0.9614
B( 17-C , 19-C ) :   1.3823 B( 17-C , 20-H ) :   0.9683 B( 18-C , 21-C ) :   1.3832
B( 18-C , 22-H ) :   0.9709 B( 19-C , 21-C ) :   1.3188 B( 19-C , 23-H ) :   0.9810
B( 21-C , 24-H ) :   0.9710

FINAL SINGLE POINT ENERGY    -11626.913660216609

DIPOLE MOMENT
-------------
                                X             Y             Z
Electronic contribution:      1.34924      -0.70301       0.00000
Nuclear contribution   :     -0.59102       0.29924       0.00000
                        -----------------------------------------
Total Dipole Moment    :      0.75822      -0.40378       0.00000
                        -----------------------------------------
Magnitude (a.u.)       :      0.85903
Magnitude (Debye)      :      2.18348

Rotational constants in cm-1:     0.017622     0.004097     0.003324
Rotational constants in MHz :   528.281425   122.811250    99.646186

                             ****ORCA TERMINATED NORMALLY****
TOTAL RUN TIME: 0 days 17 hours 6 minutes 57 seconds 429 msec
