                         Program Version 5.0.4 -  RELEASE  -
|  1> ! RIJCOSX nofrozencore ReducedPop printbasis
|  2> ! M06L ano-rcc-dzp autoaux
|  3>
|  4> %maxcore 7500
|  5> %basis
|  6> PCDTrimBas overlap
|  7> PCDTrimAuxJ Coulomb
|  8> PCDTrimAuxJK Coulomb
|  9> PCDTrimAuxC Coulomb
| 10> PCDThresh -1
| 11> end
| 12>
| 13> %basis
| 14> newgto Cu "ano-rcc-tzp" end
| 15> newgto Se "ano-rcc-tzp" end
| 16> end
| 17>
| 18> %pal
| 19> nprocs 8
| 20> end
| 21>
| 22> % sym SymThresh 1e-2 end
| 23> * xyz -2 2
| 24> Cu 0.0003534560544979108 -0.00015226466448202693 -0.00041910534414266984
| 25> Se -0.9919108812460815 1.2414291656663075 -1.7565910938051796
| 26> C -0.0766019819472193 0.9098596376075833 -3.0678950381366303
| 27> Se -1.5288181116051656 0.6993550198631103 1.6659493765274755
| 28> C -0.9968904782029737 -0.09501644227212318 3.071334826674258
| 29> Se 1.5253364127445235 -0.6945175035248149 -1.6738442301499645
| 30> C 1.0087781765982873 0.07220955154938694 -3.021720681146766
| 31> Se 0.9856501277494739 -1.2392699851494298 1.7659522936294678
| 32> C 0.0786196004658036 -0.8910322117631477 2.9945494088627207
| 33> C 0.4971476671854877 -1.5560750440304132 4.24449187607784
| 34> C -1.7262508219722428 0.14862915804331886 4.190321276152401
| 35> C -1.4815125740622463 -0.4005172567396764 5.498530230660024
| 36> H -2.5419919491300473 0.8508525636812034 3.89384074617506
| 37> C -0.269051753838117 -1.340927365496978 5.56698622587967
| 38> H 1.388893924256473 -2.1871596123948525 4.076638876148861
| 39> H -2.2051534217447877 -0.06556739778230318 6.272952749361366
| 40> H 0.004305608064871006 -1.8131424275267616 6.5197176671986
| 41> C -0.41437908472991614 1.498968229474424 -4.265359981371878
| 42> C 1.745228161458518 -0.15857684175442813 -4.206438383299975
| 43> C 0.272792566145256 1.3184536277374028 -5.496269542562389
| 44> H -1.2852994845761 2.1435347093401713 -4.203085242430298
| 45> C 1.440075987329576 0.431620374433998 -5.49713786769044
| 46> H 2.582655133790231 -0.8409772522767679 -4.040732951260821
| 47> H -0.15095536870876683 1.8745709129282406 -6.339538467515706
| 48> H 2.0195493786359227 0.24297850743582763 -6.403939122191319
| 49> *
| 50>
| 51> % eprnmr
| 52> gtensor true
| 53> Nuclei = all H {aiso,adip,aorb,fgrad,rho}
| 54> Nuclei = all Cu {aiso,adip,aorb,fgrad,rho}
| 55> end
| 56>
| 57>                          ****END OF INPUT****

CARTESIAN COORDINATES (ANGSTROEM)
---------------------------------
  Cu    -0.000398    0.000407    0.000000
  Se    -1.918148   -1.389731    0.000000
  C     -3.181210   -0.354395    0.000000
  Se     1.567341   -1.773474    0.000000
  C      3.075300   -0.989164    0.000000
  Se    -1.575863    1.768450    0.000000
  C     -3.022768    1.008226    0.000000
  Se     1.927193    1.382682    0.000000
  C      3.105548    0.350740    0.000000
  C      4.441154    0.979993    0.000000
  C      4.158392   -1.807926    0.000000
  C      5.536547   -1.391322    0.000000
  H      3.768532   -2.854091    0.000000
  C      5.730996    0.132262    0.000000
  H      4.358463    2.082180    0.000000
  H      6.263809   -2.231957    0.000000
  H      6.744367    0.554741    0.000000
  C     -4.454300   -0.878138    0.000000
  C     -4.173129    1.830325    0.000000
  C     -5.657466   -0.121621    0.000000
  H     -4.478694   -1.963150    0.000000
  C     -5.539332    1.339567    0.000000
  H     -3.916329    2.892618    0.000000
  H     -6.572946   -0.723142    0.000000
  H     -6.418227    1.988572    0.000000

 Total Charge           Charge          ....   -2
 Multiplicity           Mult            ....    2
 Number of Electrons    NEL             ....  247
 Basis Dimension        Dim             ....  575

ORBITAL ENERGIES
----------------
                 SPIN UP ORBITALS
  NO   OCC          E(Eh)            E(eV)    Irrep
   0   1.0000    -443.573453    -12070.2473    1-A'
   1   1.0000    -443.563373    -12069.9730    2-A'
   2   1.0000    -443.548531    -12069.5691    3-A'
   3   1.0000    -443.540305    -12069.3453    4-A'
   4   1.0000    -318.188299     -8658.3438    5-A'
   5   1.0000     -56.379246     -1534.1573    6-A'
   6   1.0000     -56.372245     -1533.9668    7-A'
   7   1.0000     -56.358692     -1533.5980    8-A'
   8   1.0000     -56.353699     -1533.4621    9-A'
   9   1.0000     -51.296104     -1395.8380   10-A'
  10   1.0000     -51.294962     -1395.8069   11-A'
  11   1.0000     -51.294715     -1395.8002    1-A"
  12   1.0000     -51.288456     -1395.6298   12-A'
  13   1.0000     -51.287582     -1395.6060   13-A'
  14   1.0000     -51.287127     -1395.5937   14-A'
  15   1.0000     -51.286708     -1395.5823    2-A"
  16   1.0000     -51.286259     -1395.5701   15-A'
  17   1.0000     -51.285826     -1395.5583    3-A"
  18   1.0000     -51.282251     -1395.4610   16-A'
  19   1.0000     -51.280829     -1395.4223   17-A'
  20   1.0000     -51.280198     -1395.4051    4-A"
  21   1.0000     -38.028653     -1034.8123   18-A'
  22   1.0000     -33.530620      -912.4146   19-A'
  23   1.0000     -33.529906      -912.3951   20-A'
  24   1.0000     -33.518830      -912.0937    5-A"
  25   1.0000      -9.855330      -268.1772   21-A'
  26   1.0000      -9.842851      -267.8376   22-A'
  27   1.0000      -9.837410      -267.6895   23-A'
  28   1.0000      -9.836999      -267.6783   24-A'
  29   1.0000      -9.831168      -267.5197   25-A'
  30   1.0000      -9.821425      -267.2545   26-A'
  31   1.0000      -9.817426      -267.1458   27-A'
  32   1.0000      -9.814960      -267.0786   28-A'
  33   1.0000      -9.812112      -267.0012   29-A'
  34   1.0000      -9.811714      -266.9903   30-A'
  35   1.0000      -9.807477      -266.8750   31-A'
  36   1.0000      -9.805177      -266.8124   32-A'
  37   1.0000      -7.349468      -199.9892   33-A'
  38   1.0000      -7.343242      -199.8198   34-A'
  39   1.0000      -7.335551      -199.6105   35-A'
  40   1.0000      -7.331882      -199.5107   36-A'
  41   1.0000      -5.412850      -147.2911   37-A'
  42   1.0000      -5.407832      -147.1546    6-A"
  43   1.0000      -5.407591      -147.1480   38-A'
  44   1.0000      -5.406467      -147.1174   39-A'
  45   1.0000      -5.405366      -147.0875   40-A'
  46   1.0000      -5.402016      -146.9963   41-A'
  47   1.0000      -5.401081      -146.9709   42-A'
  48   1.0000      -5.400809      -146.9635    7-A"
  49   1.0000      -5.400091      -146.9440   43-A'
  50   1.0000      -5.399724      -146.9340    8-A"
  51   1.0000      -5.396504      -146.8464   44-A'
  52   1.0000      -5.395530      -146.8198    9-A"
  53   1.0000      -4.022836      -109.4669   45-A'
  54   1.0000      -2.542178       -69.1762   46-A'
  55   1.0000      -2.541444       -69.1562   47-A'
  56   1.0000      -2.518101       -68.5210   10-A"
  57   1.0000      -1.753173       -47.7063   48-A'
  58   1.0000      -1.749252       -47.5996   49-A'
  59   1.0000      -1.749011       -47.5930   11-A"
  60   1.0000      -1.745566       -47.4993   50-A'
  61   1.0000      -1.744579       -47.4724   51-A'
  62   1.0000      -1.744489       -47.4700   52-A'
  63   1.0000      -1.744450       -47.4689   12-A"
  64   1.0000      -1.742754       -47.4228   53-A'
  65   1.0000      -1.742055       -47.4037   13-A"
  66   1.0000      -1.741670       -47.3933   54-A'
  67   1.0000      -1.741022       -47.3756   14-A"
  68   1.0000      -1.740243       -47.3544   55-A'
  69   1.0000      -1.738285       -47.3011   56-A'
  70   1.0000      -1.737663       -47.2842   15-A"
  71   1.0000      -1.737626       -47.2832   57-A'
  72   1.0000      -1.737082       -47.2684   16-A"
  73   1.0000      -1.736675       -47.2573   58-A'
  74   1.0000      -1.736539       -47.2536   17-A"
  75   1.0000      -1.732661       -47.1481   18-A"
  76   1.0000      -1.732612       -47.1468   59-A'
  77   1.0000      -0.598744       -16.2927   60-A'
  78   1.0000      -0.598052       -16.2738   61-A'
  79   1.0000      -0.512208       -13.9379   62-A'
  80   1.0000      -0.508787       -13.8448   63-A'
  81   1.0000      -0.501708       -13.6522   64-A'
  82   1.0000      -0.486409       -13.2359   65-A'
  83   1.0000      -0.407176       -11.0798   66-A'
  84   1.0000      -0.400884       -10.9086   67-A'
  85   1.0000      -0.378304       -10.2942   68-A'
  86   1.0000      -0.370653       -10.0860   69-A'
  87   1.0000      -0.330538        -8.9944   70-A'
  88   1.0000      -0.323823        -8.8117   71-A'
  89   1.0000      -0.293549        -7.9879   72-A'
  90   1.0000      -0.289789        -7.8856   73-A'
  91   1.0000      -0.218972        -5.9585   74-A'
  92   1.0000      -0.207928        -5.6580   75-A'
  93   1.0000      -0.192513        -5.2386   76-A'
  94   1.0000      -0.182491        -4.9658   77-A'
  95   1.0000      -0.173216        -4.7134   78-A'
  96   1.0000      -0.167913        -4.5691   79-A'
  97   1.0000      -0.141206        -3.8424   80-A'
  98   1.0000      -0.139495        -3.7958   81-A'
  99   1.0000      -0.135152        -3.6777   82-A'
 100   1.0000      -0.129347        -3.5197   19-A"
 101   1.0000      -0.128850        -3.5062   20-A"
 102   1.0000      -0.113517        -3.0890   83-A'
 103   1.0000      -0.085814        -2.3351   84-A'
 104   1.0000      -0.071827        -1.9545   85-A'
 105   1.0000      -0.067194        -1.8284   86-A'
 106   1.0000      -0.057490        -1.5644   87-A'
 107   1.0000      -0.041610        -1.1323   21-A"
 108   1.0000      -0.040646        -1.1060   22-A"
 109   1.0000      -0.033703        -0.9171   88-A'
 110   1.0000      -0.032328        -0.8797   23-A"
 111   1.0000      -0.029938        -0.8146   89-A'
 112   1.0000      -0.023286        -0.6336   24-A"
 113   1.0000      -0.002125        -0.0578   25-A"
 114   1.0000      -0.001378        -0.0375   90-A'
 115   1.0000      -0.001167        -0.0318   26-A"
 116   1.0000       0.016550         0.4503   91-A'
 117   1.0000       0.018303         0.4981   92-A'
 118   1.0000       0.039236         1.0677   93-A'
 119   1.0000       0.055567         1.5121   27-A"
 120   1.0000       0.056941         1.5494   28-A"
 121   1.0000       0.068159         1.8547   29-A"
 122   1.0000       0.096854         2.6355   30-A"
 123   1.0000       0.116312         3.1650   94-A'
 124   0.0000       0.183407         4.9908   95-A'
 125   0.0000       0.183410         4.9908   31-A"
 126   0.0000       0.184880         5.0308   96-A'
 127   0.0000       0.195429         5.3179   32-A"
 128   0.0000       0.195579         5.3220   97-A'

                 SPIN DOWN ORBITALS
  NO   OCC          E(Eh)            E(eV)    Irrep
   0   1.0000    -443.573000    -12070.2350    1-A'
   1   1.0000    -443.562917    -12069.9606    2-A'
   2   1.0000    -443.548075    -12069.5567    3-A'
   3   1.0000    -443.539846    -12069.3328    4-A'
   4   1.0000    -318.188178     -8658.3405    5-A'
   5   1.0000     -56.379064     -1534.1523    6-A'
   6   1.0000     -56.372060     -1533.9617    7-A'
   7   1.0000     -56.358510     -1533.5930    8-A'
   8   1.0000     -56.353516     -1533.4571    9-A'
   9   1.0000     -51.295753     -1395.8284   10-A'
  10   1.0000     -51.294463     -1395.7933    1-A"
  11   1.0000     -51.294256     -1395.7877   11-A'
  12   1.0000     -51.288130     -1395.6210   12-A'
  13   1.0000     -51.287242     -1395.5968   13-A'
  14   1.0000     -51.286459     -1395.5755    2-A"
  15   1.0000     -51.286405     -1395.5740   14-A'
  16   1.0000     -51.285570     -1395.5513    3-A"
  17   1.0000     -51.285517     -1395.5499   15-A'
  18   1.0000     -51.281921     -1395.4520   16-A'
  19   1.0000     -51.280083     -1395.4020   17-A'
  20   1.0000     -51.279944     -1395.3982    4-A"
  21   1.0000     -38.014850     -1034.4367   18-A'
  22   1.0000     -33.517507      -912.0577   19-A'
  23   1.0000     -33.516792      -912.0383   20-A'
  24   1.0000     -33.514967      -911.9886    5-A"
  25   1.0000      -9.855218      -268.1741   21-A'
  26   1.0000      -9.842791      -267.8360   22-A'
  27   1.0000      -9.837198      -267.6838   23-A'
  28   1.0000      -9.836935      -267.6766   24-A'
  29   1.0000      -9.831106      -267.5180   25-A'
  30   1.0000      -9.821285      -267.2508   26-A'
  31   1.0000      -9.817273      -267.1416   27-A'
  32   1.0000      -9.815022      -267.0803   28-A'
  33   1.0000      -9.811973      -266.9974   29-A'
  34   1.0000      -9.811738      -266.9910   30-A'
  35   1.0000      -9.807501      -266.8757   31-A'
  36   1.0000      -9.805192      -266.8128   32-A'
  37   1.0000      -7.349071      -199.9784   33-A'
  38   1.0000      -7.342841      -199.8089   34-A'
  39   1.0000      -7.335141      -199.5993   35-A'
  40   1.0000      -7.331471      -199.4995   36-A'
  41   1.0000      -5.412468      -147.2808   37-A'
  42   1.0000      -5.407517      -147.1460    6-A"
  43   1.0000      -5.406790      -147.1262   38-A'
  44   1.0000      -5.406100      -147.1075   39-A'
  45   1.0000      -5.404989      -147.0772   40-A'
  46   1.0000      -5.401644      -146.9862   41-A'
  47   1.0000      -5.400498      -146.9550    7-A"
  48   1.0000      -5.400270      -146.9488   42-A'
  49   1.0000      -5.399403      -146.9252    8-A"
  50   1.0000      -5.399257      -146.9212   43-A'
  51   1.0000      -5.395670      -146.8236   44-A'
  52   1.0000      -5.395219      -146.8114    9-A"
  53   1.0000      -3.994839      -108.7051   45-A'
  54   1.0000      -2.507830       -68.2415   10-A"
  55   1.0000      -2.507240       -68.2255   46-A'
  56   1.0000      -2.506404       -68.2027   47-A'
  57   1.0000      -1.752735       -47.6944   48-A'
  58   1.0000      -1.748688       -47.5842   11-A"
  59   1.0000      -1.748349       -47.5750   49-A'
  60   1.0000      -1.745115       -47.4870   50-A'
  61   1.0000      -1.744026       -47.4574   51-A'
  62   1.0000      -1.743778       -47.4506   52-A'
  63   1.0000      -1.743691       -47.4482   12-A"
  64   1.0000      -1.741868       -47.3986   53-A'
  65   1.0000      -1.741745       -47.3953   13-A"
  66   1.0000      -1.740752       -47.3683   54-A'
  67   1.0000      -1.740700       -47.3668   14-A"
  68   1.0000      -1.739751       -47.3410   55-A'
  69   1.0000      -1.737386       -47.2767   56-A'
  70   1.0000      -1.736904       -47.2636   15-A"
  71   1.0000      -1.736833       -47.2616   57-A'
  72   1.0000      -1.736772       -47.2600   16-A"
  73   1.0000      -1.735864       -47.2353   58-A'
  74   1.0000      -1.735758       -47.2324   17-A"
  75   1.0000      -1.731891       -47.1272   18-A"
  76   1.0000      -1.731828       -47.1254   59-A'
  77   1.0000      -0.597719       -16.2648   60-A'
  78   1.0000      -0.596925       -16.2431   61-A'
  79   1.0000      -0.510523       -13.8920   62-A'
  80   1.0000      -0.507787       -13.8176   63-A'
  81   1.0000      -0.499809       -13.6005   64-A'
  82   1.0000      -0.485096       -13.2001   65-A'
  83   1.0000      -0.404682       -11.0119   66-A'
  84   1.0000      -0.398665       -10.8482   67-A'
  85   1.0000      -0.375813       -10.2264   68-A'
  86   1.0000      -0.368266       -10.0210   69-A'
  87   1.0000      -0.328328        -8.9342   70-A'
  88   1.0000      -0.321790        -8.7564   71-A'
  89   1.0000      -0.291260        -7.9256   72-A'
  90   1.0000      -0.287279        -7.8173   73-A'
  91   1.0000      -0.217748        -5.9252   74-A'
  92   1.0000      -0.206762        -5.6263   75-A'
  93   1.0000      -0.191318        -5.2060   76-A'
  94   1.0000      -0.181035        -4.9262   77-A'
  95   1.0000      -0.171632        -4.6703   78-A'
  96   1.0000      -0.165597        -4.5061   79-A'
  97   1.0000      -0.140002        -3.8096   80-A'
  98   1.0000      -0.137802        -3.7498   81-A'
  99   1.0000      -0.133353        -3.6287   82-A'
 100   1.0000      -0.128825        -3.5055   19-A"
 101   1.0000      -0.128350        -3.4926   20-A"
 102   1.0000      -0.111871        -3.0442   83-A'
 103   1.0000      -0.084734        -2.3057   84-A'
 104   1.0000      -0.069748        -1.8979   85-A'
 105   1.0000      -0.063350        -1.7239   86-A'
 106   1.0000      -0.047861        -1.3024   87-A'
 107   1.0000      -0.040235        -1.0949   21-A"
 108   1.0000      -0.039841        -1.0841   22-A"
 109   1.0000      -0.030397        -0.8272   23-A"
 110   1.0000      -0.025827        -0.7028   88-A'
 111   1.0000      -0.021762        -0.5922   24-A"
 112   1.0000      -0.004259        -0.1159   89-A'
 113   1.0000       0.007755         0.2110   25-A"
 114   1.0000       0.008545         0.2325   90-A'
 115   1.0000       0.009213         0.2507   26-A"
 116   1.0000       0.026583         0.7234   91-A'
 117   1.0000       0.030012         0.8167   92-A'
 118   1.0000       0.050420         1.3720   93-A'
 119   1.0000       0.057574         1.5667   27-A"
 120   1.0000       0.060138         1.6364   28-A"
 121   1.0000       0.069910         1.9024   29-A"
 122   1.0000       0.100138         2.7249   30-A"
 123   0.0000       0.145840         3.9685   94-A'
 124   0.0000       0.183731         4.9996   31-A"
 125   0.0000       0.185623         5.0511   95-A'
 126   0.0000       0.187322         5.0973   96-A'
 127   0.0000       0.195709         5.3255   32-A"

MULLIKEN ATOMIC CHARGES AND SPIN POPULATIONS
--------------------------------------------
   0 Cu:    0.637547    0.308022
   1 Se:   -0.723545    0.175531
   2 C :    0.251304   -0.004034
   3 Se:   -0.782940    0.176706
   4 C :    0.307601   -0.003498
   5 Se:   -0.706736    0.170172
   6 C :    0.241347   -0.003585
   7 Se:   -0.592371    0.169397
   8 C :    0.228693   -0.006184
   9 C :   -0.182981    0.001522
  10 C :   -0.092062    0.001473
  11 C :   -0.230972   -0.001218
  12 H :    0.083906    0.001279
  13 C :   -0.221200    0.001812
  14 H :    0.095057    0.001738
  15 H :    0.024843    0.001844
  16 H :    0.044814    0.002782
  17 C :   -0.095283   -0.000621
  18 C :   -0.135039   -0.000374
  19 C :   -0.185090   -0.000391
  20 H :    0.094891    0.002233
  21 C :   -0.217508   -0.000319
  22 H :    0.096682    0.001964
  23 H :    0.032485    0.001870
  24 H :    0.026559    0.001879
Sum of atomic charges         :   -2.0000000

LOEWDIN ATOMIC CHARGES AND SPIN POPULATIONS
-------------------------------------------
   0 Cu:   -0.599253    0.388763
   1 Se:   -0.196113    0.123871
   2 C :    0.027252    0.010964
   3 Se:   -0.188092    0.121131
   4 C :    0.056927    0.007830
   5 Se:   -0.201001    0.119646
   6 C :    0.042989    0.010165
   7 Se:   -0.197248    0.118238
   8 C :    0.005538    0.009831
   9 C :    0.427894    0.009659
  10 C :    0.359061    0.008006
  11 C :    0.332332    0.000482
  12 H :   -0.485218    0.015372
  13 C :    0.357708    0.002423
  14 H :   -0.484225    0.011902
  15 H :   -0.428004    0.000286
  16 H :   -0.462665    0.001374
  17 C :    0.374583    0.007590
  18 C :    0.389775    0.007458
  19 C :    0.336194    0.000730
  20 H :   -0.468238    0.011086
  21 C :    0.339382    0.000794
  22 H :   -0.477483    0.011333
  23 H :   -0.428516    0.000498
  24 H :   -0.433578    0.000570

  Mayer bond orders larger than 0.100000
B(  0-Cu,  1-Se) :   0.5515 B(  0-Cu,  3-Se) :   0.5530 B(  0-Cu,  5-Se) :   0.5471
B(  0-Cu,  7-Se) :   0.5421 B(  1-Se,  2-C ) :   1.0362 B(  2-C ,  6-C ) :   1.1237
B(  2-C , 17-C ) :   1.2551 B(  3-Se,  4-C ) :   0.9529 B(  4-C ,  8-C ) :   1.1128
B(  4-C , 10-C ) :   1.2751 B(  5-Se,  6-C ) :   1.0381 B(  6-C , 18-C ) :   1.2690
B(  7-Se,  8-C ) :   1.1242 B(  8-C ,  9-C ) :   1.2256 B(  9-C , 13-C ) :   1.3961
B(  9-C , 14-H ) :   0.9539 B( 10-C , 11-C ) :   1.3729 B( 10-C , 12-H ) :   0.9535
B( 11-C , 13-C ) :   1.2919 B( 11-C , 15-H ) :   0.9972 B( 13-C , 16-H ) :   0.9858
B( 17-C , 19-C ) :   1.3792 B( 17-C , 20-H ) :   0.9552 B( 18-C , 21-C ) :   1.3798
B( 18-C , 22-H ) :   0.9560 B( 19-C , 21-C ) :   1.3101 B( 19-C , 23-H ) :   0.9900
B( 21-C , 24-H ) :   0.9984

FINAL SINGLE POINT ENERGY    -11627.058363279160

DIPOLE MOMENT
-------------
                                X             Y             Z
Electronic contribution:      0.10280       0.25191       0.00000
Nuclear contribution   :     -0.23882      -0.11643       0.00000
                        -----------------------------------------
Total Dipole Moment    :     -0.13602       0.13548       0.00000
                        -----------------------------------------
Magnitude (a.u.)       :      0.19198
Magnitude (Debye)      :      0.48797

Rotational constants in cm-1:     0.017381     0.004094     0.003313
Rotational constants in MHz :   521.069980   122.726060    99.330940

                             ****ORCA TERMINATED NORMALLY****
TOTAL RUN TIME: 0 days 16 hours 22 minutes 58 seconds 806 msec
