                         Program Version 5.0.4 -  RELEASE  -
|  1> ! RIJCOSX nofrozencore ReducedPop printbasis
|  2> ! M06L ano-rcc-dzp autoaux
|  3>
|  4> %maxcore 7500
|  5> %basis
|  6> PCDTrimBas overlap
|  7> PCDTrimAuxJ Coulomb
|  8> PCDTrimAuxJK Coulomb
|  9> PCDTrimAuxC Coulomb
| 10> PCDThresh -1
| 11> end
| 12>
| 13> %basis
| 14> newgto Cu "ano-rcc-tzp" end
| 15> newgto Se "ano-rcc-tzp" end
| 16> end
| 17>
| 18> %pal
| 19> nprocs 8
| 20> end
| 21>
| 22> % sym SymThresh 1e-2 end
| 23> * xyz -2 2
| 24> Cu 0.0021835978441896295 -0.004579445198274506 -0.00484951823698509
| 25> Se 2.09239806116819 -0.9203698871885405 0.6896632549122454
| 26> C 2.4216268788705912 -1.9018350773413297 -0.4893447489128467
| 27> Se -0.3483218791365693 1.4186883262131715 1.832638262812997
| 28> C -1.7687691818852314 2.2434743001235953 1.6722076990176769
| 29> Se 0.36444591118969866 -1.4396335389852914 -1.848641936275058
| 30> C 1.7330411987152678 -2.136101894177952 -1.5429322826770173
| 31> Se -2.0802865570233484 0.8583716259139332 -0.7728824002051106
| 32> C -2.380285357351267 1.8743662541761053 0.4886856810977657
| 33> C -3.55967251184284 2.596216232147984 0.4124764874314716
| 34> C -2.3012050871184995 3.1766289299343655 2.572341707203766
| 35> C -3.5335254012275263 3.930432004695129 2.4920274144505474
| 36> H -1.69903787842645 3.354734432513547 3.4525187830658006
| 37> C -4.170244721021524 3.5593552736420078 1.2801084726842265
| 38> H -4.151577654352768 2.4062798793657727 -0.4755782557342262
| 39> H -3.887031103767517 4.6424053074340454 3.231879647840261
| 40> H -5.134762481116489 3.9678605346651117 0.9379599279001877
| 41> C 3.5887001912209957 -2.570393190107812 -0.3435183965667263
| 42> C 2.2198060793449264 -3.0160580288912913 -2.407165176423231
| 43> C 4.1805240754058275 -3.503624462169071 -1.1839976494435016
| 44> H 4.121873547269911 -2.32871012711075 0.5650532821410655
| 45> C 3.398971948066319 -3.720399853007354 -2.3042373887787915
| 46> H 1.6414322163777644 -3.2134133571358885 -3.293019709820735
| 47> H 5.12725931013821 -3.9706935368926124 -0.9498737887626322
| 48> H 3.670293953911487 -4.412365366828488 -3.0960226772701915
| 49> *
| 50>
| 51> % eprnmr
| 52> gtensor true
| 53> Nuclei = all H {aiso,adip,aorb,fgrad,rho}
| 54> Nuclei = all Cu {aiso,adip,aorb,fgrad,rho}
| 55> end
| 56>
| 57>                          ****END OF INPUT****

CARTESIAN COORDINATES (ANGSTROEM)
---------------------------------
  Cu    -0.006111    0.003452    0.000000
  Se     0.435915    2.347515    0.000000
  C     -1.013405    2.948512    0.000000
  Se     2.223349   -0.741139    0.000000
  C      2.290247   -2.390140    0.000000
  Se    -2.245123    0.763064    0.000000
  C     -2.131399    2.324681    0.000000
  Se    -0.536208   -2.318237    0.000000
  C      1.005175   -2.899559    0.000000
  C      1.127914   -4.278966    0.000000
  C      3.447419   -3.181000    0.000000
  C      3.574859   -4.622194    0.000000
  H      4.376551   -2.628052    0.000000
  C      2.260852   -5.156275    0.000000
  H      0.187644   -4.818376    0.000000
  H      4.510817   -5.172863    0.000000
  H      2.031335   -6.234032    0.000000
  C     -1.051849    4.300850    0.000000
  C     -3.238015    3.055135    0.000000
  C     -2.149396    5.151127    0.000000
  H     -0.076805    4.767192    0.000000
  C     -3.329213    4.429473    0.000000
  H     -4.178129    2.531313    0.000000
  H     -2.044027    6.227312    0.000000
  H     -4.311582    4.892407    0.000000

 Total Charge           Charge          ....   -2
 Multiplicity           Mult            ....    2
 Number of Electrons    NEL             ....  247
 Basis Dimension        Dim             ....  575

ORBITAL ENERGIES
----------------
                 SPIN UP ORBITALS
  NO   OCC          E(Eh)            E(eV)    Irrep
   0   1.0000    -443.582518    -12070.4940    1-A'
   1   1.0000    -443.562824    -12069.9581    2-A'
   2   1.0000    -443.558210    -12069.8325    3-A'
   3   1.0000    -443.539562    -12069.3251    4-A'
   4   1.0000    -318.184235     -8658.2332    5-A'
   5   1.0000     -56.383569     -1534.2749    6-A'
   6   1.0000     -56.371730     -1533.9528    7-A'
   7   1.0000     -56.362196     -1533.6933    8-A'
   8   1.0000     -56.351735     -1533.4087    9-A'
   9   1.0000     -51.293523     -1395.7677   10-A'
  10   1.0000     -51.292033     -1395.7272   11-A'
  11   1.0000     -51.291571     -1395.7146    1-A"
  12   1.0000     -51.288439     -1395.6294   12-A'
  13   1.0000     -51.288277     -1395.6250   13-A'
  14   1.0000     -51.287264     -1395.5974   14-A'
  15   1.0000     -51.287106     -1395.5931   15-A'
  16   1.0000     -51.286849     -1395.5861    2-A"
  17   1.0000     -51.286616     -1395.5798    3-A"
  18   1.0000     -51.277486     -1395.3313   16-A'
  19   1.0000     -51.276053     -1395.2923   17-A'
  20   1.0000     -51.275706     -1395.2829    4-A"
  21   1.0000     -38.024669     -1034.7039   18-A'
  22   1.0000     -33.526640      -912.3063   19-A'
  23   1.0000     -33.525952      -912.2875   20-A'
  24   1.0000     -33.514902      -911.9868    5-A"
  25   1.0000      -9.830403      -267.4989   21-A'
  26   1.0000      -9.822450      -267.2825   22-A'
  27   1.0000      -9.816283      -267.1146   23-A'
  28   1.0000      -9.814773      -267.0736   24-A'
  29   1.0000      -9.814118      -267.0557   25-A'
  30   1.0000      -9.812461      -267.0106   26-A'
  31   1.0000      -9.810866      -266.9672   27-A'
  32   1.0000      -9.803792      -266.7747   28-A'
  33   1.0000      -9.800744      -266.6918   29-A'
  34   1.0000      -9.798503      -266.6308   30-A'
  35   1.0000      -9.791546      -266.4415   31-A'
  36   1.0000      -9.788888      -266.3692   32-A'
  37   1.0000      -7.346454      -199.9072   33-A'
  38   1.0000      -7.344612      -199.8570   34-A'
  39   1.0000      -7.335550      -199.6105   35-A'
  40   1.0000      -7.328616      -199.4218   36-A'
  41   1.0000      -5.410858      -147.2369   37-A'
  42   1.0000      -5.404920      -147.0753   38-A'
  43   1.0000      -5.404620      -147.0672    6-A"
  44   1.0000      -5.403798      -147.0448   39-A'
  45   1.0000      -5.403771      -147.0441   40-A'
  46   1.0000      -5.398611      -146.9037   41-A'
  47   1.0000      -5.398529      -146.9015   42-A'
  48   1.0000      -5.398257      -146.8940    7-A"
  49   1.0000      -5.397989      -146.8868    8-A"
  50   1.0000      -5.396822      -146.8550   43-A'
  51   1.0000      -5.391367      -146.7066   44-A'
  52   1.0000      -5.391080      -146.6987    9-A"
  53   1.0000      -4.018941      -109.3610   45-A'
  54   1.0000      -2.538276       -69.0700   46-A'
  55   1.0000      -2.537560       -69.0505   47-A'
  56   1.0000      -2.514280       -68.4170   10-A"
  57   1.0000      -1.749595       -47.6089   48-A'
  58   1.0000      -1.746725       -47.5308   49-A'
  59   1.0000      -1.746140       -47.5149   11-A"
  60   1.0000      -1.744032       -47.4575   50-A'
  61   1.0000      -1.743885       -47.4535   51-A'
  62   1.0000      -1.741336       -47.3842   52-A'
  63   1.0000      -1.741266       -47.3823   12-A"
  64   1.0000      -1.740455       -47.3602   53-A'
  65   1.0000      -1.740326       -47.3567   54-A'
  66   1.0000      -1.739601       -47.3370   13-A"
  67   1.0000      -1.739415       -47.3319   14-A"
  68   1.0000      -1.735686       -47.2304   55-A'
  69   1.0000      -1.735188       -47.2169   56-A'
  70   1.0000      -1.735144       -47.2157   15-A"
  71   1.0000      -1.734959       -47.2106   57-A'
  72   1.0000      -1.734927       -47.2098   16-A"
  73   1.0000      -1.733135       -47.1610   58-A'
  74   1.0000      -1.732411       -47.1413   17-A"
  75   1.0000      -1.727970       -47.0205   59-A'
  76   1.0000      -1.727944       -47.0197   18-A"
  77   1.0000      -0.634758       -17.2726   60-A'
  78   1.0000      -0.597854       -16.2684   61-A'
  79   1.0000      -0.534768       -14.5518   62-A'
  80   1.0000      -0.519325       -14.1315   63-A'
  81   1.0000      -0.515314       -14.0224   64-A'
  82   1.0000      -0.488192       -13.2844   65-A'
  83   1.0000      -0.415455       -11.3051   66-A'
  84   1.0000      -0.404898       -11.0178   67-A'
  85   1.0000      -0.392792       -10.6884   68-A'
  86   1.0000      -0.380400       -10.3512   69-A'
  87   1.0000      -0.341302        -9.2873   70-A'
  88   1.0000      -0.318320        -8.6619   71-A'
  89   1.0000      -0.286991        -7.8094   72-A'
  90   1.0000      -0.282023        -7.6742   73-A'
  91   1.0000      -0.230131        -6.2622   74-A'
  92   1.0000      -0.220327        -5.9954   75-A'
  93   1.0000      -0.214129        -5.8267   76-A'
  94   1.0000      -0.190618        -5.1870   77-A'
  95   1.0000      -0.171066        -4.6549   78-A'
  96   1.0000      -0.164998        -4.4898   79-A'
  97   1.0000      -0.155927        -4.2430   19-A"
  98   1.0000      -0.144547        -3.9333   80-A'
  99   1.0000      -0.132958        -3.6180   81-A'
 100   1.0000      -0.126195        -3.4340   20-A"
 101   1.0000      -0.120120        -3.2686   82-A'
 102   1.0000      -0.108467        -2.9515   83-A'
 103   1.0000      -0.082299        -2.2395   84-A'
 104   1.0000      -0.073556        -2.0016   85-A'
 105   1.0000      -0.064207        -1.7472   86-A'
 106   1.0000      -0.056627        -1.5409   87-A'
 107   1.0000      -0.054498        -1.4830   21-A"
 108   1.0000      -0.043722        -1.1897   22-A"
 109   1.0000      -0.038943        -1.0597   23-A"
 110   1.0000      -0.035312        -0.9609   88-A'
 111   1.0000      -0.022267        -0.6059   24-A"
 112   1.0000      -0.018679        -0.5083   89-A'
 113   1.0000       0.000305         0.0083   25-A"
 114   1.0000       0.002008         0.0546   26-A"
 115   1.0000       0.003702         0.1007   90-A'
 116   1.0000       0.021151         0.5755   91-A'
 117   1.0000       0.026480         0.7206   92-A'
 118   1.0000       0.048796         1.3278   93-A'
 119   1.0000       0.058588         1.5943   27-A"
 120   1.0000       0.058983         1.6050   28-A"
 121   1.0000       0.071020         1.9325   29-A"
 122   1.0000       0.098458         2.6792   30-A"
 123   1.0000       0.119285         3.2459   94-A'
 124   0.0000       0.180852         4.9212   95-A'
 125   0.0000       0.182653         4.9702   96-A'
 126   0.0000       0.194042         5.2802   97-A'
 127   0.0000       0.196065         5.3352   31-A"
 128   0.0000       0.198648         5.4055   98-A'

                 SPIN DOWN ORBITALS
  NO   OCC          E(Eh)            E(eV)    Irrep
   0   1.0000    -443.582039    -12070.4809    1-A'
   1   1.0000    -443.562363    -12069.9455    2-A'
   2   1.0000    -443.557731    -12069.8195    3-A'
   3   1.0000    -443.539146    -12069.3138    4-A'
   4   1.0000    -318.184115     -8658.2299    5-A'
   5   1.0000     -56.383376     -1534.2697    6-A'
   6   1.0000     -56.371543     -1533.9477    7-A'
   7   1.0000     -56.362008     -1533.6882    8-A'
   8   1.0000     -56.351567     -1533.4041    9-A'
   9   1.0000     -51.293229     -1395.7597   10-A'
  10   1.0000     -51.291313     -1395.7076    1-A"
  11   1.0000     -51.291241     -1395.7056   11-A'
  12   1.0000     -51.288066     -1395.6192   12-A'
  13   1.0000     -51.287905     -1395.6148   13-A'
  14   1.0000     -51.286585     -1395.5789    2-A"
  15   1.0000     -51.286513     -1395.5770   14-A'
  16   1.0000     -51.286357     -1395.5727   15-A'
  17   1.0000     -51.286356     -1395.5727    3-A"
  18   1.0000     -51.277189     -1395.3232   16-A'
  19   1.0000     -51.275478     -1395.2767    4-A"
  20   1.0000     -51.275397     -1395.2745   17-A'
  21   1.0000     -38.010903     -1034.3293   18-A'
  22   1.0000     -33.513566      -911.9505   19-A'
  23   1.0000     -33.512871      -911.9316   20-A'
  24   1.0000     -33.511050      -911.8820    5-A"
  25   1.0000      -9.830357      -267.4976   21-A'
  26   1.0000      -9.822401      -267.2811   22-A'
  27   1.0000      -9.816201      -267.1124   23-A'
  28   1.0000      -9.814666      -267.0706   24-A'
  29   1.0000      -9.814048      -267.0538   25-A'
  30   1.0000      -9.812506      -267.0119   26-A'
  31   1.0000      -9.810867      -266.9673   27-A'
  32   1.0000      -9.803689      -266.7719   28-A'
  33   1.0000      -9.800561      -266.6868   29-A'
  34   1.0000      -9.798339      -266.6264   30-A'
  35   1.0000      -9.791566      -266.4420   31-A'
  36   1.0000      -9.788911      -266.3698   32-A'
  37   1.0000      -7.346038      -199.8959   33-A'
  38   1.0000      -7.344202      -199.8459   34-A'
  39   1.0000      -7.335123      -199.5989   35-A'
  40   1.0000      -7.328243      -199.4116   36-A'
  41   1.0000      -5.410511      -147.2275   37-A'
  42   1.0000      -5.404306      -147.0587    6-A"
  43   1.0000      -5.404051      -147.0517   38-A'
  44   1.0000      -5.403395      -147.0338   39-A'
  45   1.0000      -5.403367      -147.0331   40-A'
  46   1.0000      -5.397925      -146.8850    7-A"
  47   1.0000      -5.397748      -146.8802   41-A'
  48   1.0000      -5.397676      -146.8782    8-A"
  49   1.0000      -5.397673      -146.8781   42-A'
  50   1.0000      -5.396506      -146.8464   43-A'
  51   1.0000      -5.390779      -146.6906    9-A"
  52   1.0000      -5.390607      -146.6859   44-A'
  53   1.0000      -3.991005      -108.6008   45-A'
  54   1.0000      -2.504036       -68.1383   10-A"
  55   1.0000      -2.503359       -68.1199   46-A'
  56   1.0000      -2.502646       -68.1005   47-A'
  57   1.0000      -1.749151       -47.5968   48-A'
  58   1.0000      -1.745854       -47.5071   11-A"
  59   1.0000      -1.745833       -47.5065   49-A'
  60   1.0000      -1.743549       -47.4444   50-A'
  61   1.0000      -1.743410       -47.4406   51-A'
  62   1.0000      -1.740506       -47.3616   52-A'
  63   1.0000      -1.740473       -47.3607   12-A"
  64   1.0000      -1.739488       -47.3339   53-A'
  65   1.0000      -1.739358       -47.3303   54-A'
  66   1.0000      -1.739263       -47.3277   13-A"
  67   1.0000      -1.739093       -47.3231   14-A"
  68   1.0000      -1.735291       -47.2197   55-A'
  69   1.0000      -1.734331       -47.1936   56-A'
  70   1.0000      -1.734326       -47.1934   15-A"
  71   1.0000      -1.734134       -47.1882   16-A"
  72   1.0000      -1.734130       -47.1881   57-A'
  73   1.0000      -1.732309       -47.1385   58-A'
  74   1.0000      -1.732126       -47.1335   17-A"
  75   1.0000      -1.727208       -46.9997   18-A"
  76   1.0000      -1.727208       -46.9997   59-A'
  77   1.0000      -0.633763       -17.2456   60-A'
  78   1.0000      -0.596984       -16.2448   61-A'
  79   1.0000      -0.533810       -14.5257   62-A'
  80   1.0000      -0.517124       -14.0717   63-A'
  81   1.0000      -0.514420       -13.9981   64-A'
  82   1.0000      -0.486345       -13.2341   65-A'
  83   1.0000      -0.413194       -11.2436   66-A'
  84   1.0000      -0.402397       -10.9498   67-A'
  85   1.0000      -0.390262       -10.6196   68-A'
  86   1.0000      -0.378111       -10.2889   69-A'
  87   1.0000      -0.339414        -9.2359   70-A'
  88   1.0000      -0.316512        -8.6127   71-A'
  89   1.0000      -0.284275        -7.7355   72-A'
  90   1.0000      -0.279787        -7.6134   73-A'
  91   1.0000      -0.228875        -6.2280   74-A'
  92   1.0000      -0.219370        -5.9694   75-A'
  93   1.0000      -0.212979        -5.7954   76-A'
  94   1.0000      -0.189493        -5.1564   77-A'
  95   1.0000      -0.169281        -4.6064   78-A'
  96   1.0000      -0.162598        -4.4245   79-A'
  97   1.0000      -0.155490        -4.2311   19-A"
  98   1.0000      -0.142514        -3.8780   80-A'
  99   1.0000      -0.131511        -3.5786   81-A'
 100   1.0000      -0.125764        -3.4222   20-A"
 101   1.0000      -0.118694        -3.2298   82-A'
 102   1.0000      -0.106485        -2.8976   83-A'
 103   1.0000      -0.080413        -2.1881   84-A'
 104   1.0000      -0.071385        -1.9425   85-A'
 105   1.0000      -0.057496        -1.5645   86-A'
 106   1.0000      -0.053941        -1.4678   21-A"
 107   1.0000      -0.053399        -1.4531   87-A'
 108   1.0000      -0.042951        -1.1687   22-A"
 109   1.0000      -0.037235        -1.0132   23-A"
 110   1.0000      -0.020270        -0.5516   24-A"
 111   1.0000      -0.017259        -0.4696   88-A'
 112   1.0000       0.000096         0.0026   89-A'
 113   1.0000       0.011262         0.3065   25-A"
 114   1.0000       0.011734         0.3193   26-A"
 115   1.0000       0.014405         0.3920   90-A'
 116   1.0000       0.033218         0.9039   91-A'
 117   1.0000       0.035850         0.9755   92-A'
 118   1.0000       0.059071         1.6074   93-A'
 119   1.0000       0.060529         1.6471   27-A"
 120   1.0000       0.062057         1.6887   28-A"
 121   1.0000       0.072961         1.9854   29-A"
 122   1.0000       0.101812         2.7704   30-A"
 123   0.0000       0.148843         4.0502   94-A'
 124   0.0000       0.183889         5.0039   95-A'
 125   0.0000       0.185806         5.0560   96-A'
 126   0.0000       0.196310         5.3419   31-A"
 127   0.0000       0.199336         5.4242   97-A'

MULLIKEN ATOMIC CHARGES AND SPIN POPULATIONS
--------------------------------------------
   0 Cu:    0.609660    0.307877
   1 Se:   -0.717292    0.182245
   2 C :    0.275653   -0.003825
   3 Se:   -0.755352    0.158038
   4 C :    0.191926   -0.002742
   5 Se:   -0.755122    0.180464
   6 C :    0.259616   -0.003422
   7 Se:   -0.737497    0.175984
   8 C :    0.303963   -0.005144
   9 C :   -0.062919   -0.002470
  10 C :   -0.176145   -0.000304
  11 C :   -0.205745   -0.001271
  12 H :    0.101122    0.001777
  13 C :   -0.138624    0.000254
  14 H :    0.106271    0.001891
  15 H :    0.005997    0.002676
  16 H :    0.024142    0.000642
  17 C :   -0.087503   -0.000820
  18 C :   -0.108897   -0.001305
  19 C :   -0.203803   -0.000192
  20 H :    0.101956    0.002929
  21 C :   -0.154501   -0.000615
  22 H :    0.092135    0.003123
  23 H :    0.010584    0.001884
  24 H :    0.020376    0.002328
Sum of atomic charges         :   -2.0000000

LOEWDIN ATOMIC CHARGES AND SPIN POPULATIONS
-------------------------------------------
   0 Cu:   -0.587479    0.387225
   1 Se:   -0.155631    0.124441
   2 C :   -0.021951    0.010301
   3 Se:   -0.254287    0.111597
   4 C :    0.042567    0.012466
   5 Se:   -0.174285    0.126378
   6 C :   -0.046201    0.012508
   7 Se:   -0.144317    0.129147
   8 C :    0.038613    0.008118
   9 C :    0.377112    0.006526
  10 C :    0.374284    0.005511
  11 C :    0.338913    0.000573
  12 H :   -0.473943    0.006778
  13 C :    0.320972    0.000420
  14 H :   -0.496896    0.012132
  15 H :   -0.411999    0.000865
  16 H :   -0.419920   -0.000030
  17 C :    0.392999    0.009620
  18 C :    0.381777    0.008574
  19 C :    0.339243    0.001191
  20 H :   -0.480411    0.013198
  21 C :    0.328558    0.000879
  22 H :   -0.453306    0.010543
  23 H :   -0.402985    0.000381
  24 H :   -0.411427    0.000660

  Mayer bond orders larger than 0.100000
B(  0-Cu,  1-Se) :   0.5846 B(  0-Cu,  3-Se) :   0.5483 B(  0-Cu,  5-Se) :   0.5749
B(  0-Cu,  7-Se) :   0.5427 B(  1-Se,  2-C ) :   1.0911 B(  2-C ,  6-C ) :   1.0450
B(  2-C , 17-C ) :   1.2213 B(  3-Se,  4-C ) :   1.0188 B(  4-C ,  8-C ) :   1.1019
B(  4-C , 10-C ) :   1.3102 B(  5-Se,  6-C ) :   1.0986 B(  6-C , 18-C ) :   1.2146
B(  7-Se,  8-C ) :   1.0365 B(  8-C ,  9-C ) :   1.2474 B(  9-C , 13-C ) :   1.3467
B(  9-C , 14-H ) :   0.9492 B( 10-C , 11-C ) :   1.3476 B( 10-C , 12-H ) :   0.9582
B( 11-C , 13-C ) :   1.3266 B( 11-C , 15-H ) :   1.0111 B( 13-C , 16-H ) :   0.9951
B( 17-C , 19-C ) :   1.3771 B( 17-C , 20-H ) :   0.9490 B( 18-C , 21-C ) :   1.3828
B( 18-C , 22-H ) :   0.9582 B( 19-C , 21-C ) :   1.3100 B( 19-C , 23-H ) :   1.0051
B( 21-C , 24-H ) :   0.9956

FINAL SINGLE POINT ENERGY    -11627.076189367606

DIPOLE MOMENT
-------------
                                X             Y             Z
Electronic contribution:     -2.20487       1.30283       0.00000
Nuclear contribution   :      1.75261      -0.95286       0.00000
                        -----------------------------------------
Total Dipole Moment    :     -0.45226       0.34997       0.00000
                        -----------------------------------------
Magnitude (a.u.)       :      0.57185
Magnitude (Debye)      :      1.45354

Rotational constants in cm-1:     0.018059     0.004109     0.003347
Rotational constants in MHz :   541.402515   123.178558   100.347698

                             ****ORCA TERMINATED NORMALLY****
TOTAL RUN TIME: 0 days 17 hours 0 minutes 46 seconds 407 msec
