                         Program Version 5.0.4 -  RELEASE  -
|  1> ! RIJCOSX nofrozencore ReducedPop printbasis
|  2> ! M06L ano-rcc-dzp autoaux
|  3>
|  4> %maxcore 7500
|  5> %basis
|  6> PCDTrimBas overlap
|  7> PCDTrimAuxJ Coulomb
|  8> PCDTrimAuxJK Coulomb
|  9> PCDTrimAuxC Coulomb
| 10> PCDThresh -1
| 11> end
| 12>
| 13> %basis
| 14> newgto Cu "ano-rcc-tzp" end
| 15> newgto Se "ano-rcc-tzp" end
| 16> end
| 17>
| 18> %pal
| 19> nprocs 8
| 20> end
| 21>
| 22> % sym SymThresh 1e-2 end
| 23> * xyz -2 2
| 24> Cu -1.8406240408634202e-05 0.0006859023939614734 0.0007413738033353617
| 25> Se -0.5115805752027884 -0.5864874420961843 2.2368973681639175
| 26> C -0.7754932379754794 -2.205691370308354 2.1600861415072226
| 27> Se 0.3152831228091737 2.305338202770418 0.43852532328698407
| 28> C 0.7075601960201416 2.8538654651378548 -1.1843474527428324
| 29> Se -0.31651000871359675 -2.3054075768535167 -0.4319107929775726
| 30> C -0.7126003248574282 -2.9999086603218625 1.075268701563928
| 31> Se 0.5081841578757751 0.5664854693238764 -2.237104103638898
| 32> C 0.8319164959391533 2.5480633335155702 -2.1472220845110184
| 33> C 1.0689851667823111 2.718371595172588 -3.2786645035165205
| 34> C 0.9331263354047371 4.2640157508591106 -1.0941900187099767
| 35> C 1.2932521464567805 5.027217944301431 -2.3413521643690487
| 36> H 0.9226591627530935 5.042392267773571 -0.3095950252912105
| 37> C 1.374398827987752 4.307463795022039 -3.4559397191213033
| 38> H 1.2650458002836014 2.5884676351621017 -4.467489694970111
| 39> H 1.4720158609832925 6.115975705016231 -2.2968251373295345
| 40> H 1.6248076764200161 4.7067404162715345 -4.445973604323428
| 41> C -1.1101249920474185 -2.8832420393823868 3.3485194493344093
| 42> C -0.9314674723877933 -4.260474983993313 1.0884687145323366
| 43> C -1.3692739614941614 -4.26113788781316 3.4713435340610252
| 44> H -1.1816236958313295 -2.3193190369816112 4.26491408218508
| 45> C -1.2889094885425163 -5.010022904076121 2.333783540789449
| 46> H -0.9073308488648999 -4.993138027898522 0.27218684565525125
| 47> H -1.6233106217282491 -4.698520285494886 4.445507383061949
| 48> H -1.463597386971334 -6.087596414344145 2.27752186428429
| 49> *
| 50>
| 51> % eprnmr
| 52> gtensor true
| 53> Nuclei = all H {aiso,adip,aorb,fgrad,rho}
| 54> Nuclei = all Cu {aiso,adip,aorb,fgrad,rho}
| 55> end
| 56>
| 57>                          ****END OF INPUT****

CARTESIAN COORDINATES (ANGSTROEM)
---------------------------------
  Cu     0.000684    0.000743    0.000000
  Se    -0.629770    2.283152    0.000000
  C     -2.271283    2.230181    0.000000
  Se     2.331985    0.410050    0.000000
  C      2.913699   -1.248289    0.000000
  Se    -2.332157   -0.403324    0.000000
  C     -3.060167    1.139664    0.000000
  Se     0.609481   -2.283052    0.000000
  C      2.618425   -2.222414    0.000000
  C      2.808792   -3.375293    0.000000
  C      4.342917   -1.178508    0.000000
  C      5.136583   -2.458225    0.000000
  H      5.120396   -0.392954    0.000000
  C      4.423706   -3.580162    0.000000
  H      2.695481   -4.581850    0.000000
  H      6.240452   -2.429847    0.000000
  H      4.844167   -4.592835    0.000000
  C     -2.977141    3.448865    0.000000
  C     -4.339236    1.172637    0.000000
  C     -4.376947    3.595103    0.000000
  H     -2.419277    4.371735    0.000000
  C     -5.119020    2.450264    0.000000
  H     -5.069845    0.354160    0.000000
  H     -4.835820    4.592233    0.000000
  H     -6.211360    2.409783    0.000000

 Total Charge           Charge          ....   -2
 Multiplicity           Mult            ....    2
 Number of Electrons    NEL             ....  247
 Basis Dimension        Dim             ....  575

ORBITAL ENERGIES
----------------
                 SPIN UP ORBITALS
  NO   OCC          E(Eh)            E(eV)    Irrep
   0   1.0000    -443.555229    -12069.7514    1-A'
   1   1.0000    -443.540968    -12069.3633    2-A'
   2   1.0000    -443.529657    -12069.0556    3-A'
   3   1.0000    -443.502040    -12068.3041    4-A'
   4   1.0000    -318.178220     -8658.0695    5-A'
   5   1.0000     -56.364638     -1533.7598    6-A'
   6   1.0000     -56.356244     -1533.5313    7-A'
   7   1.0000     -56.343102     -1533.1737    8-A'
   8   1.0000     -56.323368     -1532.6367    9-A'
   9   1.0000     -51.285692     -1395.5546   10-A'
  10   1.0000     -51.285604     -1395.5522   11-A'
  11   1.0000     -51.284150     -1395.5127   12-A'
  12   1.0000     -51.283874     -1395.5051    1-A"
  13   1.0000     -51.283377     -1395.4916   13-A'
  14   1.0000     -51.282643     -1395.4717    2-A"
  15   1.0000     -51.271487     -1395.1681   14-A'
  16   1.0000     -51.269876     -1395.1243   15-A'
  17   1.0000     -51.269144     -1395.1043    3-A"
  18   1.0000     -51.260542     -1394.8703   16-A'
  19   1.0000     -51.258198     -1394.8065   17-A'
  20   1.0000     -51.256874     -1394.7705    4-A"
  21   1.0000     -38.018158     -1034.5267   18-A'
  22   1.0000     -33.520159      -912.1299   19-A'
  23   1.0000     -33.519600      -912.1147   20-A'
  24   1.0000     -33.508498      -911.8126    5-A"
  25   1.0000      -9.848800      -267.9995   21-A'
  26   1.0000      -9.843174      -267.8464   22-A'
  27   1.0000      -9.841002      -267.7873   23-A'
  28   1.0000      -9.832932      -267.5677   24-A'
  29   1.0000      -9.819118      -267.1918   25-A'
  30   1.0000      -9.817805      -267.1561   26-A'
  31   1.0000      -9.814643      -267.0700   27-A'
  32   1.0000      -9.810885      -266.9678   28-A'
  33   1.0000      -9.807523      -266.8763   29-A'
  34   1.0000      -9.806204      -266.8404   30-A'
  35   1.0000      -9.798957      -266.6432   31-A'
  36   1.0000      -9.792457      -266.4663   32-A'
  37   1.0000      -7.337537      -199.6645   33-A'
  38   1.0000      -7.334949      -199.5941   34-A'
  39   1.0000      -7.321156      -199.2188   35-A'
  40   1.0000      -7.307404      -198.8446   36-A'
  41   1.0000      -5.407144      -147.1359   37-A'
  42   1.0000      -5.403400      -147.0340   38-A'
  43   1.0000      -5.398999      -146.9142   39-A'
  44   1.0000      -5.397653      -146.8776    6-A"
  45   1.0000      -5.397630      -146.8770    7-A"
  46   1.0000      -5.397478      -146.8729   40-A'
  47   1.0000      -5.391452      -146.7089   41-A'
  48   1.0000      -5.386327      -146.5694   42-A'
  49   1.0000      -5.385416      -146.5446   43-A'
  50   1.0000      -5.384012      -146.5064    8-A"
  51   1.0000      -5.377907      -146.3403   44-A'
  52   1.0000      -5.374364      -146.2439    9-A"
  53   1.0000      -4.012225      -109.1782   45-A'
  54   1.0000      -2.531421       -68.8835   46-A'
  55   1.0000      -2.530914       -68.8697   47-A'
  56   1.0000      -2.507752       -68.2394   10-A"
  57   1.0000      -1.744294       -47.4647   48-A'
  58   1.0000      -1.742309       -47.4106   49-A'
  59   1.0000      -1.742169       -47.4068   50-A'
  60   1.0000      -1.740817       -47.3700   11-A"
  61   1.0000      -1.739277       -47.3281   51-A'
  62   1.0000      -1.739020       -47.3211   12-A"
  63   1.0000      -1.734447       -47.1967   13-A"
  64   1.0000      -1.734434       -47.1963   52-A'
  65   1.0000      -1.734215       -47.1904   53-A'
  66   1.0000      -1.734124       -47.1879   14-A"
  67   1.0000      -1.729471       -47.0613   54-A'
  68   1.0000      -1.727527       -47.0084   55-A'
  69   1.0000      -1.726067       -46.9687   15-A"
  70   1.0000      -1.722605       -46.8745   56-A'
  71   1.0000      -1.721485       -46.8440   57-A'
  72   1.0000      -1.721188       -46.8359   16-A"
  73   1.0000      -1.721183       -46.8358   58-A'
  74   1.0000      -1.718691       -46.7680   17-A"
  75   1.0000      -1.712104       -46.5887   18-A"
  76   1.0000      -1.711974       -46.5852   59-A'
  77   1.0000      -0.658847       -17.9281   60-A'
  78   1.0000      -0.605491       -16.4763   61-A'
  79   1.0000      -0.531284       -14.4570   62-A'
  80   1.0000      -0.514515       -14.0007   63-A'
  81   1.0000      -0.507478       -13.8092   64-A'
  82   1.0000      -0.497152       -13.5282   65-A'
  83   1.0000      -0.397820       -10.8252   66-A'
  84   1.0000      -0.395952       -10.7744   67-A'
  85   1.0000      -0.385429       -10.4880   68-A'
  86   1.0000      -0.378937       -10.3114   69-A'
  87   1.0000      -0.364217        -9.9109   70-A'
  88   1.0000      -0.325180        -8.8486   71-A'
  89   1.0000      -0.289625        -7.8811   72-A'
  90   1.0000      -0.282267        -7.6809   73-A'
  91   1.0000      -0.250656        -6.8207   74-A'
  92   1.0000      -0.221888        -6.0379   75-A'
  93   1.0000      -0.215992        -5.8774   76-A'
  94   1.0000      -0.203475        -5.5368   77-A'
  95   1.0000      -0.193176        -5.2566   78-A'
  96   1.0000      -0.191773        -5.2184   19-A"
  97   1.0000      -0.172810        -4.7024   79-A'
  98   1.0000      -0.158797        -4.3211   80-A'
  99   1.0000      -0.131995        -3.5918   20-A"
 100   1.0000      -0.124617        -3.3910   81-A'
 101   1.0000      -0.120829        -3.2879   82-A'
 102   1.0000      -0.109725        -2.9858   83-A'
 103   1.0000      -0.092518        -2.5175   84-A'
 104   1.0000      -0.076149        -2.0721   85-A'
 105   1.0000      -0.058694        -1.5971   21-A"
 106   1.0000      -0.047729        -1.2988   86-A'
 107   1.0000      -0.042407        -1.1540   22-A"
 108   1.0000      -0.028266        -0.7692   87-A'
 109   1.0000      -0.026950        -0.7333   23-A"
 110   1.0000      -0.025330        -0.6893   88-A'
 111   1.0000      -0.021496        -0.5849   24-A"
 112   1.0000       0.002994         0.0815   25-A"
 113   1.0000       0.004027         0.1096   89-A'
 114   1.0000       0.005177         0.1409   26-A"
 115   1.0000       0.022507         0.6125   90-A'
 116   1.0000       0.025748         0.7006   91-A'
 117   1.0000       0.039073         1.0632   92-A'
 118   1.0000       0.050905         1.3852   93-A'
 119   1.0000       0.052742         1.4352   27-A"
 120   1.0000       0.068116         1.8535   28-A"
 121   1.0000       0.074310         2.0221   29-A"
 122   1.0000       0.091045         2.4775   30-A"
 123   1.0000       0.129313         3.5188   94-A'
 124   0.0000       0.153448         4.1755   31-A"
 125   0.0000       0.172527         4.6947   95-A'
 126   0.0000       0.182708         4.9717   96-A'
 127   0.0000       0.185810         5.0561   97-A'
 128   0.0000       0.195224         5.3123   98-A'

                 SPIN DOWN ORBITALS
  NO   OCC          E(Eh)            E(eV)    Irrep
   0   1.0000    -443.554797    -12069.7396    1-A'
   1   1.0000    -443.540522    -12069.3512    2-A'
   2   1.0000    -443.529200    -12069.0431    3-A'
   3   1.0000    -443.501570    -12068.2913    4-A'
   4   1.0000    -318.178107     -8658.0665    5-A'
   5   1.0000     -56.364464     -1533.7550    6-A'
   6   1.0000     -56.356065     -1533.5265    7-A'
   7   1.0000     -56.342920     -1533.1688    8-A'
   8   1.0000     -56.323178     -1532.6316    9-A'
   9   1.0000     -51.285391     -1395.5464   10-A'
  10   1.0000     -51.285292     -1395.5437   11-A'
  11   1.0000     -51.283633     -1395.4986    1-A"
  12   1.0000     -51.283455     -1395.4938   12-A'
  13   1.0000     -51.282642     -1395.4716   13-A'
  14   1.0000     -51.282395     -1395.4649    2-A"
  15   1.0000     -51.271152     -1395.1590   14-A'
  16   1.0000     -51.269143     -1395.1043   15-A'
  17   1.0000     -51.268893     -1395.0975    3-A"
  18   1.0000     -51.260166     -1394.8600   16-A'
  19   1.0000     -51.257450     -1394.7861   17-A'
  20   1.0000     -51.256618     -1394.7635    4-A"
  21   1.0000     -38.005075     -1034.1707   18-A'
  22   1.0000     -33.507730      -911.7917   19-A'
  23   1.0000     -33.507159      -911.7761   20-A'
  24   1.0000     -33.504835      -911.7129    5-A"
  25   1.0000      -9.848876      -268.0015   21-A'
  26   1.0000      -9.843057      -267.8432   22-A'
  27   1.0000      -9.840916      -267.7849   23-A'
  28   1.0000      -9.832649      -267.5600   24-A'
  29   1.0000      -9.819058      -267.1901   25-A'
  30   1.0000      -9.817725      -267.1539   26-A'
  31   1.0000      -9.814677      -267.0709   27-A'
  32   1.0000      -9.810914      -266.9685   28-A'
  33   1.0000      -9.807453      -266.8744   29-A'
  34   1.0000      -9.806088      -266.8372   30-A'
  35   1.0000      -9.798945      -266.6428   31-A'
  36   1.0000      -9.792411      -266.4650   32-A'
  37   1.0000      -7.337155      -199.6541   33-A'
  38   1.0000      -7.334548      -199.5832   34-A'
  39   1.0000      -7.320745      -199.2076   35-A'
  40   1.0000      -7.306974      -198.8329   36-A'
  41   1.0000      -5.406764      -147.1255   37-A'
  42   1.0000      -5.403051      -147.0245   38-A'
  43   1.0000      -5.398199      -146.8925   39-A'
  44   1.0000      -5.397357      -146.8695    6-A"
  45   1.0000      -5.397326      -146.8687    7-A"
  46   1.0000      -5.396706      -146.8518   40-A'
  47   1.0000      -5.391073      -146.6985   41-A'
  48   1.0000      -5.385885      -146.5574   42-A'
  49   1.0000      -5.384589      -146.5221   43-A'
  50   1.0000      -5.383695      -146.4978    8-A"
  51   1.0000      -5.377084      -146.3179   44-A'
  52   1.0000      -5.374069      -146.2358    9-A"
  53   1.0000      -3.986151      -108.4687   45-A'
  54   1.0000      -2.498802       -67.9959   46-A'
  55   1.0000      -2.498235       -67.9804   47-A'
  56   1.0000      -2.498035       -67.9750   10-A"
  57   1.0000      -1.743780       -47.4507   48-A'
  58   1.0000      -1.741882       -47.3990   49-A'
  59   1.0000      -1.741309       -47.3834   50-A'
  60   1.0000      -1.740503       -47.3615   11-A"
  61   1.0000      -1.738713       -47.3128   12-A"
  62   1.0000      -1.738436       -47.3052   51-A'
  63   1.0000      -1.733732       -47.1772   13-A"
  64   1.0000      -1.733704       -47.1765   52-A'
  65   1.0000      -1.733446       -47.1695   53-A'
  66   1.0000      -1.733394       -47.1681   14-A"
  67   1.0000      -1.728958       -47.0473   54-A'
  68   1.0000      -1.726624       -46.9838   55-A'
  69   1.0000      -1.725741       -46.9598   15-A"
  70   1.0000      -1.721942       -46.8564   56-A'
  71   1.0000      -1.720591       -46.8197   57-A'
  72   1.0000      -1.720419       -46.8150   16-A"
  73   1.0000      -1.720408       -46.8147   58-A'
  74   1.0000      -1.718341       -46.7584   17-A"
  75   1.0000      -1.711406       -46.5697   18-A"
  76   1.0000      -1.711305       -46.5670   59-A'
  77   1.0000      -0.658500       -17.9187   60-A'
  78   1.0000      -0.604748       -16.4560   61-A'
  79   1.0000      -0.530780       -14.4432   62-A'
  80   1.0000      -0.513703       -13.9786   63-A'
  81   1.0000      -0.506529       -13.7834   64-A'
  82   1.0000      -0.495555       -13.4847   65-A'
  83   1.0000      -0.395525       -10.7628   66-A'
  84   1.0000      -0.393806       -10.7160   67-A'
  85   1.0000      -0.383111       -10.4250   68-A'
  86   1.0000      -0.376116       -10.2346   69-A'
  87   1.0000      -0.361306        -9.8316   70-A'
  88   1.0000      -0.323362        -8.7991   71-A'
  89   1.0000      -0.286300        -7.7906   72-A'
  90   1.0000      -0.279545        -7.6068   73-A'
  91   1.0000      -0.248439        -6.7604   74-A'
  92   1.0000      -0.220732        -6.0064   75-A'
  93   1.0000      -0.214868        -5.8468   76-A'
  94   1.0000      -0.202411        -5.5079   77-A'
  95   1.0000      -0.191781        -5.2186   78-A'
  96   1.0000      -0.191726        -5.2171   19-A"
  97   1.0000      -0.171368        -4.6632   79-A'
  98   1.0000      -0.156742        -4.2652   80-A'
  99   1.0000      -0.131668        -3.5829   20-A"
 100   1.0000      -0.122517        -3.3338   81-A'
 101   1.0000      -0.119445        -3.2503   82-A'
 102   1.0000      -0.107285        -2.9194   83-A'
 103   1.0000      -0.090867        -2.4726   84-A'
 104   1.0000      -0.072896        -1.9836   85-A'
 105   1.0000      -0.058399        -1.5891   21-A"
 106   1.0000      -0.042540        -1.1576   86-A'
 107   1.0000      -0.041782        -1.1370   22-A"
 108   1.0000      -0.025213        -0.6861   23-A"
 109   1.0000      -0.020652        -0.5620   24-A"
 110   1.0000      -0.019600        -0.5333   87-A'
 111   1.0000       0.002011         0.0547   88-A'
 112   1.0000       0.012698         0.3455   89-A'
 113   1.0000       0.012991         0.3535   25-A"
 114   1.0000       0.014670         0.3992   26-A"
 115   1.0000       0.032818         0.8930   90-A'
 116   1.0000       0.037784         1.0282   91-A'
 117   1.0000       0.042041         1.1440   92-A'
 118   1.0000       0.055338         1.5058   27-A"
 119   1.0000       0.061863         1.6834   93-A'
 120   1.0000       0.070711         1.9241   28-A"
 121   1.0000       0.077634         2.1125   29-A"
 122   1.0000       0.094770         2.5788   30-A"
 123   0.0000       0.153478         4.1763   31-A"
 124   0.0000       0.156853         4.2682   94-A'
 125   0.0000       0.177580         4.8322   95-A'
 126   0.0000       0.186566         5.0767   96-A'
 127   0.0000       0.192250         5.2314   97-A'

MULLIKEN ATOMIC CHARGES AND SPIN POPULATIONS
--------------------------------------------
   0 Cu:    0.701812    0.284427
   1 Se:   -0.755820    0.159039
   2 C :    0.234013   -0.003460
   3 Se:   -0.880826    0.175312
   4 C :    0.344942   -0.005422
   5 Se:   -0.840116    0.173722
   6 C :    0.308232   -0.001552
   7 Se:   -0.948255    0.192316
   8 C :    0.351760   -0.004122
   9 C :   -0.004996   -0.011486
  10 C :   -0.127366   -0.003714
  11 C :   -0.084981    0.000359
  12 H :    0.079796    0.002715
  13 C :   -0.158600    0.009493
  14 H :    0.028424    0.017975
  15 H :    0.010435    0.004982
  16 H :    0.021151    0.005355
  17 C :   -0.125119   -0.002636
  18 C :   -0.078764   -0.004739
  19 C :   -0.114354   -0.000135
  20 H :    0.101668    0.002636
  21 C :   -0.168144    0.000471
  22 H :    0.077283    0.003669
  23 H :    0.009466    0.002542
  24 H :    0.018359    0.002253
Sum of atomic charges         :   -2.0000000

LOEWDIN ATOMIC CHARGES AND SPIN POPULATIONS
-------------------------------------------
   0 Cu:   -0.666694    0.368086
   1 Se:   -0.195966    0.117559
   2 C :    0.037838    0.009633
   3 Se:   -0.167159    0.129262
   4 C :   -0.052027    0.003462
   5 Se:   -0.236446    0.125928
   6 C :    0.009318    0.010412
   7 Se:   -0.256236    0.137584
   8 C :   -0.106476    0.004220
   9 C :    0.393897    0.010781
  10 C :    0.451097    0.008423
  11 C :    0.328824    0.002563
  12 H :   -0.438105    0.007166
  13 C :    0.355421    0.009260
  14 H :   -0.331551    0.014747
  15 H :   -0.389154    0.002767
  16 H :   -0.416236    0.003642
  17 C :    0.380240    0.006528
  18 C :    0.367297    0.006958
  19 C :    0.307817    0.000996
  20 H :   -0.468884    0.008480
  21 C :    0.337555    0.001517
  22 H :   -0.427589    0.008220
  23 H :   -0.400042    0.001009
  24 H :   -0.416740    0.000798

  Mayer bond orders larger than 0.100000
B(  0-Cu,  1-Se) :   0.5202 B(  0-Cu,  3-Se) :   0.5281 B(  0-Cu,  5-Se) :   0.5582
B(  0-Cu,  7-Se) :   0.5038 B(  1-Se,  2-C ) :   1.0547 B(  2-C ,  6-C ) :   1.1006
B(  2-C , 17-C ) :   1.2801 B(  3-Se,  4-C ) :   0.8710 B(  4-C ,  8-C ) :   1.3085
B(  4-C , 10-C ) :   1.1939 B(  5-Se,  6-C ) :   0.9373 B(  6-C , 18-C ) :   1.3401
B(  7-Se,  8-C ) :   0.7281 B(  8-C ,  9-C ) :   1.3165 B(  9-C , 10-C ) :   0.1566
B(  9-C , 13-C ) :   1.1559 B(  9-C , 14-H ) :   0.9229 B( 10-C , 11-C ) :   1.3226
B( 10-C , 12-H ) :   0.9465 B( 11-C , 13-C ) :   1.4566 B( 11-C , 15-H ) :   0.9834
B( 13-C , 16-H ) :   0.9742 B( 17-C , 19-C ) :   1.3356 B( 17-C , 20-H ) :   0.9563
B( 18-C , 21-C ) :   1.2741 B( 18-C , 22-H ) :   0.9634 B( 19-C , 21-C ) :   1.3810
B( 19-C , 23-H ) :   0.9971 B( 21-C , 24-H ) :   0.9957

FINAL SINGLE POINT ENERGY    -11626.609816718204

DIPOLE MOMENT
-------------
                                X             Y             Z
Electronic contribution:      0.33142       0.34313       0.00000
Nuclear contribution   :      0.54862      -0.32698       0.00000
                        -----------------------------------------
Total Dipole Moment    :      0.88005       0.01615       0.00000
                        -----------------------------------------
Magnitude (a.u.)       :      0.88019
Magnitude (Debye)      :      2.23727

Rotational constants in cm-1:     0.017621     0.004084     0.003316
Rotational constants in MHz :   528.276285   122.435410    99.398434

                             ****ORCA TERMINATED NORMALLY****
TOTAL RUN TIME: 0 days 16 hours 13 minutes 3 seconds 552 msec
