                         Program Version 5.0.4 -  RELEASE  -
|  1> ! RIJCOSX nofrozencore ReducedPop printbasis
|  2> ! M06L ano-rcc-dzp autoaux
|  3>
|  4> %maxcore 7500
|  5> %basis
|  6> PCDTrimBas overlap
|  7> PCDTrimAuxJ Coulomb
|  8> PCDTrimAuxJK Coulomb
|  9> PCDTrimAuxC Coulomb
| 10> PCDThresh -1
| 11> end
| 12>
| 13> %basis
| 14> newgto Cu "ano-rcc-tzp" end
| 15> newgto Se "ano-rcc-tzp" end
| 16> end
| 17>
| 18> %pal
| 19> nprocs 8
| 20> end
| 21>
| 22> % sym SymThresh 1e-2 end
| 23> * xyz -2 2
| 24> Cu -2.1201516977185422e-05 4.665978374898714e-06 2.2129715851567006e-05
| 25> Se 1.1273544809175429 1.9715145610671758 0.670969928323348
| 26> C 0.5007319879913703 3.151721229467178 -0.2776967583860342
| 27> Se 1.1908651801139456 -1.454581565978059 1.440151815724647
| 28> C 0.5044056774932656 -2.9246295224199645 1.2060933280837467
| 29> Se -1.1903857522623003 1.4544760546606137 -1.440652232847613
| 30> C -0.5112811242729961 2.926142654052315 -1.198916875391624
| 31> Se -1.1268812083450197 -1.971618717745738 -0.6714639206900991
| 32> C -0.5075821297347086 -3.1502136669057914 0.28484679819149533
| 33> C -0.8681006102586866 -4.47995170365589 0.06502039850830621
| 34> C 1.0565331224133856 -4.050951617572896 1.8169745986284322
| 35> C 0.5747789678890541 -5.340897434379936 1.7215828812596328
| 36> H 2.0115961647379885 -3.904121684247916 2.3580659570878475
| 37> C -0.4369020030667945 -5.567020359241975 0.7979282468828719
| 38> H -1.4891863400541958 -4.68442835640557 -0.8285517167994996
| 39> H 1.1577759719112783 -6.168544203560763 2.1636234330268294
| 40> H -0.7047135791900021 -6.585138177116633 0.46186008376481125
| 41> C 0.8712862021152595 4.479250951470246 -0.06834854452337971
| 42> C -1.0534239316190008 4.0502680008548735 -1.8202170576932397
| 43> C 0.4339501563729719 5.5676729092262525 -0.7948478825190038
| 44> H 1.5146458807538914 4.678825930865186 0.8019758979706281
| 45> C -0.5776144836732183 5.341520496231338 -1.7186229891725655
| 46> H -1.9862917213481008 3.8985533902330998 -2.384475373202039
| 47> H 0.7213437755389454 6.581478243885535 -0.47921834733405977
| 48> H -1.14099338166902 6.1648487906110585 -2.1811448017488106
| 49> *
| 50>
| 51> % eprnmr
| 52> gtensor true
| 53> Nuclei = all H {aiso,adip,aorb,fgrad,rho}
| 54> Nuclei = all Cu {aiso,adip,aorb,fgrad,rho}
| 55> end
| 56>
| 57>                          ****END OF INPUT****

CARTESIAN COORDINATES (ANGSTROEM)
---------------------------------
  Cu     0.000007    0.000030    0.000000
  Se     1.712049   -0.390302    1.588883
  C      3.031721   -0.767397    0.693488
  Se    -1.712206    0.389623    1.588883
  C     -3.029465    0.777175    0.693488
  Se     1.712049   -0.390302   -1.588883
  C      3.031721   -0.767397   -0.693488
  Se    -1.712206    0.389623   -1.588883
  C     -3.029465    0.777175   -0.693488
  C     -4.264816    0.948563   -1.318863
  C     -4.264816    0.948563    1.318863
  C     -5.447516    1.289175    0.694220
  H     -4.311812    0.708630    2.398900
  C     -5.447516    1.289175   -0.694220
  H     -4.311812    0.708630   -2.398900
  H     -6.385253    1.291222    1.278515
  H     -6.385253    1.291222   -1.278515
  C      4.263782   -0.953047    1.318861
  C      4.263782   -0.953047   -1.318861
  C      5.448468   -1.285052    0.694220
  H      4.303468   -0.744791    2.398899
  C      5.448468   -1.285052   -0.694220
  H      4.303468   -0.744791   -2.398899
  H      6.379759   -1.315025    1.278516
  H      6.379759   -1.315025   -1.278516

 Total Charge           Charge          ....   -2
 Multiplicity           Mult            ....    2
 Number of Electrons    NEL             ....  247
 Basis Dimension        Dim             ....  575

ORBITAL ENERGIES
----------------
                 SPIN UP ORBITALS
  NO   OCC          E(Eh)            E(eV)    Irrep
   0   1.0000    -443.560844    -12069.9042    1-A"
   1   1.0000    -443.559767    -12069.8749    2-A"
   2   1.0000    -443.546539    -12069.5149    1-A'
   3   1.0000    -443.546345    -12069.5096    2-A'
   4   1.0000    -318.187375     -8658.3187    3-A'
   5   1.0000     -56.369939     -1533.9040    3-A"
   6   1.0000     -56.369629     -1533.8956    4-A"
   7   1.0000     -56.357216     -1533.5578    4-A'
   8   1.0000     -56.356958     -1533.5508    5-A'
   9   1.0000     -51.286647     -1395.5806    5-A"
  10   1.0000     -51.286587     -1395.5790    6-A'
  11   1.0000     -51.286568     -1395.5785    6-A"
  12   1.0000     -51.286533     -1395.5775    7-A'
  13   1.0000     -51.285294     -1395.5438    7-A"
  14   1.0000     -51.285252     -1395.5427    8-A"
  15   1.0000     -51.285241     -1395.5424    8-A'
  16   1.0000     -51.285188     -1395.5409    9-A'
  17   1.0000     -51.284870     -1395.5323    9-A"
  18   1.0000     -51.284822     -1395.5310   10-A"
  19   1.0000     -51.284816     -1395.5308   10-A'
  20   1.0000     -51.284765     -1395.5294   11-A'
  21   1.0000     -38.027934     -1034.7927   12-A'
  22   1.0000     -33.529997      -912.3976   11-A"
  23   1.0000     -33.529191      -912.3757   13-A'
  24   1.0000     -33.518049      -912.0725   14-A'
  25   1.0000      -9.818953      -267.1873   15-A'
  26   1.0000      -9.818506      -267.1751   12-A"
  27   1.0000      -9.818264      -267.1685   16-A'
  28   1.0000      -9.817817      -267.1564   13-A"
  29   1.0000      -9.810783      -266.9650   17-A'
  30   1.0000      -9.810745      -266.9640   14-A"
  31   1.0000      -9.810218      -266.9496   18-A'
  32   1.0000      -9.810057      -266.9452   19-A'
  33   1.0000      -9.809847      -266.9395   15-A"
  34   1.0000      -9.809805      -266.9384   16-A"
  35   1.0000      -9.809582      -266.9323   20-A'
  36   1.0000      -9.809341      -266.9258   17-A"
  37   1.0000      -7.341516      -199.7728   18-A"
  38   1.0000      -7.341466      -199.7715   19-A"
  39   1.0000      -7.334303      -199.5765   21-A'
  40   1.0000      -7.334184      -199.5733   22-A'
  41   1.0000      -5.404768      -147.0712   20-A"
  42   1.0000      -5.404748      -147.0707   23-A'
  43   1.0000      -5.404640      -147.0677   21-A"
  44   1.0000      -5.404624      -147.0673   24-A'
  45   1.0000      -5.399416      -146.9256   22-A"
  46   1.0000      -5.399391      -146.9249   25-A'
  47   1.0000      -5.399304      -146.9225   23-A"
  48   1.0000      -5.399278      -146.9218   26-A'
  49   1.0000      -5.399062      -146.9160   24-A"
  50   1.0000      -5.399036      -146.9152   27-A'
  51   1.0000      -5.398940      -146.9126   25-A"
  52   1.0000      -5.398914      -146.9119   28-A'
  53   1.0000      -4.022224      -109.4503   29-A'
  54   1.0000      -2.541779       -69.1653   26-A"
  55   1.0000      -2.540828       -69.1394   30-A'
  56   1.0000      -2.517347       -68.5005   31-A'
  57   1.0000      -1.743761       -47.4502   32-A'
  58   1.0000      -1.743732       -47.4494   27-A"
  59   1.0000      -1.743644       -47.4470   33-A'
  60   1.0000      -1.743615       -47.4462   28-A"
  61   1.0000      -1.741099       -47.3777   34-A'
  62   1.0000      -1.741019       -47.3755   29-A"
  63   1.0000      -1.740980       -47.3745   35-A'
  64   1.0000      -1.740901       -47.3723   30-A"
  65   1.0000      -1.740321       -47.3565   36-A'
  66   1.0000      -1.740314       -47.3563   31-A"
  67   1.0000      -1.740196       -47.3531   37-A'
  68   1.0000      -1.740189       -47.3530   32-A"
  69   1.0000      -1.735986       -47.2386   38-A'
  70   1.0000      -1.735919       -47.2367   33-A"
  71   1.0000      -1.735886       -47.2359   39-A'
  72   1.0000      -1.735867       -47.2353   40-A'
  73   1.0000      -1.735862       -47.2352   34-A"
  74   1.0000      -1.735800       -47.2335   35-A"
  75   1.0000      -1.735767       -47.2326   41-A'
  76   1.0000      -1.735743       -47.2320   36-A"
  77   1.0000      -0.603079       -16.4106   42-A'
  78   1.0000      -0.602875       -16.4050   43-A'
  79   1.0000      -0.522116       -14.2075   44-A'
  80   1.0000      -0.521374       -14.1873   45-A'
  81   1.0000      -0.498587       -13.5673   37-A"
  82   1.0000      -0.498177       -13.5561   38-A"
  83   1.0000      -0.412729       -11.2309   39-A"
  84   1.0000      -0.411558       -11.1991   40-A"
  85   1.0000      -0.382831       -10.4173   46-A'
  86   1.0000      -0.378142       -10.2898   47-A'
  87   1.0000      -0.319244        -8.6871   48-A'
  88   1.0000      -0.316912        -8.6236   49-A'
  89   1.0000      -0.285728        -7.7751   41-A"
  90   1.0000      -0.282310        -7.6821   42-A"
  91   1.0000      -0.228128        -6.2077   50-A'
  92   1.0000      -0.221404        -6.0247   51-A'
  93   1.0000      -0.200818        -5.4645   52-A'
  94   1.0000      -0.199698        -5.4341   53-A'
  95   1.0000      -0.168374        -4.5817   43-A"
  96   1.0000      -0.163619        -4.4523   44-A"
  97   1.0000      -0.138237        -3.7616   45-A"
  98   1.0000      -0.137149        -3.7320   54-A'
  99   1.0000      -0.136266        -3.7080   46-A"
 100   1.0000      -0.131418        -3.5761   55-A'
 101   1.0000      -0.130884        -3.5615   56-A'
 102   1.0000      -0.110342        -3.0026   57-A'
 103   1.0000      -0.081831        -2.2267   58-A'
 104   1.0000      -0.071135        -1.9357   47-A"
 105   1.0000      -0.065689        -1.7875   48-A"
 106   1.0000      -0.063094        -1.7169   59-A'
 107   1.0000      -0.049714        -1.3528   60-A'
 108   1.0000      -0.048783        -1.3274   61-A'
 109   1.0000      -0.032126        -0.8742   49-A"
 110   1.0000      -0.030184        -0.8213   50-A"
 111   1.0000      -0.030068        -0.8182   62-A'
 112   1.0000      -0.025130        -0.6838   51-A"
 113   1.0000      -0.001648        -0.0448   52-A"
 114   1.0000      -0.001548        -0.0421   63-A'
 115   1.0000       0.000169         0.0046   64-A'
 116   1.0000       0.018661         0.5078   65-A'
 117   1.0000       0.020350         0.5537   66-A'
 118   1.0000       0.039632         1.0784   53-A"
 119   1.0000       0.055172         1.5013   54-A"
 120   1.0000       0.055434         1.5084   55-A"
 121   1.0000       0.069667         1.8957   67-A'
 122   1.0000       0.098460         2.6792   68-A'
 123   1.0000       0.116145         3.1605   56-A"
 124   0.0000       0.180846         4.9211   69-A'
 125   0.0000       0.181192         4.9305   70-A'
 126   0.0000       0.195791         5.3277   57-A"
 127   0.0000       0.196239         5.3399   58-A"
 128   0.0000       0.200160         5.4466   71-A'

                 SPIN DOWN ORBITALS
  NO   OCC          E(Eh)            E(eV)    Irrep
   0   1.0000    -443.560390    -12069.8918    1-A"
   1   1.0000    -443.559313    -12069.8625    2-A"
   2   1.0000    -443.546085    -12069.5026    1-A'
   3   1.0000    -443.545890    -12069.4973    2-A'
   4   1.0000    -318.187252     -8658.3153    3-A'
   5   1.0000     -56.369755     -1533.8990    3-A"
   6   1.0000     -56.369445     -1533.8906    4-A"
   7   1.0000     -56.357035     -1533.5529    4-A'
   8   1.0000     -56.356777     -1533.5459    5-A'
   9   1.0000     -51.286326     -1395.5719    5-A"
  10   1.0000     -51.286256     -1395.5700    6-A'
  11   1.0000     -51.286245     -1395.5697    6-A"
  12   1.0000     -51.286203     -1395.5685    7-A'
  13   1.0000     -51.284623     -1395.5255    7-A"
  14   1.0000     -51.284576     -1395.5243    8-A"
  15   1.0000     -51.284569     -1395.5241    8-A'
  16   1.0000     -51.284550     -1395.5236    9-A"
  17   1.0000     -51.284523     -1395.5228    9-A'
  18   1.0000     -51.284511     -1395.5225   10-A"
  19   1.0000     -51.284502     -1395.5222   10-A'
  20   1.0000     -51.284454     -1395.5209   11-A'
  21   1.0000     -38.014039     -1034.4146   12-A'
  22   1.0000     -33.516794      -912.0383   11-A"
  23   1.0000     -33.515990      -912.0165   13-A'
  24   1.0000     -33.514163      -911.9667   14-A'
  25   1.0000      -9.818901      -267.1859   15-A'
  26   1.0000      -9.818455      -267.1737   12-A"
  27   1.0000      -9.818212      -267.1671   16-A'
  28   1.0000      -9.817766      -267.1550   13-A"
  29   1.0000      -9.810689      -266.9624   17-A'
  30   1.0000      -9.810630      -266.9608   14-A"
  31   1.0000      -9.810210      -266.9494   18-A'
  32   1.0000      -9.810046      -266.9449   19-A'
  33   1.0000      -9.809817      -266.9387   15-A"
  34   1.0000      -9.809767      -266.9373   16-A"
  35   1.0000      -9.809493      -266.9299   20-A'
  36   1.0000      -9.809319      -266.9251   17-A"
  37   1.0000      -7.341115      -199.7619   18-A"
  38   1.0000      -7.341068      -199.7606   19-A"
  39   1.0000      -7.333896      -199.5654   21-A'
  40   1.0000      -7.333777      -199.5622   22-A'
  41   1.0000      -5.404402      -147.0613   20-A"
  42   1.0000      -5.404381      -147.0607   23-A'
  43   1.0000      -5.404274      -147.0578   21-A"
  44   1.0000      -5.404257      -147.0573   24-A'
  45   1.0000      -5.398751      -146.9075   22-A"
  46   1.0000      -5.398725      -146.9068   25-A'
  47   1.0000      -5.398628      -146.9041   23-A"
  48   1.0000      -5.398602      -146.9034   26-A'
  49   1.0000      -5.398589      -146.9031   24-A"
  50   1.0000      -5.398565      -146.9024   27-A'
  51   1.0000      -5.398479      -146.9001   25-A"
  52   1.0000      -5.398453      -146.8994   28-A'
  53   1.0000      -3.993999      -108.6822   29-A'
  54   1.0000      -2.507025       -68.2196   30-A'
  55   1.0000      -2.506538       -68.2064   26-A"
  56   1.0000      -2.505512       -68.1784   31-A'
  57   1.0000      -1.743314       -47.4380   32-A'
  58   1.0000      -1.743284       -47.4372   27-A"
  59   1.0000      -1.743197       -47.4348   33-A'
  60   1.0000      -1.743167       -47.4340   28-A"
  61   1.0000      -1.740199       -47.3532   34-A'
  62   1.0000      -1.740117       -47.3510   29-A"
  63   1.0000      -1.740082       -47.3500   35-A'
  64   1.0000      -1.740012       -47.3481   36-A'
  65   1.0000      -1.740004       -47.3479   30-A"
  66   1.0000      -1.740000       -47.3478   31-A"
  67   1.0000      -1.739888       -47.3447   37-A'
  68   1.0000      -1.739880       -47.3445   32-A"
  69   1.0000      -1.735185       -47.2168   38-A'
  70   1.0000      -1.735127       -47.2152   33-A"
  71   1.0000      -1.735112       -47.2148   39-A'
  72   1.0000      -1.735086       -47.2141   34-A"
  73   1.0000      -1.735067       -47.2136   40-A'
  74   1.0000      -1.735009       -47.2120   35-A"
  75   1.0000      -1.734994       -47.2116   41-A'
  76   1.0000      -1.734967       -47.2109   36-A"
  77   1.0000      -0.602273       -16.3887   42-A'
  78   1.0000      -0.602082       -16.3835   43-A'
  79   1.0000      -0.520964       -14.1761   44-A'
  80   1.0000      -0.520258       -14.1570   45-A'
  81   1.0000      -0.496865       -13.5204   37-A"
  82   1.0000      -0.496457       -13.5093   38-A"
  83   1.0000      -0.410047       -11.1580   39-A"
  84   1.0000      -0.408855       -11.1255   40-A"
  85   1.0000      -0.380266       -10.3476   46-A'
  86   1.0000      -0.375763       -10.2250   47-A'
  87   1.0000      -0.317516        -8.6401   48-A'
  88   1.0000      -0.315030        -8.5724   49-A'
  89   1.0000      -0.283284        -7.7085   41-A"
  90   1.0000      -0.279601        -7.6083   42-A"
  91   1.0000      -0.227001        -6.1770   50-A'
  92   1.0000      -0.220355        -5.9962   51-A'
  93   1.0000      -0.199512        -5.4290   52-A'
  94   1.0000      -0.198471        -5.4007   53-A'
  95   1.0000      -0.166993        -4.5441   43-A"
  96   1.0000      -0.161671        -4.3993   44-A"
  97   1.0000      -0.137323        -3.7367   45-A"
  98   1.0000      -0.135249        -3.6803   54-A'
  99   1.0000      -0.134439        -3.6583   46-A"
 100   1.0000      -0.131023        -3.5653   55-A'
 101   1.0000      -0.130403        -3.5484   56-A'
 102   1.0000      -0.108580        -2.9546   57-A'
 103   1.0000      -0.080520        -2.1911   58-A'
 104   1.0000      -0.069710        -1.8969   47-A"
 105   1.0000      -0.060974        -1.6592   59-A'
 106   1.0000      -0.054346        -1.4788   48-A"
 107   1.0000      -0.048548        -1.3210   60-A'
 108   1.0000      -0.048199        -1.3116   61-A'
 109   1.0000      -0.029068        -0.7910   49-A"
 110   1.0000      -0.024085        -0.6554   50-A"
 111   1.0000      -0.023663        -0.6439   62-A'
 112   1.0000      -0.002928        -0.0797   51-A"
 113   1.0000       0.008042         0.2188   52-A"
 114   1.0000       0.009449         0.2571   63-A'
 115   1.0000       0.010717         0.2916   64-A'
 116   1.0000       0.028561         0.7772   65-A'
 117   1.0000       0.031568         0.8590   66-A'
 118   1.0000       0.049818         1.3556   53-A"
 119   1.0000       0.058087         1.5806   54-A"
 120   1.0000       0.059075         1.6075   55-A"
 121   1.0000       0.071415         1.9433   67-A'
 122   1.0000       0.101736         2.7684   68-A'
 123   0.0000       0.145910         3.9704   56-A"
 124   0.0000       0.182663         4.9705   69-A'
 125   0.0000       0.183047         4.9810   70-A'
 126   0.0000       0.199014         5.4154   57-A"
 127   0.0000       0.199557         5.4302   58-A"

MULLIKEN ATOMIC CHARGES AND SPIN POPULATIONS
--------------------------------------------
   0 Cu:    0.638814    0.309229
   1 Se:   -0.726018    0.173435
   2 C :    0.218820   -0.003399
   3 Se:   -0.723527    0.173613
   4 C :    0.217907   -0.003468
   5 Se:   -0.726018    0.173435
   6 C :    0.218820   -0.003398
   7 Se:   -0.723527    0.173613
   8 C :    0.217907   -0.003468
   9 C :   -0.076715   -0.000869
  10 C :   -0.076715   -0.000869
  11 C :   -0.150699   -0.000678
  12 H :    0.064256    0.002548
  13 C :   -0.150699   -0.000678
  14 H :    0.064256    0.002548
  15 H :    0.008995    0.001657
  16 H :    0.008995    0.001657
  17 C :   -0.083008   -0.001021
  18 C :   -0.083008   -0.001021
  19 C :   -0.152176   -0.000687
  20 H :    0.070773    0.002610
  21 C :   -0.152176   -0.000687
  22 H :    0.070773    0.002610
  23 H :    0.011985    0.001645
  24 H :    0.011985    0.001645
Sum of atomic charges         :   -2.0000000

LOEWDIN ATOMIC CHARGES AND SPIN POPULATIONS
-------------------------------------------
   0 Cu:   -0.617318    0.390268
   1 Se:   -0.206346    0.123588
   2 C :    0.037127    0.011604
   3 Se:   -0.207517    0.123764
   4 C :    0.036752    0.011553
   5 Se:   -0.206346    0.123588
   6 C :    0.037127    0.011604
   7 Se:   -0.207517    0.123764
   8 C :    0.036752    0.011553
   9 C :    0.356591    0.007197
  10 C :    0.356591    0.007197
  11 C :    0.302334    0.000542
  12 H :   -0.434146    0.008996
  13 C :    0.302334    0.000542
  14 H :   -0.434146    0.008996
  15 H :   -0.399681    0.000451
  16 H :   -0.399681    0.000451
  17 C :    0.360085    0.007124
  18 C :    0.360085    0.007124
  19 C :    0.306660    0.000516
  20 H :   -0.440380    0.009096
  21 C :    0.306660    0.000516
  22 H :   -0.440380    0.009096
  23 H :   -0.402820    0.000436
  24 H :   -0.402820    0.000436

  Mayer bond orders larger than 0.100000
B(  0-Cu,  1-Se) :   0.5494 B(  0-Cu,  3-Se) :   0.5491 B(  0-Cu,  5-Se) :   0.5494
B(  0-Cu,  7-Se) :   0.5491 B(  1-Se,  2-C ) :   1.0365 B(  2-C ,  6-C ) :   1.1402
B(  2-C , 17-C ) :   1.2547 B(  3-Se,  4-C ) :   1.0357 B(  4-C ,  8-C ) :   1.1423
B(  4-C , 10-C ) :   1.2538 B(  5-Se,  6-C ) :   1.0365 B(  6-C , 18-C ) :   1.2547
B(  7-Se,  8-C ) :   1.0357 B(  8-C ,  9-C ) :   1.2538 B(  9-C , 13-C ) :   1.3811
B(  9-C , 14-H ) :   0.9749 B( 10-C , 11-C ) :   1.3811 B( 10-C , 12-H ) :   0.9749
B( 11-C , 13-C ) :   1.3089 B( 11-C , 15-H ) :   1.0038 B( 13-C , 16-H ) :   1.0038
B( 17-C , 19-C ) :   1.3806 B( 17-C , 20-H ) :   0.9716 B( 18-C , 21-C ) :   1.3806
B( 18-C , 22-H ) :   0.9716 B( 19-C , 21-C ) :   1.3098 B( 19-C , 23-H ) :   1.0020
B( 21-C , 24-H ) :   1.0020

FINAL SINGLE POINT ENERGY    -11627.124492467137

DIPOLE MOMENT
-------------
                                X             Y             Z
Electronic contribution:      0.03619       0.07671      -0.00000
Nuclear contribution   :     -0.02278      -0.09871       0.00000
                        -----------------------------------------
Total Dipole Moment    :      0.01342      -0.02200      -0.00000
                        -----------------------------------------
Magnitude (a.u.)       :      0.02577
Magnitude (Debye)      :      0.06549

Rotational constants in cm-1:     0.017602     0.004097     0.003325
Rotational constants in MHz :   527.698884   122.829384    99.666038

                             ****ORCA TERMINATED NORMALLY****
TOTAL RUN TIME: 0 days 19 hours 20 minutes 1 seconds 759 msec
