                         Program Version 5.0.4 -  RELEASE  -
|  1> ! RIJCOSX nofrozencore ReducedPop printbasis
|  2> ! M06L ano-rcc-dzp autoaux
|  3>
|  4> %maxcore 7500
|  5> %basis
|  6> PCDTrimBas overlap
|  7> PCDTrimAuxJ Coulomb
|  8> PCDTrimAuxJK Coulomb
|  9> PCDTrimAuxC Coulomb
| 10> PCDThresh -1
| 11> end
| 12>
| 13> %basis
| 14> newgto Cu "ano-rcc-tzp" end
| 15> newgto Se "ano-rcc-tzp" end
| 16> end
| 17>
| 18> %pal
| 19> nprocs 8
| 20> end
| 21>
| 22> % sym SymThresh 1e-2 end
| 23> * xyz -2 2
| 24> Cu 6.113119561295668e-06 2.68441918267778e-06 2.7246399543748566e-06
| 25> Se -1.3696161351828124 0.23866893921870194 1.9170810808661995
| 26> C -0.389821045922185 0.9001113950751574 3.04933881352089
| 27> Se -1.6805207511874944 -0.9458449484270997 -1.374463951959147
| 28> C -0.9419072289053947 -1.2088666815488431 -2.8124052032999884
| 29> Se 1.6805774304036265 0.9458479542288921 1.37442337571469
| 30> C 0.9411964265505403 1.2083702329218025 2.811533857345133
| 31> Se 1.369694496083129 -0.23862796401998992 -1.9170264036095739
| 32> C 0.3886602113668941 -0.9002066538784403 -3.0486091629910885
| 33> C 0.8765781985716705 -1.1805830034872196 -4.31929350976927
| 34> C -1.65802944429079 -1.768284370945057 -3.8685424355549234
| 35> C -1.1623047767739247 -2.0430055820982074 -5.129047063842277
| 36> H -2.624749857625904 -1.989842780625229 -3.6888125915050836
| 37> C 0.17112442967356453 -1.7335705175681855 -5.365424566682797
| 38> H 1.9484597812691289 -0.929535160341638 -4.502364273188621
| 39> H -1.7948344777774397 -2.474848557449214 -5.874544002436523
| 40> H 0.6491089440189517 -1.9112680480769404 -6.31849354772724
| 41> C -0.8516997363385398 1.1864955422242085 4.315302249742878
| 42> C 1.6836915717800323 1.7742633156521908 3.8640649091267583
| 43> C -0.1693207195530586 1.7318557254864655 5.3586864012115685
| 44> H -2.231865094153311 0.8639057454426997 4.553017359314165
| 45> C 1.1650287162610458 2.0454816115749703 5.134111781178981
| 46> H 2.331113841268978 1.9216090560465846 3.7405867697521664
| 47> H -0.680011838716027 1.9237189116453783 6.383006935188616
| 48> H 1.757929891316187 2.4489074225310765 5.828805492947441
| 49> *
| 50>
| 51> % eprnmr
| 52> gtensor true
| 53> Nuclei = all H {aiso,adip,aorb,fgrad,rho}
| 54> Nuclei = all Cu {aiso,adip,aorb,fgrad,rho}
| 55> end
| 56>
| 57>                          ****END OF INPUT****

CARTESIAN COORDINATES (ANGSTROEM)
---------------------------------
  Cu     0.000003    0.000007    0.000000
  Se     1.955326   -1.335931    0.000000
  C      3.192335   -0.263867    0.000000
  Se    -1.524183   -1.812399    0.000000
  C     -3.004071   -1.110732    0.000000
  Se     1.524143    1.812456    0.000000
  C      3.003122    1.109952    0.000000
  Se    -1.955264    1.336015    0.000000
  C     -3.191620    0.262694    0.000000
  C     -4.506941    0.711295    0.000000
  C     -4.148832   -1.904917    0.000000
  C     -5.453078   -1.447719    0.000000
  H     -4.004024   -2.902398    0.000000
  C     -5.640677   -0.071324    0.000000
  H     -4.650436    1.818038    0.000000
  H     -6.266967   -2.140491    0.000000
  H     -6.622080    0.381704    0.000000
  C      4.503883   -0.685595    0.000000
  C      4.145297    1.931409    0.000000
  C      5.633667    0.072888    0.000000
  H      4.690744   -2.110556    0.000000
  C      5.458535    1.450789    0.000000
  H      4.045042    2.599288    0.000000
  H      6.688579   -0.410859    0.000000
  H      6.217120    2.099968    0.000000

 Total Charge           Charge          ....   -2
 Multiplicity           Mult            ....    2
 Number of Electrons    NEL             ....  247
 Basis Dimension        Dim             ....  575

ORBITAL ENERGIES
----------------
                 SPIN UP ORBITALS
  NO   OCC          E(Eh)            E(eV)    Irrep
   0   1.0000    -443.562315    -12069.9442    1-A'
   1   1.0000    -443.561059    -12069.9100    2-A'
   2   1.0000    -443.547625    -12069.5445    3-A'
   3   1.0000    -443.547030    -12069.5283    4-A'
   4   1.0000    -318.187234     -8658.3148    5-A'
   5   1.0000     -56.370891     -1533.9299    6-A'
   6   1.0000     -56.370177     -1533.9105    7-A'
   7   1.0000     -56.357799     -1533.5737    8-A'
   8   1.0000     -56.357109     -1533.5549    9-A'
   9   1.0000     -51.287605     -1395.6067   10-A'
  10   1.0000     -51.286370     -1395.5731   11-A'
  11   1.0000     -51.286319     -1395.5717   12-A'
  12   1.0000     -51.286254     -1395.5699   13-A'
  13   1.0000     -51.286189     -1395.5682   14-A'
  14   1.0000     -51.285841     -1395.5587    1-A"
  15   1.0000     -51.285013     -1395.5362   15-A'
  16   1.0000     -51.284968     -1395.5349   16-A'
  17   1.0000     -51.284848     -1395.5317   17-A'
  18   1.0000     -51.284570     -1395.5241    2-A"
  19   1.0000     -51.284516     -1395.5226    3-A"
  20   1.0000     -51.284407     -1395.5197    4-A"
  21   1.0000     -38.027792     -1034.7888   18-A'
  22   1.0000     -33.529859      -912.3939   19-A'
  23   1.0000     -33.529065      -912.3722   20-A'
  24   1.0000     -33.517852      -912.0671    5-A"
  25   1.0000      -9.835505      -267.6377   21-A'
  26   1.0000      -9.824352      -267.3342   22-A'
  27   1.0000      -9.815147      -267.0837   23-A'
  28   1.0000      -9.814010      -267.0528   24-A'
  29   1.0000      -9.811183      -266.9759   25-A'
  30   1.0000      -9.810354      -266.9533   26-A'
  31   1.0000      -9.810292      -266.9516   27-A'
  32   1.0000      -9.809900      -266.9409   28-A'
  33   1.0000      -9.808301      -266.8974   29-A'
  34   1.0000      -9.807829      -266.8846   30-A'
  35   1.0000      -9.799365      -266.6543   31-A'
  36   1.0000      -9.780922      -266.1524   32-A'
  37   1.0000      -7.341932      -199.7841   33-A'
  38   1.0000      -7.341242      -199.7654   34-A'
  39   1.0000      -7.334471      -199.5811   35-A'
  40   1.0000      -7.333847      -199.5641   36-A'
  41   1.0000      -5.405202      -147.0830   37-A'
  42   1.0000      -5.404434      -147.0621   38-A'
  43   1.0000      -5.404102      -147.0531   39-A'
  44   1.0000      -5.404003      -147.0504   40-A'
  45   1.0000      -5.399910      -146.9390   41-A'
  46   1.0000      -5.399599      -146.9305    6-A"
  47   1.0000      -5.398955      -146.9130   42-A'
  48   1.0000      -5.398799      -146.9088   43-A'
  49   1.0000      -5.398714      -146.9065   44-A'
  50   1.0000      -5.398535      -146.9016    7-A"
  51   1.0000      -5.398411      -146.8982    8-A"
  52   1.0000      -5.398293      -146.8950    9-A"
  53   1.0000      -4.022089      -109.4466   45-A'
  54   1.0000      -2.541670       -69.1624   46-A'
  55   1.0000      -2.540729       -69.1368   47-A'
  56   1.0000      -2.517128       -68.4945   10-A"
  57   1.0000      -1.744216       -47.4625   48-A'
  58   1.0000      -1.743432       -47.4412   49-A'
  59   1.0000      -1.743104       -47.4323   50-A'
  60   1.0000      -1.743019       -47.4299   51-A'
  61   1.0000      -1.741507       -47.3888   52-A'
  62   1.0000      -1.740780       -47.3690   11-A"
  63   1.0000      -1.740660       -47.3658   53-A'
  64   1.0000      -1.740439       -47.3597   54-A'
  65   1.0000      -1.740293       -47.3558   55-A'
  66   1.0000      -1.739940       -47.3462   12-A"
  67   1.0000      -1.739638       -47.3379   13-A"
  68   1.0000      -1.739581       -47.3364   14-A"
  69   1.0000      -1.736443       -47.2510   56-A'
  70   1.0000      -1.736439       -47.2509   15-A"
  71   1.0000      -1.735457       -47.2242   57-A'
  72   1.0000      -1.735332       -47.2208   16-A"
  73   1.0000      -1.735306       -47.2201   58-A'
  74   1.0000      -1.735286       -47.2195   17-A"
  75   1.0000      -1.735224       -47.2178   59-A'
  76   1.0000      -1.735115       -47.2149   18-A"
  77   1.0000      -0.606776       -16.5112   60-A'
  78   1.0000      -0.602458       -16.3937   61-A'
  79   1.0000      -0.524784       -14.2801   62-A'
  80   1.0000      -0.521240       -14.1837   63-A'
  81   1.0000      -0.512648       -13.9499   64-A'
  82   1.0000      -0.500116       -13.6089   65-A'
  83   1.0000      -0.422253       -11.4901   66-A'
  84   1.0000      -0.413173       -11.2430   67-A'
  85   1.0000      -0.389879       -10.6091   68-A'
  86   1.0000      -0.381502       -10.3812   69-A'
  87   1.0000      -0.339824        -9.2471   70-A'
  88   1.0000      -0.322003        -8.7622   71-A'
  89   1.0000      -0.287946        -7.8354   72-A'
  90   1.0000      -0.284461        -7.7406   73-A'
  91   1.0000      -0.234692        -6.3863   74-A'
  92   1.0000      -0.226708        -6.1691   75-A'
  93   1.0000      -0.204086        -5.5535   76-A'
  94   1.0000      -0.199942        -5.4407   77-A'
  95   1.0000      -0.177319        -4.8251   78-A'
  96   1.0000      -0.169967        -4.6250   79-A'
  97   1.0000      -0.141006        -3.8370   80-A'
  98   1.0000      -0.138813        -3.7773   81-A'
  99   1.0000      -0.135842        -3.6964   82-A'
 100   1.0000      -0.131758        -3.5853   19-A"
 101   1.0000      -0.130226        -3.5436   20-A"
 102   1.0000      -0.107170        -2.9163   83-A'
 103   1.0000      -0.077093        -2.0978   84-A'
 104   1.0000      -0.072669        -1.9774   85-A'
 105   1.0000      -0.066333        -1.8050   86-A'
 106   1.0000      -0.057893        -1.5754   87-A'
 107   1.0000      -0.049653        -1.3511   21-A"
 108   1.0000      -0.047982        -1.3057   22-A"
 109   1.0000      -0.033703        -0.9171   23-A"
 110   1.0000      -0.029945        -0.8148   88-A'
 111   1.0000      -0.029652        -0.8069   89-A'
 112   1.0000      -0.027384        -0.7451   24-A"
 113   1.0000      -0.002167        -0.0590   25-A"
 114   1.0000      -0.001266        -0.0345   26-A"
 115   1.0000       0.000381         0.0104   90-A'
 116   1.0000       0.018973         0.5163   91-A'
 117   1.0000       0.020761         0.5649   92-A'
 118   1.0000       0.040780         1.1097   93-A'
 119   1.0000       0.054324         1.4782   27-A"
 120   1.0000       0.055770         1.5176   28-A"
 121   1.0000       0.069962         1.9038   29-A"
 122   1.0000       0.098900         2.6912   30-A"
 123   1.0000       0.116041         3.1576   94-A'
 124   0.0000       0.179680         4.8893   95-A'
 125   0.0000       0.182430         4.9642   96-A'
 126   0.0000       0.194812         5.3011   97-A'
 127   0.0000       0.196544         5.3482   98-A'
 128   0.0000       0.201169         5.4741   31-A"

                 SPIN DOWN ORBITALS
  NO   OCC          E(Eh)            E(eV)    Irrep
   0   1.0000    -443.561863    -12069.9319    1-A'
   1   1.0000    -443.560606    -12069.8977    2-A'
   2   1.0000    -443.547171    -12069.5321    3-A'
   3   1.0000    -443.546577    -12069.5160    4-A'
   4   1.0000    -318.187111     -8658.3115    5-A'
   5   1.0000     -56.370707     -1533.9249    6-A'
   6   1.0000     -56.369993     -1533.9055    7-A'
   7   1.0000     -56.357617     -1533.5687    8-A'
   8   1.0000     -56.356928     -1533.5500    9-A'
   9   1.0000     -51.287279     -1395.5978   10-A'
  10   1.0000     -51.286043     -1395.5642   11-A'
  11   1.0000     -51.285991     -1395.5628   12-A'
  12   1.0000     -51.285863     -1395.5593   13-A'
  13   1.0000     -51.285592     -1395.5519    1-A"
  14   1.0000     -51.285535     -1395.5504   14-A'
  15   1.0000     -51.284319     -1395.5173    2-A"
  16   1.0000     -51.284277     -1395.5161   15-A'
  17   1.0000     -51.284265     -1395.5158    3-A"
  18   1.0000     -51.284221     -1395.5146   16-A'
  19   1.0000     -51.284159     -1395.5129    4-A"
  20   1.0000     -51.284120     -1395.5119   17-A'
  21   1.0000     -38.013873     -1034.4101   18-A'
  22   1.0000     -33.516633      -912.0340   19-A'
  23   1.0000     -33.515839      -912.0124   20-A'
  24   1.0000     -33.513964      -911.9613    5-A"
  25   1.0000      -9.835384      -267.6344   21-A'
  26   1.0000      -9.824302      -267.3328   22-A'
  27   1.0000      -9.815097      -267.0824   23-A'
  28   1.0000      -9.813960      -267.0514   24-A'
  29   1.0000      -9.811201      -266.9763   25-A'
  30   1.0000      -9.810316      -266.9523   26-A'
  31   1.0000      -9.810307      -266.9520   27-A'
  32   1.0000      -9.809781      -266.9377   28-A'
  33   1.0000      -9.808320      -266.8980   29-A'
  34   1.0000      -9.807846      -266.8851   30-A'
  35   1.0000      -9.799246      -266.6510   31-A'
  36   1.0000      -9.780814      -266.1495   32-A'
  37   1.0000      -7.341533      -199.7733   33-A'
  38   1.0000      -7.340843      -199.7545   34-A'
  39   1.0000      -7.334063      -199.5700   35-A'
  40   1.0000      -7.333440      -199.5530   36-A'
  41   1.0000      -5.404837      -147.0731   37-A'
  42   1.0000      -5.404072      -147.0523   38-A'
  43   1.0000      -5.403733      -147.0430   39-A'
  44   1.0000      -5.403639      -147.0405   40-A'
  45   1.0000      -5.399285      -146.9220    6-A"
  46   1.0000      -5.399099      -146.9170   41-A'
  47   1.0000      -5.398223      -146.8931    7-A"
  48   1.0000      -5.398114      -146.8901   42-A'
  49   1.0000      -5.398096      -146.8897    8-A"
  50   1.0000      -5.397983      -146.8866    9-A"
  51   1.0000      -5.397974      -146.8863   43-A'
  52   1.0000      -5.397895      -146.8842   44-A'
  53   1.0000      -3.993796      -108.6767   45-A'
  54   1.0000      -2.506778       -68.2129   10-A"
  55   1.0000      -2.506354       -68.2014   46-A'
  56   1.0000      -2.505334       -68.1736   47-A'
  57   1.0000      -1.743765       -47.4503   48-A'
  58   1.0000      -1.742986       -47.4291   49-A'
  59   1.0000      -1.742650       -47.4199   50-A'
  60   1.0000      -1.742573       -47.4178   51-A'
  61   1.0000      -1.740628       -47.3649   52-A'
  62   1.0000      -1.740470       -47.3606   11-A"
  63   1.0000      -1.739744       -47.3408   53-A'
  64   1.0000      -1.739637       -47.3379   12-A"
  65   1.0000      -1.739541       -47.3353   54-A'
  66   1.0000      -1.739396       -47.3314   55-A'
  67   1.0000      -1.739328       -47.3295   13-A"
  68   1.0000      -1.739275       -47.3281   14-A"
  69   1.0000      -1.735676       -47.2301   15-A"
  70   1.0000      -1.735651       -47.2295   56-A'
  71   1.0000      -1.734647       -47.2021   57-A'
  72   1.0000      -1.734550       -47.1995   16-A"
  73   1.0000      -1.734512       -47.1985   17-A"
  74   1.0000      -1.734504       -47.1982   58-A'
  75   1.0000      -1.734433       -47.1963   59-A'
  76   1.0000      -1.734352       -47.1941   18-A"
  77   1.0000      -0.605987       -16.4897   60-A'
  78   1.0000      -0.601650       -16.3717   61-A'
  79   1.0000      -0.523619       -14.2484   62-A'
  80   1.0000      -0.520121       -14.1532   63-A'
  81   1.0000      -0.511374       -13.9152   64-A'
  82   1.0000      -0.498456       -13.5637   65-A'
  83   1.0000      -0.419233       -11.4079   66-A'
  84   1.0000      -0.410462       -11.1692   67-A'
  85   1.0000      -0.387948       -10.5566   68-A'
  86   1.0000      -0.379219       -10.3191   69-A'
  87   1.0000      -0.337721        -9.1899   70-A'
  88   1.0000      -0.320143        -8.7115   71-A'
  89   1.0000      -0.285540        -7.7699   72-A'
  90   1.0000      -0.281810        -7.6684   73-A'
  91   1.0000      -0.233506        -6.3540   74-A'
  92   1.0000      -0.225569        -6.1380   75-A'
  93   1.0000      -0.202547        -5.5116   76-A'
  94   1.0000      -0.198659        -5.4058   77-A'
  95   1.0000      -0.176008        -4.7894   78-A'
  96   1.0000      -0.168113        -4.5746   79-A'
  97   1.0000      -0.140045        -3.8108   80-A'
  98   1.0000      -0.137129        -3.7315   81-A'
  99   1.0000      -0.133727        -3.6389   82-A'
 100   1.0000      -0.131380        -3.5750   19-A"
 101   1.0000      -0.129838        -3.5331   20-A"
 102   1.0000      -0.105181        -2.8621   83-A'
 103   1.0000      -0.075522        -2.0551   84-A'
 104   1.0000      -0.071076        -1.9341   85-A'
 105   1.0000      -0.057392        -1.5617   86-A'
 106   1.0000      -0.053309        -1.4506   87-A'
 107   1.0000      -0.048714        -1.3256   21-A"
 108   1.0000      -0.047212        -1.2847   22-A"
 109   1.0000      -0.031332        -0.8526   23-A"
 110   1.0000      -0.026420        -0.7189   24-A"
 111   1.0000      -0.023363        -0.6357   88-A'
 112   1.0000      -0.002166        -0.0589   89-A'
 113   1.0000       0.007476         0.2034   25-A"
 114   1.0000       0.009955         0.2709   26-A"
 115   1.0000       0.010729         0.2919   90-A'
 116   1.0000       0.028924         0.7870   91-A'
 117   1.0000       0.031877         0.8674   92-A'
 118   1.0000       0.052039         1.4161   93-A'
 119   1.0000       0.056289         1.5317   27-A"
 120   1.0000       0.059295         1.6135   28-A"
 121   1.0000       0.071704         1.9512   29-A"
 122   1.0000       0.102161         2.7800   30-A"
 123   0.0000       0.145910         3.9704   94-A'
 124   0.0000       0.181377         4.9355   95-A'
 125   0.0000       0.184283         5.0146   96-A'
 126   0.0000       0.196856         5.3567   97-A'
 127   0.0000       0.199701         5.4341   98-A'

MULLIKEN ATOMIC CHARGES AND SPIN POPULATIONS
--------------------------------------------
   0 Cu:    0.642766    0.310283
   1 Se:   -0.697551    0.173878
   2 C :    0.222557   -0.002847
   3 Se:   -0.741929    0.174511
   4 C :    0.213998   -0.003296
   5 Se:   -0.759719    0.172526
   6 C :    0.187136   -0.002898
   7 Se:   -0.731431    0.172578
   8 C :    0.222750   -0.003033
   9 C :   -0.083950   -0.001286
  10 C :   -0.160808   -0.002051
  11 C :   -0.178893   -0.000611
  12 H :    0.185000    0.003070
  13 C :   -0.157322   -0.000709
  14 H :    0.054210    0.002618
  15 H :    0.035333    0.001532
  16 H :    0.025696    0.001567
  17 C :   -0.010513    0.000264
  18 C :   -0.918486   -0.004574
  19 C :   -0.114105   -0.001070
  20 H :   -0.112999    0.002236
  21 C :   -0.265443   -0.000551
  22 H :    1.058593    0.005082
  23 H :   -0.043475    0.001888
  24 H :    0.128584    0.000894
Sum of atomic charges         :   -2.0000000

LOEWDIN ATOMIC CHARGES AND SPIN POPULATIONS
-------------------------------------------
   0 Cu:   -0.615292    0.390899
   1 Se:   -0.237620    0.123158
   2 C :    0.004780    0.012199
   3 Se:   -0.193129    0.124093
   4 C :    0.049585    0.011884
   5 Se:   -0.157939    0.123957
   6 C :    0.116157    0.012116
   7 Se:   -0.207153    0.122587
   8 C :    0.033900    0.011713
   9 C :    0.355565    0.006844
  10 C :    0.413425    0.007023
  11 C :    0.341738    0.000436
  12 H :   -0.535529    0.009363
  13 C :    0.319741    0.000424
  14 H :   -0.425885    0.009395
  15 H :   -0.424469    0.000406
  16 H :   -0.417188    0.000336
  17 C :    0.255263    0.006609
  18 C :    0.702556    0.007003
  19 C :    0.260245    0.000475
  20 H :   -0.226157    0.009624
  21 C :    0.446493    0.000237
  22 H :   -1.018869    0.008414
  23 H :   -0.354857    0.000398
  24 H :   -0.485358    0.000407

  Mayer bond orders larger than 0.100000
B(  0-Cu,  1-Se) :   0.5534 B(  0-Cu,  3-Se) :   0.5510 B(  0-Cu,  5-Se) :   0.5383
B(  0-Cu,  7-Se) :   0.5509 B(  1-Se,  2-C ) :   1.0439 B(  2-C ,  6-C ) :   1.1286
B(  2-C , 17-C ) :   1.2663 B(  3-Se,  4-C ) :   1.0418 B(  4-C ,  8-C ) :   1.1343
B(  4-C , 10-C ) :   1.2669 B(  5-Se,  6-C ) :   1.0563 B(  6-C , 18-C ) :   1.3476
B(  7-Se,  8-C ) :   1.0395 B(  8-C ,  9-C ) :   1.2552 B(  9-C , 13-C ) :   1.3764
B(  9-C , 14-H ) :   0.9777 B( 10-C , 11-C ) :   1.3912 B( 10-C , 12-H ) :   0.8998
B( 11-C , 13-C ) :   1.3142 B( 11-C , 15-H ) :   0.9901 B( 13-C , 16-H ) :   0.9943
B( 17-C , 19-C ) :   1.3813 B( 17-C , 20-H ) :   0.9689 B( 18-C , 21-C ) :   1.5089
B( 18-C , 22-H ) :  -0.4314 B( 19-C , 21-C ) :   1.3158 B( 19-C , 23-H ) :   1.0182
B( 21-C , 24-H ) :   0.9350

FINAL SINGLE POINT ENERGY    -11626.826602450203

DIPOLE MOMENT
-------------
                                X             Y             Z
Electronic contribution:     -0.20729       0.90414       0.00000
Nuclear contribution   :      0.09168      -0.62566       0.00000
                        -----------------------------------------
Total Dipole Moment    :     -0.11560       0.27848       0.00000
                        -----------------------------------------
Magnitude (a.u.)       :      0.30152
Magnitude (Debye)      :      0.76640

Rotational constants in cm-1:     0.017614     0.004098     0.003324
Rotational constants in MHz :   528.052615   122.851589    99.664593

                             ****ORCA TERMINATED NORMALLY****
TOTAL RUN TIME: 0 days 16 hours 36 minutes 16 seconds 74 msec
