                         Program Version 5.0.4 -  RELEASE  -
|  1> ! RIJCOSX nofrozencore ReducedPop printbasis
|  2> ! M06L ano-rcc-dzp autoaux
|  3>
|  4> %maxcore 7500
|  5> %basis
|  6> PCDTrimBas overlap
|  7> PCDTrimAuxJ Coulomb
|  8> PCDTrimAuxJK Coulomb
|  9> PCDTrimAuxC Coulomb
| 10> PCDThresh -1
| 11> end
| 12>
| 13> %basis
| 14> newgto Cu "ano-rcc-tzp" end
| 15> newgto Se "ano-rcc-tzp" end
| 16> end
| 17>
| 18> %pal
| 19> nprocs 8
| 20> end
| 21>
| 22> % sym SymThresh 1e-2 end
| 23> * xyz -2 2
| 24> Cu 0.0012356003159969557 0.0007938622365058995 0.0004798693661384056
| 25> Se 1.4127338427250686 0.8668425691016766 1.6873464614329998
| 26> C 0.8259652851428998 0.43000469521515916 3.1285732525596592
| 27> Se 1.238514743755847 0.8777685555430378 -1.8069943584176675
| 28> C 0.3779588955135906 0.3616810877972434 -3.1679277638085357
| 29> Se -1.2301137803518607 -0.873709743844545 1.8475954698985257
| 30> C -0.32239899985804943 -0.3223056349762972 3.0869029841242264
| 31> Se -1.439212893055101 -0.886482711764989 -1.6243443765565104
| 32> C -0.8107889252749182 -0.42016648215890945 -3.1251206897409176
| 33> C -1.3955359968870078 -0.7575774803620023 -4.419987600881472
| 34> C 0.7976916991869527 0.6834896224320347 -4.458977686145665
| 35> C 0.21501636661069568 0.3438154180770919 -5.652792361173989
| 36> H 1.6983956400185904 1.2774888302601914 -4.536039520323682
| 37> C -0.9368240222032428 -0.40949173100728337 -5.730301025156322
| 38> H -2.30187124176002 -1.3538040166567302 -4.3839015996625985
| 39> H 0.7180605513175942 0.7063440754975936 -6.554296551455688
| 40> H -1.4359106459278719 -0.7041723324362368 -6.64865039231221
| 41> C 1.431644993499647 0.7847648173323273 4.32279279944595
| 42> C -0.791380738287426 -0.6743346252496025 4.3191779061346995
| 43> C 0.9416716686144616 0.41914321647532055 5.549863369855295
| 44> H 2.330641324763811 1.376802082380866 4.269188339291779
| 45> C -0.22342034948821354 -0.34443281439731327 5.5161518646051535
| 46> H -1.6945256698590405 -1.2673373847133549 4.323724851359725
| 47> H 1.421731294798524 0.7007249257659193 6.485205861719106
| 48> H -0.704199182258199 -0.6926251432366564 6.42540419323993
| 49> *
| 50>
| 51> % eprnmr
| 52> gtensor true
| 53> Nuclei = all H {aiso,adip,aorb,fgrad,rho}
| 54> Nuclei = all Cu {aiso,adip,aorb,fgrad,rho}
| 55> end
| 56>
| 57>                          ****END OF INPUT****

CARTESIAN COORDINATES (ANGSTROEM)
---------------------------------
  Cu     0.000466    0.001473    0.000000
  Se     1.671734    1.673223    0.000000
  C      3.120718    0.957189    0.000000
  Se    -1.822634    1.499210    0.000000
  C     -3.174255    0.483256    0.000000
  Se     1.863160   -1.489561    0.000000
  C      3.092529   -0.416002    0.000000
  Se    -1.608383   -1.705516    0.000000
  C     -3.117442   -0.939070    0.000000
  C     -4.406201   -1.625769    0.000000
  C     -4.471009    0.998015    0.000000
  C     -5.658680    0.312800    0.000000
  H     -4.558709    2.076138    0.000000
  C     -5.722688   -1.064196    0.000000
  H     -4.359435   -2.710225    0.000000
  H     -6.566636    0.923379    0.000000
  H     -6.635714   -1.652137    0.000000
  C      4.308524    1.669916    0.000000
  C      4.331052   -0.989091    0.000000
  C      5.542086    1.071769    0.000000
  H      4.244315    2.745766    0.000000
  C      5.522057   -0.321508    0.000000
  H      4.346223   -2.069421    0.000000
  H      6.472339    1.636784    0.000000
  H      6.437504   -0.905531    0.000000

 Total Charge           Charge          ....   -2
 Multiplicity           Mult            ....    2
 Number of Electrons    NEL             ....  247
 Basis Dimension        Dim             ....  575

ORBITAL ENERGIES
----------------
                 SPIN UP ORBITALS
  NO   OCC          E(Eh)            E(eV)    Irrep
   0   1.0000    -443.565733    -12070.0372    1-A'
   1   1.0000    -443.551070    -12069.6382    2-A'
   2   1.0000    -443.548500    -12069.5683    3-A'
   3   1.0000    -443.541011    -12069.3645    4-A'
   4   1.0000    -318.188354     -8658.3453    5-A'
   5   1.0000     -56.373478     -1534.0003    6-A'
   6   1.0000     -56.363790     -1533.7367    7-A'
   7   1.0000     -56.358079     -1533.5813    8-A'
   8   1.0000     -56.354543     -1533.4851    9-A'
   9   1.0000     -51.291584     -1395.7150   10-A'
  10   1.0000     -51.290286     -1395.6796   11-A'
  11   1.0000     -51.289705     -1395.6638    1-A"
  12   1.0000     -51.286840     -1395.5859   12-A'
  13   1.0000     -51.285313     -1395.5443   13-A'
  14   1.0000     -51.284848     -1395.5317    2-A"
  15   1.0000     -51.284590     -1395.5246   14-A'
  16   1.0000     -51.283559     -1395.4966   15-A'
  17   1.0000     -51.283001     -1395.4814   16-A'
  18   1.0000     -51.282565     -1395.4695    3-A"
  19   1.0000     -51.282303     -1395.4624   17-A'
  20   1.0000     -51.281916     -1395.4519    4-A"
  21   1.0000     -38.028874     -1034.8183   18-A'
  22   1.0000     -33.530934      -912.4231   19-A'
  23   1.0000     -33.530125      -912.4011   20-A'
  24   1.0000     -33.518912      -912.0960    5-A"
  25   1.0000      -9.824745      -267.3449   21-A'
  26   1.0000      -9.823225      -267.3035   22-A'
  27   1.0000      -9.819944      -267.2143   23-A'
  28   1.0000      -9.819064      -267.1903   24-A'
  29   1.0000      -9.816409      -267.1181   25-A'
  30   1.0000      -9.815664      -267.0978   26-A'
  31   1.0000      -9.812376      -267.0083   27-A'
  32   1.0000      -9.809797      -266.9381   28-A'
  33   1.0000      -9.807132      -266.8656   29-A'
  34   1.0000      -9.805513      -266.8216   30-A'
  35   1.0000      -9.804967      -266.8067   31-A'
  36   1.0000      -9.801618      -266.7156   32-A'
  37   1.0000      -7.344175      -199.8452   33-A'
  38   1.0000      -7.339011      -199.7047   34-A'
  39   1.0000      -7.334001      -199.5683   35-A'
  40   1.0000      -7.333189      -199.5462   36-A'
  41   1.0000      -5.408626      -147.1762   37-A'
  42   1.0000      -5.405998      -147.1047   38-A'
  43   1.0000      -5.404289      -147.0582   39-A'
  44   1.0000      -5.403262      -147.0302   40-A'
  45   1.0000      -5.402560      -147.0111    6-A"
  46   1.0000      -5.401569      -146.9842   41-A'
  47   1.0000      -5.400263      -146.9486   42-A'
  48   1.0000      -5.399809      -146.9363    7-A"
  49   1.0000      -5.398413      -146.8983   43-A'
  50   1.0000      -5.397992      -146.8868    8-A"
  51   1.0000      -5.396477      -146.8456   44-A'
  52   1.0000      -5.396181      -146.8375    9-A"
  53   1.0000      -4.023141      -109.4752   45-A'
  54   1.0000      -2.542821       -69.1937   46-A'
  55   1.0000      -2.541712       -69.1635   47-A'
  56   1.0000      -2.518141       -68.5221   10-A"
  57   1.0000      -1.747684       -47.5569   48-A'
  58   1.0000      -1.744875       -47.4805   49-A'
  59   1.0000      -1.744253       -47.4635   50-A'
  60   1.0000      -1.744014       -47.4570   11-A"
  61   1.0000      -1.742522       -47.4164   51-A'
  62   1.0000      -1.741906       -47.3997   52-A'
  63   1.0000      -1.741269       -47.3824   12-A"
  64   1.0000      -1.741033       -47.3759   53-A'
  65   1.0000      -1.740209       -47.3535   54-A'
  66   1.0000      -1.739568       -47.3360   55-A'
  67   1.0000      -1.739474       -47.3335   13-A"
  68   1.0000      -1.739461       -47.3331   14-A"
  69   1.0000      -1.738068       -47.2952   56-A'
  70   1.0000      -1.737361       -47.2760   15-A"
  71   1.0000      -1.736659       -47.2569   57-A'
  72   1.0000      -1.736571       -47.2545   16-A"
  73   1.0000      -1.734837       -47.2073   17-A"
  74   1.0000      -1.734768       -47.2054   58-A'
  75   1.0000      -1.733132       -47.1609   18-A"
  76   1.0000      -1.733094       -47.1599   59-A'
  77   1.0000      -0.611751       -16.6466   60-A'
  78   1.0000      -0.588287       -16.0081   61-A'
  79   1.0000      -0.525283       -14.2937   62-A'
  80   1.0000      -0.515020       -14.0144   63-A'
  81   1.0000      -0.508098       -13.8260   64-A'
  82   1.0000      -0.482785       -13.1372   65-A'
  83   1.0000      -0.416843       -11.3429   66-A'
  84   1.0000      -0.405975       -11.0471   67-A'
  85   1.0000      -0.383683       -10.4406   68-A'
  86   1.0000      -0.377620       -10.2756   69-A'
  87   1.0000      -0.326483        -8.8840   70-A'
  88   1.0000      -0.311336        -8.4719   71-A'
  89   1.0000      -0.287667        -7.8278   72-A'
  90   1.0000      -0.284245        -7.7347   73-A'
  91   1.0000      -0.231007        -6.2860   74-A'
  92   1.0000      -0.224320        -6.1041   75-A'
  93   1.0000      -0.206175        -5.6103   76-A'
  94   1.0000      -0.189441        -5.1549   77-A'
  95   1.0000      -0.172281        -4.6880   78-A'
  96   1.0000      -0.166408        -4.5282   79-A'
  97   1.0000      -0.145138        -3.9494   80-A'
  98   1.0000      -0.139626        -3.7994   81-A'
  99   1.0000      -0.137527        -3.7423   19-A"
 100   1.0000      -0.128037        -3.4841   82-A'
 101   1.0000      -0.118979        -3.2376   20-A"
 102   1.0000      -0.108423        -2.9503   83-A'
 103   1.0000      -0.082331        -2.2403   84-A'
 104   1.0000      -0.074842        -2.0366   85-A'
 105   1.0000      -0.067952        -1.8491   86-A'
 106   1.0000      -0.060897        -1.6571   87-A'
 107   1.0000      -0.050291        -1.3685   21-A"
 108   1.0000      -0.046352        -1.2613   22-A"
 109   1.0000      -0.036119        -0.9828   23-A"
 110   1.0000      -0.035986        -0.9792   88-A'
 111   1.0000      -0.023749        -0.6462   89-A'
 112   1.0000      -0.021338        -0.5806   24-A"
 113   1.0000      -0.002368        -0.0644   25-A"
 114   1.0000      -0.001519        -0.0413   26-A"
 115   1.0000       0.000019         0.0005   90-A'
 116   1.0000       0.018928         0.5151   91-A'
 117   1.0000       0.021251         0.5783   92-A'
 118   1.0000       0.041386         1.1262   93-A'
 119   1.0000       0.053354         1.4518   27-A"
 120   1.0000       0.056321         1.5326   28-A"
 121   1.0000       0.068958         1.8764   29-A"
 122   1.0000       0.098049         2.6680   30-A"
 123   1.0000       0.115484         3.1425   94-A'
 124   0.0000       0.180941         4.9237   95-A'
 125   0.0000       0.181550         4.9402   96-A'
 126   0.0000       0.195612         5.3229   97-A'
 127   0.0000       0.197409         5.3718   98-A'
 128   0.0000       0.198216         5.3937   31-A"

                 SPIN DOWN ORBITALS
  NO   OCC          E(Eh)            E(eV)    Irrep
   0   1.0000    -443.565254    -12070.0242    1-A'
   1   1.0000    -443.550635    -12069.6264    2-A'
   2   1.0000    -443.548043    -12069.5558    3-A'
   3   1.0000    -443.540574    -12069.3526    4-A'
   4   1.0000    -318.188232     -8658.3420    5-A'
   5   1.0000     -56.373285     -1533.9951    6-A'
   6   1.0000     -56.363613     -1533.7319    7-A'
   7   1.0000     -56.357896     -1533.5763    8-A'
   8   1.0000     -56.354367     -1533.4803    9-A'
   9   1.0000     -51.291249     -1395.7058   10-A'
  10   1.0000     -51.289472     -1395.6575   11-A'
  11   1.0000     -51.289436     -1395.6565    1-A"
  12   1.0000     -51.286547     -1395.5779   12-A'
  13   1.0000     -51.284607     -1395.5251    2-A"
  14   1.0000     -51.284590     -1395.5246   13-A'
  15   1.0000     -51.284282     -1395.5163   14-A'
  16   1.0000     -51.283220     -1395.4874   15-A'
  17   1.0000     -51.282322     -1395.4629    3-A"
  18   1.0000     -51.282295     -1395.4622   16-A'
  19   1.0000     -51.281669     -1395.4452    4-A"
  20   1.0000     -51.281599     -1395.4432   17-A'
  21   1.0000     -38.014986     -1034.4404   18-A'
  22   1.0000     -33.517736      -912.0640   19-A'
  23   1.0000     -33.516931      -912.0421   20-A'
  24   1.0000     -33.515032      -911.9904    5-A"
  25   1.0000      -9.824706      -267.3438   21-A'
  26   1.0000      -9.823258      -267.3044   22-A'
  27   1.0000      -9.819847      -267.2116   23-A'
  28   1.0000      -9.819013      -267.1889   24-A'
  29   1.0000      -9.816429      -267.1186   25-A'
  30   1.0000      -9.815630      -267.0969   26-A'
  31   1.0000      -9.812311      -267.0066   27-A'
  32   1.0000      -9.809664      -266.9345   28-A'
  33   1.0000      -9.807168      -266.8666   29-A'
  34   1.0000      -9.805423      -266.8191   30-A'
  35   1.0000      -9.804961      -266.8065   31-A'
  36   1.0000      -9.801481      -266.7119   32-A'
  37   1.0000      -7.343751      -199.8336   33-A'
  38   1.0000      -7.338624      -199.6941   34-A'
  39   1.0000      -7.333594      -199.5572   35-A'
  40   1.0000      -7.332795      -199.5355   36-A'
  41   1.0000      -5.408241      -147.1657   37-A'
  42   1.0000      -5.405664      -147.0956   38-A'
  43   1.0000      -5.403945      -147.0488   39-A'
  44   1.0000      -5.402362      -147.0057   40-A'
  45   1.0000      -5.402236      -147.0023    6-A"
  46   1.0000      -5.401208      -146.9743   41-A'
  47   1.0000      -5.399510      -146.9281    7-A"
  48   1.0000      -5.399459      -146.9267   42-A'
  49   1.0000      -5.397678      -146.8783    8-A"
  50   1.0000      -5.397616      -146.8766   43-A'
  51   1.0000      -5.395864      -146.8289    9-A"
  52   1.0000      -5.395661      -146.8234   44-A'
  53   1.0000      -3.994931      -108.7076   45-A'
  54   1.0000      -2.507822       -68.2413   10-A"
  55   1.0000      -2.507587       -68.2349   46-A'
  56   1.0000      -2.506439       -68.2037   47-A'
  57   1.0000      -1.747190       -47.5435   48-A'
  58   1.0000      -1.743924       -47.4546   49-A'
  59   1.0000      -1.743824       -47.4519   50-A'
  60   1.0000      -1.743697       -47.4484   11-A"
  61   1.0000      -1.742085       -47.4045   51-A'
  62   1.0000      -1.741066       -47.3768   52-A'
  63   1.0000      -1.740984       -47.3746   12-A"
  64   1.0000      -1.740593       -47.3639   53-A'
  65   1.0000      -1.739352       -47.3302   54-A'
  66   1.0000      -1.739154       -47.3248   13-A"
  67   1.0000      -1.738714       -47.3128   55-A'
  68   1.0000      -1.738657       -47.3113   14-A"
  69   1.0000      -1.737167       -47.2707   56-A'
  70   1.0000      -1.737044       -47.2674   15-A"
  71   1.0000      -1.735893       -47.2361   57-A'
  72   1.0000      -1.735836       -47.2345   16-A"
  73   1.0000      -1.734083       -47.1868   17-A"
  74   1.0000      -1.733989       -47.1842   58-A'
  75   1.0000      -1.732357       -47.1398   18-A"
  76   1.0000      -1.732281       -47.1378   59-A'
  77   1.0000      -0.610881       -16.6229   60-A'
  78   1.0000      -0.587676       -15.9915   61-A'
  79   1.0000      -0.524142       -14.2626   62-A'
  80   1.0000      -0.513889       -13.9836   63-A'
  81   1.0000      -0.506316       -13.7775   64-A'
  82   1.0000      -0.481357       -13.0984   65-A'
  83   1.0000      -0.414174       -11.2702   66-A'
  84   1.0000      -0.403036       -10.9672   67-A'
  85   1.0000      -0.381220       -10.3735   68-A'
  86   1.0000      -0.375258       -10.2113   69-A'
  87   1.0000      -0.324554        -8.8316   70-A'
  88   1.0000      -0.309531        -8.4228   71-A'
  89   1.0000      -0.285366        -7.7652   72-A'
  90   1.0000      -0.281631        -7.6636   73-A'
  91   1.0000      -0.229968        -6.2577   74-A'
  92   1.0000      -0.223208        -6.0738   75-A'
  93   1.0000      -0.204905        -5.5757   76-A'
  94   1.0000      -0.188192        -5.1210   77-A'
  95   1.0000      -0.170843        -4.6489   78-A'
  96   1.0000      -0.164355        -4.4723   79-A'
  97   1.0000      -0.143434        -3.9030   80-A'
  98   1.0000      -0.138448        -3.7674   81-A'
  99   1.0000      -0.137123        -3.7313   19-A"
 100   1.0000      -0.126330        -3.4376   82-A'
 101   1.0000      -0.118668        -3.2291   20-A"
 102   1.0000      -0.106873        -2.9082   83-A'
 103   1.0000      -0.080839        -2.1997   84-A'
 104   1.0000      -0.073072        -1.9884   85-A'
 105   1.0000      -0.059524        -1.6197   86-A'
 106   1.0000      -0.056459        -1.5363   87-A'
 107   1.0000      -0.049414        -1.3446   21-A"
 108   1.0000      -0.045403        -1.2355   22-A"
 109   1.0000      -0.034273        -0.9326   23-A"
 110   1.0000      -0.021777        -0.5926   88-A'
 111   1.0000      -0.019116        -0.5202   24-A"
 112   1.0000      -0.003151        -0.0858   89-A'
 113   1.0000       0.006997         0.1904   25-A"
 114   1.0000       0.009069         0.2468   26-A"
 115   1.0000       0.010657         0.2900   90-A'
 116   1.0000       0.029438         0.8010   91-A'
 117   1.0000       0.031604         0.8600   92-A'
 118   1.0000       0.052332         1.4240   93-A'
 119   1.0000       0.055595         1.5128   27-A"
 120   1.0000       0.059613         1.6221   28-A"
 121   1.0000       0.070678         1.9232   29-A"
 122   1.0000       0.101286         2.7561   30-A"
 123   0.0000       0.145319         3.9543   94-A'
 124   0.0000       0.183326         4.9885   95-A'
 125   0.0000       0.183603         4.9961   96-A'
 126   0.0000       0.198288         5.3957   31-A"
 127   0.0000       0.198979         5.4145   97-A'

MULLIKEN ATOMIC CHARGES AND SPIN POPULATIONS
--------------------------------------------
   0 Cu:    0.655546    0.309195
   1 Se:   -0.719585    0.170496
   2 C :    0.168870   -0.003251
   3 Se:   -0.766776    0.170168
   4 C :    0.261085   -0.003357
   5 Se:   -0.730579    0.187538
   6 C :    0.276217   -0.004104
   7 Se:   -0.747035    0.168224
   8 C :    0.191029   -0.002476
   9 C :   -0.149030   -0.001454
  10 C :   -0.084986   -0.002106
  11 C :   -0.092371   -0.000700
  12 H :    0.091648    0.002432
  13 C :   -0.192891   -0.000679
  14 H :    0.096944    0.002050
  15 H :    0.025292    0.000943
  16 H :    0.007836    0.001872
  17 C :   -0.143353   -0.000652
  18 C :   -0.047670   -0.001978
  19 C :   -0.161231   -0.001360
  20 H :    0.082994    0.002823
  21 C :   -0.155526   -0.000052
  22 H :    0.094078    0.002845
  23 H :    0.011106    0.002707
  24 H :    0.028390    0.000875
Sum of atomic charges         :   -2.0000000

LOEWDIN ATOMIC CHARGES AND SPIN POPULATIONS
-------------------------------------------
   0 Cu:   -0.629107    0.389914
   1 Se:   -0.234417    0.120132
   2 C :    0.028601    0.013275
   3 Se:   -0.193745    0.122316
   4 C :    0.062143    0.010398
   5 Se:   -0.167978    0.132816
   6 C :    0.037652    0.009428
   7 Se:   -0.231851    0.122440
   8 C :    0.080223    0.012279
   9 C :    0.379440    0.005293
  10 C :    0.355114    0.005519
  11 C :    0.297785   -0.000021
  12 H :   -0.462972    0.009048
  13 C :    0.323562    0.000422
  14 H :   -0.472862    0.007005
  15 H :   -0.413700    0.000109
  16 H :   -0.405911    0.000570
  17 C :    0.370377    0.007078
  18 C :    0.368861    0.008522
  19 C :    0.322854    0.000583
  20 H :   -0.445787    0.008053
  21 C :    0.321360    0.000709
  22 H :   -0.469508    0.013184
  23 H :   -0.403674    0.000860
  24 H :   -0.416457    0.000066

  Mayer bond orders larger than 0.100000
B(  0-Cu,  1-Se) :   0.5559 B(  0-Cu,  3-Se) :   0.5396 B(  0-Cu,  5-Se) :   0.5584
B(  0-Cu,  7-Se) :   0.5302 B(  1-Se,  2-C ) :   1.0489 B(  2-C ,  6-C ) :   1.1262
B(  2-C , 17-C ) :   1.2681 B(  3-Se,  4-C ) :   1.0054 B(  4-C ,  8-C ) :   1.1563
B(  4-C , 10-C ) :   1.2570 B(  5-Se,  6-C ) :   1.0333 B(  6-C , 18-C ) :   1.2404
B(  7-Se,  8-C ) :   1.0074 B(  8-C ,  9-C ) :   1.2913 B(  9-C , 13-C ) :   1.3629
B(  9-C , 14-H ) :   0.9618 B( 10-C , 11-C ) :   1.3662 B( 10-C , 12-H ) :   0.9610
B( 11-C , 13-C ) :   1.3193 B( 11-C , 15-H ) :   0.9893 B( 13-C , 16-H ) :   1.0084
B( 17-C , 19-C ) :   1.3874 B( 17-C , 20-H ) :   0.9667 B( 18-C , 21-C ) :   1.3768
B( 18-C , 22-H ) :   0.9535 B( 19-C , 21-C ) :   1.3093 B( 19-C , 23-H ) :   1.0001
B( 21-C , 24-H ) :   0.9910

FINAL SINGLE POINT ENERGY    -11627.114426879549

DIPOLE MOMENT
-------------
                                X             Y             Z
Electronic contribution:      1.99251      -0.33055       0.00000
Nuclear contribution   :     -1.65282       0.26729       0.00000
                        -----------------------------------------
Total Dipole Moment    :      0.33970      -0.06327       0.00000
                        -----------------------------------------
Magnitude (a.u.)       :      0.34554
Magnitude (Debye)      :      0.87829

Rotational constants in cm-1:     0.017495     0.004081     0.003309
Rotational constants in MHz :   524.490564   122.348529    99.206510

                             ****ORCA TERMINATED NORMALLY****
TOTAL RUN TIME: 0 days 17 hours 4 minutes 12 seconds 813 msec
