                         Program Version 5.0.4 -  RELEASE  -
|  1> ! RIJCOSX nofrozencore ReducedPop printbasis
|  2> ! M06L ano-rcc-dzp autoaux
|  3>
|  4> %maxcore 7500
|  5> %basis
|  6> PCDTrimBas overlap
|  7> PCDTrimAuxJ Coulomb
|  8> PCDTrimAuxJK Coulomb
|  9> PCDTrimAuxC Coulomb
| 10> PCDThresh -1
| 11> end
| 12>
| 13> %basis
| 14> newgto Cu "ano-rcc-tzp" end
| 15> newgto Se "ano-rcc-tzp" end
| 16> end
| 17>
| 18> %pal
| 19> nprocs 8
| 20> end
| 21>
| 22> % sym SymThresh 1e-2 end
| 23> * xyz -2 2
| 24> Cu 1.0465775020749521e-05 -1.0524730147475876e-05 -1.359034983132766e-05
| 25> Se -1.3862027588321117 -0.11980575059878917 -1.9162682591053641
| 26> C -2.741885698729313 0.6962150750626384 -1.4994275274781346
| 27> Se 1.7947261109491746 -1.2341270212303024 -0.9294905274377315
| 28> C 2.920496191256913 -1.287397251418597 0.2571255187543781
| 29> Se -1.7947178598227342 1.2341104138331749 0.9294594129190445
| 30> C -2.9215216809074227 1.2877301985708798 -0.25750819638696604
| 31> Se 1.3862278101185495 0.11977373229533576 1.9162189715684832
| 32> C 2.74266506476393 -0.6963524483449954 1.5000023093196877
| 33> C 3.7881204213187134 -0.8269852145489341 2.402712932733868
| 34> C 4.128120426734351 -1.9509859605467075 0.041235612621135044
| 35> C 5.1309801758616755 -2.055204209805342 0.9589462393830493
| 36> H 4.247360842195987 -2.3709055666503915 -0.8501034074089896
| 37> C 5.005974793347778 -1.4815963279304136 2.220833890243661
| 38> H 3.629993842364424 -0.3230038311991407 3.454913127595113
| 39> H 6.407187277185862 -2.8166080768225616 0.5831829641592179
| 40> H 5.424730424538836 -1.5047810929265728 2.653950159720866
| 41> C -3.7877830631674043 0.8249276099511105 -2.40736943923518
| 42> C -4.126844465944043 1.9485961260056606 -0.04560935711847543
| 43> C -4.987723163604172 1.480697787343712 -2.201681451116584
| 44> H -3.639009878067852 0.3537645519057195 -3.3899482131427234
| 45> C -5.153110896682938 2.068279354391291 -0.9527452594614706
| 46> H -4.256212852324776 2.3991012921034445 0.908963367728853
| 47> H -5.650142978761345 1.5170360963464566 -2.8876456659229817
| 48> H -6.137305957403199 2.6554857150841147 -0.6629093479740709
| 49> *
| 50>
| 51> % eprnmr
| 52> gtensor true
| 53> Nuclei = all H {aiso,adip,aorb,fgrad,rho}
| 54> Nuclei = all Cu {aiso,adip,aorb,fgrad,rho}
| 55> end
| 56>
| 57>                          ****END OF INPUT****

CARTESIAN COORDINATES (ANGSTROEM)
---------------------------------
  Cu    -0.000016    0.000013    0.000000
  Se    -1.937227   -1.362038    0.000000
  C     -1.366326   -2.895529    0.000000
  Se    -1.162219    2.063325    0.000000
  C      0.013254    3.201973    0.000000
  Se     1.162185   -2.063313    0.000000
  C     -0.013573   -3.203071    0.000000
  Se     1.937172    1.362070    0.000000
  C      1.366874    2.896339    0.000000
  C      2.244055    3.971273    0.000000
  C     -0.328028    4.554319    0.000000
  C      0.569138    5.580903    0.000000
  H     -1.298040    4.764351    0.000000
  C      1.938453    5.331924    0.000000
  H      3.390693    3.704162    0.000000
  H      0.049614    7.023032    0.000000
  H      2.366794    5.756197    0.000000
  C     -2.249097   -3.970491    0.000000
  C      0.323206   -4.552526    0.000000
  C     -1.919488   -5.313456    0.000000
  H     -3.319965   -3.719829    0.000000
  C     -0.560468   -5.605883    0.000000
  H      1.362183   -4.779300    0.000000
  H     -2.597961   -5.984531    0.000000
  H     -0.159762   -6.718039    0.000000

 Total Charge           Charge          ....   -2
 Multiplicity           Mult            ....    2
 Number of Electrons    NEL             ....  247
 Basis Dimension        Dim             ....  575

ORBITAL ENERGIES
----------------
                 SPIN UP ORBITALS
  NO   OCC          E(Eh)            E(eV)    Irrep
   0   1.0000    -443.564803    -12070.0119    1-A'
   1   1.0000    -443.563305    -12069.9711    2-A'
   2   1.0000    -443.549935    -12069.6073    3-A'
   3   1.0000    -443.549210    -12069.5876    4-A'
   4   1.0000    -318.189660     -8658.3808    5-A'
   5   1.0000     -56.373401     -1533.9982    6-A'
   6   1.0000     -56.372367     -1533.9701    7-A'
   7   1.0000     -56.360040     -1533.6346    8-A'
   8   1.0000     -56.359280     -1533.6140    9-A'
   9   1.0000     -51.290761     -1395.6926   10-A'
  10   1.0000     -51.289363     -1395.6545   11-A'
  11   1.0000     -51.288996     -1395.6445    1-A"
  12   1.0000     -51.288636     -1395.6347   12-A'
  13   1.0000     -51.288249     -1395.6242   13-A'
  14   1.0000     -51.287802     -1395.6120   14-A'
  15   1.0000     -51.287304     -1395.5985   15-A'
  16   1.0000     -51.286927     -1395.5882   16-A'
  17   1.0000     -51.286854     -1395.5863    2-A"
  18   1.0000     -51.286463     -1395.5756    3-A"
  19   1.0000     -51.286459     -1395.5755   17-A'
  20   1.0000     -51.285970     -1395.5622    4-A"
  21   1.0000     -38.030208     -1034.8546   18-A'
  22   1.0000     -33.532295      -912.4601   19-A'
  23   1.0000     -33.531489      -912.4382   20-A'
  24   1.0000     -33.520250      -912.1324    5-A"
  25   1.0000      -9.853998      -268.1409   21-A'
  26   1.0000      -9.826379      -267.3894   22-A'
  27   1.0000      -9.822767      -267.2911   23-A'
  28   1.0000      -9.814563      -267.0678   24-A'
  29   1.0000      -9.810877      -266.9675   25-A'
  30   1.0000      -9.810681      -266.9622   26-A'
  31   1.0000      -9.810570      -266.9592   27-A'
  32   1.0000      -9.809682      -266.9350   28-A'
  33   1.0000      -9.806276      -266.8423   29-A'
  34   1.0000      -9.804771      -266.8014   30-A'
  35   1.0000      -9.802323      -266.7348   31-A'
  36   1.0000      -9.801948      -266.7246   32-A'
  37   1.0000      -7.344491      -199.8538   33-A'
  38   1.0000      -7.343421      -199.8246   34-A'
  39   1.0000      -7.336587      -199.6387   35-A'
  40   1.0000      -7.336016      -199.6232   36-A'
  41   1.0000      -5.408499      -147.1727   37-A'
  42   1.0000      -5.406434      -147.1165   38-A'
  43   1.0000      -5.406015      -147.1051   39-A'
  44   1.0000      -5.405687      -147.0962   40-A'
  45   1.0000      -5.403011      -147.0234   41-A'
  46   1.0000      -5.402863      -147.0194    6-A"
  47   1.0000      -5.401126      -146.9721   42-A'
  48   1.0000      -5.400780      -146.9627   43-A'
  49   1.0000      -5.400725      -146.9612    7-A"
  50   1.0000      -5.400368      -146.9515   44-A'
  51   1.0000      -5.400287      -146.9493    8-A"
  52   1.0000      -5.399790      -146.9358    9-A"
  53   1.0000      -4.024485      -109.5118   45-A'
  54   1.0000      -2.544095       -69.2283   46-A'
  55   1.0000      -2.543128       -69.2020   47-A'
  56   1.0000      -2.519479       -68.5585   10-A"
  57   1.0000      -1.747502       -47.5519   48-A'
  58   1.0000      -1.745439       -47.4958   49-A'
  59   1.0000      -1.745055       -47.4854   50-A'
  60   1.0000      -1.744713       -47.4761   51-A'
  61   1.0000      -1.744694       -47.4755   52-A'
  62   1.0000      -1.744095       -47.4592   11-A"
  63   1.0000      -1.742763       -47.4230   53-A'
  64   1.0000      -1.742334       -47.4113   54-A'
  65   1.0000      -1.741990       -47.4020   55-A'
  66   1.0000      -1.741962       -47.4012   12-A"
  67   1.0000      -1.741569       -47.3905   13-A"
  68   1.0000      -1.741160       -47.3794   14-A"
  69   1.0000      -1.739617       -47.3374   56-A'
  70   1.0000      -1.739607       -47.3371   15-A"
  71   1.0000      -1.737618       -47.2830   57-A'
  72   1.0000      -1.737606       -47.2827   16-A"
  73   1.0000      -1.737268       -47.2735   58-A'
  74   1.0000      -1.737146       -47.2701   17-A"
  75   1.0000      -1.736793       -47.2605   59-A'
  76   1.0000      -1.736668       -47.2572   18-A"
  77   1.0000      -0.609017       -16.5722   60-A'
  78   1.0000      -0.604494       -16.4491   61-A'
  79   1.0000      -0.540294       -14.7021   62-A'
  80   1.0000      -0.524293       -14.2667   63-A'
  81   1.0000      -0.505055       -13.7432   64-A'
  82   1.0000      -0.501308       -13.6413   65-A'
  83   1.0000      -0.438813       -11.9407   66-A'
  84   1.0000      -0.416524       -11.3342   67-A'
  85   1.0000      -0.387089       -10.5332   68-A'
  86   1.0000      -0.383017       -10.4224   69-A'
  87   1.0000      -0.325648        -8.8613   70-A'
  88   1.0000      -0.322077        -8.7642   71-A'
  89   1.0000      -0.317912        -8.6508   72-A'
  90   1.0000      -0.292092        -7.9482   73-A'
  91   1.0000      -0.234563        -6.3828   74-A'
  92   1.0000      -0.229914        -6.2563   75-A'
  93   1.0000      -0.204601        -5.5675   76-A'
  94   1.0000      -0.201672        -5.4878   77-A'
  95   1.0000      -0.169673        -4.6170   78-A'
  96   1.0000      -0.160493        -4.3672   79-A'
  97   1.0000      -0.157484        -4.2854   80-A'
  98   1.0000      -0.141974        -3.8633   81-A'
  99   1.0000      -0.134309        -3.6547   19-A"
 100   1.0000      -0.132191        -3.5971   20-A"
 101   1.0000      -0.127461        -3.4684   82-A'
 102   1.0000      -0.104466        -2.8427   83-A'
 103   1.0000      -0.083798        -2.2803   84-A'
 104   1.0000      -0.072542        -1.9740   85-A'
 105   1.0000      -0.067472        -1.8360   86-A'
 106   1.0000      -0.061084        -1.6622   87-A'
 107   1.0000      -0.052004        -1.4151   21-A"
 108   1.0000      -0.049871        -1.3571   22-A"
 109   1.0000      -0.036239        -0.9861   23-A"
 110   1.0000      -0.032741        -0.8909   88-A'
 111   1.0000      -0.031714        -0.8630   89-A'
 112   1.0000      -0.029811        -0.8112   24-A"
 113   1.0000      -0.004574        -0.1245   25-A"
 114   1.0000      -0.003578        -0.0974   26-A"
 115   1.0000      -0.001949        -0.0530   90-A'
 116   1.0000       0.016710         0.4547   91-A'
 117   1.0000       0.018511         0.5037   92-A'
 118   1.0000       0.038358         1.0438   93-A'
 119   1.0000       0.051871         1.4115   27-A"
 120   1.0000       0.053701         1.4613   28-A"
 121   1.0000       0.068024         1.8510   29-A"
 122   1.0000       0.096950         2.6381   30-A"
 123   1.0000       0.113362         3.0847   94-A'
 124   0.0000       0.168472         4.5844   95-A'
 125   0.0000       0.180656         4.9159   96-A'
 126   0.0000       0.196126         5.3369   97-A'
 127   0.0000       0.198780         5.4091   31-A"
 128   0.0000       0.199241         5.4216   98-A'

                 SPIN DOWN ORBITALS
  NO   OCC          E(Eh)            E(eV)    Irrep
   0   1.0000    -443.564359    -12069.9998    1-A'
   1   1.0000    -443.562852    -12069.9588    2-A'
   2   1.0000    -443.549490    -12069.5952    3-A'
   3   1.0000    -443.548755    -12069.5752    4-A'
   4   1.0000    -318.189538     -8658.3775    5-A'
   5   1.0000     -56.373220     -1533.9933    6-A'
   6   1.0000     -56.372183     -1533.9651    7-A'
   7   1.0000     -56.359861     -1533.6298    8-A'
   8   1.0000     -56.359099     -1533.6090    9-A'
   9   1.0000     -51.290445     -1395.6840   10-A'
  10   1.0000     -51.288752     -1395.6379    1-A"
  11   1.0000     -51.288655     -1395.6352   11-A'
  12   1.0000     -51.288305     -1395.6257   12-A'
  13   1.0000     -51.287924     -1395.6154   13-A'
  14   1.0000     -51.287481     -1395.6033   14-A'
  15   1.0000     -51.286601     -1395.5794    2-A"
  16   1.0000     -51.286562     -1395.5783   15-A'
  17   1.0000     -51.286214     -1395.5688    3-A"
  18   1.0000     -51.286197     -1395.5684   16-A'
  19   1.0000     -51.285730     -1395.5557   17-A'
  20   1.0000     -51.285723     -1395.5555    4-A"
  21   1.0000     -38.016342     -1034.4773   18-A'
  22   1.0000     -33.519117      -912.1016   19-A'
  23   1.0000     -33.518313      -912.0797   20-A'
  24   1.0000     -33.516382      -912.0271    5-A"
  25   1.0000      -9.853912      -268.1386   21-A'
  26   1.0000      -9.826327      -267.3880   22-A'
  27   1.0000      -9.822645      -267.2878   23-A'
  28   1.0000      -9.814596      -267.0687   24-A'
  29   1.0000      -9.810893      -266.9680   25-A'
  30   1.0000      -9.810668      -266.9619   26-A'
  31   1.0000      -9.810493      -266.9571   27-A'
  32   1.0000      -9.809692      -266.9353   28-A'
  33   1.0000      -9.806155      -266.8390   29-A'
  34   1.0000      -9.804721      -266.8000   30-A'
  35   1.0000      -9.802277      -266.7335   31-A'
  36   1.0000      -9.801847      -266.7218   32-A'
  37   1.0000      -7.344101      -199.8431   33-A'
  38   1.0000      -7.343020      -199.8137   34-A'
  39   1.0000      -7.336188      -199.6278   35-A'
  40   1.0000      -7.335609      -199.6121   36-A'
  41   1.0000      -5.408145      -147.1631   37-A'
  42   1.0000      -5.406064      -147.1065   38-A'
  43   1.0000      -5.405651      -147.0952   39-A'
  44   1.0000      -5.405327      -147.0864   40-A'
  45   1.0000      -5.402556      -147.0110    6-A"
  46   1.0000      -5.402214      -147.0017   41-A'
  47   1.0000      -5.400409      -146.9526    7-A"
  48   1.0000      -5.400291      -146.9494   42-A'
  49   1.0000      -5.399978      -146.9409    8-A"
  50   1.0000      -5.399961      -146.9404   43-A'
  51   1.0000      -5.399551      -146.9292   44-A'
  52   1.0000      -5.399482      -146.9274    9-A"
  53   1.0000      -3.996270      -108.7440   45-A'
  54   1.0000      -2.509173       -68.2781   10-A"
  55   1.0000      -2.508880       -68.2701   46-A'
  56   1.0000      -2.507829       -68.2415   47-A'
  57   1.0000      -1.747072       -47.5402   48-A'
  58   1.0000      -1.744982       -47.4834   49-A'
  59   1.0000      -1.744609       -47.4732   50-A'
  60   1.0000      -1.744257       -47.4637   51-A'
  61   1.0000      -1.743838       -47.4522   52-A'
  62   1.0000      -1.743794       -47.4510   11-A"
  63   1.0000      -1.741857       -47.3983   53-A'
  64   1.0000      -1.741651       -47.3927   12-A"
  65   1.0000      -1.741438       -47.3869   54-A'
  66   1.0000      -1.741266       -47.3822   13-A"
  67   1.0000      -1.741097       -47.3777   55-A'
  68   1.0000      -1.740859       -47.3712   14-A"
  69   1.0000      -1.738857       -47.3167   15-A"
  70   1.0000      -1.738833       -47.3161   56-A'
  71   1.0000      -1.736824       -47.2614   16-A"
  72   1.0000      -1.736806       -47.2609   57-A'
  73   1.0000      -1.736482       -47.2521   58-A'
  74   1.0000      -1.736383       -47.2494   17-A"
  75   1.0000      -1.736009       -47.2392   59-A'
  76   1.0000      -1.735907       -47.2364   18-A"
  77   1.0000      -0.608304       -16.5528   60-A'
  78   1.0000      -0.603687       -16.4272   61-A'
  79   1.0000      -0.539393       -14.6776   62-A'
  80   1.0000      -0.523175       -14.2363   63-A'
  81   1.0000      -0.503479       -13.7004   64-A'
  82   1.0000      -0.499613       -13.5952   65-A'
  83   1.0000      -0.436549       -11.8791   66-A'
  84   1.0000      -0.413867       -11.2619   67-A'
  85   1.0000      -0.384313       -10.4577   68-A'
  86   1.0000      -0.380556       -10.3555   69-A'
  87   1.0000      -0.324653        -8.8343   70-A'
  88   1.0000      -0.320186        -8.7127   71-A'
  89   1.0000      -0.315230        -8.5779   72-A'
  90   1.0000      -0.289638        -7.8815   73-A'
  91   1.0000      -0.232223        -6.3191   74-A'
  92   1.0000      -0.228570        -6.2197   75-A'
  93   1.0000      -0.203346        -5.5333   76-A'
  94   1.0000      -0.200408        -5.4534   77-A'
  95   1.0000      -0.167901        -4.5688   78-A'
  96   1.0000      -0.158491        -4.3127   79-A'
  97   1.0000      -0.156823        -4.2674   80-A'
  98   1.0000      -0.140872        -3.8333   81-A'
  99   1.0000      -0.133907        -3.6438   19-A"
 100   1.0000      -0.131800        -3.5864   20-A"
 101   1.0000      -0.125263        -3.4086   82-A'
 102   1.0000      -0.102285        -2.7833   83-A'
 103   1.0000      -0.081544        -2.2189   84-A'
 104   1.0000      -0.070397        -1.9156   85-A'
 105   1.0000      -0.061754        -1.6804   86-A'
 106   1.0000      -0.055058        -1.4982   87-A'
 107   1.0000      -0.051045        -1.3890   21-A"
 108   1.0000      -0.049073        -1.3353   22-A"
 109   1.0000      -0.033897        -0.9224   23-A"
 110   1.0000      -0.028789        -0.7834   24-A"
 111   1.0000      -0.025564        -0.6956   88-A'
 112   1.0000      -0.004711        -0.1282   89-A'
 113   1.0000       0.005065         0.1378   25-A"
 114   1.0000       0.007603         0.2069   26-A"
 115   1.0000       0.008393         0.2284   90-A'
 116   1.0000       0.026619         0.7243   91-A'
 117   1.0000       0.029562         0.8044   92-A'
 118   1.0000       0.049583         1.3492   93-A'
 119   1.0000       0.053940         1.4678   27-A"
 120   1.0000       0.057122         1.5544   28-A"
 121   1.0000       0.069756         1.8982   29-A"
 122   1.0000       0.100189         2.7263   30-A"
 123   0.0000       0.142849         3.8871   94-A'
 124   0.0000       0.170441         4.6379   95-A'
 125   0.0000       0.182897         4.9769   96-A'
 126   0.0000       0.198758         5.4085   97-A'
 127   0.0000       0.198908         5.4126   31-A"

MULLIKEN ATOMIC CHARGES AND SPIN POPULATIONS
--------------------------------------------
   0 Cu:    0.640033    0.309664
   1 Se:   -0.732128    0.173705
   2 C :    0.220865   -0.003083
   3 Se:   -0.723230    0.165831
   4 C :    0.212374   -0.002919
   5 Se:   -0.729279    0.175869
   6 C :    0.219817   -0.003337
   7 Se:   -0.726265    0.172361
   8 C :    0.214420   -0.002953
   9 C :   -0.108256   -0.001021
  10 C :   -0.144132   -0.002463
  11 C :   -0.169351    0.000408
  12 H :    0.212520    0.004087
  13 C :   -1.447441    0.000274
  14 H :   -0.004774    0.002110
  15 H :   -0.184410    0.007285
  16 H :    1.540124   -0.000350
  17 C :   -0.114925   -0.001427
  18 C :   -0.101998   -0.001572
  19 C :   -0.256389   -0.000329
  20 H :    0.063211    0.002546
  21 C :   -0.141811   -0.000985
  22 H :    0.114300    0.003014
  23 H :    0.213707    0.000832
  24 H :   -0.066982    0.002456
Sum of atomic charges         :   -2.0000000

LOEWDIN ATOMIC CHARGES AND SPIN POPULATIONS
-------------------------------------------
   0 Cu:   -0.613471    0.389544
   1 Se:   -0.204041    0.122963
   2 C :    0.036888    0.011727
   3 Se:   -0.183172    0.119484
   4 C :    0.051710    0.011552
   5 Se:   -0.197156    0.125293
   6 C :    0.040666    0.011926
   7 Se:   -0.214185    0.121938
   8 C :    0.032308    0.011891
   9 C :    0.438486    0.006611
  10 C :    0.380249    0.006520
  11 C :    0.317385    0.001982
  12 H :   -0.572008    0.008997
  13 C :    0.689645    0.000369
  14 H :   -0.349494    0.009473
  15 H :   -0.161274    0.005532
  16 H :   -1.132472   -0.000305
  17 C :    0.385378    0.006803
  18 C :    0.366403    0.007009
  19 C :    0.387333    0.000414
  20 H :   -0.433768    0.009389
  21 C :    0.299935    0.000513
  22 H :   -0.480892    0.009494
  23 H :   -0.560188    0.000049
  24 H :   -0.324265    0.000832

  Mayer bond orders larger than 0.100000
B(  0-Cu,  1-Se) :   0.5528 B(  0-Cu,  3-Se) :   0.5411 B(  0-Cu,  5-Se) :   0.5512
B(  0-Cu,  7-Se) :   0.5534 B(  1-Se,  2-C ) :   1.0387 B(  2-C ,  6-C ) :   1.1338
B(  2-C , 17-C ) :   1.2572 B(  3-Se,  4-C ) :   1.0560 B(  4-C ,  8-C ) :   1.1332
B(  4-C , 10-C ) :   1.2545 B(  5-Se,  6-C ) :   1.0421 B(  6-C , 18-C ) :   1.2563
B(  7-Se,  8-C ) :   1.0374 B(  8-C ,  9-C ) :   1.2637 B(  9-C , 13-C ) :   1.4742
B(  9-C , 14-H ) :   0.9985 B( 10-C , 11-C ) :   1.4225 B( 10-C , 12-H ) :   0.8826
B( 11-C , 13-C ) :   1.4559 B( 11-C , 15-H ) :   0.9486 B( 13-C , 16-H ) :  -1.8201
B( 17-C , 19-C ) :   1.3977 B( 17-C , 20-H ) :   0.9755 B( 18-C , 21-C ) :   1.3821
B( 18-C , 22-H ) :   0.9479 B( 19-C , 21-C ) :   1.3317 B( 19-C , 23-H ) :   0.8710
B( 21-C , 24-H ) :   1.0203

FINAL SINGLE POINT ENERGY    -11626.612865869265

DIPOLE MOMENT
-------------
                                X             Y             Z
Electronic contribution:      0.22355      -0.50751      -0.00000
Nuclear contribution   :     -0.19267       0.04267       0.00000
                        -----------------------------------------
Total Dipole Moment    :      0.03087      -0.46484      -0.00000
                        -----------------------------------------
Magnitude (a.u.)       :      0.46587
Magnitude (Debye)      :      1.18414

Rotational constants in cm-1:     0.017613     0.004098     0.003324
Rotational constants in MHz :   528.017220   122.851606    99.663344

                             ****ORCA TERMINATED NORMALLY****
TOTAL RUN TIME: 0 days 16 hours 55 minutes 20 seconds 82 msec
