                         Program Version 5.0.4 -  RELEASE  -
|  1> ! RIJCOSX nofrozencore ReducedPop printbasis
|  2> ! M06L ano-rcc-dzp autoaux
|  3>
|  4> %maxcore 7500
|  5> %basis
|  6> PCDTrimBas overlap
|  7> PCDTrimAuxJ Coulomb
|  8> PCDTrimAuxJK Coulomb
|  9> PCDTrimAuxC Coulomb
| 10> PCDThresh -1
| 11> end
| 12>
| 13> %basis
| 14> newgto Cu "ano-rcc-tzp" end
| 15> newgto Se "ano-rcc-tzp" end
| 16> end
| 17>
| 18> %pal
| 19> nprocs 8
| 20> end
| 21>
| 22> % sym SymThresh 1e-2 end
| 23> * xyz -2 2
| 24> Cu 1.5066010743998607e-06 1.0896035482986365e-05 8.101824559487814e-08
| 25> Se 1.592498421822808 -0.21317297587131612 -1.7396886732829622
| 26> C 0.7273378149454474 -0.035179896299521604 -3.1190200827684227
| 27> Se 1.5545188912987586 -0.2266594345724726 1.7720256566352435
| 28> C 0.6510167151900258 -0.12208187196875353 3.133392044957157
| 29> Se -1.5535459009321644 0.23369629239712122 -1.7719733335791794
| 30> C -0.6575382433861666 0.07491689655762664 -3.133742743481157
| 31> Se -1.5935364699630694 0.2056656074235385 1.7396328517117474
| 32> C -0.7198806874821042 0.08911130974558304 3.119421093622937
| 33> C -1.351842951230434 0.17664611263550573 4.355274900668539
| 34> C 1.2546126344175192 -0.22999044922578307 4.3818074550540045
| 35> C 0.629926653400556 -0.09616169587337065 5.604763151804306
| 36> H 2.3212253689515516 -0.40159020196328704 4.384474791039836
| 37> C -0.7539737414552815 0.03167932930599492 5.590155025266442
| 38> H -2.4200020916140663 0.33584835567829874 4.336197955445499
| 39> H 1.2029838109941813 -0.1494294827320959 6.52506407713628
| 40> H -1.3487874762831518 0.0635852760559344 6.497996012365014
| 41> C 1.3664300108957677 -0.07114970064026899 -4.354491474570388
| 42> C -1.2696248184140415 0.1214193800272661 -4.382614742948998
| 43> C 0.7337543443536914 -0.1779100628794711 -5.591243334235089
| 44> H 2.4449063554368906 -0.15573589269557137 -4.334859716401515
| 45> C -0.6093334822687806 0.24509563679530771 -5.603654742945457
| 46> H -2.3495208437298554 0.1969517595573201 -4.385996394710354
| 47> H 1.2999586724255863 -0.41672479551084224 -6.500621806339448
| 48> H -1.1562985324412842 0.48707398031589666 -6.522552508737615
| 49> *
| 50>
| 51> % eprnmr
| 52> gtensor true
| 53> Nuclei = all H {aiso,adip,aorb,fgrad,rho}
| 54> Nuclei = all Cu {aiso,adip,aorb,fgrad,rho}
| 55> end
| 56>
| 57>                          ****END OF INPUT****

CARTESIAN COORDINATES (ANGSTROEM)
---------------------------------
  Cu     0.000002    0.000011    0.000000
  Se     1.592498   -0.213173   -1.739689
  C      0.727338   -0.035180   -3.119020
  Se     1.554519   -0.226659    1.772026
  C      0.651017   -0.122082    3.133392
  Se    -1.553546    0.233696   -1.771973
  C     -0.657538    0.074917   -3.133743
  Se    -1.593536    0.205666    1.739633
  C     -0.719881    0.089111    3.119421
  C     -1.351843    0.176646    4.355275
  C      1.254613   -0.229990    4.381807
  C      0.629927   -0.096162    5.604763
  H      2.321225   -0.401590    4.384475
  C     -0.753974    0.031679    5.590155
  H     -2.420002    0.335848    4.336198
  H      1.202984   -0.149430    6.525064
  H     -1.348787    0.063585    6.497996
  C      1.366430   -0.071150   -4.354491
  C     -1.269625    0.121419   -4.382615
  C      0.733754   -0.177910   -5.591243
  H      2.444906   -0.155736   -4.334860
  C     -0.609333    0.245096   -5.603655
  H     -2.349521    0.196952   -4.385996
  H      1.299959   -0.416725   -6.500622
  H     -1.156299    0.487074   -6.522552

 Total Charge           Charge          ....   -2
 Multiplicity           Mult            ....    2
 Number of Electrons    NEL             ....  247
 Basis Dimension        Dim             ....  575

ORBITAL ENERGIES
----------------
                 SPIN UP ORBITALS
  NO   OCC          E(Eh)            E(eV)
   0   1.0000    -443.561155    -12069.9126
   1   1.0000    -443.559746    -12069.8743
   2   1.0000    -443.546658    -12069.5182
   3   1.0000    -443.546490    -12069.5136
   4   1.0000    -318.186600     -8658.2976
   5   1.0000     -56.369879     -1533.9024
   6   1.0000     -56.369340     -1533.8877
   7   1.0000     -56.357117     -1533.5551
   8   1.0000     -56.356761     -1533.5454
   9   1.0000     -51.286253     -1395.5699
  10   1.0000     -51.286204     -1395.5685
  11   1.0000     -51.285991     -1395.5628
  12   1.0000     -51.285947     -1395.5616
  13   1.0000     -51.284931     -1395.5339
  14   1.0000     -51.284881     -1395.5325
  15   1.0000     -51.284658     -1395.5265
  16   1.0000     -51.284599     -1395.5249
  17   1.0000     -51.284475     -1395.5215
  18   1.0000     -51.284434     -1395.5204
  19   1.0000     -51.284219     -1395.5146
  20   1.0000     -51.284171     -1395.5132
  21   1.0000     -38.027122     -1034.7706
  22   1.0000     -33.529168      -912.3751
  23   1.0000     -33.528376      -912.3535
  24   1.0000     -33.517254      -912.0509
  25   1.0000      -9.821419      -267.2544
  26   1.0000      -9.821023      -267.2436
  27   1.0000      -9.816130      -267.1105
  28   1.0000      -9.815686      -267.0984
  29   1.0000      -9.808737      -266.9093
  30   1.0000      -9.808569      -266.9047
  31   1.0000      -9.808296      -266.8973
  32   1.0000      -9.808221      -266.8953
  33   1.0000      -9.807871      -266.8857
  34   1.0000      -9.807848      -266.8851
  35   1.0000      -9.806460      -266.8473
  36   1.0000      -9.806380      -266.8452
  37   1.0000      -7.341089      -199.7612
  38   1.0000      -7.340942      -199.7572
  39   1.0000      -7.334059      -199.5699
  40   1.0000      -7.333584      -199.5570
  41   1.0000      -5.404300      -147.0585
  42   1.0000      -5.404280      -147.0579
  43   1.0000      -5.403818      -147.0454
  44   1.0000      -5.403801      -147.0449
  45   1.0000      -5.399115      -146.9174
  46   1.0000      -5.399097      -146.9169
  47   1.0000      -5.398496      -146.9005
  48   1.0000      -5.398489      -146.9003
  49   1.0000      -5.398469      -146.8998
  50   1.0000      -5.398462      -146.8996
  51   1.0000      -5.398125      -146.8905
  52   1.0000      -5.398098      -146.8897
  53   1.0000      -4.021431      -109.4287
  54   1.0000      -2.540960       -69.1430
  55   1.0000      -2.540027       -69.1177
  56   1.0000      -2.516582       -68.4797
  57   1.0000      -1.743301       -47.4376
  58   1.0000      -1.743271       -47.4368
  59   1.0000      -1.742827       -47.4247
  60   1.0000      -1.742798       -47.4239
  61   1.0000      -1.740677       -47.3662
  62   1.0000      -1.740601       -47.3642
  63   1.0000      -1.740161       -47.3522
  64   1.0000      -1.740080       -47.3500
  65   1.0000      -1.739860       -47.3440
  66   1.0000      -1.739832       -47.3432
  67   1.0000      -1.739382       -47.3310
  68   1.0000      -1.739363       -47.3305
  69   1.0000      -1.735550       -47.2267
  70   1.0000      -1.735477       -47.2247
  71   1.0000      -1.735446       -47.2239
  72   1.0000      -1.735422       -47.2232
  73   1.0000      -1.735036       -47.2127
  74   1.0000      -1.734973       -47.2110
  75   1.0000      -1.734952       -47.2104
  76   1.0000      -1.734933       -47.2099
  77   1.0000      -0.602371       -16.3913
  78   1.0000      -0.601051       -16.3554
  79   1.0000      -0.521028       -14.1779
  80   1.0000      -0.518366       -14.1055
  81   1.0000      -0.499068       -13.5803
  82   1.0000      -0.498124       -13.5546
  83   1.0000      -0.412431       -11.2228
  84   1.0000      -0.409964       -11.1557
  85   1.0000      -0.382637       -10.4121
  86   1.0000      -0.377743       -10.2789
  87   1.0000      -0.320069        -8.7095
  88   1.0000      -0.317324        -8.6348
  89   1.0000      -0.287652        -7.8274
  90   1.0000      -0.284498        -7.7416
  91   1.0000      -0.228931        -6.2295
  92   1.0000      -0.221790        -6.0352
  93   1.0000      -0.199596        -5.4313
  94   1.0000      -0.194941        -5.3046
  95   1.0000      -0.173740        -4.7277
  96   1.0000      -0.167249        -4.5511
  97   1.0000      -0.139448        -3.7946
  98   1.0000      -0.137741        -3.7481
  99   1.0000      -0.137068        -3.7298
 100   1.0000      -0.130040        -3.5386
 101   1.0000      -0.126900        -3.4531
 102   1.0000      -0.111777        -3.0416
 103   1.0000      -0.084395        -2.2965
 104   1.0000      -0.075484        -2.0540
 105   1.0000      -0.067525        -1.8374
 106   1.0000      -0.064174        -1.7463
 107   1.0000      -0.047322        -1.2877
 108   1.0000      -0.038524        -1.0483
 109   1.0000      -0.031754        -0.8641
 110   1.0000      -0.029558        -0.8043
 111   1.0000      -0.029438        -0.8011
 112   1.0000      -0.023618        -0.6427
 113   1.0000      -0.000473        -0.0129
 114   1.0000      -0.000018        -0.0005
 115   1.0000       0.000942         0.0256
 116   1.0000       0.019488         0.5303
 117   1.0000       0.021264         0.5786
 118   1.0000       0.040924         1.1136
 119   1.0000       0.055805         1.5185
 120   1.0000       0.058385         1.5887
 121   1.0000       0.071143         1.9359
 122   1.0000       0.099721         2.7136
 123   1.0000       0.116732         3.1764
 124   0.0000       0.181614         4.9420
 125   0.0000       0.182239         4.9590
 126   0.0000       0.195492         5.3196
 127   0.0000       0.196487         5.3467
 128   0.0000       0.200489         5.4556

                 SPIN DOWN ORBITALS
  NO   OCC          E(Eh)            E(eV)
   0   1.0000    -443.560704    -12069.9004
   1   1.0000    -443.559294    -12069.8620
   2   1.0000    -443.546208    -12069.5059
   3   1.0000    -443.546038    -12069.5013
   4   1.0000    -318.186477     -8658.2942
   5   1.0000     -56.369696     -1533.8974
   6   1.0000     -56.369156     -1533.8827
   7   1.0000     -56.356935     -1533.5502
   8   1.0000     -56.356581     -1533.5405
   9   1.0000     -51.285932     -1395.5612
  10   1.0000     -51.285873     -1395.5596
  11   1.0000     -51.285671     -1395.5541
  12   1.0000     -51.285619     -1395.5526
  13   1.0000     -51.284251     -1395.5154
  14   1.0000     -51.284220     -1395.5146
  15   1.0000     -51.284156     -1395.5128
  16   1.0000     -51.284124     -1395.5119
  17   1.0000     -51.283971     -1395.5078
  18   1.0000     -51.283931     -1395.5067
  19   1.0000     -51.283918     -1395.5064
  20   1.0000     -51.283876     -1395.5052
  21   1.0000     -38.013285     -1034.3941
  22   1.0000     -33.516022      -912.0173
  23   1.0000     -33.515229      -911.9957
  24   1.0000     -33.513384      -911.9455
  25   1.0000      -9.821375      -267.2532
  26   1.0000      -9.820979      -267.2424
  27   1.0000      -9.816081      -267.1091
  28   1.0000      -9.815637      -267.0970
  29   1.0000      -9.808653      -266.9070
  30   1.0000      -9.808487      -266.9025
  31   1.0000      -9.808314      -266.8978
  32   1.0000      -9.808166      -266.8938
  33   1.0000      -9.807863      -266.8855
  34   1.0000      -9.807851      -266.8852
  35   1.0000      -9.806342      -266.8441
  36   1.0000      -9.806261      -266.8419
  37   1.0000      -7.340688      -199.7503
  38   1.0000      -7.340546      -199.7464
  39   1.0000      -7.333651      -199.5588
  40   1.0000      -7.333180      -199.5460
  41   1.0000      -5.403936      -147.0486
  42   1.0000      -5.403915      -147.0480
  43   1.0000      -5.403456      -147.0355
  44   1.0000      -5.403437      -147.0350
  45   1.0000      -5.398451      -146.8993
  46   1.0000      -5.398434      -146.8988
  47   1.0000      -5.398014      -146.8874
  48   1.0000      -5.397987      -146.8867
  49   1.0000      -5.397814      -146.8820
  50   1.0000      -5.397788      -146.8813
  51   1.0000      -5.397678      -146.8783
  52   1.0000      -5.397651      -146.8776
  53   1.0000      -3.993326      -108.6639
  54   1.0000      -2.506293       -68.1997
  55   1.0000      -2.505874       -68.1883
  56   1.0000      -2.504865       -68.1608
  57   1.0000      -1.742851       -47.4254
  58   1.0000      -1.742820       -47.4246
  59   1.0000      -1.742381       -47.4126
  60   1.0000      -1.742352       -47.4118
  61   1.0000      -1.739807       -47.3426
  62   1.0000      -1.739747       -47.3409
  63   1.0000      -1.739523       -47.3348
  64   1.0000      -1.739494       -47.3340
  65   1.0000      -1.739273       -47.3280
  66   1.0000      -1.739190       -47.3258
  67   1.0000      -1.739074       -47.3226
  68   1.0000      -1.739057       -47.3221
  69   1.0000      -1.734748       -47.2049
  70   1.0000      -1.734683       -47.2031
  71   1.0000      -1.734677       -47.2030
  72   1.0000      -1.734656       -47.2024
  73   1.0000      -1.734242       -47.1911
  74   1.0000      -1.734198       -47.1899
  75   1.0000      -1.734176       -47.1893
  76   1.0000      -1.734161       -47.1889
  77   1.0000      -0.601567       -16.3695
  78   1.0000      -0.600175       -16.3316
  79   1.0000      -0.519901       -14.1472
  80   1.0000      -0.517239       -14.0748
  81   1.0000      -0.497381       -13.5344
  82   1.0000      -0.496393       -13.5075
  83   1.0000      -0.409764       -11.1503
  84   1.0000      -0.407278       -11.0826
  85   1.0000      -0.380138       -10.3441
  86   1.0000      -0.375399       -10.2151
  87   1.0000      -0.318317        -8.6619
  88   1.0000      -0.315438        -8.5835
  89   1.0000      -0.285319        -7.7639
  90   1.0000      -0.281920        -7.6714
  91   1.0000      -0.227801        -6.1988
  92   1.0000      -0.220723        -6.0062
  93   1.0000      -0.198330        -5.3968
  94   1.0000      -0.193695        -5.2707
  95   1.0000      -0.172180        -4.6853
  96   1.0000      -0.165231        -4.4962
  97   1.0000      -0.138622        -3.7721
  98   1.0000      -0.136308        -3.7091
  99   1.0000      -0.135116        -3.6767
 100   1.0000      -0.129640        -3.5277
 101   1.0000      -0.126324        -3.4374
 102   1.0000      -0.110098        -2.9959
 103   1.0000      -0.083017        -2.2590
 104   1.0000      -0.073577        -2.0021
 105   1.0000      -0.061924        -1.6850
 106   1.0000      -0.057272        -1.5584
 107   1.0000      -0.046221        -1.2577
 108   1.0000      -0.036565        -0.9950
 109   1.0000      -0.029246        -0.7958
 110   1.0000      -0.023302        -0.6341
 111   1.0000      -0.021985        -0.5982
 112   1.0000      -0.002007        -0.0546
 113   1.0000       0.008960         0.2438
 114   1.0000       0.011009         0.2996
 115   1.0000       0.011257         0.3063
 116   1.0000       0.029321         0.7979
 117   1.0000       0.032300         0.8789
 118   1.0000       0.051999         1.4150
 119   1.0000       0.058062         1.5799
 120   1.0000       0.061460         1.6724
 121   1.0000       0.073087         1.9888
 122   1.0000       0.103101         2.8055
 123   0.0000       0.146263         3.9800
 124   0.0000       0.183193         4.9849
 125   0.0000       0.184138         5.0107
 126   0.0000       0.197825         5.3831
 127   0.0000       0.199741         5.4352

MULLIKEN ATOMIC CHARGES AND SPIN POPULATIONS
--------------------------------------------
   0 Cu:    0.640103    0.308538
   1 Se:   -0.727981    0.174550
   2 C :    0.231749   -0.001167
   3 Se:   -0.734023    0.172066
   4 C :    0.222165   -0.003164
   5 Se:   -0.728086    0.174653
   6 C :    0.231964   -0.001124
   7 Se:   -0.733788    0.172022
   8 C :    0.221958   -0.003171
   9 C :   -0.103596   -0.001306
  10 C :   -0.103354   -0.001327
  11 C :   -0.158418   -0.000682
  12 H :    0.091886    0.002707
  13 C :   -0.156915   -0.000708
  14 H :    0.092146    0.002717
  15 H :    0.021071    0.001583
  16 H :    0.020356    0.001582
  17 C :   -0.108880   -0.001926
  18 C :   -0.108292   -0.001940
  19 C :   -0.161477   -0.001110
  20 H :    0.092417    0.002490
  21 C :   -0.164013   -0.001110
  22 H :    0.091670    0.002488
  23 H :    0.014864    0.001672
  24 H :    0.016474    0.001665
Sum of atomic charges         :   -2.0000000

LOEWDIN ATOMIC CHARGES AND SPIN POPULATIONS
-------------------------------------------
   0 Cu:   -0.615908    0.389059
   1 Se:   -0.203333    0.124917
   2 C :    0.036205    0.013115
   3 Se:   -0.202821    0.122501
   4 C :    0.038084    0.011736
   5 Se:   -0.203587    0.124934
   6 C :    0.035952    0.013125
   7 Se:   -0.202703    0.122540
   8 C :    0.038182    0.011736
   9 C :    0.370890    0.006947
  10 C :    0.370985    0.006921
  11 C :    0.319921    0.000435
  12 H :   -0.460090    0.009366
  13 C :    0.319811    0.000428
  14 H :   -0.460428    0.009379
  15 H :   -0.412388    0.000385
  16 H :   -0.411822    0.000383
  17 C :    0.369316    0.006548
  18 C :    0.369563    0.006521
  19 C :    0.320535    0.000020
  20 H :   -0.462410    0.009136
  21 C :    0.320866    0.000014
  22 H :   -0.461518    0.009101
  23 H :   -0.405884    0.000378
  24 H :   -0.407419    0.000375

  Mayer bond orders larger than 0.100000
B(  0-Cu,  1-Se) :   0.5479 B(  0-Cu,  3-Se) :   0.5496 B(  0-Cu,  5-Se) :   0.5479
B(  0-Cu,  7-Se) :   0.5496 B(  1-Se,  2-C ) :   1.0373 B(  2-C ,  6-C ) :   1.1318
B(  2-C , 17-C ) :   1.2618 B(  3-Se,  4-C ) :   1.0393 B(  4-C ,  8-C ) :   1.1334
B(  4-C , 10-C ) :   1.2578 B(  5-Se,  6-C ) :   1.0368 B(  6-C , 18-C ) :   1.2620
B(  7-Se,  8-C ) :   1.0397 B(  8-C ,  9-C ) :   1.2576 B(  9-C , 13-C ) :   1.3793
B(  9-C , 14-H ) :   0.9597 B( 10-C , 11-C ) :   1.3793 B( 10-C , 12-H ) :   0.9598
B( 11-C , 13-C ) :   1.3122 B( 11-C , 15-H ) :   0.9957 B( 13-C , 16-H ) :   0.9959
B( 17-C , 19-C ) :   1.3771 B( 17-C , 20-H ) :   0.9593 B( 18-C , 21-C ) :   1.3771
B( 18-C , 22-H ) :   0.9596 B( 19-C , 21-C ) :   1.3068 B( 19-C , 23-H ) :   0.9987
B( 21-C , 24-H ) :   0.9981

FINAL SINGLE POINT ENERGY    -11627.124927571038

DIPOLE MOMENT
-------------
                                X             Y             Z
Electronic contribution:      0.00326       0.02590       0.02233
Nuclear contribution   :     -0.00453      -0.03276      -0.00024
                        -----------------------------------------
Total Dipole Moment    :     -0.00127      -0.00686       0.02208
                        -----------------------------------------
Magnitude (a.u.)       :      0.02316
Magnitude (Debye)      :      0.05887

Rotational constants in cm-1:     0.017601     0.004097     0.003325
Rotational constants in MHz :   527.655334   122.827024    99.666038

                             ****ORCA TERMINATED NORMALLY****
TOTAL RUN TIME: 0 days 17 hours 20 minutes 0 seconds 264 msec
