                         Program Version 5.0.4 -  RELEASE  -
|  1> ! RIJCOSX nofrozencore ReducedPop printbasis
|  2> ! M06L ano-rcc-dzp autoaux
|  3>
|  4> %maxcore 7500
|  5> %basis
|  6> PCDTrimBas overlap
|  7> PCDTrimAuxJ Coulomb
|  8> PCDTrimAuxJK Coulomb
|  9> PCDTrimAuxC Coulomb
| 10> PCDThresh -1
| 11> end
| 12>
| 13> %basis
| 14> newgto Cu "ano-rcc-tzp" end
| 15> newgto Se "ano-rcc-tzp" end
| 16> end
| 17>
| 18> %pal
| 19> nprocs 8
| 20> end
| 21>
| 22> % sym SymThresh 1e-2 end
| 23> * xyz -2 2
| 24> Cu 4.165088146590659e-06 2.421282058339738e-06 1.3376972471721975e-06
| 25> Se -0.2730318574817066 -0.7603090542580916 2.226063805843906
| 26> C 0.5388851593137053 -2.180900373551921 2.282561141940898
| 27> Se -1.2465778975014152 1.994288807424143 0.27718986258292533
| 28> C -1.2338990892270365 2.7010227604484585 -1.2001852301082867
| 29> Se 1.2478665757739702 -1.9935396627552926 -0.2767759790546503
| 30> C 1.1968972791503545 -2.722532945998337 1.1883013953038584
| 31> Se 0.2717406801562635 0.7595584568200063 -2.2264784919905294
| 32> C -0.5018841822546525 2.2024100748453876 -2.270677574675919
| 33> C -0.5476337834393306 2.9336774579959077 -3.4528123786524505
| 34> C -1.8777862669744174 3.917959635339408 -1.3970650323840967
| 35> C -1.8735440140199158 4.666247558812173 -2.556281353080407
| 36> H -2.0770016272977783 4.514073266108944 -0.4405815682128679
| 37> C -1.2341345034268083 4.112824349481216 -3.6578933127984863
| 38> H -0.3439663736692537 2.324723212512254 -4.400263476440079
| 39> H -2.518148212223677 5.5452033290731855 -2.639212323941437
| 40> H -1.0972422405318518 4.66744509134081 -4.589854259587359
| 41> C 0.584141891639967 -2.9124552206370664 3.464538117609789
| 42> C 1.841257610911188 -3.939194763247459 1.3853331599869472
| 43> C 1.2205016144835277 -4.120750474053493 3.653515317215467
| 44> H 0.0405941259141698 -2.501082917934464 4.302830177094222
| 45> C 1.8872168878094036 -4.658298189932135 2.560672190556999
| 46> H 2.3804091393714333 -4.337694006056363 0.5380266592620255
| 47> H 1.2045865582810449 -4.605042841620456 4.624329928120379
| 48> H 2.410568351480131 -5.607742227319478 2.604659599077265
| 49> *
| 50>
| 51> % eprnmr
| 52> gtensor true
| 53> Nuclei = all H {aiso,adip,aorb,fgrad,rho}
| 54> Nuclei = all Cu {aiso,adip,aorb,fgrad,rho}
| 55> end
| 56>
| 57>                          ****END OF INPUT****

CARTESIAN COORDINATES (ANGSTROEM)
---------------------------------
  Cu    -0.000000   -0.000000    0.000000
  Se     1.447863   -0.654403   -1.755969
  C      0.633372   -0.282448   -3.126639
  Se     1.448500   -0.652992    1.755969
  C      0.615080   -0.322925    3.126639
  Se    -1.447863    0.654403   -1.755969
  C     -0.633372    0.282448   -3.126639
  Se    -1.448500    0.652992    1.755969
  C     -0.615080    0.322925    3.126639
  C     -1.185067    0.580232    4.368893
  C      1.185067   -0.580232    4.368893
  C      0.638811   -0.272191    5.597896
  H      2.325208   -0.679957    4.360734
  C     -0.638811    0.272191    5.597896
  H     -2.325208    0.679957    4.360734
  H      1.116322   -0.634378    6.512078
  H     -1.116322    0.634378    6.512078
  C      1.203121   -0.540284   -4.368893
  C     -1.203121    0.540284   -4.368893
  C      0.632061   -0.287127   -5.597895
  H      2.175219   -1.011844   -4.360734
  C     -0.632061    0.287127   -5.597895
  H     -2.175219    1.011844   -4.360734
  H      1.169449   -0.516822   -6.512077
  H     -1.169449    0.516822   -6.512077

 Total Charge           Charge          ....   -2
 Multiplicity           Mult            ....    2
 Number of Electrons    NEL             ....  247
 Basis Dimension        Dim             ....  575

ORBITAL ENERGIES
----------------
                 SPIN UP ORBITALS
  NO   OCC          E(Eh)            E(eV)    Irrep
   0   1.0000    -443.561741    -12069.9286    1-B
   1   1.0000    -443.559246    -12069.8607    2-B
   2   1.0000    -443.547319    -12069.5361    1-A
   3   1.0000    -443.546187    -12069.5053    2-A
   4   1.0000    -318.187596     -8658.3247    3-A
   5   1.0000     -56.370550     -1533.9206    3-B
   6   1.0000     -56.369195     -1533.8838    4-B
   7   1.0000     -56.357519     -1533.5660    4-A
   8   1.0000     -56.357100     -1533.5547    5-A
   9   1.0000     -51.286679     -1395.5815    5-B
  10   1.0000     -51.286616     -1395.5798    6-A
  11   1.0000     -51.286611     -1395.5796    6-B
  12   1.0000     -51.286582     -1395.5789    7-A
  13   1.0000     -51.285345     -1395.5452    7-B
  14   1.0000     -51.285316     -1395.5444    8-B
  15   1.0000     -51.285298     -1395.5439    8-A
  16   1.0000     -51.285251     -1395.5426    9-A
  17   1.0000     -51.284913     -1395.5334   10-A
  18   1.0000     -51.284872     -1395.5323   11-A
  19   1.0000     -51.284864     -1395.5321    9-B
  20   1.0000     -51.284814     -1395.5307   10-B
  21   1.0000     -38.028175     -1034.7993   12-A
  22   1.0000     -33.530235      -912.4041   11-B
  23   1.0000     -33.529448      -912.3827   13-A
  24   1.0000     -33.518277      -912.0787   12-B
  25   1.0000      -9.817116      -267.1373   14-A
  26   1.0000      -9.816670      -267.1252   13-B
  27   1.0000      -9.816372      -267.1171   15-A
  28   1.0000      -9.815923      -267.1049   14-B
  29   1.0000      -9.811749      -266.9913   16-A
  30   1.0000      -9.811745      -266.9912   15-B
  31   1.0000      -9.810394      -266.9544   17-A
  32   1.0000      -9.809955      -266.9424   16-B
  33   1.0000      -9.808964      -266.9155   18-A
  34   1.0000      -9.808513      -266.9032   17-B
  35   1.0000      -9.806859      -266.8582   19-A
  36   1.0000      -9.806857      -266.8582   18-B
  37   1.0000      -7.341633      -199.7760   19-B
  38   1.0000      -7.341410      -199.7699   20-B
  39   1.0000      -7.334499      -199.5819   20-A
  40   1.0000      -7.334238      -199.5748   21-A
  41   1.0000      -5.404913      -147.0751   21-B
  42   1.0000      -5.404895      -147.0747   22-A
  43   1.0000      -5.404465      -147.0630   22-B
  44   1.0000      -5.404447      -147.0625   23-A
  45   1.0000      -5.399742      -146.9344   23-B
  46   1.0000      -5.399728      -146.9341   24-A
  47   1.0000      -5.399204      -146.9198   24-B
  48   1.0000      -5.399189      -146.9194   25-A
  49   1.0000      -5.399173      -146.9190   26-A
  50   1.0000      -5.399148      -146.9183   25-B
  51   1.0000      -5.398779      -146.9082   27-A
  52   1.0000      -5.398753      -146.9075   26-B
  53   1.0000      -4.022470      -109.4570   28-A
  54   1.0000      -2.542040       -69.1724   27-B
  55   1.0000      -2.541073       -69.1461   29-A
  56   1.0000      -2.517572       -68.5066   28-B
  57   1.0000      -1.743987       -47.4563   30-A
  58   1.0000      -1.743958       -47.4555   29-B
  59   1.0000      -1.743519       -47.4436   31-A
  60   1.0000      -1.743491       -47.4428   30-B
  61   1.0000      -1.741266       -47.3823   32-A
  62   1.0000      -1.741190       -47.3802   31-B
  63   1.0000      -1.740773       -47.3688   33-A
  64   1.0000      -1.740690       -47.3666   32-B
  65   1.0000      -1.740515       -47.3618   33-B
  66   1.0000      -1.740515       -47.3618   34-A
  67   1.0000      -1.740028       -47.3486   34-B
  68   1.0000      -1.740021       -47.3484   35-A
  69   1.0000      -1.736255       -47.2459   36-A
  70   1.0000      -1.736190       -47.2441   35-B
  71   1.0000      -1.736148       -47.2430   36-B
  72   1.0000      -1.736126       -47.2424   37-A
  73   1.0000      -1.735723       -47.2314   38-A
  74   1.0000      -1.735658       -47.2297   37-B
  75   1.0000      -1.735617       -47.2286   38-B
  76   1.0000      -1.735595       -47.2279   39-A
  77   1.0000      -0.603333       -16.4175   40-A
  78   1.0000      -0.603036       -16.4094   41-A
  79   1.0000      -0.522205       -14.2099   42-A
  80   1.0000      -0.521460       -14.1897   43-A
  81   1.0000      -0.499751       -13.5989   39-B
  82   1.0000      -0.497837       -13.5468   40-B
  83   1.0000      -0.413346       -11.2477   41-B
  84   1.0000      -0.411841       -11.2068   42-B
  85   1.0000      -0.383745       -10.4422   44-A
  86   1.0000      -0.379053       -10.3146   45-A
  87   1.0000      -0.320370        -8.7177   46-A
  88   1.0000      -0.313018        -8.5177   47-A
  89   1.0000      -0.287657        -7.8275   43-B
  90   1.0000      -0.284133        -7.7316   44-B
  91   1.0000      -0.229220        -6.2374   48-A
  92   1.0000      -0.221358        -6.0234   49-A
  93   1.0000      -0.200752        -5.4627   50-A
  94   1.0000      -0.199698        -5.4340   51-A
  95   1.0000      -0.170783        -4.6472   45-B
  96   1.0000      -0.166380        -4.5274   46-B
  97   1.0000      -0.140076        -3.8117   47-B
  98   1.0000      -0.137802        -3.7498   48-B
  99   1.0000      -0.137326        -3.7368   52-A
 100   1.0000      -0.130793        -3.5591   49-B
 101   1.0000      -0.114829        -3.1247   50-B
 102   1.0000      -0.110454        -3.0056   53-A
 103   1.0000      -0.083293        -2.2665   54-A
 104   1.0000      -0.072647        -1.9768   51-B
 105   1.0000      -0.066781        -1.8172   52-B
 106   1.0000      -0.066045        -1.7972   55-A
 107   1.0000      -0.048897        -1.3306   53-B
 108   1.0000      -0.047907        -1.3036   54-B
 109   1.0000      -0.033202        -0.9035   56-A
 110   1.0000      -0.031291        -0.8515   57-A
 111   1.0000      -0.030082        -0.8186   55-B
 112   1.0000      -0.020511        -0.5581   58-A
 113   1.0000      -0.002150        -0.0585   59-A
 114   1.0000      -0.001711        -0.0465   56-B
 115   1.0000       0.001152         0.0314   60-A
 116   1.0000       0.018889         0.5140   61-A
 117   1.0000       0.020828         0.5668   62-A
 118   1.0000       0.040466         1.1011   57-B
 119   1.0000       0.054490         1.4828   63-A
 120   1.0000       0.055496         1.5101   64-A
 121   1.0000       0.069546         1.8924   58-B
 122   1.0000       0.098347         2.6762   59-B
 123   1.0000       0.115762         3.1501   60-B
 124   0.0000       0.181870         4.9489   65-A
 125   0.0000       0.182212         4.9582   66-A
 126   0.0000       0.193075         5.2538   61-B
 127   0.0000       0.196046         5.3347   62-B
 128   0.0000       0.197342         5.3699   63-B

                 SPIN DOWN ORBITALS
  NO   OCC          E(Eh)            E(eV)    Irrep
   0   1.0000    -443.561289    -12069.9163    1-B
   1   1.0000    -443.558792    -12069.8483    2-B
   2   1.0000    -443.546866    -12069.5238    1-A
   3   1.0000    -443.545733    -12069.4930    2-A
   4   1.0000    -318.187475     -8658.3214    3-A
   5   1.0000     -56.370366     -1533.9156    3-B
   6   1.0000     -56.369011     -1533.8788    4-B
   7   1.0000     -56.357338     -1533.5611    4-A
   8   1.0000     -56.356919     -1533.5497    5-A
   9   1.0000     -51.286359     -1395.5728    5-B
  10   1.0000     -51.286289     -1395.5709    6-A
  11   1.0000     -51.286287     -1395.5708    6-B
  12   1.0000     -51.286252     -1395.5699    7-A
  13   1.0000     -51.284710     -1395.5279    8-A
  14   1.0000     -51.284691     -1395.5274    7-B
  15   1.0000     -51.284619     -1395.5254    9-A
  16   1.0000     -51.284585     -1395.5245    8-B
  17   1.0000     -51.284567     -1395.5240    9-B
  18   1.0000     -51.284537     -1395.5232   10-A
  19   1.0000     -51.284528     -1395.5229   10-B
  20   1.0000     -51.284502     -1395.5222   11-A
  21   1.0000     -38.014323     -1034.4223   12-A
  22   1.0000     -33.517068      -912.0458   11-B
  23   1.0000     -33.516281      -912.0244   13-A
  24   1.0000     -33.514418      -911.9737   12-B
  25   1.0000      -9.817064      -267.1359   14-A
  26   1.0000      -9.816619      -267.1238   13-B
  27   1.0000      -9.816320      -267.1157   15-A
  28   1.0000      -9.815872      -267.1035   14-B
  29   1.0000      -9.811642      -266.9884   16-A
  30   1.0000      -9.811636      -266.9882   15-B
  31   1.0000      -9.810405      -266.9547   17-A
  32   1.0000      -9.809966      -266.9427   16-B
  33   1.0000      -9.808984      -266.9160   18-A
  34   1.0000      -9.808531      -266.9037   17-B
  35   1.0000      -9.806739      -266.8549   19-A
  36   1.0000      -9.806739      -266.8549   18-B
  37   1.0000      -7.341234      -199.7651   19-B
  38   1.0000      -7.341009      -199.7590   20-B
  39   1.0000      -7.334091      -199.5708   20-A
  40   1.0000      -7.333832      -199.5637   21-A
  41   1.0000      -5.404549      -147.0653   21-B
  42   1.0000      -5.404530      -147.0648   22-A
  43   1.0000      -5.404102      -147.0531   22-B
  44   1.0000      -5.404083      -147.0526   23-A
  45   1.0000      -5.399139      -146.9180   24-A
  46   1.0000      -5.399128      -146.9178   23-B
  47   1.0000      -5.398659      -146.9050   24-B
  48   1.0000      -5.398650      -146.9047   25-A
  49   1.0000      -5.398473      -146.8999   26-A
  50   1.0000      -5.398449      -146.8993   25-B
  51   1.0000      -5.398341      -146.8963   26-B
  52   1.0000      -5.398317      -146.8957   27-A
  53   1.0000      -3.994308      -108.6906   28-A
  54   1.0000      -2.507282       -68.2266   27-B
  55   1.0000      -2.506880       -68.2157   28-B
  56   1.0000      -2.505830       -68.1871   29-A
  57   1.0000      -1.743536       -47.4440   30-A
  58   1.0000      -1.743507       -47.4432   29-B
  59   1.0000      -1.743068       -47.4313   31-A
  60   1.0000      -1.743038       -47.4305   30-B
  61   1.0000      -1.740454       -47.3602   32-A
  62   1.0000      -1.740412       -47.3590   31-B
  63   1.0000      -1.740121       -47.3511   33-A
  64   1.0000      -1.740086       -47.3501   32-B
  65   1.0000      -1.739883       -47.3446   34-A
  66   1.0000      -1.739798       -47.3423   33-B
  67   1.0000      -1.739718       -47.3401   34-B
  68   1.0000      -1.739711       -47.3399   35-A
  69   1.0000      -1.735443       -47.2238   36-A
  70   1.0000      -1.735393       -47.2224   35-B
  71   1.0000      -1.735365       -47.2217   36-B
  72   1.0000      -1.735353       -47.2214   37-A
  73   1.0000      -1.734918       -47.2095   38-A
  74   1.0000      -1.734864       -47.2080   37-B
  75   1.0000      -1.734845       -47.2075   38-B
  76   1.0000      -1.734829       -47.2071   39-A
  77   1.0000      -0.602511       -16.3952   40-A
  78   1.0000      -0.602234       -16.3876   41-A
  79   1.0000      -0.521051       -14.1785   42-A
  80   1.0000      -0.520343       -14.1593   43-A
  81   1.0000      -0.498059       -13.5529   39-B
  82   1.0000      -0.496087       -13.4992   40-B
  83   1.0000      -0.410676       -11.1751   41-B
  84   1.0000      -0.409180       -11.1344   42-B
  85   1.0000      -0.381206       -10.3731   44-A
  86   1.0000      -0.376668       -10.2497   45-A
  87   1.0000      -0.318571        -8.6687   46-A
  88   1.0000      -0.311173        -8.4674   47-A
  89   1.0000      -0.285244        -7.7619   43-B
  90   1.0000      -0.281450        -7.6586   44-B
  91   1.0000      -0.228088        -6.2066   48-A
  92   1.0000      -0.220312        -5.9950   49-A
  93   1.0000      -0.199471        -5.4279   50-A
  94   1.0000      -0.198500        -5.4014   51-A
  95   1.0000      -0.169429        -4.6104   45-B
  96   1.0000      -0.164507        -4.4765   46-B
  97   1.0000      -0.139125        -3.7858   47-B
  98   1.0000      -0.136038        -3.7018   48-B
  99   1.0000      -0.135333        -3.6826   52-A
 100   1.0000      -0.130402        -3.5484   49-B
 101   1.0000      -0.114243        -3.1087   50-B
 102   1.0000      -0.108671        -2.9571   53-A
 103   1.0000      -0.082059        -2.2330   54-A
 104   1.0000      -0.071186        -1.9371   51-B
 105   1.0000      -0.063955        -1.7403   55-A
 106   1.0000      -0.056118        -1.5270   52-B
 107   1.0000      -0.047896        -1.3033   53-B
 108   1.0000      -0.046067        -1.2535   54-B
 109   1.0000      -0.029831        -0.8117   56-A
 110   1.0000      -0.027198        -0.7401   57-A
 111   1.0000      -0.017223        -0.4687   58-A
 112   1.0000      -0.002634        -0.0717   55-B
 113   1.0000       0.007424         0.2020   59-A
 114   1.0000       0.009475         0.2578   56-B
 115   1.0000       0.011166         0.3038   60-A
 116   1.0000       0.028896         0.7863   61-A
 117   1.0000       0.031537         0.8582   62-A
 118   1.0000       0.051704         1.4069   57-B
 119   1.0000       0.056288         1.5317   63-A
 120   1.0000       0.059036         1.6065   64-A
 121   1.0000       0.071283         1.9397   58-B
 122   1.0000       0.101584         2.7642   59-B
 123   0.0000       0.145467         3.9583   60-B
 124   0.0000       0.183801         5.0015   65-A
 125   0.0000       0.184096         5.0095   66-A
 126   0.0000       0.193386         5.2623   61-B
 127   0.0000       0.199358         5.4248   62-B

MULLIKEN ATOMIC CHARGES AND SPIN POPULATIONS
--------------------------------------------
   0 Cu:    0.638802    0.309191
   1 Se:   -0.733034    0.173146
   2 C :    0.221805   -0.003189
   3 Se:   -0.713483    0.174220
   4 C :    0.240511   -0.003100
   5 Se:   -0.733034    0.173146
   6 C :    0.221805   -0.003189
   7 Se:   -0.713483    0.174220
   8 C :    0.240511   -0.003100
   9 C :   -0.103309   -0.001517
  10 C :   -0.103309   -0.001517
  11 C :   -0.139237   -0.000384
  12 H :    0.031857    0.002414
  13 C :   -0.139237   -0.000384
  14 H :    0.031857    0.002414
  15 H :    0.022283    0.001632
  16 H :    0.022283    0.001632
  17 C :   -0.103224   -0.001499
  18 C :   -0.103224   -0.001499
  19 C :   -0.156672   -0.000636
  20 H :    0.091853    0.002734
  21 C :   -0.156672   -0.000636
  22 H :    0.091853    0.002734
  23 H :    0.021248    0.001583
  24 H :    0.021248    0.001583
Sum of atomic charges         :   -2.0000000

LOEWDIN ATOMIC CHARGES AND SPIN POPULATIONS
-------------------------------------------
   0 Cu:   -0.616212    0.389959
   1 Se:   -0.202221    0.123166
   2 C :    0.038408    0.011764
   3 Se:   -0.207744    0.124021
   4 C :    0.031194    0.012202
   5 Se:   -0.202221    0.123166
   6 C :    0.038408    0.011764
   7 Se:   -0.207744    0.124021
   8 C :    0.031194    0.012202
   9 C :    0.341004    0.006553
  10 C :    0.341004    0.006553
  11 C :    0.304808    0.000566
  12 H :   -0.406888    0.009098
  13 C :    0.304808    0.000566
  14 H :   -0.406888    0.009098
  15 H :   -0.409563    0.000466
  16 H :   -0.409563    0.000466
  17 C :    0.371094    0.006915
  18 C :    0.371094    0.006915
  19 C :    0.319704    0.000472
  20 H :   -0.459605    0.009407
  21 C :    0.319704    0.000472
  22 H :   -0.459605    0.009407
  23 H :   -0.412086    0.000391
  24 H :   -0.412086    0.000391

  Mayer bond orders larger than 0.100000
B(  0-Cu,  1-Se) :   0.5509 B(  0-Cu,  3-Se) :   0.5474 B(  0-Cu,  5-Se) :   0.5509
B(  0-Cu,  7-Se) :   0.5474 B(  1-Se,  2-C ) :   1.0390 B(  2-C ,  6-C ) :   1.1335
B(  2-C , 17-C ) :   1.2574 B(  3-Se,  4-C ) :   1.0374 B(  4-C ,  8-C ) :   1.1331
B(  4-C , 10-C ) :   1.2579 B(  5-Se,  6-C ) :   1.0390 B(  6-C , 18-C ) :   1.2574
B(  7-Se,  8-C ) :   1.0374 B(  8-C ,  9-C ) :   1.2579 B(  9-C , 13-C ) :   1.3590
B(  9-C , 14-H ) :   0.9951 B( 10-C , 11-C ) :   1.3590 B( 10-C , 12-H ) :   0.9951
B( 11-C , 13-C ) :   1.3222 B( 11-C , 15-H ) :   0.9938 B( 13-C , 16-H ) :   0.9938
B( 17-C , 19-C ) :   1.3790 B( 17-C , 20-H ) :   0.9602 B( 18-C , 21-C ) :   1.3790
B( 18-C , 22-H ) :   0.9602 B( 19-C , 21-C ) :   1.3124 B( 19-C , 23-H ) :   0.9956
B( 21-C , 24-H ) :   0.9956

FINAL SINGLE POINT ENERGY    -11627.117061213126

DIPOLE MOMENT
-------------
                                X             Y             Z
Electronic contribution:      0.00000      -0.00000      -0.11759
Nuclear contribution   :      0.00000      -0.00000      -0.00000
                        -----------------------------------------
Total Dipole Moment    :      0.00000      -0.00000      -0.11759
                        -----------------------------------------
Magnitude (a.u.)       :      0.11759
Magnitude (Debye)      :      0.29889

Rotational constants in cm-1:     0.017609     0.004098     0.003325
Rotational constants in MHz :   527.909883   122.840812    99.666038

                             ****ORCA TERMINATED NORMALLY****
TOTAL RUN TIME: 0 days 18 hours 59 minutes 1 seconds 140 msec
