                         Program Version 5.0.4 -  RELEASE  -
|  1> ! RIJCOSX nofrozencore ReducedPop printbasis
|  2> ! M06L ano-rcc-dzp autoaux
|  3>
|  4> %maxcore 7500
|  5> %basis
|  6> PCDTrimBas overlap
|  7> PCDTrimAuxJ Coulomb
|  8> PCDTrimAuxJK Coulomb
|  9> PCDTrimAuxC Coulomb
| 10> PCDThresh -1
| 11> end
| 12>
| 13> %basis
| 14> newgto Cu "ano-rcc-tzp" end
| 15> newgto Se "ano-rcc-tzp" end
| 16> end
| 17>
| 18> %pal
| 19> nprocs 8
| 20> end
| 21>
| 22> % sym SymThresh 1e-2 end
| 23> * xyz -2 2
| 24> Cu -0.0016631283728105975 0.0023589680123949994 0.0002493470113106649
| 25> Se 0.27858722929840496 -0.0154407516777264 -2.3527849893701434
| 26> C 1.226801027977147 -1.3452935006788644 -2.586766826693782
| 27> Se -1.3554017445675002 1.9457003751320794 0.0619504333743061
| 28> C -1.6394518171868298 2.100539491928686 1.6142766445553194
| 29> Se 1.3501806265869285 -1.9383005346203914 -0.06113264340461053
| 30> C 1.7036051194599304 -2.1912290720947563 -1.6257616994423476
| 31> Se -0.2900822503831006 0.033815072644746175 2.341910420998785
| 32> C -1.2033668749640078 1.3205720232156384 2.53140321674472
| 33> C -1.666358165580512 1.7788281813721307 3.8086459154370687
| 34> C -2.3698521536289805 3.0704911614656822 2.1257610785389804
| 35> C -2.8233508204583817 3.5256702678687013 3.3383389500751166
| 36> H -2.741908385205849 3.732362926238078 1.365068357880438
| 37> C -2.467851231059401 2.824931178771261 4.4810153285485
| 38> H -1.2835987675692395 1.1021911732150615 4.565223233312313
| 39> H -3.457722955160819 4.461630108396182 3.213306768334392
| 40> H -2.64237207631235 2.901432997475918 5.54818287148357
| 41> C 1.5979347430460158 -1.670796450342331 -3.865218533375174
| 42> C 2.5001571520721746 -3.268960342613346 -2.0622345910137354
| 43> C 2.3805494198861803 -2.7253939549506256 -4.320083205906821
| 44> H 1.2250003181065667 -1.0069636103707102 -4.630155547788972
| 45> C 2.878024944733255 -3.6012130904240722 -3.358748421433861
| 46> H 2.8638193509265806 -3.9221045513404147 -1.2809380923004303
| 47> H 2.558033896373411 -2.8055388034574475 -5.391096112903685
| 48> H 3.5007381308114454 -4.46373632520661 -3.578268523250566
| 49> *
| 50>
| 51> % eprnmr
| 52> gtensor true
| 53> Nuclei = all H {aiso,adip,aorb,fgrad,rho}
| 54> Nuclei = all Cu {aiso,adip,aorb,fgrad,rho}
| 55> end
| 56>
| 57>                          ****END OF INPUT****

CARTESIAN COORDINATES (ANGSTROEM)
---------------------------------
  Cu     0.002876    0.000343    0.000000
  Se    -0.095108   -2.367362    0.000000
  C     -1.719821   -2.654889    0.000000
  Se     2.368013    0.138627    0.000000
  C      2.606662    1.706244    0.000000
  Se    -2.358988   -0.137514    0.000000
  C     -2.717314   -1.721354    0.000000
  Se     0.117098    2.357143    0.000000
  C      1.687963    2.598227    0.000000
  C      2.286647    3.901026    0.000000
  C      3.802732    2.258806    0.000000
  C      4.395577    3.496437    0.000000
  H      4.582898    1.519555    0.000000
  C      3.580539    4.618416    0.000000
  H      1.488391    4.635559    0.000000
  H      5.529662    3.407370    0.000000
  H      3.708188    5.694921    0.000000
  C     -2.157115   -3.953698    0.000000
  C     -4.042013   -2.202687    0.000000
  C     -3.454279   -4.452624    0.000000
  H     -1.374699   -4.697142    0.000000
  C     -4.488101   -3.519930    0.000000
  H     -4.810899   -1.442367    0.000000
  H     -3.586483   -5.533140    0.000000
  H     -5.544065   -3.774581    0.000000

 Total Charge           Charge          ....   -2
 Multiplicity           Mult            ....    2
 Number of Electrons    NEL             ....  247
 Basis Dimension        Dim             ....  575

ORBITAL ENERGIES
----------------
                 SPIN UP ORBITALS
  NO   OCC          E(Eh)            E(eV)    Irrep
   0   1.0000    -443.580700    -12070.4445    1-A'
   1   1.0000    -443.563961    -12069.9890    2-A'
   2   1.0000    -443.559042    -12069.8551    3-A'
   3   1.0000    -443.549560    -12069.5971    4-A'
   4   1.0000    -318.189585     -8658.3788    5-A'
   5   1.0000     -56.383636     -1534.2767    6-A'
   6   1.0000     -56.372581     -1533.9759    7-A'
   7   1.0000     -56.364634     -1533.7597    8-A'
   8   1.0000     -56.359449     -1533.6186    9-A'
   9   1.0000     -51.291972     -1395.7255   10-A'
  10   1.0000     -51.290734     -1395.6918   11-A'
  11   1.0000     -51.290528     -1395.6862   12-A'
  12   1.0000     -51.290345     -1395.6812    1-A"
  13   1.0000     -51.289226     -1395.6508   13-A'
  14   1.0000     -51.289040     -1395.6457   14-A'
  15   1.0000     -51.288818     -1395.6397    2-A"
  16   1.0000     -51.287685     -1395.6089   15-A'
  17   1.0000     -51.287658     -1395.6081   16-A'
  18   1.0000     -51.287127     -1395.5937    3-A"
  19   1.0000     -51.286345     -1395.5724   17-A'
  20   1.0000     -51.285978     -1395.5624    4-A"
  21   1.0000     -38.030137     -1034.8526   18-A'
  22   1.0000     -33.532136      -912.4558   19-A'
  23   1.0000     -33.531461      -912.4374   20-A'
  24   1.0000     -33.520200      -912.1310    5-A"
  25   1.0000      -9.832451      -267.5546   21-A'
  26   1.0000      -9.822836      -267.2929   22-A'
  27   1.0000      -9.822360      -267.2800   23-A'
  28   1.0000      -9.817895      -267.1585   24-A'
  29   1.0000      -9.811361      -266.9807   25-A'
  30   1.0000      -9.811070      -266.9728   26-A'
  31   1.0000      -9.810379      -266.9540   27-A'
  32   1.0000      -9.806565      -266.8502   28-A'
  33   1.0000      -9.804396      -266.7912   29-A'
  34   1.0000      -9.803928      -266.7785   30-A'
  35   1.0000      -9.790410      -266.4106   31-A'
  36   1.0000      -9.786693      -266.3094   32-A'
  37   1.0000      -7.348446      -199.9614   33-A'
  38   1.0000      -7.343400      -199.8241   34-A'
  39   1.0000      -7.338480      -199.6902   35-A'
  40   1.0000      -7.335935      -199.6210   36-A'
  41   1.0000      -5.407162      -147.1364   37-A'
  42   1.0000      -5.406769      -147.1257   38-A'
  43   1.0000      -5.406750      -147.1251   39-A'
  44   1.0000      -5.405305      -147.0858   40-A'
  45   1.0000      -5.401987      -146.9955   41-A'
  46   1.0000      -5.401785      -146.9901    6-A"
  47   1.0000      -5.401406      -146.9797   42-A'
  48   1.0000      -5.401345      -146.9781   43-A'
  49   1.0000      -5.401059      -146.9703    7-A"
  50   1.0000      -5.400718      -146.9610    8-A"
  51   1.0000      -5.400020      -146.9420   44-A'
  52   1.0000      -5.399825      -146.9367    9-A"
  53   1.0000      -4.024409      -109.5097   45-A'
  54   1.0000      -2.543843       -69.2215   46-A'
  55   1.0000      -2.543183       -69.2035   47-A'
  56   1.0000      -2.519458       -68.5579   10-A"
  57   1.0000      -1.747013       -47.5386   48-A'
  58   1.0000      -1.746479       -47.5241   49-A'
  59   1.0000      -1.745567       -47.4993   50-A'
  60   1.0000      -1.744568       -47.4721   51-A'
  61   1.0000      -1.743593       -47.4456   52-A'
  62   1.0000      -1.743118       -47.4327   53-A'
  63   1.0000      -1.742986       -47.4291   54-A'
  64   1.0000      -1.742975       -47.4288   11-A"
  65   1.0000      -1.742386       -47.4127   12-A"
  66   1.0000      -1.742114       -47.4053   13-A"
  67   1.0000      -1.741612       -47.3917   55-A'
  68   1.0000      -1.741018       -47.3755   14-A"
  69   1.0000      -1.738597       -47.3096   56-A'
  70   1.0000      -1.738581       -47.3092   15-A"
  71   1.0000      -1.737910       -47.2909   57-A'
  72   1.0000      -1.737891       -47.2904   16-A"
  73   1.0000      -1.737654       -47.2840   58-A'
  74   1.0000      -1.737643       -47.2837   17-A"
  75   1.0000      -1.736644       -47.2565   59-A'
  76   1.0000      -1.736637       -47.2563   18-A"
  77   1.0000      -0.628902       -17.1133   60-A'
  78   1.0000      -0.606160       -16.4945   61-A'
  79   1.0000      -0.536264       -14.5925   62-A'
  80   1.0000      -0.524457       -14.2712   63-A'
  81   1.0000      -0.498217       -13.5572   64-A'
  82   1.0000      -0.495164       -13.4741   65-A'
  83   1.0000      -0.412744       -11.2313   66-A'
  84   1.0000      -0.411597       -11.2001   67-A'
  85   1.0000      -0.398310       -10.8386   68-A'
  86   1.0000      -0.384561       -10.4644   69-A'
  87   1.0000      -0.324589        -8.8325   70-A'
  88   1.0000      -0.322119        -8.7653   71-A'
  89   1.0000      -0.291559        -7.9337   72-A'
  90   1.0000      -0.287873        -7.8334   73-A'
  91   1.0000      -0.235892        -6.4189   74-A'
  92   1.0000      -0.228674        -6.2225   75-A'
  93   1.0000      -0.200946        -5.4680   76-A'
  94   1.0000      -0.197558        -5.3758   77-A'
  95   1.0000      -0.169771        -4.6197   78-A'
  96   1.0000      -0.164170        -4.4673   79-A'
  97   1.0000      -0.149266        -4.0617   19-A"
  98   1.0000      -0.146257        -3.9798   80-A'
  99   1.0000      -0.133379        -3.6294   20-A"
 100   1.0000      -0.132874        -3.6157   81-A'
 101   1.0000      -0.117781        -3.2050   82-A'
 102   1.0000      -0.087969        -2.3937   83-A'
 103   1.0000      -0.073814        -2.0086   84-A'
 104   1.0000      -0.071945        -1.9577   85-A'
 105   1.0000      -0.068006        -1.8505   86-A'
 106   1.0000      -0.056365        -1.5338   21-A"
 107   1.0000      -0.050611        -1.3772   22-A"
 108   1.0000      -0.048042        -1.3073   87-A'
 109   1.0000      -0.034185        -0.9302   88-A'
 110   1.0000      -0.032478        -0.8838   23-A"
 111   1.0000      -0.028584        -0.7778   89-A'
 112   1.0000      -0.022859        -0.6220   24-A"
 113   1.0000      -0.004704        -0.1280   25-A"
 114   1.0000      -0.001583        -0.0431   90-A'
 115   1.0000      -0.000414        -0.0113   26-A"
 116   1.0000       0.016954         0.4613   91-A'
 117   1.0000       0.019949         0.5428   92-A'
 118   1.0000       0.038400         1.0449   93-A'
 119   1.0000       0.054799         1.4912   27-A"
 120   1.0000       0.060714         1.6521   28-A"
 121   1.0000       0.067132         1.8267   29-A"
 122   1.0000       0.094285         2.5656   30-A"
 123   1.0000       0.114014         3.1025   94-A'
 124   0.0000       0.181091         4.9277   95-A'
 125   0.0000       0.181389         4.9358   96-A'
 126   0.0000       0.195538         5.3209   97-A'
 127   0.0000       0.196287         5.3413   31-A"
 128   0.0000       0.197445         5.3728   98-A'

                 SPIN DOWN ORBITALS
  NO   OCC          E(Eh)            E(eV)    Irrep
   0   1.0000    -443.580247    -12070.4322    1-A'
   1   1.0000    -443.563502    -12069.9765    2-A'
   2   1.0000    -443.558596    -12069.8430    3-A'
   3   1.0000    -443.549101    -12069.5846    4-A'
   4   1.0000    -318.189463     -8658.3755    5-A'
   5   1.0000     -56.383452     -1534.2717    6-A'
   6   1.0000     -56.372395     -1533.9709    7-A'
   7   1.0000     -56.364455     -1533.7548    8-A'
   8   1.0000     -56.359266     -1533.6136    9-A'
   9   1.0000     -51.291624     -1395.7161   10-A'
  10   1.0000     -51.290204     -1395.6774   11-A'
  11   1.0000     -51.290087     -1395.6742    1-A"
  12   1.0000     -51.289987     -1395.6715   12-A'
  13   1.0000     -51.288709     -1395.6367   13-A'
  14   1.0000     -51.288581     -1395.6332    2-A"
  15   1.0000     -51.288543     -1395.6322   14-A'
  16   1.0000     -51.287352     -1395.5998   15-A'
  17   1.0000     -51.286889     -1395.5872   16-A'
  18   1.0000     -51.286867     -1395.5866    3-A"
  19   1.0000     -51.285731     -1395.5557    4-A"
  20   1.0000     -51.285635     -1395.5531   17-A'
  21   1.0000     -38.016184     -1034.4730   18-A'
  22   1.0000     -33.518881      -912.0951   19-A'
  23   1.0000     -33.518202      -912.0766   20-A'
  24   1.0000     -33.516304      -912.0250    5-A"
  25   1.0000      -9.832383      -267.5527   21-A'
  26   1.0000      -9.822792      -267.2918   22-A'
  27   1.0000      -9.822310      -267.2787   23-A'
  28   1.0000      -9.817843      -267.1571   24-A'
  29   1.0000      -9.811214      -266.9767   25-A'
  30   1.0000      -9.810955      -266.9697   26-A'
  31   1.0000      -9.810404      -266.9547   27-A'
  32   1.0000      -9.806573      -266.8504   28-A'
  33   1.0000      -9.804277      -266.7879   29-A'
  34   1.0000      -9.803971      -266.7796   30-A'
  35   1.0000      -9.790438      -266.4114   31-A'
  36   1.0000      -9.786549      -266.3055   32-A'
  37   1.0000      -7.348052      -199.9507   33-A'
  38   1.0000      -7.342995      -199.8130   34-A'
  39   1.0000      -7.338081      -199.6793   35-A'
  40   1.0000      -7.335525      -199.6098   36-A'
  41   1.0000      -5.406785      -147.1261   37-A'
  42   1.0000      -5.406401      -147.1156   38-A'
  43   1.0000      -5.406389      -147.1153   39-A'
  44   1.0000      -5.404946      -147.0760   40-A'
  45   1.0000      -5.401465      -146.9813    6-A"
  46   1.0000      -5.401138      -146.9724   41-A'
  47   1.0000      -5.400763      -146.9622    7-A"
  48   1.0000      -5.400624      -146.9584   42-A'
  49   1.0000      -5.400481      -146.9546   43-A'
  50   1.0000      -5.400397      -146.9523    8-A"
  51   1.0000      -5.399513      -146.9282    9-A"
  52   1.0000      -5.399212      -146.9200   44-A'
  53   1.0000      -3.996015      -108.7371   45-A'
  54   1.0000      -2.509089       -68.2758   10-A"
  55   1.0000      -2.508400       -68.2570   46-A'
  56   1.0000      -2.507673       -68.2372   47-A'
  57   1.0000      -1.746564       -47.5264   48-A'
  58   1.0000      -1.746062       -47.5128   49-A'
  59   1.0000      -1.745090       -47.4863   50-A'
  60   1.0000      -1.744136       -47.4604   51-A'
  61   1.0000      -1.742660       -47.4202   52-A'
  62   1.0000      -1.742658       -47.4201   11-A"
  63   1.0000      -1.742246       -47.4089   53-A'
  64   1.0000      -1.742091       -47.4047   12-A"
  65   1.0000      -1.742058       -47.4038   54-A'
  66   1.0000      -1.741799       -47.3968   13-A"
  67   1.0000      -1.740724       -47.3675   55-A'
  68   1.0000      -1.740709       -47.3671   14-A"
  69   1.0000      -1.737788       -47.2876   15-A"
  70   1.0000      -1.737760       -47.2868   56-A'
  71   1.0000      -1.737163       -47.2706   16-A"
  72   1.0000      -1.737148       -47.2702   57-A'
  73   1.0000      -1.736848       -47.2620   17-A"
  74   1.0000      -1.736829       -47.2615   58-A'
  75   1.0000      -1.735876       -47.2356   18-A"
  76   1.0000      -1.735847       -47.2348   59-A'
  77   1.0000      -0.628040       -17.0898   60-A'
  78   1.0000      -0.605333       -16.4719   61-A'
  79   1.0000      -0.535414       -14.5694   62-A'
  80   1.0000      -0.523410       -14.2427   63-A'
  81   1.0000      -0.496408       -13.5079   64-A'
  82   1.0000      -0.492748       -13.4083   65-A'
  83   1.0000      -0.410175       -11.1614   66-A'
  84   1.0000      -0.409130       -11.1330   67-A'
  85   1.0000      -0.395822       -10.7709   68-A'
  86   1.0000      -0.381999       -10.3947   69-A'
  87   1.0000      -0.323045        -8.7905   70-A'
  88   1.0000      -0.320318        -8.7163   71-A'
  89   1.0000      -0.289328        -7.8730   72-A'
  90   1.0000      -0.285307        -7.7636   73-A'
  91   1.0000      -0.234958        -6.3935   74-A'
  92   1.0000      -0.227690        -6.1958   75-A'
  93   1.0000      -0.199683        -5.4337   76-A'
  94   1.0000      -0.196446        -5.3456   77-A'
  95   1.0000      -0.168022        -4.5721   78-A'
  96   1.0000      -0.161565        -4.3964   79-A'
  97   1.0000      -0.148830        -4.0499   19-A"
  98   1.0000      -0.143932        -3.9166   80-A'
  99   1.0000      -0.132977        -3.6185   20-A"
 100   1.0000      -0.131849        -3.5878   81-A'
 101   1.0000      -0.115541        -3.1440   82-A'
 102   1.0000      -0.086670        -2.3584   83-A'
 103   1.0000      -0.072347        -1.9687   84-A'
 104   1.0000      -0.069250        -1.8844   85-A'
 105   1.0000      -0.057217        -1.5570   86-A'
 106   1.0000      -0.055818        -1.5189   21-A"
 107   1.0000      -0.049820        -1.3557   22-A"
 108   1.0000      -0.046258        -1.2587   87-A'
 109   1.0000      -0.029527        -0.8035   23-A"
 110   1.0000      -0.024230        -0.6593   88-A'
 111   1.0000      -0.021142        -0.5753   24-A"
 112   1.0000      -0.004773        -0.1299   89-A'
 113   1.0000       0.006548         0.1782   25-A"
 114   1.0000       0.008827         0.2402   90-A'
 115   1.0000       0.008849         0.2408   26-A"
 116   1.0000       0.028015         0.7623   91-A'
 117   1.0000       0.029757         0.8097   92-A'
 118   1.0000       0.049490         1.3467   93-A'
 119   1.0000       0.057482         1.5642   27-A"
 120   1.0000       0.062796         1.7088   28-A"
 121   1.0000       0.068961         1.8765   29-A"
 122   1.0000       0.097594         2.6557   30-A"
 123   0.0000       0.143989         3.9181   94-A'
 124   0.0000       0.183107         4.9826   95-A'
 125   0.0000       0.183826         5.0022   96-A'
 126   0.0000       0.196469         5.3462   31-A"
 127   0.0000       0.198676         5.4063   97-A'

MULLIKEN ATOMIC CHARGES AND SPIN POPULATIONS
--------------------------------------------
   0 Cu:    0.624813    0.310894
   1 Se:   -0.764283    0.181305
   2 C :    0.276492   -0.003723
   3 Se:   -0.791552    0.178492
   4 C :    0.354596   -0.005175
   5 Se:   -0.722379    0.170232
   6 C :    0.200770   -0.003867
   7 Se:   -0.751302    0.164823
   8 C :    0.262986   -0.004479
   9 C :   -0.179753    0.000676
  10 C :   -0.061613    0.000043
  11 C :   -0.103542   -0.000752
  12 H :    0.106137    0.001882
  13 C :   -0.232872    0.000199
  14 H :    0.112972    0.001681
  15 H :   -0.023615    0.001303
  16 H :   -0.007092    0.001943
  17 C :   -0.072181   -0.001593
  18 C :   -0.131544   -0.000380
  19 C :   -0.160209   -0.000442
  20 H :    0.101492    0.002421
  21 C :   -0.168877   -0.000822
  22 H :    0.095921    0.002155
  23 H :    0.021600    0.001134
  24 H :    0.013032    0.002051
Sum of atomic charges         :   -2.0000000

LOEWDIN ATOMIC CHARGES AND SPIN POPULATIONS
-------------------------------------------
   0 Cu:   -0.590456    0.391629
   1 Se:   -0.175489    0.128997
   2 C :    0.032565    0.010702
   3 Se:   -0.126354    0.124933
   4 C :   -0.055552    0.012184
   5 Se:   -0.203994    0.121062
   6 C :    0.027645    0.012598
   7 Se:   -0.147664    0.114844
   8 C :   -0.006559    0.012354
   9 C :    0.410734    0.006470
  10 C :    0.350142    0.006867
  11 C :    0.291997    0.000132
  12 H :   -0.502656    0.011010
  13 C :    0.358446    0.001058
  14 H :   -0.524521    0.009537
  15 H :   -0.374966    0.000148
  16 H :   -0.398896    0.000476
  17 C :    0.370968    0.007109
  18 C :    0.377417    0.006768
  19 C :    0.321550    0.000418
  20 H :   -0.474760    0.011039
  21 C :    0.323527    0.000541
  22 H :   -0.464882    0.008391
  23 H :   -0.412172    0.000138
  24 H :   -0.406070    0.000595

  Mayer bond orders larger than 0.100000
B(  0-Cu,  1-Se) :   0.5581 B(  0-Cu,  3-Se) :   0.5682 B(  0-Cu,  5-Se) :   0.5494
B(  0-Cu,  7-Se) :   0.5591 B(  1-Se,  2-C ) :   1.0204 B(  2-C ,  6-C ) :   1.1209
B(  2-C , 17-C ) :   1.2490 B(  3-Se,  4-C ) :   1.1026 B(  4-C ,  8-C ) :   1.0375
B(  4-C , 10-C ) :   1.1617 B(  5-Se,  6-C ) :   1.0599 B(  6-C , 18-C ) :   1.2546
B(  7-Se,  8-C ) :   1.1138 B(  8-C ,  9-C ) :   1.2232 B(  9-C , 13-C ) :   1.3470
B(  9-C , 14-H ) :   0.9537 B( 10-C , 11-C ) :   1.3520 B( 10-C , 12-H ) :   0.9505
B( 11-C , 13-C ) :   1.2856 B( 11-C , 15-H ) :   1.0140 B( 13-C , 16-H ) :   1.0235
B( 17-C , 19-C ) :   1.3695 B( 17-C , 20-H ) :   0.9523 B( 18-C , 21-C ) :   1.3854
B( 18-C , 22-H ) :   0.9597 B( 19-C , 21-C ) :   1.3112 B( 19-C , 23-H ) :   0.9959
B( 21-C , 24-H ) :   1.0020

FINAL SINGLE POINT ENERGY    -11627.060665226960

DIPOLE MOMENT
-------------
                                X             Y             Z
Electronic contribution:      0.18105      -0.11372      -0.00000
Nuclear contribution   :     -0.34056      -0.08620       0.00000
                        -----------------------------------------
Total Dipole Moment    :     -0.15951      -0.19991      -0.00000
                        -----------------------------------------
Magnitude (a.u.)       :      0.25575
Magnitude (Debye)      :      0.65007

Rotational constants in cm-1:     0.018022     0.004087     0.003332
Rotational constants in MHz :   540.290130   122.535217    99.882373

                             ****ORCA TERMINATED NORMALLY****
TOTAL RUN TIME: 0 days 17 hours 3 minutes 26 seconds 810 msec
