                         Program Version 5.0.4 -  RELEASE  -
|  1> ! RIJCOSX nofrozencore ReducedPop printbasis
|  2> ! M06L ano-rcc-dzp autoaux
|  3>
|  4> %maxcore 7500
|  5> %basis
|  6> PCDTrimBas overlap
|  7> PCDTrimAuxJ Coulomb
|  8> PCDTrimAuxJK Coulomb
|  9> PCDTrimAuxC Coulomb
| 10> PCDThresh -1
| 11> end
| 12>
| 13> %basis
| 14> newgto Cu "ano-rcc-tzp" end
| 15> newgto Se "ano-rcc-tzp" end
| 16> end
| 17>
| 18> %pal
| 19> nprocs 8
| 20> end
| 21>
| 22> % sym SymThresh 1e-2 end
| 23> * xyz -2 2
| 24> Cu -0.00016461954967860064 -5.4050741104158726e-05 3.5946139856658074e-06
| 25> Se -2.1670179702705896 -0.2619277930927121 0.9202727384286219
| 26> C -2.9748642629817756 -1.1175008841555163 -0.2083181401859592
| 27> Se 0.8813455386322964 1.2353695448176512 1.8175743325561617
| 28> C 2.4388706005302296 1.5527134683945947 1.406780447905197
| 29> Se -0.884616362952363 -1.2364712817412884 -1.8175568964340536
| 30> C -2.423292784416141 -1.526750819884502 -1.3666405421323002
| 31> Se 2.1650815749823744 0.26049086301217417 -0.9217860180562593
| 32> C 3.0124329074264833 1.1190036300072626 0.1864645718161895
| 33> C 4.319057157898817 1.4726201734181907 0.011535900041889964
| 34> C 3.2868904849553937 2.2642767891789917 2.2292602288474477
| 35> C 4.569368362531798 2.573029346162237 1.983140951121327
| 36> H 2.932907383111439 2.634769610379774 3.1820456333287597
| 37> C 5.0880182693301546 2.169887226286217 0.858385339606574
| 38> H 4.857805676303665 1.1930641594727842 -0.8865063534314839
| 39> H 5.2118911003748 3.1362889584941502 2.6531587199725997
| 40> H 6.118895980883079 2.4060063314711306 0.6371307822250795
| 41> C -4.3160569085735805 -1.4282207168732428 0.07269573788294027
| 42> C -3.199929692891615 -2.2729922072742035 -2.3035217153129497
| 43> C -5.234970185885904 -2.1715537038644444 -0.7647262359055818
| 44> H -4.561705084293254 -1.0011603672338438 1.0638854294816125
| 45> C -4.594825246999525 -2.6485667049720454 -2.113025574026562
| 46> H -2.554268133958937 -2.5036678376765216 -3.1771458969792525
| 47> H -6.242845091690726 -2.2669839142474206 -0.28546496167910984
| 48> H -4.995128396577452 -3.2285431945687484 -2.975215594010021
| 49> *
| 50>
| 51> % eprnmr
| 52> gtensor true
| 53> Nuclei = all H {aiso,adip,aorb,fgrad,rho}
| 54> Nuclei = all Cu {aiso,adip,aorb,fgrad,rho}
| 55> end
| 56>
| 57>                          ****END OF INPUT****

CARTESIAN COORDINATES (ANGSTROEM)
---------------------------------
  Cu    -0.000009   -0.000173    0.000000
  Se     0.863399   -2.205905    0.000000
  C     -0.465585   -3.150437    0.000000
  Se     2.107588    1.079146    0.000000
  C      1.768190    2.685431    0.000000
  Se    -2.107823   -1.082590    0.000000
  C     -1.721948   -2.665693    0.000000
  Se    -0.865248    2.203740    0.000000
  C      0.443999    3.188190    0.000000
  C      0.349627    4.549808    0.000000
  C      2.756922    3.646859    0.000000
  C      2.580809    4.977136    0.000000
  H      3.798125    3.353150    0.000000
  C      1.359533    5.429994    0.000000
  H     -0.615765    5.042658    0.000000
  H      3.382496    5.709474    0.000000
  H      1.191699    6.497349    0.000000
  C     -0.254905   -4.539656    0.000000
  C     -2.833447   -3.561437    0.000000
  C     -1.265925   -5.576989    0.000000
  H      0.837824   -4.716077    0.000000
  C     -2.728493   -5.014731    0.000000
  H     -3.763113   -2.953959    0.000000
  H     -0.806876   -6.598695    0.000000
  H     -3.726869   -5.507918    0.000000

 Total Charge           Charge          ....   -2
 Multiplicity           Mult            ....    2
 Number of Electrons    NEL             ....  247
 Basis Dimension        Dim             ....  575

ORBITAL ENERGIES
----------------
                 SPIN UP ORBITALS
  NO   OCC          E(Eh)            E(eV)    Irrep
   0   1.0000    -443.564642    -12070.0075    1-A'
   1   1.0000    -443.560818    -12069.9035    2-A'
   2   1.0000    -443.549135    -12069.5856    3-A'
   3   1.0000    -443.547226    -12069.5336    4-A'
   4   1.0000    -318.188094     -8658.3382    5-A'
   5   1.0000     -56.373299     -1533.9954    6-A'
   6   1.0000     -56.369847     -1533.9015    7-A'
   7   1.0000     -56.359269     -1533.6137    8-A'
   8   1.0000     -56.357355     -1533.5616    9-A'
   9   1.0000     -51.289096     -1395.6473   10-A'
  10   1.0000     -51.288206     -1395.6230   11-A'
  11   1.0000     -51.287834     -1395.6129   12-A'
  12   1.0000     -51.287424     -1395.6017    1-A"
  13   1.0000     -51.286915     -1395.5879   13-A'
  14   1.0000     -51.286474     -1395.5759    2-A"
  15   1.0000     -51.286363     -1395.5729   14-A'
  16   1.0000     -51.286311     -1395.5715   15-A'
  17   1.0000     -51.285010     -1395.5361   16-A'
  18   1.0000     -51.284947     -1395.5344   17-A'
  19   1.0000     -51.284551     -1395.5236    3-A"
  20   1.0000     -51.284496     -1395.5221    4-A"
  21   1.0000     -38.028583     -1034.8103   18-A'
  22   1.0000     -33.530636      -912.4150   19-A'
  23   1.0000     -33.529840      -912.3933   20-A'
  24   1.0000     -33.518660      -912.0891    5-A"
  25   1.0000      -9.851476      -268.0723   21-A'
  26   1.0000      -9.850558      -268.0473   22-A'
  27   1.0000      -9.825773      -267.3729   23-A'
  28   1.0000      -9.822187      -267.2753   24-A'
  29   1.0000      -9.810444      -266.9558   25-A'
  30   1.0000      -9.808836      -266.9120   26-A'
  31   1.0000      -9.808250      -266.8961   27-A'
  32   1.0000      -9.806073      -266.8368   28-A'
  33   1.0000      -9.800038      -266.6726   29-A'
  34   1.0000      -9.799348      -266.6538   30-A'
  35   1.0000      -9.797996      -266.6170   31-A'
  36   1.0000      -9.797239      -266.5964   32-A'
  37   1.0000      -7.344100      -199.8431   33-A'
  38   1.0000      -7.341060      -199.7604   34-A'
  39   1.0000      -7.336149      -199.6268   35-A'
  40   1.0000      -7.334012      -199.5686   36-A'
  41   1.0000      -5.406976      -147.1313   37-A'
  42   1.0000      -5.406042      -147.1059   38-A'
  43   1.0000      -5.404183      -147.0553   39-A'
  44   1.0000      -5.404012      -147.0506   40-A'
  45   1.0000      -5.401780      -146.9899   41-A'
  46   1.0000      -5.401562      -146.9840    6-A"
  47   1.0000      -5.400792      -146.9630   42-A'
  48   1.0000      -5.400454      -146.9538    7-A"
  49   1.0000      -5.398856      -146.9103   43-A'
  50   1.0000      -5.398694      -146.9059   44-A'
  51   1.0000      -5.398438      -146.8990    8-A"
  52   1.0000      -5.398249      -146.8938    9-A"
  53   1.0000      -4.022830      -109.4668   45-A'
  54   1.0000      -2.542370       -69.1814   46-A'
  55   1.0000      -2.541436       -69.1560   47-A'
  56   1.0000      -2.517913       -68.5159   10-A"
  57   1.0000      -1.746191       -47.5163   48-A'
  58   1.0000      -1.745224       -47.4900   49-A'
  59   1.0000      -1.743347       -47.4389   50-A'
  60   1.0000      -1.743138       -47.4332   51-A'
  61   1.0000      -1.743026       -47.4302   52-A'
  62   1.0000      -1.742736       -47.4222   11-A"
  63   1.0000      -1.742387       -47.4128   53-A'
  64   1.0000      -1.741709       -47.3943   12-A"
  65   1.0000      -1.740442       -47.3598   54-A'
  66   1.0000      -1.740256       -47.3548   55-A'
  67   1.0000      -1.739708       -47.3399   13-A"
  68   1.0000      -1.739539       -47.3353   14-A"
  69   1.0000      -1.738412       -47.3046   15-A"
  70   1.0000      -1.738412       -47.3046   56-A'
  71   1.0000      -1.737341       -47.2754   57-A'
  72   1.0000      -1.737327       -47.2751   16-A"
  73   1.0000      -1.735317       -47.2204   58-A'
  74   1.0000      -1.735313       -47.2203   17-A"
  75   1.0000      -1.735136       -47.2154   59-A'
  76   1.0000      -1.735130       -47.2153   18-A"
  77   1.0000      -0.612584       -16.6693   60-A'
  78   1.0000      -0.596406       -16.2290   61-A'
  79   1.0000      -0.531315       -14.4578   62-A'
  80   1.0000      -0.501789       -13.6544   63-A'
  81   1.0000      -0.500405       -13.6167   64-A'
  82   1.0000      -0.497462       -13.5366   65-A'
  83   1.0000      -0.415967       -11.3190   66-A'
  84   1.0000      -0.408224       -11.1083   67-A'
  85   1.0000      -0.390008       -10.6127   68-A'
  86   1.0000      -0.368428       -10.0254   69-A'
  87   1.0000      -0.326222        -8.8770   70-A'
  88   1.0000      -0.318050        -8.6546   71-A'
  89   1.0000      -0.293175        -7.9777   72-A'
  90   1.0000      -0.283094        -7.7034   73-A'
  91   1.0000      -0.238252        -6.4832   74-A'
  92   1.0000      -0.209162        -5.6916   75-A'
  93   1.0000      -0.205667        -5.5965   76-A'
  94   1.0000      -0.182795        -4.9741   77-A'
  95   1.0000      -0.167803        -4.5661   78-A'
  96   1.0000      -0.162516        -4.4223   79-A'
  97   1.0000      -0.140168        -3.8142   80-A'
  98   1.0000      -0.136226        -3.7069   81-A'
  99   1.0000      -0.136215        -3.7066   19-A"
 100   1.0000      -0.133835        -3.6418   82-A'
 101   1.0000      -0.127444        -3.4679   20-A"
 102   1.0000      -0.111541        -3.0352   83-A'
 103   1.0000      -0.081967        -2.2304   84-A'
 104   1.0000      -0.073055        -1.9879   85-A'
 105   1.0000      -0.062780        -1.7083   86-A'
 106   1.0000      -0.061696        -1.6788   87-A'
 107   1.0000      -0.055589        -1.5127   21-A"
 108   1.0000      -0.034965        -0.9515   22-A"
 109   1.0000      -0.034370        -0.9352   23-A"
 110   1.0000      -0.031058        -0.8451   88-A'
 111   1.0000      -0.029787        -0.8106   89-A'
 112   1.0000      -0.028232        -0.7682   24-A"
 113   1.0000      -0.002711        -0.0738   25-A"
 114   1.0000      -0.001556        -0.0423   26-A"
 115   1.0000      -0.000778        -0.0212   90-A'
 116   1.0000       0.016786         0.4568   91-A'
 117   1.0000       0.021321         0.5802   92-A'
 118   1.0000       0.039890         1.0855   93-A'
 119   1.0000       0.052888         1.4392   27-A"
 120   1.0000       0.055809         1.5186   28-A"
 121   1.0000       0.069752         1.8981   29-A"
 122   1.0000       0.098595         2.6829   30-A"
 123   1.0000       0.115455         3.1417   94-A'
 124   0.0000       0.179774         4.8919   95-A'
 125   0.0000       0.185631         5.0513   96-A'
 126   0.0000       0.192312         5.2331   31-A"
 127   0.0000       0.194614         5.2957   97-A'
 128   0.0000       0.195518         5.3203   32-A"

                 SPIN DOWN ORBITALS
  NO   OCC          E(Eh)            E(eV)    Irrep
   0   1.0000    -443.564191    -12069.9953    1-A'
   1   1.0000    -443.560363    -12069.8911    2-A'
   2   1.0000    -443.548684    -12069.5733    3-A'
   3   1.0000    -443.546772    -12069.5213    4-A'
   4   1.0000    -318.187972     -8658.3349    5-A'
   5   1.0000     -56.373116     -1533.9905    6-A'
   6   1.0000     -56.369662     -1533.8965    7-A'
   7   1.0000     -56.359090     -1533.6088    8-A'
   8   1.0000     -56.357173     -1533.5566    9-A'
   9   1.0000     -51.288765     -1395.6382   10-A'
  10   1.0000     -51.287877     -1395.6141   11-A'
  11   1.0000     -51.287173     -1395.5949    1-A"
  12   1.0000     -51.287107     -1395.5931   12-A'
  13   1.0000     -51.286225     -1395.5691    2-A"
  14   1.0000     -51.286193     -1395.5683   13-A'
  15   1.0000     -51.286042     -1395.5641   14-A'
  16   1.0000     -51.285981     -1395.5625   15-A'
  17   1.0000     -51.284300     -1395.5168    3-A"
  18   1.0000     -51.284271     -1395.5160   16-A'
  19   1.0000     -51.284245     -1395.5152    4-A"
  20   1.0000     -51.284215     -1395.5144   17-A'
  21   1.0000     -38.014693     -1034.4324   18-A'
  22   1.0000     -33.517438      -912.0559   19-A'
  23   1.0000     -33.516643      -912.0342   20-A'
  24   1.0000     -33.514778      -911.9835    5-A"
  25   1.0000      -9.851401      -268.0703   21-A'
  26   1.0000      -9.850492      -268.0455   22-A'
  27   1.0000      -9.825600      -267.3682   23-A'
  28   1.0000      -9.822021      -267.2708   24-A'
  29   1.0000      -9.810450      -266.9559   25-A'
  30   1.0000      -9.808843      -266.9122   26-A'
  31   1.0000      -9.808288      -266.8971   27-A'
  32   1.0000      -9.806112      -266.8379   28-A'
  33   1.0000      -9.799953      -266.6703   29-A'
  34   1.0000      -9.799280      -266.6520   30-A'
  35   1.0000      -9.797906      -266.6146   31-A'
  36   1.0000      -9.797175      -266.5947   32-A'
  37   1.0000      -7.343703      -199.8323   33-A'
  38   1.0000      -7.340658      -199.7495   34-A'
  39   1.0000      -7.335745      -199.6158   35-A'
  40   1.0000      -7.333603      -199.5575   36-A'
  41   1.0000      -5.406606      -147.1212   37-A'
  42   1.0000      -5.405677      -147.0960   38-A'
  43   1.0000      -5.403820      -147.0454   39-A'
  44   1.0000      -5.403647      -147.0407   40-A'
  45   1.0000      -5.401251      -146.9755    6-A"
  46   1.0000      -5.400962      -146.9677   41-A'
  47   1.0000      -5.400145      -146.9454    7-A"
  48   1.0000      -5.399980      -146.9409   42-A'
  49   1.0000      -5.398123      -146.8904    8-A"
  50   1.0000      -5.398024      -146.8877   43-A'
  51   1.0000      -5.397932      -146.8852    9-A"
  52   1.0000      -5.397863      -146.8833   44-A'
  53   1.0000      -3.994598      -108.6985   45-A'
  54   1.0000      -2.507584       -68.2348   10-A"
  55   1.0000      -2.507123       -68.2223   46-A'
  56   1.0000      -2.506125       -68.1951   47-A'
  57   1.0000      -1.745743       -47.5041   48-A'
  58   1.0000      -1.744777       -47.4778   49-A'
  59   1.0000      -1.742685       -47.4209   50-A'
  60   1.0000      -1.742571       -47.4178   51-A'
  61   1.0000      -1.742454       -47.4146   52-A'
  62   1.0000      -1.742420       -47.4136   11-A"
  63   1.0000      -1.741500       -47.3886   53-A'
  64   1.0000      -1.741397       -47.3858   12-A"
  65   1.0000      -1.739546       -47.3355   54-A'
  66   1.0000      -1.739394       -47.3313   13-A"
  67   1.0000      -1.739355       -47.3303   55-A'
  68   1.0000      -1.739223       -47.3267   14-A"
  69   1.0000      -1.737655       -47.2840   15-A"
  70   1.0000      -1.737611       -47.2828   56-A'
  71   1.0000      -1.736573       -47.2545   16-A"
  72   1.0000      -1.736549       -47.2539   57-A'
  73   1.0000      -1.734540       -47.1992   17-A"
  74   1.0000      -1.734506       -47.1983   58-A'
  75   1.0000      -1.734355       -47.1942   18-A"
  76   1.0000      -1.734327       -47.1934   59-A'
  77   1.0000      -0.611972       -16.6526   60-A'
  78   1.0000      -0.595311       -16.1992   61-A'
  79   1.0000      -0.529987       -14.4217   62-A'
  80   1.0000      -0.499816       -13.6007   63-A'
  81   1.0000      -0.498839       -13.5741   64-A'
  82   1.0000      -0.496503       -13.5105   65-A'
  83   1.0000      -0.413105       -11.2412   66-A'
  84   1.0000      -0.405895       -11.0450   67-A'
  85   1.0000      -0.387629       -10.5479   68-A'
  86   1.0000      -0.365882        -9.9562   69-A'
  87   1.0000      -0.324307        -8.8249   70-A'
  88   1.0000      -0.316283        -8.6065   71-A'
  89   1.0000      -0.290701        -7.9104   72-A'
  90   1.0000      -0.280404        -7.6302   73-A'
  91   1.0000      -0.237091        -6.4516   74-A'
  92   1.0000      -0.208190        -5.6651   75-A'
  93   1.0000      -0.204255        -5.5581   76-A'
  94   1.0000      -0.181510        -4.9391   77-A'
  95   1.0000      -0.166215        -4.5229   78-A'
  96   1.0000      -0.160505        -4.3676   79-A'
  97   1.0000      -0.138912        -3.7800   80-A'
  98   1.0000      -0.135925        -3.6987   19-A"
  99   1.0000      -0.134323        -3.6551   81-A'
 100   1.0000      -0.132259        -3.5989   82-A'
 101   1.0000      -0.126917        -3.4536   20-A"
 102   1.0000      -0.109779        -2.9872   83-A'
 103   1.0000      -0.080634        -2.1942   84-A'
 104   1.0000      -0.070180        -1.9097   85-A'
 105   1.0000      -0.060538        -1.6473   86-A'
 106   1.0000      -0.054628        -1.4865   21-A"
 107   1.0000      -0.051427        -1.3994   87-A'
 108   1.0000      -0.033830        -0.9206   22-A"
 109   1.0000      -0.032178        -0.8756   23-A"
 110   1.0000      -0.027191        -0.7399   24-A"
 111   1.0000      -0.023944        -0.6516   88-A'
 112   1.0000      -0.003210        -0.0873   89-A'
 113   1.0000       0.006948         0.1891   25-A"
 114   1.0000       0.009452         0.2572   90-A'
 115   1.0000       0.009453         0.2572   26-A"
 116   1.0000       0.027733         0.7547   91-A'
 117   1.0000       0.031578         0.8593   92-A'
 118   1.0000       0.051081         1.3900   93-A'
 119   1.0000       0.055057         1.4982   27-A"
 120   1.0000       0.059061         1.6071   28-A"
 121   1.0000       0.071482         1.9451   29-A"
 122   1.0000       0.101846         2.7714   30-A"
 123   0.0000       0.145181         3.9506   94-A'
 124   0.0000       0.181700         4.9443   95-A'
 125   0.0000       0.188048         5.1171   96-A'
 126   0.0000       0.192600         5.2409   31-A"
 127   0.0000       0.196018         5.3339   32-A"

MULLIKEN ATOMIC CHARGES AND SPIN POPULATIONS
--------------------------------------------
   0 Cu:    0.632827    0.310455
   1 Se:   -0.711375    0.171336
   2 C :    0.261104   -0.005170
   3 Se:   -0.741719    0.173604
   4 C :    0.198278   -0.002087
   5 Se:   -0.688381    0.172562
   6 C :    0.261153   -0.005067
   7 Se:   -0.751856    0.174039
   8 C :    0.201822   -0.002453
   9 C :   -0.102053   -0.002230
  10 C :   -0.119492   -0.002344
  11 C :   -0.091954   -0.000704
  12 H :    0.077713    0.003004
  13 C :   -0.074781   -0.000728
  14 H :    0.074699    0.002905
  15 H :    0.004786    0.001577
  16 H :    0.011350    0.001543
  17 C :   -0.081799    0.001821
  18 C :   -0.102405    0.001783
  19 C :   -0.254630   -0.000911
  20 H :    0.091189    0.001440
  21 C :   -0.240473   -0.000391
  22 H :    0.088024    0.001583
  23 H :    0.024443    0.002236
  24 H :    0.033529    0.002196
Sum of atomic charges         :   -2.0000000

LOEWDIN ATOMIC CHARGES AND SPIN POPULATIONS
-------------------------------------------
   0 Cu:   -0.609457    0.390488
   1 Se:   -0.190637    0.118100
   2 C :    0.026527    0.009474
   3 Se:   -0.203568    0.125265
   4 C :    0.047707    0.012998
   5 Se:   -0.190859    0.119151
   6 C :    0.036162    0.009091
   7 Se:   -0.204078    0.125399
   8 C :    0.038354    0.013276
   9 C :    0.356720    0.006434
  10 C :    0.360597    0.006410
  11 C :    0.292252    0.000411
  12 H :   -0.443592    0.007894
  13 C :    0.291823    0.000388
  14 H :   -0.437950    0.007655
  15 H :   -0.388023    0.000409
  16 H :   -0.392628    0.000364
  17 C :    0.378979    0.008187
  18 C :    0.387756    0.008600
  19 C :    0.339402    0.000724
  20 H :   -0.482139    0.013359
  21 C :    0.341108    0.001020
  22 H :   -0.480414    0.013786
  23 H :   -0.431045    0.000532
  24 H :   -0.442997    0.000587

  Mayer bond orders larger than 0.100000
B(  0-Cu,  1-Se) :   0.5496 B(  0-Cu,  3-Se) :   0.5546 B(  0-Cu,  5-Se) :   0.5472
B(  0-Cu,  7-Se) :   0.5581 B(  1-Se,  2-C ) :   1.0276 B(  2-C ,  6-C ) :   1.1326
B(  2-C , 17-C ) :   1.2319 B(  3-Se,  4-C ) :   1.0446 B(  4-C ,  8-C ) :   1.1306
B(  4-C , 10-C ) :   1.2769 B(  5-Se,  6-C ) :   1.0388 B(  6-C , 18-C ) :   1.2297
B(  7-Se,  8-C ) :   1.0424 B(  8-C ,  9-C ) :   1.2723 B(  9-C , 13-C ) :   1.3426
B(  9-C , 14-H ) :   0.9714 B( 10-C , 11-C ) :   1.3511 B( 10-C , 12-H ) :   0.9711
B( 11-C , 13-C ) :   1.3233 B( 11-C , 15-H ) :   0.9963 B( 13-C , 16-H ) :   0.9919
B( 17-C , 19-C ) :   1.4176 B( 17-C , 20-H ) :   0.9507 B( 18-C , 21-C ) :   1.4292
B( 18-C , 22-H ) :   0.9521 B( 19-C , 21-C ) :   1.2483 B( 19-C , 23-H ) :   0.9963
B( 21-C , 24-H ) :   0.9917

FINAL SINGLE POINT ENERGY    -11627.080301988197

DIPOLE MOMENT
-------------
                                X             Y             Z
Electronic contribution:     -0.19273      -0.49341       0.00000
Nuclear contribution   :      0.30061       0.83352       0.00000
                        -----------------------------------------
Total Dipole Moment    :      0.10788       0.34011       0.00000
                        -----------------------------------------
Magnitude (a.u.)       :      0.35681
Magnitude (Debye)      :      0.90693

Rotational constants in cm-1:     0.017531     0.004098     0.003322
Rotational constants in MHz :   525.576585   122.858322    99.580477

                             ****ORCA TERMINATED NORMALLY****
TOTAL RUN TIME: 0 days 17 hours 3 minutes 47 seconds 699 msec
