                         Program Version 5.0.4 -  RELEASE  -
|  1> ! RIJCOSX nofrozencore ReducedPop printbasis
|  2> ! M06L ano-rcc-dzp autoaux
|  3>
|  4> %maxcore 7500
|  5> %basis
|  6> PCDTrimBas overlap
|  7> PCDTrimAuxJ Coulomb
|  8> PCDTrimAuxJK Coulomb
|  9> PCDTrimAuxC Coulomb
| 10> PCDThresh -1
| 11> end
| 12>
| 13> %basis
| 14> newgto Cu "ano-rcc-tzp" end
| 15> newgto Se "ano-rcc-tzp" end
| 16> end
| 17>
| 18> %pal
| 19> nprocs 8
| 20> end
| 21>
| 22> % sym SymThresh 1e-2 end
| 23> * xyz -2 2
| 24> Cu -2.794152498464359e-05 1.9528404815599482e-05 0.00024698767699399623
| 25> Se -0.3534173657775139 -0.34139783078200997 2.3189235384432627
| 26> C -0.17736536354741408 1.1001906991666308 2.903554580712051
| 27> Se -0.313207438277039 -2.2617204053168662 -0.6255715535598176
| 28> C -0.11061683100654436 -2.3029234227147577 -2.2790031467961636
| 29> Se 0.3128329404471319 2.261056773149547 0.6276157552920087
| 30> C 0.10705474746214319 2.2720616389457144 2.26485647890526
| 31> Se 0.3541552401273689 0.3484725557538182 -2.31506021111865
| 32> C 0.1842004752463365 -1.1386772408737813 -3.0100967414771067
| 33> C 0.3242885816664502 -1.3095844979635967 -4.34828091161314
| 34> C -0.22373571909683856 -3.4555455735611833 -2.9643631061951456
| 35> C -0.07637987673992666 -3.604706172307346 -4.330084795631896
| 36> H -0.45246598074009536 -4.241529572861685 -2.2366808931232613
| 37> C 0.21124059546253016 -2.478653886548147 -5.056704011836999
| 38> H 0.5502244252226924 -0.3987193548034433 -4.883063544649556
| 39> H -0.201298414508387 -4.6092904471229765 -4.719870874135147
| 40> H 0.3386772734668831 -2.5298766318331882 -6.131394557545241
| 41> C -0.3311499745491724 1.2829225451647788 4.365889727889725
| 42> C 0.23032265135848903 3.4928416761254213 2.9634682621314767
| 43> C -0.2181765168416467 2.4598262954255277 5.085619845564253
| 44> H -0.5628681596546885 0.6239621848238476 5.290936523731294
| 45> C 0.07760196060980519 3.609397002473448 4.326869216000201
| 46> H 0.4592350784448182 4.295333423506365 2.2569450763308083
| 47> H -0.3300401931040042 2.6043454960893584 6.165200317294154
| 48> H 0.20419779518993075 4.6204085275407385 4.7122270828318955
| 49> *
| 50>
| 51> % eprnmr
| 52> gtensor true
| 53> Nuclei = all H {aiso,adip,aorb,fgrad,rho}
| 54> Nuclei = all Cu {aiso,adip,aorb,fgrad,rho}
| 55> end
| 56>
| 57>                          ****END OF INPUT****

CARTESIAN COORDINATES (ANGSTROEM)
---------------------------------
  Cu     0.000017    0.000249    0.000000
  Se    -0.371637    2.341100    0.000000
  C      1.085079    2.914637    0.000000
  Se    -2.288617   -0.605846    0.000000
  C     -2.312498   -2.271981    0.000000
  Se     2.287921    0.607914    0.000000
  C      2.281330    2.258060    0.000000
  Se     0.378775   -2.337283    0.000000
  C     -1.122983   -3.021607    0.000000
  C     -1.281920   -4.368570    0.000000
  C     -3.474851   -2.950205    0.000000
  C     -3.611419   -4.325162    0.000000
  H     -4.280434   -2.208150    0.000000
  C     -2.460715   -5.069860    0.000000
  H     -0.351688   -4.917555    0.000000
  H     -4.626735   -4.707078    0.000000
  H     -2.501043   -6.152541    0.000000
  C      1.254670    4.386610    0.000000
  C      3.512712    2.948896    0.000000
  C      2.441293    5.099212    0.000000
  H      0.575861    5.326213    0.000000
  C      3.616214    4.321870    0.000000
  H      4.334819    2.227988    0.000000
  H      2.576254    6.185803    0.000000
  H      4.638102    4.699252    0.000000

 Total Charge           Charge          ....   -2
 Multiplicity           Mult            ....    2
 Number of Electrons    NEL             ....  247
 Basis Dimension        Dim             ....  575

ORBITAL ENERGIES
----------------
                 SPIN UP ORBITALS
  NO   OCC          E(Eh)            E(eV)    Irrep
   0   1.0000    -443.572138    -12070.2115    1-A'
   1   1.0000    -443.557305    -12069.8079    2-A'
   2   1.0000    -443.545130    -12069.4766    3-A'
   3   1.0000    -443.544051    -12069.4472    4-A'
   4   1.0000    -318.187256     -8658.3154    5-A'
   5   1.0000     -56.377585     -1534.1121    6-A'
   6   1.0000     -56.367343     -1533.8334    7-A'
   7   1.0000     -56.356099     -1533.5274    8-A'
   8   1.0000     -56.355385     -1533.5080    9-A'
   9   1.0000     -51.293479     -1395.7665   10-A'
  10   1.0000     -51.292305     -1395.7346   11-A'
  11   1.0000     -51.292072     -1395.7282    1-A"
  12   1.0000     -51.286268     -1395.5703   12-A'
  13   1.0000     -51.284894     -1395.5329   13-A'
  14   1.0000     -51.284408     -1395.5197    2-A"
  15   1.0000     -51.284279     -1395.5162   14-A'
  16   1.0000     -51.282909     -1395.4789   15-A'
  17   1.0000     -51.282790     -1395.4757   16-A'
  18   1.0000     -51.282364     -1395.4641    3-A"
  19   1.0000     -51.281487     -1395.4402   17-A'
  20   1.0000     -51.280976     -1395.4263    4-A"
  21   1.0000     -38.027791     -1034.7888   18-A'
  22   1.0000     -33.529844      -912.3934   19-A'
  23   1.0000     -33.529058      -912.3720   20-A'
  24   1.0000     -33.517877      -912.0678    5-A"
  25   1.0000      -9.824207      -267.3303   21-A'
  26   1.0000      -9.819529      -267.2030   22-A'
  27   1.0000      -9.819352      -267.1982   23-A'
  28   1.0000      -9.816887      -267.1311   24-A'
  29   1.0000      -9.816058      -267.1085   25-A'
  30   1.0000      -9.813971      -267.0517   26-A'
  31   1.0000      -9.810143      -266.9476   27-A'
  32   1.0000      -9.807056      -266.8636   28-A'
  33   1.0000      -9.806264      -266.8420   29-A'
  34   1.0000      -9.804536      -266.7950   30-A'
  35   1.0000      -9.802460      -266.7385   31-A'
  36   1.0000      -9.801719      -266.7183   32-A'
  37   1.0000      -7.347027      -199.9228   33-A'
  38   1.0000      -7.339736      -199.7244   34-A'
  39   1.0000      -7.332874      -199.5376   35-A'
  40   1.0000      -7.332697      -199.5328   36-A'
  41   1.0000      -5.410059      -147.2152   37-A'
  42   1.0000      -5.404982      -147.0770    6-A"
  43   1.0000      -5.404696      -147.0693   38-A'
  44   1.0000      -5.404239      -147.0568   39-A'
  45   1.0000      -5.402793      -147.0175   40-A'
  46   1.0000      -5.401472      -146.9815   41-A'
  47   1.0000      -5.398852      -146.9102   42-A'
  48   1.0000      -5.398353      -146.8966    7-A"
  49   1.0000      -5.397495      -146.8733   43-A'
  50   1.0000      -5.396772      -146.8536    8-A"
  51   1.0000      -5.396323      -146.8414   44-A'
  52   1.0000      -5.395656      -146.8233    9-A"
  53   1.0000      -4.022109      -109.4471   45-A'
  54   1.0000      -2.541661       -69.1621   46-A'
  55   1.0000      -2.540745       -69.1372   47-A'
  56   1.0000      -2.517187       -68.4961   10-A"
  57   1.0000      -1.750358       -47.6297   48-A'
  58   1.0000      -1.746407       -47.5222   49-A'
  59   1.0000      -1.746109       -47.5141   11-A"
  60   1.0000      -1.743062       -47.4311   50-A'
  61   1.0000      -1.741617       -47.3918   51-A'
  62   1.0000      -1.741608       -47.3916   12-A"
  63   1.0000      -1.741428       -47.3867   52-A'
  64   1.0000      -1.740473       -47.3607   53-A'
  65   1.0000      -1.740369       -47.3579   54-A'
  66   1.0000      -1.739667       -47.3388   13-A"
  67   1.0000      -1.739067       -47.3224   55-A'
  68   1.0000      -1.738148       -47.2974   14-A"
  69   1.0000      -1.737869       -47.2898   56-A'
  70   1.0000      -1.736964       -47.2652   15-A"
  71   1.0000      -1.735266       -47.2190   57-A'
  72   1.0000      -1.735243       -47.2184   16-A"
  73   1.0000      -1.733826       -47.1798   58-A'
  74   1.0000      -1.733735       -47.1773   17-A"
  75   1.0000      -1.732734       -47.1501   59-A'
  76   1.0000      -1.732638       -47.1475   18-A"
  77   1.0000      -0.607527       -16.5317   60-A'
  78   1.0000      -0.599848       -16.3227   61-A'
  79   1.0000      -0.525744       -14.3062   62-A'
  80   1.0000      -0.520606       -14.1664   63-A'
  81   1.0000      -0.504139       -13.7183   64-A'
  82   1.0000      -0.496690       -13.5156   65-A'
  83   1.0000      -0.420211       -11.4345   66-A'
  84   1.0000      -0.408582       -11.1181   67-A'
  85   1.0000      -0.385352       -10.4860   68-A'
  86   1.0000      -0.374827       -10.1996   69-A'
  87   1.0000      -0.322935        -8.7875   70-A'
  88   1.0000      -0.317925        -8.6512   71-A'
  89   1.0000      -0.293552        -7.9879   72-A'
  90   1.0000      -0.276833        -7.5330   73-A'
  91   1.0000      -0.231609        -6.3024   74-A'
  92   1.0000      -0.221486        -6.0269   75-A'
  93   1.0000      -0.209358        -5.6969   76-A'
  94   1.0000      -0.200341        -5.4516   77-A'
  95   1.0000      -0.162546        -4.4231   78-A'
  96   1.0000      -0.157306        -4.2805   79-A'
  97   1.0000      -0.141412        -3.8480   80-A'
  98   1.0000      -0.138549        -3.7701   81-A'
  99   1.0000      -0.133081        -3.6213   19-A"
 100   1.0000      -0.132125        -3.5953   82-A'
 101   1.0000      -0.129969        -3.5366   20-A"
 102   1.0000      -0.107884        -2.9357   83-A'
 103   1.0000      -0.074432        -2.0254   84-A'
 104   1.0000      -0.070675        -1.9232   85-A'
 105   1.0000      -0.063798        -1.7360   86-A'
 106   1.0000      -0.057080        -1.5532   87-A'
 107   1.0000      -0.051710        -1.4071   21-A"
 108   1.0000      -0.047682        -1.2975   22-A"
 109   1.0000      -0.034358        -0.9349   23-A"
 110   1.0000      -0.031681        -0.8621   88-A'
 111   1.0000      -0.028215        -0.7678   89-A'
 112   1.0000      -0.027139        -0.7385   24-A"
 113   1.0000      -0.002085        -0.0567   25-A"
 114   1.0000      -0.001335        -0.0363   26-A"
 115   1.0000       0.000498         0.0136   90-A'
 116   1.0000       0.018918         0.5148   91-A'
 117   1.0000       0.021022         0.5720   92-A'
 118   1.0000       0.040517         1.1025   93-A'
 119   1.0000       0.052267         1.4223   27-A"
 120   1.0000       0.057198         1.5564   28-A"
 121   1.0000       0.070207         1.9104   29-A"
 122   1.0000       0.099926         2.7191   30-A"
 123   1.0000       0.116037         3.1575   94-A'
 124   0.0000       0.181232         4.9316   95-A'
 125   0.0000       0.181904         4.9499   96-A'
 126   0.0000       0.195617         5.3230   31-A"
 127   0.0000       0.196070         5.3353   97-A'
 128   0.0000       0.196514         5.3474   98-A'

                 SPIN DOWN ORBITALS
  NO   OCC          E(Eh)            E(eV)    Irrep
   0   1.0000    -443.571688    -12070.1993    1-A'
   1   1.0000    -443.556845    -12069.7954    2-A'
   2   1.0000    -443.544688    -12069.4646    3-A'
   3   1.0000    -443.543591    -12069.4347    4-A'
   4   1.0000    -318.187135     -8658.3121    5-A'
   5   1.0000     -56.377404     -1534.1072    6-A'
   6   1.0000     -56.367157     -1533.8283    7-A'
   7   1.0000     -56.355922     -1533.5226    8-A'
   8   1.0000     -56.355201     -1533.5030    9-A'
   9   1.0000     -51.293134     -1395.7571   10-A'
  10   1.0000     -51.291823     -1395.7215    1-A"
  11   1.0000     -51.291597     -1395.7153   11-A'
  12   1.0000     -51.285947     -1395.5616   12-A'
  13   1.0000     -51.284154     -1395.5128    2-A"
  14   1.0000     -51.284140     -1395.5124   13-A'
  15   1.0000     -51.283957     -1395.5074   14-A'
  16   1.0000     -51.282463     -1395.4668   15-A'
  17   1.0000     -51.282158     -1395.4585   16-A'
  18   1.0000     -51.282111     -1395.4572    3-A"
  19   1.0000     -51.280779     -1395.4209   17-A'
  20   1.0000     -51.280733     -1395.4197    4-A"
  21   1.0000     -38.013922     -1034.4114   18-A'
  22   1.0000     -33.516661      -912.0347   19-A'
  23   1.0000     -33.515876      -912.0133   20-A'
  24   1.0000     -33.514015      -911.9627    5-A"
  25   1.0000      -9.824045      -267.3259   21-A'
  26   1.0000      -9.819459      -267.2011   22-A'
  27   1.0000      -9.819399      -267.1994   23-A'
  28   1.0000      -9.816834      -267.1296   24-A'
  29   1.0000      -9.816006      -267.1071   25-A'
  30   1.0000      -9.813924      -267.0505   26-A'
  31   1.0000      -9.810001      -266.9437   27-A'
  32   1.0000      -9.807087      -266.8644   28-A'
  33   1.0000      -9.806264      -266.8420   29-A'
  34   1.0000      -9.804551      -266.7954   30-A'
  35   1.0000      -9.802343      -266.7353   31-A'
  36   1.0000      -9.801588      -266.7148   32-A'
  37   1.0000      -7.346632      -199.9120   33-A'
  38   1.0000      -7.339329      -199.7133   34-A'
  39   1.0000      -7.332478      -199.5269   35-A'
  40   1.0000      -7.332285      -199.5216   36-A'
  41   1.0000      -5.409686      -147.2050   37-A'
  42   1.0000      -5.404671      -147.0686    6-A"
  43   1.0000      -5.403887      -147.0472   38-A'
  44   1.0000      -5.403877      -147.0470   39-A'
  45   1.0000      -5.402432      -147.0077   40-A'
  46   1.0000      -5.401111      -146.9717   41-A'
  47   1.0000      -5.398034      -146.8880    7-A"
  48   1.0000      -5.398005      -146.8872   42-A'
  49   1.0000      -5.396653      -146.8504   43-A'
  50   1.0000      -5.396455      -146.8450    8-A"
  51   1.0000      -5.395524      -146.8197   44-A'
  52   1.0000      -5.395354      -146.8150    9-A"
  53   1.0000      -3.993902      -108.6796   45-A'
  54   1.0000      -2.506888       -68.2159   10-A"
  55   1.0000      -2.506445       -68.2038   46-A'
  56   1.0000      -2.505450       -68.1767   47-A'
  57   1.0000      -1.749931       -47.6180   48-A'
  58   1.0000      -1.745798       -47.5056   11-A"
  59   1.0000      -1.745508       -47.4977   49-A'
  60   1.0000      -1.742602       -47.4186   50-A'
  61   1.0000      -1.740962       -47.3740   51-A'
  62   1.0000      -1.740844       -47.3708   12-A"
  63   1.0000      -1.740807       -47.3698   52-A'
  64   1.0000      -1.739916       -47.3455   53-A'
  65   1.0000      -1.739569       -47.3361   54-A'
  66   1.0000      -1.739359       -47.3304   13-A"
  67   1.0000      -1.738164       -47.2979   55-A'
  68   1.0000      -1.737841       -47.2891   14-A"
  69   1.0000      -1.736991       -47.2659   56-A'
  70   1.0000      -1.736660       -47.2569   15-A"
  71   1.0000      -1.734453       -47.1969   16-A"
  72   1.0000      -1.734448       -47.1967   57-A'
  73   1.0000      -1.733024       -47.1580   58-A'
  74   1.0000      -1.732953       -47.1560   17-A"
  75   1.0000      -1.731972       -47.1293   59-A'
  76   1.0000      -1.731896       -47.1273   18-A"
  77   1.0000      -0.606844       -16.5131   60-A'
  78   1.0000      -0.598831       -16.2950   61-A'
  79   1.0000      -0.524645       -14.2763   62-A'
  80   1.0000      -0.519438       -14.1346   63-A'
  81   1.0000      -0.502571       -13.6757   64-A'
  82   1.0000      -0.494779       -13.4636   65-A'
  83   1.0000      -0.417833       -11.3698   66-A'
  84   1.0000      -0.405813       -11.0427   67-A'
  85   1.0000      -0.382734       -10.4147   68-A'
  86   1.0000      -0.372449       -10.1348   69-A'
  87   1.0000      -0.321121        -8.7382   70-A'
  88   1.0000      -0.316071        -8.6007   71-A'
  89   1.0000      -0.290899        -7.9158   72-A'
  90   1.0000      -0.274471        -7.4687   73-A'
  91   1.0000      -0.230361        -6.2685   74-A'
  92   1.0000      -0.220575        -6.0022   75-A'
  93   1.0000      -0.207538        -5.6474   76-A'
  94   1.0000      -0.199276        -5.4226   77-A'
  95   1.0000      -0.161076        -4.3831   78-A'
  96   1.0000      -0.155056        -4.2193   79-A'
  97   1.0000      -0.140102        -3.8124   80-A'
  98   1.0000      -0.137130        -3.7315   81-A'
  99   1.0000      -0.132758        -3.6125   19-A"
 100   1.0000      -0.130484        -3.5507   82-A'
 101   1.0000      -0.129482        -3.5234   20-A"
 102   1.0000      -0.105694        -2.8761   83-A'
 103   1.0000      -0.072763        -1.9800   84-A'
 104   1.0000      -0.068094        -1.8529   85-A'
 105   1.0000      -0.055581        -1.5124   86-A'
 106   1.0000      -0.053546        -1.4571   87-A'
 107   1.0000      -0.050926        -1.3858   21-A"
 108   1.0000      -0.046768        -1.2726   22-A"
 109   1.0000      -0.032269        -0.8781   23-A"
 110   1.0000      -0.025838        -0.7031   24-A"
 111   1.0000      -0.022804        -0.6205   88-A'
 112   1.0000      -0.002709        -0.0737   89-A'
 113   1.0000       0.007536         0.2051   25-A"
 114   1.0000       0.009850         0.2680   26-A"
 115   1.0000       0.010827         0.2946   90-A'
 116   1.0000       0.029058         0.7907   91-A'
 117   1.0000       0.031794         0.8652   92-A'
 118   1.0000       0.051748         1.4081   93-A'
 119   1.0000       0.054520         1.4836   27-A"
 120   1.0000       0.060386         1.6432   28-A"
 121   1.0000       0.071961         1.9581   29-A"
 122   1.0000       0.103124         2.8061   30-A"
 123   0.0000       0.145809         3.9677   94-A'
 124   0.0000       0.183799         5.0014   95-A'
 125   0.0000       0.183982         5.0064   96-A'
 126   0.0000       0.195822         5.3286   31-A"
 127   0.0000       0.199570         5.4306   97-A'

MULLIKEN ATOMIC CHARGES AND SPIN POPULATIONS
--------------------------------------------
   0 Cu:    0.638437    0.309734
   1 Se:   -0.615250    0.171819
   2 C :    0.140856   -0.005741
   3 Se:   -0.769338    0.175104
   4 C :    0.290156   -0.003303
   5 Se:   -0.741110    0.170173
   6 C :    0.238725   -0.002818
   7 Se:   -0.755446    0.176154
   8 C :    0.247615   -0.003997
   9 C :   -0.095182   -0.001340
  10 C :   -0.108724    0.000868
  11 C :   -0.178621   -0.000705
  12 H :    0.086109    0.001270
  13 C :   -0.172095   -0.000545
  14 H :    0.092240    0.002495
  15 H :    0.023417    0.001416
  16 H :    0.017937    0.001616
  17 C :   -0.115121    0.001041
  18 C :   -0.120327    0.001150
  19 C :   -0.100601    0.000127
  20 H :    0.030970    0.001306
  21 C :   -0.169115   -0.001252
  22 H :    0.084738    0.001679
  23 H :    0.022611    0.002353
  24 H :    0.027119    0.001397
Sum of atomic charges         :   -2.0000000

LOEWDIN ATOMIC CHARGES AND SPIN POPULATIONS
-------------------------------------------
   0 Cu:   -0.611943    0.390466
   1 Se:   -0.216686    0.123096
   2 C :   -0.000764    0.013538
   3 Se:   -0.185698    0.123803
   4 C :    0.049505    0.010230
   5 Se:   -0.210241    0.117922
   6 C :    0.048406    0.011479
   7 Se:   -0.189286    0.125855
   8 C :    0.043115    0.010936
   9 C :    0.356334    0.006596
  10 C :    0.355200    0.006955
  11 C :    0.318911    0.000459
  12 H :   -0.471657    0.013017
  13 C :    0.319218    0.000532
  14 H :   -0.463876    0.010427
  15 H :   -0.414290    0.000198
  16 H :   -0.407619    0.000417
  17 C :    0.383770    0.008819
  18 C :    0.377406    0.007478
  19 C :    0.306467    0.001290
  20 H :   -0.412053    0.003679
  21 C :    0.313719    0.000155
  22 H :   -0.463590    0.011578
  23 H :   -0.399650    0.000871
  24 H :   -0.424697    0.000204

  Mayer bond orders larger than 0.100000
B(  0-Cu,  1-Se) :   0.5636 B(  0-Cu,  3-Se) :   0.5357 B(  0-Cu,  5-Se) :   0.5541
B(  0-Cu,  7-Se) :   0.5450 B(  1-Se,  2-C ) :   1.1261 B(  2-C ,  6-C ) :   1.1467
B(  2-C , 17-C ) :   1.2068 B(  3-Se,  4-C ) :   1.0035 B(  4-C ,  8-C ) :   1.1194
B(  4-C , 10-C ) :   1.2854 B(  5-Se,  6-C ) :   1.0132 B(  6-C , 18-C ) :   1.2395
B(  7-Se,  8-C ) :   1.0288 B(  8-C ,  9-C ) :   1.2746 B(  9-C , 13-C ) :   1.3543
B(  9-C , 14-H ) :   0.9564 B( 10-C , 11-C ) :   1.3532 B( 10-C , 12-H ) :   0.9516
B( 11-C , 13-C ) :   1.3445 B( 11-C , 15-H ) :   0.9953 B( 13-C , 16-H ) :   1.0000
B( 17-C , 19-C ) :   1.4142 B( 17-C , 20-H ) :   0.9864 B( 18-C , 21-C ) :   1.4169
B( 18-C , 22-H ) :   0.9564 B( 19-C , 21-C ) :   1.2765 B( 19-C , 23-H ) :   0.9875
B( 21-C , 24-H ) :   0.9886

FINAL SINGLE POINT ENERGY    -11627.090861666538

DIPOLE MOMENT
-------------
                                X             Y             Z
Electronic contribution:     -0.36743      -0.42731       0.00000
Nuclear contribution   :      0.27620       0.36404       0.00000
                        -----------------------------------------
Total Dipole Moment    :     -0.09123      -0.06327       0.00000
                        -----------------------------------------
Magnitude (a.u.)       :      0.11103
Magnitude (Debye)      :      0.28221

Rotational constants in cm-1:     0.017612     0.004099     0.003325
Rotational constants in MHz :   527.997255   122.877908    99.679941

                             ****ORCA TERMINATED NORMALLY****
TOTAL RUN TIME: 0 days 16 hours 29 minutes 40 seconds 827 msec
