                         Program Version 5.0.4 -  RELEASE  -
|  1> ! RIJCOSX nofrozencore ReducedPop printbasis
|  2> ! M06L ano-rcc-dzp autoaux
|  3>
|  4> %maxcore 7500
|  5> %basis
|  6> PCDTrimBas overlap
|  7> PCDTrimAuxJ Coulomb
|  8> PCDTrimAuxJK Coulomb
|  9> PCDTrimAuxC Coulomb
| 10> PCDThresh -1
| 11> end
| 12>
| 13> %basis
| 14> newgto Cu "ano-rcc-tzp" end
| 15> newgto Se "ano-rcc-tzp" end
| 16> end
| 17>
| 18> %pal
| 19> nprocs 8
| 20> end
| 21>
| 22> % sym SymThresh 1e-2 end
| 23> * xyz -2 2
| 24> Cu 6.918178038474917e-05 8.454665841365532e-05 5.874303204535003e-05
| 25> Se -0.8849634841079448 -1.2795999482856855 1.7846337938257244
| 26> C -0.25910821804670453 -0.5788520525621189 3.136776298073116
| 27> Se -1.0598465000574981 -1.2309269628032595 -1.7231988579861626
| 28> C -0.582234093629931 -0.509385942567775 -3.082527019973916
| 29> Se 1.0611561820418265 1.2327654950046245 1.7212642134595193
| 30> C 0.5669872095237718 0.48850705428504143 3.0983320915058794
| 31> Se 0.8862103489988149 1.2810612598323585 -1.7827752302654782
| 32> C 0.2484644703650296 0.5662031013119296 -3.150406442737028
| 33> C 0.5640352403932054 1.070638477227709 -4.403111632868182
| 34> C -1.0411166166301589 -0.9995519016508794 -4.37643396546694
| 35> C -0.6862287317754482 -0.44541031319083196 -5.616968217211052
| 36> H -1.6883306952231572 -1.863074473984104 -3.9969635597604767
| 37> C 0.19924215777941603 0.689716052535016 -5.54360597947292
| 38> H 1.2111170230419606 1.9224639781810255 -4.635012233858651
| 39> H -1.261181478013278 -1.130825997429029 -6.325764566357167
| 40> H 0.2706016561643507 0.8718551636017356 -6.6983711148576335
| 41> C -0.5861717863821723 -1.101089165718673 4.4278149137657605
| 42> C 1.0231455399054297 0.9783048035104933 4.352017490558249
| 43> C -0.14908028906068127 -0.6296279055676608 5.601746195585986
| 44> H -1.2571054511748025 -1.9535225074724756 4.274060576111907
| 45> C 0.7232812271864912 0.4979464215552269 5.555554448073023
| 46> H 1.6863738015541814 1.8308385698921223 4.377385502276338
| 47> H -0.49088717528435993 -1.1400814898597151 6.498734858398101
| 48> H 1.0719534708935228 0.8720242109322748 6.51776413257432
| 49> *
| 50>
| 51> % eprnmr
| 52> gtensor true
| 53> Nuclei = all H {aiso,adip,aorb,fgrad,rho}
| 54> Nuclei = all Cu {aiso,adip,aorb,fgrad,rho}
| 55> end
| 56>
| 57>                          ****END OF INPUT****

CARTESIAN COORDINATES (ANGSTROEM)
---------------------------------
  Cu     0.000108    0.000061    0.000000
  Se    -1.586342    1.757548    0.000000
  C     -0.674311    3.128399    0.000000
  Se    -1.589945   -1.754977    0.000000
  C     -0.702001   -3.099619    0.000000
  Se     1.592236    1.753082    0.000000
  C      0.675869    3.114960    0.000000
  Se     1.588226   -1.755652    0.000000
  C      0.658049   -3.142348    0.000000
  C      1.273197   -4.385289    0.000000
  C     -1.346427   -4.407191    0.000000
  C     -0.668142   -5.636774    0.000000
  H     -2.432284   -4.047372    0.000000
  C      0.769885   -5.536628    0.000000
  H      2.346993   -4.597568    0.000000
  H     -1.548809   -6.362848    0.000000
  H      0.978943   -6.689036    0.000000
  C     -1.311277    4.409319    0.000000
  C      1.319082    4.382235    0.000000
  C     -0.692754    5.596276    0.000000
  H     -2.393011    4.235287    0.000000
  C      0.733493    5.576492    0.000000
  H      2.398557    4.427670    0.000000
  H     -1.322132    6.482768    0.000000
  H      1.224828    6.549088    0.000000

 Total Charge           Charge          ....   -2
 Multiplicity           Mult            ....    2
 Number of Electrons    NEL             ....  247
 Basis Dimension        Dim             ....  575

ORBITAL ENERGIES
----------------
                 SPIN UP ORBITALS
  NO   OCC          E(Eh)            E(eV)    Irrep
   0   1.0000    -443.562628    -12069.9527    1-A'
   1   1.0000    -443.559997    -12069.8811    2-A'
   2   1.0000    -443.545773    -12069.4941    3-A'
   3   1.0000    -443.544711    -12069.4652    4-A'
   4   1.0000    -318.187438     -8658.3204    5-A'
   5   1.0000     -56.370931     -1533.9310    6-A'
   6   1.0000     -56.369324     -1533.8873    7-A'
   7   1.0000     -56.356315     -1533.5333    8-A'
   8   1.0000     -56.355939     -1533.5231    9-A'
   9   1.0000     -51.288749     -1395.6378   10-A'
  10   1.0000     -51.287541     -1395.6050   11-A'
  11   1.0000     -51.287103     -1395.5930    1-A"
  12   1.0000     -51.286020     -1395.5636   12-A'
  13   1.0000     -51.285555     -1395.5509   13-A'
  14   1.0000     -51.284687     -1395.5273   14-A'
  15   1.0000     -51.284227     -1395.5148   15-A'
  16   1.0000     -51.284199     -1395.5140    2-A"
  17   1.0000     -51.284081     -1395.5108   16-A'
  18   1.0000     -51.283739     -1395.5015    3-A"
  19   1.0000     -51.282662     -1395.4722   17-A'
  20   1.0000     -51.282185     -1395.4592    4-A"
  21   1.0000     -38.027926     -1034.7925   18-A'
  22   1.0000     -33.530004      -912.3978   19-A'
  23   1.0000     -33.529196      -912.3758   20-A'
  24   1.0000     -33.517970      -912.0703    5-A"
  25   1.0000      -9.826410      -267.3902   21-A'
  26   1.0000      -9.825117      -267.3550   22-A'
  27   1.0000      -9.818110      -267.1644   23-A'
  28   1.0000      -9.816890      -267.1312   24-A'
  29   1.0000      -9.815467      -267.0924   25-A'
  30   1.0000      -9.810028      -266.9444   26-A'
  31   1.0000      -9.809251      -266.9233   27-A'
  32   1.0000      -9.809077      -266.9186   28-A'
  33   1.0000      -9.808205      -266.8948   29-A'
  34   1.0000      -9.807357      -266.8717   30-A'
  35   1.0000      -9.804938      -266.8059   31-A'
  36   1.0000      -9.803921      -266.7782   32-A'
  37   1.0000      -7.342139      -199.7898   33-A'
  38   1.0000      -7.340714      -199.7510   34-A'
  39   1.0000      -7.333262      -199.5482   35-A'
  40   1.0000      -7.333123      -199.5444   36-A'
  41   1.0000      -5.406042      -147.1059   37-A'
  42   1.0000      -5.403832      -147.0457   38-A'
  43   1.0000      -5.403589      -147.0391   39-A'
  44   1.0000      -5.402659      -147.0138   40-A'
  45   1.0000      -5.400987      -146.9683   41-A'
  46   1.0000      -5.400655      -146.9593    6-A"
  47   1.0000      -5.398557      -146.9022   42-A'
  48   1.0000      -5.398356      -146.8967   43-A'
  49   1.0000      -5.398054      -146.8885    7-A"
  50   1.0000      -5.397847      -146.8829    8-A"
  51   1.0000      -5.397223      -146.8659   44-A'
  52   1.0000      -5.396725      -146.8524    9-A"
  53   1.0000      -4.022187      -109.4493   45-A'
  54   1.0000      -2.541774       -69.1652   46-A'
  55   1.0000      -2.540828       -69.1394   47-A'
  56   1.0000      -2.517193       -68.4963   10-A"
  57   1.0000      -1.745549       -47.4988   48-A'
  58   1.0000      -1.742798       -47.4239   49-A'
  59   1.0000      -1.742501       -47.4159   50-A'
  60   1.0000      -1.742458       -47.4147   51-A'
  61   1.0000      -1.741789       -47.3965   11-A"
  62   1.0000      -1.741217       -47.3809   52-A'
  63   1.0000      -1.740141       -47.3516   53-A'
  64   1.0000      -1.739893       -47.3449   54-A'
  65   1.0000      -1.739332       -47.3296   12-A"
  66   1.0000      -1.739103       -47.3234   13-A"
  67   1.0000      -1.738844       -47.3163   55-A'
  68   1.0000      -1.738059       -47.2950   14-A"
  69   1.0000      -1.737560       -47.2814   15-A"
  70   1.0000      -1.737553       -47.2812   56-A'
  71   1.0000      -1.734982       -47.2113   16-A"
  72   1.0000      -1.734982       -47.2112   57-A'
  73   1.0000      -1.734779       -47.2057   17-A"
  74   1.0000      -1.734773       -47.2056   58-A'
  75   1.0000      -1.733625       -47.1743   59-A'
  76   1.0000      -1.733624       -47.1743   18-A"
  77   1.0000      -0.607371       -16.5274   60-A'
  78   1.0000      -0.604695       -16.4546   61-A'
  79   1.0000      -0.531016       -14.4497   62-A'
  80   1.0000      -0.524668       -14.2770   63-A'
  81   1.0000      -0.498609       -13.5678   64-A'
  82   1.0000      -0.495033       -13.4705   65-A'
  83   1.0000      -0.422009       -11.4834   66-A'
  84   1.0000      -0.418445       -11.3865   67-A'
  85   1.0000      -0.379565       -10.3285   68-A'
  86   1.0000      -0.374792       -10.1986   69-A'
  87   1.0000      -0.324721        -8.8361   70-A'
  88   1.0000      -0.322365        -8.7720   71-A'
  89   1.0000      -0.285729        -7.7751   72-A'
  90   1.0000      -0.281690        -7.6652   73-A'
  91   1.0000      -0.232462        -6.3256   74-A'
  92   1.0000      -0.228769        -6.2251   75-A'
  93   1.0000      -0.220229        -5.9927   76-A'
  94   1.0000      -0.204990        -5.5781   77-A'
  95   1.0000      -0.161813        -4.4032   78-A'
  96   1.0000      -0.147054        -4.0015   79-A'
  97   1.0000      -0.136781        -3.7220   80-A'
  98   1.0000      -0.135600        -3.6899   81-A'
  99   1.0000      -0.134056        -3.6479   19-A"
 100   1.0000      -0.131934        -3.5901   20-A"
 101   1.0000      -0.130174        -3.5422   82-A'
 102   1.0000      -0.101741        -2.7685   83-A'
 103   1.0000      -0.073823        -2.0088   84-A'
 104   1.0000      -0.066287        -1.8038   85-A'
 105   1.0000      -0.059388        -1.6160   86-A'
 106   1.0000      -0.055899        -1.5211   21-A"
 107   1.0000      -0.052986        -1.4418   87-A'
 108   1.0000      -0.051310        -1.3962   22-A"
 109   1.0000      -0.031183        -0.8485   23-A"
 110   1.0000      -0.030725        -0.8361   88-A'
 111   1.0000      -0.026442        -0.7195   89-A'
 112   1.0000      -0.025034        -0.6812   24-A"
 113   1.0000      -0.003219        -0.0876   25-A"
 114   1.0000      -0.001166        -0.0317   26-A"
 115   1.0000       0.000170         0.0046   90-A'
 116   1.0000       0.018740         0.5099   91-A'
 117   1.0000       0.020508         0.5580   92-A'
 118   1.0000       0.040391         1.0991   93-A'
 119   1.0000       0.048347         1.3156   27-A"
 120   1.0000       0.050615         1.3773   28-A"
 121   1.0000       0.072073         1.9612   29-A"
 122   1.0000       0.101515         2.7624   30-A"
 123   1.0000       0.115945         3.1550   94-A'
 124   0.0000       0.180570         4.9136   95-A'
 125   0.0000       0.180635         4.9153   96-A'
 126   0.0000       0.195956         5.3322   97-A'
 127   0.0000       0.196904         5.3580   98-A'
 128   0.0000       0.201201         5.4749   31-A"

                 SPIN DOWN ORBITALS
  NO   OCC          E(Eh)            E(eV)    Irrep
   0   1.0000    -443.562186    -12069.9407    1-A'
   1   1.0000    -443.559541    -12069.8687    2-A'
   2   1.0000    -443.545319    -12069.4817    3-A'
   3   1.0000    -443.544259    -12069.4529    4-A'
   4   1.0000    -318.187315     -8658.3170    5-A'
   5   1.0000     -56.370751     -1533.9261    6-A'
   6   1.0000     -56.369139     -1533.8823    7-A'
   7   1.0000     -56.356134     -1533.5284    8-A'
   8   1.0000     -56.355759     -1533.5182    9-A'
   9   1.0000     -51.288425     -1395.6290   10-A'
  10   1.0000     -51.286862     -1395.5865    1-A"
  11   1.0000     -51.286841     -1395.5859   11-A'
  12   1.0000     -51.285689     -1395.5545   12-A'
  13   1.0000     -51.285233     -1395.5421   13-A'
  14   1.0000     -51.283944     -1395.5071    2-A"
  15   1.0000     -51.283936     -1395.5068   14-A'
  16   1.0000     -51.283760     -1395.5021   15-A'
  17   1.0000     -51.283504     -1395.4951   16-A'
  18   1.0000     -51.283493     -1395.4948    3-A"
  19   1.0000     -51.281933     -1395.4523    4-A"
  20   1.0000     -51.281919     -1395.4520   17-A'
  21   1.0000     -38.014027     -1034.4143   18-A'
  22   1.0000     -33.516796      -912.0384   19-A'
  23   1.0000     -33.515991      -912.0165   20-A'
  24   1.0000     -33.514088      -911.9647    5-A"
  25   1.0000      -9.826362      -267.3889   21-A'
  26   1.0000      -9.825061      -267.3535   22-A'
  27   1.0000      -9.818064      -267.1631   23-A'
  28   1.0000      -9.816848      -267.1300   24-A'
  29   1.0000      -9.815244      -267.0864   25-A'
  30   1.0000      -9.809898      -266.9409   26-A'
  31   1.0000      -9.809103      -266.9193   27-A'
  32   1.0000      -9.809096      -266.9191   28-A'
  33   1.0000      -9.808121      -266.8925   29-A'
  34   1.0000      -9.807397      -266.8728   30-A'
  35   1.0000      -9.804970      -266.8068   31-A'
  36   1.0000      -9.803959      -266.7793   32-A'
  37   1.0000      -7.341748      -199.7791   33-A'
  38   1.0000      -7.340312      -199.7400   34-A'
  39   1.0000      -7.332854      -199.5371   35-A'
  40   1.0000      -7.332716      -199.5334   36-A'
  41   1.0000      -5.405685      -147.0962   37-A'
  42   1.0000      -5.403461      -147.0357   38-A'
  43   1.0000      -5.403230      -147.0294   39-A'
  44   1.0000      -5.402299      -147.0040   40-A'
  45   1.0000      -5.400349      -146.9510    6-A"
  46   1.0000      -5.400193      -146.9467   41-A'
  47   1.0000      -5.397737      -146.8799    7-A"
  48   1.0000      -5.397711      -146.8792   42-A'
  49   1.0000      -5.397541      -146.8745   43-A'
  50   1.0000      -5.397538      -146.8745    8-A"
  51   1.0000      -5.396412      -146.8438    9-A"
  52   1.0000      -5.396388      -146.8432   44-A'
  53   1.0000      -3.993927      -108.6803   45-A'
  54   1.0000      -2.506866       -68.2153   10-A"
  55   1.0000      -2.506495       -68.2052   46-A'
  56   1.0000      -2.505477       -68.1775   47-A'
  57   1.0000      -1.745108       -47.4868   48-A'
  58   1.0000      -1.742339       -47.4114   49-A'
  59   1.0000      -1.742051       -47.4036   50-A'
  60   1.0000      -1.741596       -47.3912   51-A'
  61   1.0000      -1.741479       -47.3881   11-A"
  62   1.0000      -1.740766       -47.3687   52-A'
  63   1.0000      -1.739228       -47.3268   53-A'
  64   1.0000      -1.739016       -47.3210   12-A"
  65   1.0000      -1.739010       -47.3209   54-A'
  66   1.0000      -1.738794       -47.3150   13-A"
  67   1.0000      -1.737948       -47.2920   55-A'
  68   1.0000      -1.737750       -47.2866   14-A"
  69   1.0000      -1.736819       -47.2613   15-A"
  70   1.0000      -1.736775       -47.2600   56-A'
  71   1.0000      -1.734200       -47.1900   16-A"
  72   1.0000      -1.734161       -47.1889   57-A'
  73   1.0000      -1.734025       -47.1852   17-A"
  74   1.0000      -1.733983       -47.1841   58-A'
  75   1.0000      -1.732852       -47.1533   18-A"
  76   1.0000      -1.732817       -47.1523   59-A'
  77   1.0000      -0.606685       -16.5087   60-A'
  78   1.0000      -0.603978       -16.4351   61-A'
  79   1.0000      -0.529743       -14.4151   62-A'
  80   1.0000      -0.523542       -14.2463   63-A'
  81   1.0000      -0.497142       -13.5279   64-A'
  82   1.0000      -0.493554       -13.4303   65-A'
  83   1.0000      -0.419229       -11.4078   66-A'
  84   1.0000      -0.415538       -11.3074   67-A'
  85   1.0000      -0.377039       -10.2598   68-A'
  86   1.0000      -0.372483       -10.1358   69-A'
  87   1.0000      -0.322903        -8.7866   70-A'
  88   1.0000      -0.320343        -8.7170   71-A'
  89   1.0000      -0.283288        -7.7086   72-A'
  90   1.0000      -0.278985        -7.5916   73-A'
  91   1.0000      -0.231262        -6.2930   74-A'
  92   1.0000      -0.227431        -6.1887   75-A'
  93   1.0000      -0.219196        -5.9646   76-A'
  94   1.0000      -0.203696        -5.5428   77-A'
  95   1.0000      -0.159839        -4.3495   78-A'
  96   1.0000      -0.146352        -3.9824   79-A'
  97   1.0000      -0.135911        -3.6983   80-A'
  98   1.0000      -0.133748        -3.6395   19-A"
  99   1.0000      -0.132736        -3.6119   81-A'
 100   1.0000      -0.131591        -3.5808   20-A"
 101   1.0000      -0.127910        -3.4806   82-A'
 102   1.0000      -0.099707        -2.7132   83-A'
 103   1.0000      -0.071968        -1.9584   84-A'
 104   1.0000      -0.063503        -1.7280   85-A'
 105   1.0000      -0.055014        -1.4970   21-A"
 106   1.0000      -0.052142        -1.4189   86-A'
 107   1.0000      -0.050489        -1.3739   22-A"
 108   1.0000      -0.047670        -1.2972   87-A'
 109   1.0000      -0.028853        -0.7851   23-A"
 110   1.0000      -0.024071        -0.6550   24-A"
 111   1.0000      -0.022226        -0.6048   88-A'
 112   1.0000      -0.002432        -0.0662   89-A'
 113   1.0000       0.006073         0.1653   25-A"
 114   1.0000       0.009998         0.2721   26-A"
 115   1.0000       0.010435         0.2839   90-A'
 116   1.0000       0.028629         0.7790   91-A'
 117   1.0000       0.031721         0.8632   92-A'
 118   1.0000       0.050366         1.3705   27-A"
 119   1.0000       0.051655         1.4056   93-A'
 120   1.0000       0.054593         1.4856   28-A"
 121   1.0000       0.073784         2.0078   29-A"
 122   1.0000       0.104745         2.8502   30-A"
 123   0.0000       0.145762         3.9664   94-A'
 124   0.0000       0.182015         4.9529   95-A'
 125   0.0000       0.182226         4.9586   96-A'
 126   0.0000       0.198653         5.4056   97-A'
 127   0.0000       0.199653         5.4328   98-A'

MULLIKEN ATOMIC CHARGES AND SPIN POPULATIONS
--------------------------------------------
   0 Cu:    0.639811    0.310329
   1 Se:   -0.745698    0.171821
   2 C :    0.244444   -0.004558
   3 Se:   -0.682814    0.166079
   4 C :    0.244977   -0.006071
   5 Se:   -0.743584    0.178698
   6 C :    0.218951   -0.004526
   7 Se:   -0.780249    0.177014
   8 C :    0.203433   -0.004037
   9 C :   -0.079148   -0.001969
  10 C :   -0.099926    0.006288
  11 C :   -0.192486   -0.001041
  12 H :    0.065895    0.000552
  13 C :   -0.066922   -0.000837
  14 H :    0.064505    0.003064
  15 H :    0.018522    0.001763
  16 H :   -0.018730    0.001359
  17 C :   -0.088587    0.002147
  18 C :   -0.096914   -0.000990
  19 C :   -0.178250   -0.001263
  20 H :    0.085961    0.001664
  21 C :   -0.143939   -0.000971
  22 H :    0.089100    0.002810
  23 H :    0.022204    0.001260
  24 H :    0.019446    0.001417
Sum of atomic charges         :   -2.0000000

LOEWDIN ATOMIC CHARGES AND SPIN POPULATIONS
-------------------------------------------
   0 Cu:   -0.613971    0.390384
   1 Se:   -0.192353    0.120505
   2 C :    0.043223    0.010462
   3 Se:   -0.175571    0.114347
   4 C :    0.030024    0.010315
   5 Se:   -0.206474    0.127502
   6 C :    0.034147    0.011345
   7 Se:   -0.211928    0.127406
   8 C :    0.048357    0.011069
   9 C :    0.317427    0.006650
  10 C :    0.383280    0.009195
  11 C :    0.311964    0.000612
  12 H :   -0.478755    0.015292
  13 C :    0.269609    0.000283
  14 H :   -0.437443    0.007009
  15 H :   -0.401277    0.000223
  16 H :   -0.355762    0.000601
  17 C :    0.368528    0.007569
  18 C :    0.367132    0.007472
  19 C :    0.318076    0.000104
  20 H :   -0.466858    0.012069
  21 C :    0.317380    0.000292
  22 H :   -0.452812    0.008802
  23 H :   -0.411883    0.000140
  24 H :   -0.404059    0.000353

  Mayer bond orders larger than 0.100000
B(  0-Cu,  1-Se) :   0.5462 B(  0-Cu,  3-Se) :   0.5331 B(  0-Cu,  5-Se) :   0.5602
B(  0-Cu,  7-Se) :   0.5672 B(  1-Se,  2-C ) :   1.0218 B(  2-C ,  6-C ) :   1.1688
B(  2-C , 17-C ) :   1.2066 B(  3-Se,  4-C ) :   1.0675 B(  4-C ,  8-C ) :   1.1701
B(  4-C , 10-C ) :   1.1996 B(  5-Se,  6-C ) :   1.0243 B(  6-C , 18-C ) :   1.2100
B(  7-Se,  8-C ) :   0.9982 B(  8-C ,  9-C ) :   1.2104 B(  9-C , 13-C ) :   1.4571
B(  9-C , 14-H ) :   0.9773 B( 10-C , 11-C ) :   1.4556 B( 10-C , 12-H ) :   0.9384
B( 11-C , 13-C ) :   1.2117 B( 11-C , 15-H ) :   0.9784 B( 13-C , 16-H ) :   0.9787
B( 17-C , 19-C ) :   1.4514 B( 17-C , 20-H ) :   0.9517 B( 18-C , 21-C ) :   1.4473
B( 18-C , 22-H ) :   0.9655 B( 19-C , 21-C ) :   1.2509 B( 19-C , 23-H ) :   0.9952
B( 21-C , 24-H ) :   0.9924

FINAL SINGLE POINT ENERGY    -11627.046726810986

DIPOLE MOMENT
-------------
                                X             Y             Z
Electronic contribution:      0.76077       0.21621       0.00000
Nuclear contribution   :     -0.74425      -0.00222       0.00000
                        -----------------------------------------
Total Dipole Moment    :      0.01652       0.21399       0.00000
                        -----------------------------------------
Magnitude (a.u.)       :      0.21463
Magnitude (Debye)      :      0.54553

Rotational constants in cm-1:     0.017616     0.004095     0.003323
Rotational constants in MHz :   528.103855   122.773594    99.615078

                             ****ORCA TERMINATED NORMALLY****
TOTAL RUN TIME: 0 days 19 hours 1 minutes 25 seconds 827 msec
