                         Program Version 5.0.4 -  RELEASE  -
|  1> ! nofrozencore ReducedPop printbasis
|  2> ! B3LYP TZVP
|  3>
|  4> %basis
|  5> newgto V "CP(PPP)" end
|  6> end
|  7>
|  8> %pal
|  9> nprocs 6
| 10> end
| 11>
| 12> % sym SymThresh 1e-2 end
| 13> * xyz -2 2
| 14> V 0.5032032373614354 0.0005676606862810667 0.9938422350676772
| 15> S -1.653749028963838 1.0121930296292003 1.593468205416168
| 16> S -0.7041800430687587 -2.1199349087924775 0.8284578783358336
| 17> S 1.0510682299883916 2.207682405180088 -0.030775363821245624
| 18> S 1.9037834762758452 -0.8693967505287397 -0.8812803106788014
| 19> O 1.3624502842957567 -0.11423386701453317 2.3255340042429644
| 20> C 0.24967075220675444 -3.042181346651365 -0.3977442415485126
| 21> C 1.7689858713637352 -2.6161283580601067 -0.3819270485147851
| 22> C -1.4647517907574865 2.671697604687843 1.0181495043027715
| 23> C -0.2166114524525291 3.2036862026580732 0.6988792792791169
| 24> S 0.27490595037901594 -4.8786088011930095 -0.10861772480730782
| 25> S 2.5448913360099654 -3.748268745843463 -1.6086041698094924
| 26> S -0.2835559714006521 4.930912684180465 0.18570678017030787
| 27> S -2.6477449637567814 3.905816525039243 1.6121325711184453
| 28> C 1.6534810705029215 -5.207924040550789 -1.1722941215610798
| 29> C -1.8700964831930929 5.3083626016124965 0.8683671367737463
| 30> C 1.9998875884663632 -6.462966276998939 -1.5905365386754486
| 31> C -2.433952341804014 6.5537729674559335 0.8364170127386299
| 32> S 1.0789208766100724 -7.913031123251175 -1.0938295243721556
| 33> S 3.404461049576202 -6.748001353386752 -2.6396551799589405
| 34> S -4.043062229785881 6.87924645706384 1.5262106809898202
| 35> S -1.6135660931399685 7.9371557357977 0.06476811034518856
| 36> C -2.8438294102803825 8.265710152491982 -1.2782417598327427
| 37> C -4.911223144487521 7.3718659336432095 -0.03430137180697873
| 38> C -4.25560039199531 8.549280211618948 -0.7600033688577023
| 39> H -2.84274392585822 7.410233800169597 -1.9574680514504585
| 40> H -2.4568324679588494 9.132471164326635 -1.8199432112782334
| 41> H -4.888011260159333 8.816533059118644 -1.6181960570946339
| 42> H -4.228480106383512 9.416839304300474 -0.09320717346668234
| 43> H -5.928756171961411 7.631804144212718 0.26801533124255694
| 44> H -4.961242357873479 6.494366863658893 -0.6827369184073414
| 45> C 4.401744873363536 -7.795486471303574 -1.481862102736205
| 46> C 2.424124758545414 -8.778244817525824 -0.16382167674682574
| 47> C 3.6731777839603765 -9.053560723022773 -1.0040854032941071
| 48> H 2.6729356521359957 -8.179764629041786 0.715507687946954
| 49> H 1.9809480990012378 -9.717563382790429 0.1764682361164772
| 50> H 3.400444058788525 -9.667036793968816 -1.8685835596648956
| 51> H 4.372707906143276 -9.641711160512738 -0.393633172480639
| 52> H 5.30504588648723 -8.065825656342119 -2.034456704004082
| 53> H 4.693475204961262 -7.169984926765257 -0.6352526075277816
| 54> *
| 55>
| 56> % eprnmr
| 57> gtensor true
| 58> Nuclei = all H {aiso,adip,aorb,fgrad,rho}
| 59> Nuclei = all V {aiso,adip,aorb,fgrad,rho}
| 60> end
| 61>
| 62>                          ****END OF INPUT****

CARTESIAN COORDINATES (ANGSTROEM)
---------------------------------
  V      0.502324   -0.001548    0.990768
  S     -1.654628    1.010078    1.590394
  S     -0.705059   -2.122050    0.825384
  S      1.050189    2.205567   -0.033849
  S      1.902904   -0.871512   -0.884354
  O      1.361571   -0.116349    2.322460
  C      0.248791   -3.044297   -0.400818
  C      1.768106   -2.618244   -0.385001
  C     -1.465631    2.669582    1.015076
  C     -0.217491    3.201571    0.695805
  S      0.274027   -4.880724   -0.111692
  S      2.544012   -3.750384   -1.611678
  S     -0.284435    4.928797    0.182633
  S     -2.648624    3.903701    1.609059
  C      1.652602   -5.210040   -1.175368
  C     -1.870976    5.306247    0.865293
  C      1.999008   -6.465082   -1.593611
  C     -2.434832    6.551657    0.833343
  S      1.078041   -7.915147   -1.096904
  S      3.403582   -6.750117   -2.642729
  S     -4.043942    6.877131    1.523137
  S     -1.614446    7.935040    0.061694
  C     -2.844709    8.263595   -1.281316
  C     -4.912103    7.369750   -0.037375
  C     -4.256480    8.547165   -0.763077
  H     -2.843623    7.408118   -1.960542
  H     -2.457712    9.130356   -1.823017
  H     -4.888891    8.814418   -1.621270
  H     -4.229360    9.414724   -0.096281
  H     -5.929636    7.629689    0.264941
  H     -4.962122    6.492251   -0.685811
  C      4.400865   -7.797602   -1.484936
  C      2.423245   -8.780360   -0.166896
  C      3.672298   -9.055676   -1.007159
  H      2.672056   -8.181880    0.712434
  H      1.980069   -9.719679    0.173394
  H      3.399565   -9.669152   -1.871658
  H      4.371828   -9.643827   -0.396707
  H      5.304166   -8.067941   -2.037531
  H      4.692596   -7.172100   -0.638327

 Total Charge           Charge          ....   -2
 Multiplicity           Mult            ....    2
 Number of Electrons    NEL             ....  321
 Basis Dimension        Dim             ....  681

ORBITAL ENERGIES
----------------
                 SPIN UP ORBITALS
  NO   OCC          E(Eh)            E(eV)
   0   1.0000    -196.678495     -5351.8939
   1   1.0000     -88.733490     -2414.5610
   2   1.0000     -88.733363     -2414.5576
   3   1.0000     -88.730258     -2414.4731
   4   1.0000     -88.729617     -2414.4556
   5   1.0000     -88.729324     -2414.4476
   6   1.0000     -88.729124     -2414.4422
   7   1.0000     -88.721484     -2414.2343
   8   1.0000     -88.719135     -2414.1704
   9   1.0000     -88.651057     -2412.3179
  10   1.0000     -88.646941     -2412.2059
  11   1.0000     -88.645118     -2412.1563
  12   1.0000     -88.643429     -2412.1103
  13   1.0000     -22.053703      -600.1118
  14   1.0000     -18.895586      -514.1750
  15   1.0000     -18.560347      -505.0527
  16   1.0000     -18.554908      -504.9047
  17   1.0000     -18.554772      -504.9010
  18   1.0000     -10.075931      -274.1800
  19   1.0000     -10.069531      -274.0059
  20   1.0000     -10.063750      -273.8486
  21   1.0000     -10.063538      -273.8428
  22   1.0000     -10.061132      -273.7773
  23   1.0000     -10.060312      -273.7550
  24   1.0000     -10.051453      -273.5139
  25   1.0000     -10.049072      -273.4491
  26   1.0000     -10.048635      -273.4373
  27   1.0000     -10.046708      -273.3848
  28   1.0000     -10.045615      -273.3551
  29   1.0000     -10.041625      -273.2465
  30   1.0000     -10.026955      -272.8473
  31   1.0000     -10.025090      -272.7966
  32   1.0000      -7.786975      -211.8944
  33   1.0000      -7.786817      -211.8901
  34   1.0000      -7.783383      -211.7966
  35   1.0000      -7.783063      -211.7879
  36   1.0000      -7.782897      -211.7834
  37   1.0000      -7.782384      -211.7694
  38   1.0000      -7.774204      -211.5469
  39   1.0000      -7.772399      -211.4977
  40   1.0000      -7.704704      -209.6557
  41   1.0000      -7.700155      -209.5319
  42   1.0000      -7.699378      -209.5107
  43   1.0000      -7.697372      -209.4561
  44   1.0000      -5.751980      -156.5193
  45   1.0000      -5.751806      -156.5146
  46   1.0000      -5.748537      -156.4256
  47   1.0000      -5.748399      -156.4219
  48   1.0000      -5.748262      -156.4182
  49   1.0000      -5.748048      -156.4123
  50   1.0000      -5.747915      -156.4087
  51   1.0000      -5.747270      -156.3912
  52   1.0000      -5.744677      -156.3206
  53   1.0000      -5.744449      -156.3144
  54   1.0000      -5.744035      -156.3031
  55   1.0000      -5.742984      -156.2745
  56   1.0000      -5.741757      -156.2412
  57   1.0000      -5.741606      -156.2370
  58   1.0000      -5.739163      -156.1706
  59   1.0000      -5.738845      -156.1619
  60   1.0000      -5.738164      -156.1434
  61   1.0000      -5.737812      -156.1338
  62   1.0000      -5.737657      -156.1296
  63   1.0000      -5.737061      -156.1134
  64   1.0000      -5.735216      -156.0632
  65   1.0000      -5.733143      -156.0067
  66   1.0000      -5.729895      -155.9184
  67   1.0000      -5.728253      -155.8737
  68   1.0000      -5.669777      -154.2825
  69   1.0000      -5.665386      -154.1630
  70   1.0000      -5.664657      -154.1432
  71   1.0000      -5.663170      -154.1027
  72   1.0000      -5.662702      -154.0900
  73   1.0000      -5.662510      -154.0847
  74   1.0000      -5.658976      -153.9886
  75   1.0000      -5.657994      -153.9618
  76   1.0000      -5.657642      -153.9523
  77   1.0000      -5.656807      -153.9295
  78   1.0000      -5.656109      -153.9105
  79   1.0000      -5.654651      -153.8709
  80   1.0000      -2.447543       -66.6010
  81   1.0000      -1.489236       -40.5242
  82   1.0000      -1.477118       -40.1944
  83   1.0000      -1.476194       -40.1693
  84   1.0000      -0.709160       -19.2972
  85   1.0000      -0.703127       -19.1330
  86   1.0000      -0.684426       -18.6242
  87   1.0000      -0.673976       -18.3398
  88   1.0000      -0.654891       -17.8205
  89   1.0000      -0.630270       -17.1505
  90   1.0000      -0.619880       -16.8678
  91   1.0000      -0.617480       -16.8025
  92   1.0000      -0.614015       -16.7082
  93   1.0000      -0.573699       -15.6112
  94   1.0000      -0.571898       -15.5621
  95   1.0000      -0.561671       -15.2839
  96   1.0000      -0.559564       -15.2265
  97   1.0000      -0.496801       -13.5187
  98   1.0000      -0.495863       -13.4931
  99   1.0000      -0.492757       -13.4086
 100   1.0000      -0.489030       -13.3072
 101   1.0000      -0.480106       -13.0643
 102   1.0000      -0.474188       -12.9033
 103   1.0000      -0.446067       -12.1381
 104   1.0000      -0.440186       -11.9781
 105   1.0000      -0.408740       -11.1224
 106   1.0000      -0.383722       -10.4416
 107   1.0000      -0.354435        -9.6447
 108   1.0000      -0.346898        -9.4396
 109   1.0000      -0.326178        -8.8758
 110   1.0000      -0.320546        -8.7225
 111   1.0000      -0.318964        -8.6794
 112   1.0000      -0.312727        -8.5097
 113   1.0000      -0.302923        -8.2430
 114   1.0000      -0.292670        -7.9639
 115   1.0000      -0.292655        -7.9636
 116   1.0000      -0.289798        -7.8858
 117   1.0000      -0.258306        -7.0289
 118   1.0000      -0.257250        -7.0001
 119   1.0000      -0.255960        -6.9650
 120   1.0000      -0.251942        -6.8557
 121   1.0000      -0.234614        -6.3842
 122   1.0000      -0.231445        -6.2979
 123   1.0000      -0.231177        -6.2906
 124   1.0000      -0.228837        -6.2270
 125   1.0000      -0.218136        -5.9358
 126   1.0000      -0.210523        -5.7286
 127   1.0000      -0.209802        -5.7090
 128   1.0000      -0.195603        -5.3226
 129   1.0000      -0.189093        -5.1455
 130   1.0000      -0.188195        -5.1211
 131   1.0000      -0.181808        -4.9473
 132   1.0000      -0.180951        -4.9239
 133   1.0000      -0.171873        -4.6769
 134   1.0000      -0.152822        -4.1585
 135   1.0000      -0.152134        -4.1398
 136   1.0000      -0.147924        -4.0252
 137   1.0000      -0.135741        -3.6937
 138   1.0000      -0.131570        -3.5802
 139   1.0000      -0.129060        -3.5119
 140   1.0000      -0.124528        -3.3886
 141   1.0000      -0.118767        -3.2318
 142   1.0000      -0.115110        -3.1323
 143   1.0000      -0.111066        -3.0223
 144   1.0000      -0.099725        -2.7137
 145   1.0000      -0.097652        -2.6572
 146   1.0000      -0.093484        -2.5438
 147   1.0000      -0.087386        -2.3779
 148   1.0000      -0.068015        -1.8508
 149   1.0000      -0.067026        -1.8239
 150   1.0000      -0.063221        -1.7203
 151   1.0000      -0.055336        -1.5058
 152   1.0000      -0.041908        -1.1404
 153   1.0000      -0.041393        -1.1264
 154   1.0000      -0.038050        -1.0354
 155   1.0000      -0.032635        -0.8881
 156   1.0000      -0.027236        -0.7411
 157   1.0000      -0.020032        -0.5451
 158   1.0000      -0.012242        -0.3331
 159   1.0000       0.016605         0.4518
 160   1.0000       0.035217         0.9583
 161   0.0000       0.111911         3.0452
 162   0.0000       0.136648         3.7184
 163   0.0000       0.139231         3.7887
 164   0.0000       0.158553         4.3144
 165   0.0000       0.166815         4.5393

                 SPIN DOWN ORBITALS
  NO   OCC          E(Eh)            E(eV)
   0   1.0000    -196.678640     -5351.8979
   1   1.0000     -88.733491     -2414.5610
   2   1.0000     -88.733364     -2414.5576
   3   1.0000     -88.730267     -2414.4733
   4   1.0000     -88.729617     -2414.4556
   5   1.0000     -88.729324     -2414.4477
   6   1.0000     -88.729133     -2414.4425
   7   1.0000     -88.721520     -2414.2353
   8   1.0000     -88.719121     -2414.1700
   9   1.0000     -88.651265     -2412.3235
  10   1.0000     -88.647003     -2412.2076
  11   1.0000     -88.645244     -2412.1597
  12   1.0000     -88.643583     -2412.1145
  13   1.0000     -22.038818      -599.7067
  14   1.0000     -18.899305      -514.2762
  15   1.0000     -18.555127      -504.9107
  16   1.0000     -18.538934      -504.4700
  17   1.0000     -18.538661      -504.4626
  18   1.0000     -10.075928      -274.1799
  19   1.0000     -10.069512      -274.0054
  20   1.0000     -10.063750      -273.8486
  21   1.0000     -10.063538      -273.8428
  22   1.0000     -10.061130      -273.7773
  23   1.0000     -10.060313      -273.7550
  24   1.0000     -10.051453      -273.5139
  25   1.0000     -10.049068      -273.4490
  26   1.0000     -10.048635      -273.4372
  27   1.0000     -10.046774      -273.3866
  28   1.0000     -10.045602      -273.3547
  29   1.0000     -10.041057      -273.2310
  30   1.0000     -10.026711      -272.8407
  31   1.0000     -10.024938      -272.7924
  32   1.0000      -7.786975      -211.8944
  33   1.0000      -7.786818      -211.8901
  34   1.0000      -7.783393      -211.7969
  35   1.0000      -7.783064      -211.7879
  36   1.0000      -7.782897      -211.7834
  37   1.0000      -7.782393      -211.7697
  38   1.0000      -7.774240      -211.5478
  39   1.0000      -7.772387      -211.4974
  40   1.0000      -7.704899      -209.6610
  41   1.0000      -7.700212      -209.5334
  42   1.0000      -7.699497      -209.5140
  43   1.0000      -7.697516      -209.4601
  44   1.0000      -5.751981      -156.5194
  45   1.0000      -5.751807      -156.5146
  46   1.0000      -5.748537      -156.4256
  47   1.0000      -5.748400      -156.4219
  48   1.0000      -5.748275      -156.4185
  49   1.0000      -5.748049      -156.4124
  50   1.0000      -5.747916      -156.4087
  51   1.0000      -5.747281      -156.3915
  52   1.0000      -5.744679      -156.3207
  53   1.0000      -5.744450      -156.3144
  54   1.0000      -5.744051      -156.3036
  55   1.0000      -5.742998      -156.2749
  56   1.0000      -5.741758      -156.2412
  57   1.0000      -5.741607      -156.2371
  58   1.0000      -5.739167      -156.1707
  59   1.0000      -5.738892      -156.1632
  60   1.0000      -5.738172      -156.1436
  61   1.0000      -5.737812      -156.1338
  62   1.0000      -5.737658      -156.1296
  63   1.0000      -5.737050      -156.1131
  64   1.0000      -5.735274      -156.0647
  65   1.0000      -5.733125      -156.0063
  66   1.0000      -5.729937      -155.9195
  67   1.0000      -5.728222      -155.8729
  68   1.0000      -5.669994      -154.2884
  69   1.0000      -5.665439      -154.1644
  70   1.0000      -5.664794      -154.1469
  71   1.0000      -5.663566      -154.1135
  72   1.0000      -5.662844      -154.0938
  73   1.0000      -5.662797      -154.0925
  74   1.0000      -5.659332      -153.9983
  75   1.0000      -5.658326      -153.9709
  76   1.0000      -5.657507      -153.9486
  77   1.0000      -5.656885      -153.9317
  78   1.0000      -5.656508      -153.9214
  79   1.0000      -5.654780      -153.8744
  80   1.0000      -2.402849       -65.3849
  81   1.0000      -1.470145       -40.0047
  82   1.0000      -1.414939       -38.5025
  83   1.0000      -1.414683       -38.4955
  84   1.0000      -0.709148       -19.2969
  85   1.0000      -0.703109       -19.1326
  86   1.0000      -0.684387       -18.6231
  87   1.0000      -0.673912       -18.3381
  88   1.0000      -0.662857       -18.0372
  89   1.0000      -0.630213       -17.1490
  90   1.0000      -0.619777       -16.8650
  91   1.0000      -0.617482       -16.8025
  92   1.0000      -0.614013       -16.7081
  93   1.0000      -0.573684       -15.6107
  94   1.0000      -0.571838       -15.5605
  95   1.0000      -0.561618       -15.2824
  96   1.0000      -0.559426       -15.2227
  97   1.0000      -0.496840       -13.5197
  98   1.0000      -0.495916       -13.4946
  99   1.0000      -0.492827       -13.4105
 100   1.0000      -0.489035       -13.3073
 101   1.0000      -0.480314       -13.0700
 102   1.0000      -0.474367       -12.9082
 103   1.0000      -0.446102       -12.1391
 104   1.0000      -0.440203       -11.9785
 105   1.0000      -0.408784       -11.1236
 106   1.0000      -0.383717       -10.4415
 107   1.0000      -0.354432        -9.6446
 108   1.0000      -0.346890        -9.4394
 109   1.0000      -0.326171        -8.8756
 110   1.0000      -0.320539        -8.7223
 111   1.0000      -0.318874        -8.6770
 112   1.0000      -0.312671        -8.5082
 113   1.0000      -0.302890        -8.2420
 114   1.0000      -0.292665        -7.9638
 115   1.0000      -0.292615        -7.9625
 116   1.0000      -0.289787        -7.8855
 117   1.0000      -0.258228        -7.0267
 118   1.0000      -0.257152        -6.9975
 119   1.0000      -0.255901        -6.9634
 120   1.0000      -0.251869        -6.8537
 121   1.0000      -0.234588        -6.3835
 122   1.0000      -0.231407        -6.2969
 123   1.0000      -0.231159        -6.2901
 124   1.0000      -0.228796        -6.2259
 125   1.0000      -0.217977        -5.9314
 126   1.0000      -0.210236        -5.7208
 127   1.0000      -0.209705        -5.7064
 128   1.0000      -0.194670        -5.2972
 129   1.0000      -0.188857        -5.1390
 130   1.0000      -0.187914        -5.1134
 131   1.0000      -0.181584        -4.9411
 132   1.0000      -0.179880        -4.8948
 133   1.0000      -0.171598        -4.6694
 134   1.0000      -0.152577        -4.1518
 135   1.0000      -0.151785        -4.1303
 136   1.0000      -0.147552        -4.0151
 137   1.0000      -0.134961        -3.6725
 138   1.0000      -0.130890        -3.5617
 139   1.0000      -0.128836        -3.5058
 140   1.0000      -0.124862        -3.3977
 141   1.0000      -0.119869        -3.2618
 142   1.0000      -0.115579        -3.1451
 143   1.0000      -0.112616        -3.0644
 144   1.0000      -0.099800        -2.7157
 145   1.0000      -0.097415        -2.6508
 146   1.0000      -0.093105        -2.5335
 147   1.0000      -0.087483        -2.3805
 148   1.0000      -0.067785        -1.8445
 149   1.0000      -0.065311        -1.7772
 150   1.0000      -0.061617        -1.6767
 151   1.0000      -0.052590        -1.4310
 152   1.0000      -0.040946        -1.1142
 153   1.0000      -0.040866        -1.1120
 154   1.0000      -0.036571        -0.9951
 155   1.0000      -0.030149        -0.8204
 156   1.0000      -0.025979        -0.7069
 157   1.0000      -0.017700        -0.4816
 158   1.0000       0.016760         0.4561
 159   1.0000       0.034486         0.9384
 160   0.0000       0.112256         3.0546
 161   0.0000       0.136640         3.7182
 162   0.0000       0.139275         3.7899
 163   0.0000       0.152811         4.1582
 164   0.0000       0.160760         4.3745

MULLIKEN ATOMIC CHARGES AND SPIN POPULATIONS
--------------------------------------------
   0 V :    0.472173    1.204228
   1 S :   -0.272608   -0.019810
   2 S :   -0.238642   -0.037902
   3 S :   -0.290903   -0.028062
   4 S :   -0.280517   -0.014660
   5 O :   -0.464991   -0.145097
   6 C :   -0.091366   -0.007098
   7 C :   -0.059709    0.032717
   8 C :   -0.100946    0.007876
   9 C :   -0.067853    0.007896
  10 S :    0.054790   -0.004727
  11 S :    0.064786    0.002443
  12 S :    0.091521   -0.000720
  13 S :    0.088041   -0.000617
  14 C :   -0.175917    0.002791
  15 C :   -0.195277    0.001199
  16 C :   -0.224727    0.000289
  17 C :   -0.199494   -0.000455
  18 S :    0.008788   -0.000093
  19 S :    0.011612   -0.000170
  20 S :    0.008189   -0.000061
  21 S :    0.009356   -0.000060
  22 C :   -0.298444   -0.000016
  23 C :   -0.298881   -0.000002
  24 C :   -0.160725   -0.000001
  25 H :    0.142605    0.000003
  26 H :    0.114132   -0.000005
  27 H :    0.083556   -0.000002
  28 H :    0.092225   -0.000002
  29 H :    0.113241   -0.000004
  30 H :    0.142959   -0.000003
  31 C :   -0.298172    0.000152
  32 C :   -0.296775    0.000140
  33 C :   -0.162350   -0.000224
  34 H :    0.140516    0.000012
  35 H :    0.113152    0.000030
  36 H :    0.091369    0.000026
  37 H :    0.080895    0.000006
  38 H :    0.112118   -0.000005
  39 H :    0.142276   -0.000012
Sum of atomic charges         :   -2.0000000

LOEWDIN ATOMIC CHARGES AND SPIN POPULATIONS
-------------------------------------------
   0 V :   -0.172964    1.157483
   1 S :    0.091676   -0.012109
   2 S :    0.111689   -0.026749
   3 S :    0.076447   -0.018815
   4 S :    0.072016   -0.005213
   5 O :   -0.315074   -0.130127
   6 C :   -0.509666   -0.006608
   7 C :   -0.522247    0.029741
   8 C :   -0.542461    0.009331
   9 C :   -0.546424    0.005888
  10 S :    0.423212   -0.004630
  11 S :    0.435984    0.002671
  12 S :    0.464452   -0.000889
  13 S :    0.461780   -0.000870
  14 C :   -0.470987    0.000668
  15 C :   -0.465953   -0.000011
  16 C :   -0.616716    0.000461
  17 C :   -0.620655    0.000081
  18 S :    0.356831   -0.000088
  19 S :    0.361630   -0.000124
  20 S :    0.359041   -0.000075
  21 S :    0.358847   -0.000067
  22 C :   -0.283426   -0.000009
  23 C :   -0.283084   -0.000010
  24 C :   -0.176136   -0.000002
  25 H :    0.062300   -0.000000
  26 H :    0.053823   -0.000003
  27 H :    0.057984   -0.000002
  28 H :    0.060226   -0.000001
  29 H :    0.053519   -0.000002
  30 H :    0.062460   -0.000002
  31 C :   -0.283682   -0.000034
  32 C :   -0.284735    0.000081
  33 C :   -0.176642    0.000012
  34 H :    0.061419    0.000009
  35 H :    0.053381    0.000012
  36 H :    0.059851    0.000004
  37 H :    0.056981   -0.000005
  38 H :    0.053126    0.000004
  39 H :    0.062176   -0.000003

  Mayer bond orders larger than 0.100000
B(  0-V ,  1-S ) :   0.7920 B(  0-V ,  2-S ) :   0.7753 B(  0-V ,  3-S ) :   0.7576
B(  0-V ,  4-S ) :   0.7696 B(  0-V ,  5-O ) :   2.1444 B(  1-S ,  8-C ) :   1.1110
B(  2-S ,  6-C ) :   1.1265 B(  3-S ,  9-C ) :   1.0774 B(  4-S ,  7-C ) :   1.0400
B(  6-C ,  7-C ) :   1.4301 B(  6-C , 10-S ) :   0.8870 B(  7-C , 11-S ) :   0.8934
B(  8-C ,  9-C ) :   1.6237 B(  8-C , 13-S ) :   0.9185 B(  9-C , 12-S ) :   0.9244
B( 10-S , 14-C ) :   1.2158 B( 11-S , 14-C ) :   1.2314 B( 12-S , 15-C ) :   1.2420
B( 13-S , 15-C ) :   1.2354 B( 14-C , 16-C ) :   1.5171 B( 15-C , 17-C ) :   1.4729
B( 16-C , 18-S ) :   1.0833 B( 16-C , 19-S ) :   1.0854 B( 17-C , 20-S ) :   1.0846
B( 17-C , 21-S ) :   1.0898 B( 18-S , 32-C ) :   0.9968 B( 19-S , 31-C ) :   0.9903
B( 20-S , 23-C ) :   0.9903 B( 21-S , 22-C ) :   0.9914 B( 22-C , 24-C ) :   0.9135
B( 22-C , 25-H ) :   0.9659 B( 22-C , 26-H ) :   0.9659 B( 23-C , 24-C ) :   0.9136
B( 23-C , 29-H ) :   0.9654 B( 23-C , 30-H ) :   0.9658 B( 24-C , 27-H ) :   0.9626
B( 24-C , 28-H ) :   0.9718 B( 31-C , 33-C ) :   0.9139 B( 31-C , 38-H ) :   0.9651
B( 31-C , 39-H ) :   0.9667 B( 32-C , 33-C ) :   0.9127 B( 32-C , 34-H ) :   0.9660
B( 32-C , 35-H ) :   0.9663 B( 33-C , 36-H ) :   0.9713 B( 33-C , 37-H ) :   0.9624

FINAL SINGLE POINT ENERGY     -6337.604504988305

DIPOLE MOMENT
-------------
                                X             Y             Z
Electronic contribution:      4.27560       3.34984      12.64093
Nuclear contribution   :     -4.99449      -3.35570     -13.89282
                        -----------------------------------------
Total Dipole Moment    :     -0.71889      -0.00586      -1.25189
                        -----------------------------------------
Magnitude (a.u.)       :      1.44363
Magnitude (Debye)      :      3.66942

Rotational constants in cm-1:     0.010727     0.000804     0.000783
Rotational constants in MHz :   321.591518    24.110194    23.486396

                             ****ORCA TERMINATED NORMALLY****
TOTAL RUN TIME: 0 days 1 hours 6 minutes 37 seconds 746 msec
