                         Program Version 5.0.4 -  RELEASE  -
|  1> ! nofrozencore ReducedPop printbasis
|  2> ! B3LYP TZVP
|  3>
|  4> %basis
|  5> newgto V "CP(PPP)" end
|  6> end
|  7>
|  8> %pal
|  9> nprocs 6
| 10> end
| 11>
| 12> % sym SymThresh 1e-2 end
| 13> * xyz -2 2
| 14> V 0.5551022157057233 -0.9248206093886157 -0.27424791648008284
| 15> S -0.05417781227911075 -0.050009994443353106 -2.5010451665050804
| 16> S 2.1602925096882655 0.959776637160742 -0.28699540175444105
| 17> S -1.8131971337052615 -1.6524275013647254 -0.1091181357820741
| 18> S 0.4336761192143157 -0.5548324025364344 2.1627980298800114
| 19> O 1.4402310775067422 -2.2196145518169046 -0.5205390960152851
| 20> C 2.6825179745220398 0.9780268154749665 1.6616383491458269
| 21> C 1.69699379860769 0.22093077428410843 2.3319022100987143
| 22> C -2.022935057644196 -0.8366158502176408 -2.760007056369365
| 23> C -2.209502317290895 -1.3944281807298782 -1.4001212441908473
| 24> S 4.041479258810692 1.8779709286095776 1.9735970288694369
| 25> S 2.485193771522639 0.5562498700107854 4.0961981609663445
| 26> S -4.0570185777580265 -1.9067782625504386 -2.109233834758814
| 27> S -2.5577783216238044 -0.528209975918363 -4.237224621532784
| 28> C 3.7921880456076007 1.5161595487352295 3.813759551200862
| 29> C -4.189462817579808 -1.355688468636024 -3.612654258221725
| 30> C 4.7587976582032185 2.1076070599544448 4.609580515616443
| 31> C -5.14804721806548 -1.304629783707785 -4.627030525946835
| 32> S 6.1211302234283576 3.04252705118153 4.261040468608875
| 33> S 4.464439870922189 1.7270862214379068 6.424002188016409
| 34> S -5.224408726248239 -0.7106410629301119 -6.1747138296129815
| 35> S -6.7451611428598355 -2.1105780306653528 -3.9648230907907553
| 36> C -7.813588797563319 -0.6010534760364308 -4.066705712288085
| 37> C -6.533933532658286 0.5805745254719794 -5.960699160311616
| 38> C -7.862211650415299 0.02836569066663934 -5.473839831267987
| 39> H -7.476838284234911 0.1259161230143612 -3.322835480197174
| 40> H -8.822324523846174 -0.9187228987616203 -3.789113824919151
| 41> H -8.580977444136009 0.8598935913281729 -5.463573158999869
| 42> H -8.238986645278795 -0.7188705857543806 -6.179440994671267
| 43> H -6.621969976379054 1.0477963163342938 -6.945257409897394
| 44> H -6.142754286521634 1.31841582451684 -5.257560378552457
| 45> C 6.03101509345447 0.7896406626278163 6.73057201193287
| 46> C 7.442228351204244 1.910998641104303 4.895477417025458
| 47> C 7.304357392251562 1.5774294610121677 6.373219294289256
| 48> H 7.409148753800073 1.0029091651945383 4.290104817337872
| 49> H 8.379361887926287 2.4339344306927395 4.6871395916735645
| 50> H 7.328253329393921 2.4980138312610123 6.96500937205892
| 51> H 8.179312038488591 0.979177664491329 6.663983236702724
| 52> H 6.041558496764045 0.559925307679572 7.799335458705193
| 53> H 5.98892621686567 -0.15635273382784556 6.184647141308922
| 54> *
| 55>
| 56> % eprnmr
| 57> gtensor true
| 58> Nuclei = all H {aiso,adip,aorb,fgrad,rho}
| 59> Nuclei = all V {aiso,adip,aorb,fgrad,rho}
| 60> end
| 61>
| 62>                          ****END OF INPUT****

CARTESIAN COORDINATES (ANGSTROEM)
---------------------------------
  V      0.555169   -0.921624   -0.272133
  S     -0.054111   -0.046813   -2.498930
  S      2.160359    0.962974   -0.284880
  S     -1.813131   -1.649231   -0.107003
  S      0.433743   -0.551635    2.164913
  O      1.440298   -2.216418   -0.518424
  C      2.682585    0.981224    1.663753
  C      1.697060    0.224128    2.334017
  C     -2.022868   -0.833419   -2.757892
  C     -2.209436   -1.391231   -1.398006
  S      4.041546    1.881168    1.975712
  S      2.485260    0.559447    4.098313
  S     -4.056952   -1.903581   -2.107119
  S     -2.557712   -0.525013   -4.235110
  C      3.792255    1.519357    3.815875
  C     -4.189396   -1.352491   -3.610539
  C      4.758864    2.110804    4.611696
  C     -5.147981   -1.301433   -4.624915
  S      6.121197    3.045724    4.263156
  S      4.464506    1.730283    6.426117
  S     -5.224342   -0.707444   -6.172599
  S     -6.745095   -2.107381   -3.962708
  C     -7.813522   -0.597856   -4.064591
  C     -6.533867    0.583772   -5.958584
  C     -7.862145    0.031563   -5.471725
  H     -7.476772    0.129113   -3.320720
  H     -8.822258   -0.915526   -3.786999
  H     -8.580911    0.863091   -5.461458
  H     -8.238920   -0.715674   -6.177326
  H     -6.621903    1.050993   -6.943142
  H     -6.142688    1.321613   -5.255445
  C      6.031082    0.792838    6.732687
  C      7.442295    1.914196    4.897593
  C      7.304424    1.580626    6.375334
  H      7.409215    1.006106    4.292220
  H      8.379428    2.437131    4.689255
  H      7.328320    2.501211    6.967124
  H      8.179379    0.982375    6.666098
  H      6.041625    0.563122    7.801451
  H      5.988993   -0.153156    6.186762

 Total Charge           Charge          ....   -2
 Multiplicity           Mult            ....    2
 Number of Electrons    NEL             ....  321
 Basis Dimension        Dim             ....  681

ORBITAL ENERGIES
----------------
                 SPIN UP ORBITALS
  NO   OCC          E(Eh)            E(eV)
   0   1.0000    -196.688475     -5352.1655
   1   1.0000     -88.736345     -2414.6387
   2   1.0000     -88.735236     -2414.6085
   3   1.0000     -88.730274     -2414.4735
   4   1.0000     -88.727793     -2414.4060
   5   1.0000     -88.722195     -2414.2537
   6   1.0000     -88.718149     -2414.1436
   7   1.0000     -88.711448     -2413.9612
   8   1.0000     -88.703067     -2413.7332
   9   1.0000     -88.670732     -2412.8533
  10   1.0000     -88.663705     -2412.6621
  11   1.0000     -88.638994     -2411.9896
  12   1.0000     -88.631090     -2411.7746
  13   1.0000     -22.062411      -600.3487
  14   1.0000     -18.904256      -514.4110
  15   1.0000     -18.568804      -505.2828
  16   1.0000     -18.563836      -505.1477
  17   1.0000     -18.563644      -505.1424
  18   1.0000     -10.074760      -274.1482
  19   1.0000     -10.066758      -273.9304
  20   1.0000     -10.061252      -273.7806
  21   1.0000     -10.059292      -273.7272
  22   1.0000     -10.053797      -273.5777
  23   1.0000     -10.051731      -273.5215
  24   1.0000     -10.048836      -273.4427
  25   1.0000     -10.046204      -273.3711
  26   1.0000     -10.044104      -273.3140
  27   1.0000     -10.042199      -273.2621
  28   1.0000     -10.039054      -273.1765
  29   1.0000     -10.037989      -273.1476
  30   1.0000     -10.026253      -272.8282
  31   1.0000     -10.024110      -272.7699
  32   1.0000      -7.790855      -211.9999
  33   1.0000      -7.788412      -211.9335
  34   1.0000      -7.785206      -211.8462
  35   1.0000      -7.781946      -211.7575
  36   1.0000      -7.775061      -211.5702
  37   1.0000      -7.774094      -211.5438
  38   1.0000      -7.764209      -211.2749
  39   1.0000      -7.760836      -211.1831
  40   1.0000      -7.741738      -210.6634
  41   1.0000      -7.727048      -210.2637
  42   1.0000      -7.689914      -209.2532
  43   1.0000      -7.681889      -209.0348
  44   1.0000      -5.755774      -156.6226
  45   1.0000      -5.753303      -156.5553
  46   1.0000      -5.752115      -156.5230
  47   1.0000      -5.750089      -156.4679
  48   1.0000      -5.749399      -156.4491
  49   1.0000      -5.746344      -156.3660
  50   1.0000      -5.746319      -156.3653
  51   1.0000      -5.745836      -156.3521
  52   1.0000      -5.743848      -156.2980
  53   1.0000      -5.743244      -156.2816
  54   1.0000      -5.740307      -156.2017
  55   1.0000      -5.740000      -156.1933
  56   1.0000      -5.737999      -156.1389
  57   1.0000      -5.737321      -156.1204
  58   1.0000      -5.736810      -156.1065
  59   1.0000      -5.734179      -156.0350
  60   1.0000      -5.730750      -155.9416
  61   1.0000      -5.729840      -155.9169
  62   1.0000      -5.729113      -155.8971
  63   1.0000      -5.725972      -155.8116
  64   1.0000      -5.724278      -155.7655
  65   1.0000      -5.720577      -155.6648
  66   1.0000      -5.719030      -155.6227
  67   1.0000      -5.717913      -155.5923
  68   1.0000      -5.705149      -155.2450
  69   1.0000      -5.699347      -155.0871
  70   1.0000      -5.698273      -155.0579
  71   1.0000      -5.690908      -154.8575
  72   1.0000      -5.685230      -154.7030
  73   1.0000      -5.684394      -154.6802
  74   1.0000      -5.655767      -153.9012
  75   1.0000      -5.649055      -153.7186
  76   1.0000      -5.647464      -153.6753
  77   1.0000      -5.646810      -153.6575
  78   1.0000      -5.641278      -153.5070
  79   1.0000      -5.638843      -153.4407
  80   1.0000      -2.457255       -66.8653
  81   1.0000      -1.499058       -40.7914
  82   1.0000      -1.487345       -40.4727
  83   1.0000      -1.486101       -40.4389
  84   1.0000      -0.710390       -19.3307
  85   1.0000      -0.708860       -19.2891
  86   1.0000      -0.690108       -18.7788
  87   1.0000      -0.688678       -18.7399
  88   1.0000      -0.666487       -18.1360
  89   1.0000      -0.662823       -18.0363
  90   1.0000      -0.643154       -17.5011
  91   1.0000      -0.620442       -16.8831
  92   1.0000      -0.619019       -16.8444
  93   1.0000      -0.608189       -16.5497
  94   1.0000      -0.603748       -16.4288
  95   1.0000      -0.579080       -15.7576
  96   1.0000      -0.577893       -15.7253
  97   1.0000      -0.512947       -13.9580
  98   1.0000      -0.503974       -13.7138
  99   1.0000      -0.489364       -13.3163
 100   1.0000      -0.482248       -13.1226
 101   1.0000      -0.470234       -12.7957
 102   1.0000      -0.456931       -12.4337
 103   1.0000      -0.437278       -11.8989
 104   1.0000      -0.426185       -11.5971
 105   1.0000      -0.411146       -11.1879
 106   1.0000      -0.397868       -10.8265
 107   1.0000      -0.351986        -9.5780
 108   1.0000      -0.343981        -9.3602
 109   1.0000      -0.324296        -8.8245
 110   1.0000      -0.317870        -8.6497
 111   1.0000      -0.315835        -8.5943
 112   1.0000      -0.308319        -8.3898
 113   1.0000      -0.300568        -8.1789
 114   1.0000      -0.292168        -7.9503
 115   1.0000      -0.289974        -7.8906
 116   1.0000      -0.282818        -7.6959
 117   1.0000      -0.272398        -7.4123
 118   1.0000      -0.266409        -7.2494
 119   1.0000      -0.250384        -6.8133
 120   1.0000      -0.242646        -6.6027
 121   1.0000      -0.235687        -6.4134
 122   1.0000      -0.233870        -6.3639
 123   1.0000      -0.232239        -6.3195
 124   1.0000      -0.230374        -6.2688
 125   1.0000      -0.226523        -6.1640
 126   1.0000      -0.226279        -6.1574
 127   1.0000      -0.218402        -5.9430
 128   1.0000      -0.215840        -5.8733
 129   1.0000      -0.212974        -5.7953
 130   1.0000      -0.212279        -5.7764
 131   1.0000      -0.191867        -5.2210
 132   1.0000      -0.190803        -5.1920
 133   1.0000      -0.168716        -4.5910
 134   1.0000      -0.163630        -4.4526
 135   1.0000      -0.158203        -4.3049
 136   1.0000      -0.150794        -4.1033
 137   1.0000      -0.142284        -3.8717
 138   1.0000      -0.138918        -3.7801
 139   1.0000      -0.137395        -3.7387
 140   1.0000      -0.125040        -3.4025
 141   1.0000      -0.120605        -3.2818
 142   1.0000      -0.119941        -3.2638
 143   1.0000      -0.110789        -3.0147
 144   1.0000      -0.109858        -2.9894
 145   1.0000      -0.097390        -2.6501
 146   1.0000      -0.091360        -2.4860
 147   1.0000      -0.080405        -2.1879
 148   1.0000      -0.076853        -2.0913
 149   1.0000      -0.066318        -1.8046
 150   1.0000      -0.058084        -1.5805
 151   1.0000      -0.050326        -1.3694
 152   1.0000      -0.045983        -1.2513
 153   1.0000      -0.041389        -1.1262
 154   1.0000      -0.035777        -0.9735
 155   1.0000      -0.033107        -0.9009
 156   1.0000      -0.021389        -0.5820
 157   1.0000      -0.017541        -0.4773
 158   1.0000      -0.001867        -0.0508
 159   1.0000       0.025249         0.6871
 160   1.0000       0.044965         1.2236
 161   0.0000       0.130939         3.5630
 162   0.0000       0.136502         3.7144
 163   0.0000       0.141439         3.8487
 164   0.0000       0.143780         3.9124
 165   0.0000       0.162499         4.4218

                 SPIN DOWN ORBITALS
  NO   OCC          E(Eh)            E(eV)
   0   1.0000    -196.688618     -5352.1694
   1   1.0000     -88.736346     -2414.6387
   2   1.0000     -88.735238     -2414.6086
   3   1.0000     -88.730274     -2414.4735
   4   1.0000     -88.727803     -2414.4063
   5   1.0000     -88.722195     -2414.2537
   6   1.0000     -88.718176     -2414.1443
   7   1.0000     -88.711444     -2413.9611
   8   1.0000     -88.703109     -2413.7343
   9   1.0000     -88.670785     -2412.8547
  10   1.0000     -88.663790     -2412.6644
  11   1.0000     -88.639213     -2411.9956
  12   1.0000     -88.631348     -2411.7816
  13   1.0000     -22.047498      -599.9429
  14   1.0000     -18.908045      -514.5141
  15   1.0000     -18.563472      -505.1378
  16   1.0000     -18.547785      -504.7109
  17   1.0000     -18.547655      -504.7073
  18   1.0000     -10.074735      -274.1475
  19   1.0000     -10.066678      -273.9282
  20   1.0000     -10.061251      -273.7806
  21   1.0000     -10.059290      -273.7272
  22   1.0000     -10.053797      -273.5777
  23   1.0000     -10.051731      -273.5215
  24   1.0000     -10.048836      -273.4427
  25   1.0000     -10.046190      -273.3707
  26   1.0000     -10.044020      -273.3117
  27   1.0000     -10.042199      -273.2621
  28   1.0000     -10.038964      -273.1741
  29   1.0000     -10.037990      -273.1476
  30   1.0000     -10.025755      -272.8147
  31   1.0000     -10.023671      -272.7580
  32   1.0000      -7.790855      -212.0000
  33   1.0000      -7.788414      -211.9335
  34   1.0000      -7.785207      -211.8462
  35   1.0000      -7.781955      -211.7578
  36   1.0000      -7.775062      -211.5702
  37   1.0000      -7.774122      -211.5446
  38   1.0000      -7.764205      -211.2748
  39   1.0000      -7.760880      -211.1843
  40   1.0000      -7.741788      -210.6648
  41   1.0000      -7.727126      -210.2658
  42   1.0000      -7.690121      -209.2588
  43   1.0000      -7.682132      -209.0415
  44   1.0000      -5.755775      -156.6226
  45   1.0000      -5.753309      -156.5555
  46   1.0000      -5.752117      -156.5231
  47   1.0000      -5.750090      -156.4679
  48   1.0000      -5.749407      -156.4493
  49   1.0000      -5.746367      -156.3666
  50   1.0000      -5.746320      -156.3653
  51   1.0000      -5.745837      -156.3522
  52   1.0000      -5.743840      -156.2978
  53   1.0000      -5.743260      -156.2820
  54   1.0000      -5.740308      -156.2017
  55   1.0000      -5.740001      -156.1934
  56   1.0000      -5.738032      -156.1398
  57   1.0000      -5.737325      -156.1205
  58   1.0000      -5.736810      -156.1065
  59   1.0000      -5.734232      -156.0364
  60   1.0000      -5.730773      -155.9423
  61   1.0000      -5.729842      -155.9169
  62   1.0000      -5.729106      -155.8969
  63   1.0000      -5.725964      -155.8114
  64   1.0000      -5.724322      -155.7667
  65   1.0000      -5.720675      -155.6675
  66   1.0000      -5.719029      -155.6227
  67   1.0000      -5.717942      -155.5931
  68   1.0000      -5.705197      -155.2463
  69   1.0000      -5.699470      -155.0905
  70   1.0000      -5.698333      -155.0595
  71   1.0000      -5.690982      -154.8595
  72   1.0000      -5.685459      -154.7092
  73   1.0000      -5.684462      -154.6821
  74   1.0000      -5.656024      -153.9082
  75   1.0000      -5.649612      -153.7338
  76   1.0000      -5.647840      -153.6856
  77   1.0000      -5.646951      -153.6614
  78   1.0000      -5.641827      -153.5219
  79   1.0000      -5.639052      -153.4464
  80   1.0000      -2.412388       -65.6444
  81   1.0000      -1.479256       -40.2526
  82   1.0000      -1.425667       -38.7944
  83   1.0000      -1.424328       -38.7579
  84   1.0000      -0.710324       -19.3289
  85   1.0000      -0.708717       -19.2852
  86   1.0000      -0.690070       -18.7778
  87   1.0000      -0.688604       -18.7379
  88   1.0000      -0.671474       -18.2717
  89   1.0000      -0.665830       -18.1181
  90   1.0000      -0.643129       -17.5004
  91   1.0000      -0.620377       -16.8813
  92   1.0000      -0.619006       -16.8440
  93   1.0000      -0.608094       -16.5471
  94   1.0000      -0.603628       -16.4256
  95   1.0000      -0.579016       -15.7558
  96   1.0000      -0.577863       -15.7245
  97   1.0000      -0.512900       -13.9567
  98   1.0000      -0.503880       -13.7113
  99   1.0000      -0.489367       -13.3163
 100   1.0000      -0.482242       -13.1225
 101   1.0000      -0.470317       -12.7980
 102   1.0000      -0.456994       -12.4354
 103   1.0000      -0.437506       -11.9051
 104   1.0000      -0.426495       -11.6055
 105   1.0000      -0.411347       -11.1933
 106   1.0000      -0.398332       -10.8392
 107   1.0000      -0.351974        -9.5777
 108   1.0000      -0.343961        -9.3596
 109   1.0000      -0.324273        -8.8239
 110   1.0000      -0.317749        -8.6464
 111   1.0000      -0.315755        -8.5921
 112   1.0000      -0.308136        -8.3848
 113   1.0000      -0.300476        -8.1764
 114   1.0000      -0.291989        -7.9454
 115   1.0000      -0.289958        -7.8902
 116   1.0000      -0.282778        -7.6948
 117   1.0000      -0.271936        -7.3998
 118   1.0000      -0.266312        -7.2467
 119   1.0000      -0.249557        -6.7908
 120   1.0000      -0.242545        -6.6000
 121   1.0000      -0.235391        -6.4053
 122   1.0000      -0.233747        -6.3606
 123   1.0000      -0.232165        -6.3175
 124   1.0000      -0.230118        -6.2618
 125   1.0000      -0.226394        -6.1605
 126   1.0000      -0.226226        -6.1559
 127   1.0000      -0.218098        -5.9347
 128   1.0000      -0.215736        -5.8705
 129   1.0000      -0.212777        -5.7900
 130   1.0000      -0.212156        -5.7731
 131   1.0000      -0.191719        -5.2169
 132   1.0000      -0.190726        -5.1899
 133   1.0000      -0.168463        -4.5841
 134   1.0000      -0.163367        -4.4454
 135   1.0000      -0.157918        -4.2972
 136   1.0000      -0.150266        -4.0890
 137   1.0000      -0.141492        -3.8502
 138   1.0000      -0.138370        -3.7653
 139   1.0000      -0.136998        -3.7279
 140   1.0000      -0.126975        -3.4552
 141   1.0000      -0.122432        -3.3315
 142   1.0000      -0.118656        -3.2288
 143   1.0000      -0.110794        -3.0149
 144   1.0000      -0.109964        -2.9923
 145   1.0000      -0.096966        -2.6386
 146   1.0000      -0.091237        -2.4827
 147   1.0000      -0.079460        -2.1622
 148   1.0000      -0.075295        -2.0489
 149   1.0000      -0.065330        -1.7777
 150   1.0000      -0.057033        -1.5519
 151   1.0000      -0.048113        -1.3092
 152   1.0000      -0.042380        -1.1532
 153   1.0000      -0.040694        -1.1073
 154   1.0000      -0.035616        -0.9692
 155   1.0000      -0.026804        -0.7294
 156   1.0000      -0.018334        -0.4989
 157   1.0000      -0.002571        -0.0699
 158   1.0000       0.025196         0.6856
 159   1.0000       0.044354         1.2069
 160   0.0000       0.135707         3.6928
 161   0.0000       0.136797         3.7224
 162   0.0000       0.139221         3.7884
 163   0.0000       0.143722         3.9109
 164   0.0000       0.145567         3.9611

MULLIKEN ATOMIC CHARGES AND SPIN POPULATIONS
--------------------------------------------
   0 V :    0.432943    1.208172
   1 S :   -0.356647   -0.049111
   2 S :   -0.315293   -0.041306
   3 S :   -0.093647   -0.005139
   4 S :   -0.169536   -0.014763
   5 O :   -0.452472   -0.146782
   6 C :   -0.124699    0.022593
   7 C :   -0.059249    0.000630
   8 C :   -0.137361    0.029236
   9 C :   -0.045469   -0.000191
  10 S :    0.119528    0.000086
  11 S :    0.057527   -0.002895
  12 S :    0.010087   -0.004972
  13 S :    0.121173   -0.001329
  14 C :   -0.190899    0.001907
  15 C :   -0.172617    0.003599
  16 C :   -0.219121    0.000200
  17 C :   -0.233356   -0.000297
  18 S :    0.046801   -0.000139
  19 S :   -0.039490   -0.000111
  20 S :    0.052987   -0.000122
  21 S :   -0.060222    0.000482
  22 C :   -0.299482    0.000039
  23 C :   -0.291215   -0.000013
  24 C :   -0.149796   -0.000027
  25 H :    0.133474    0.000015
  26 H :    0.107236    0.000016
  27 H :    0.077584   -0.000011
  28 H :    0.086395    0.000001
  29 H :    0.105080   -0.000012
  30 H :    0.139665   -0.000002
  31 C :   -0.299533    0.000220
  32 C :   -0.294689    0.000219
  33 C :   -0.155954   -0.000230
  34 H :    0.141317   -0.000011
  35 H :    0.110428    0.000007
  36 H :    0.090463    0.000014
  37 H :    0.081035    0.000012
  38 H :    0.110811    0.000046
  39 H :    0.136215   -0.000031
Sum of atomic charges         :   -2.0000000

LOEWDIN ATOMIC CHARGES AND SPIN POPULATIONS
-------------------------------------------
   0 V :   -0.158598    1.161237
   1 S :   -0.074911   -0.036685
   2 S :   -0.013509   -0.030109
   3 S :    0.386181   -0.001110
   4 S :    0.258254   -0.007472
   5 O :   -0.309889   -0.131411
   6 C :   -0.569923    0.020556
   7 C :   -0.548649    0.001780
   8 C :   -0.584776    0.025504
   9 C :   -0.557989    0.002218
  10 S :    0.481392    0.000121
  11 S :    0.431679   -0.003021
  12 S :    0.394807   -0.004767
  13 S :    0.480181   -0.000792
  14 C :   -0.467041    0.000705
  15 C :   -0.467020    0.002580
  16 C :   -0.629722    0.000578
  17 C :   -0.636618   -0.000168
  18 S :    0.402483   -0.000075
  19 S :    0.307741   -0.000103
  20 S :    0.413195   -0.000098
  21 S :    0.285451    0.000423
  22 C :   -0.290153    0.000002
  23 C :   -0.285198   -0.000032
  24 C :   -0.177323   -0.000014
  25 H :    0.057504    0.000009
  26 H :    0.050410    0.000022
  27 H :    0.055662   -0.000008
  28 H :    0.058528   -0.000003
  29 H :    0.050579   -0.000005
  30 H :    0.062575   -0.000002
  31 C :   -0.288345    0.000071
  32 C :   -0.283372    0.000038
  33 C :   -0.176740    0.000002
  34 H :    0.062934    0.000000
  35 H :    0.052535    0.000006
  36 H :    0.059738    0.000002
  37 H :    0.057039    0.000000
  38 H :    0.052089    0.000025
  39 H :    0.058820   -0.000004

  Mayer bond orders larger than 0.100000
B(  0-V ,  1-S ) :   0.9230 B(  0-V ,  2-S ) :   0.8858 B(  0-V ,  3-S ) :   0.5600
B(  0-V ,  4-S ) :   0.6543 B(  0-V ,  5-O ) :   2.1515 B(  1-S ,  8-C ) :   0.8132
B(  2-S ,  6-C ) :   0.8932 B(  3-S ,  8-C ) :   0.2088 B(  3-S ,  9-C ) :   1.5276
B(  4-S ,  6-C ) :   0.1344 B(  4-S ,  7-C ) :   1.3620 B(  6-C ,  7-C ) :   1.6628
B(  6-C , 10-S ) :   1.0899 B(  7-C , 11-S ) :   0.6844 B(  8-C ,  9-C ) :   1.5931
B(  8-C , 13-S ) :   1.1599 B(  9-C , 12-S ) :   0.5310 B(  9-C , 13-S ) :   0.1066
B( 10-S , 14-C ) :   1.0546 B( 11-S , 14-C ) :   1.4547 B( 12-S , 15-C ) :   1.5392
B( 13-S , 15-C ) :   0.9745 B( 14-C , 16-C ) :   1.4524 B( 15-C , 17-C ) :   1.4377
B( 16-C , 18-S ) :   1.1940 B( 16-C , 19-S ) :   0.9804 B( 17-C , 20-S ) :   1.2330
B( 17-C , 21-S ) :   0.9423 B( 18-S , 32-C ) :   0.9503 B( 19-S , 31-C ) :   1.0263
B( 20-S , 23-C ) :   0.9359 B( 21-S , 22-C ) :   1.0366 B( 22-C , 24-C ) :   0.9051
B( 22-C , 25-H ) :   0.9682 B( 22-C , 26-H ) :   0.9666 B( 23-C , 24-C ) :   0.9261
B( 23-C , 29-H ) :   0.9621 B( 23-C , 30-H ) :   0.9666 B( 24-C , 27-H ) :   0.9623
B( 24-C , 28-H ) :   0.9703 B( 31-C , 33-C ) :   0.9071 B( 31-C , 38-H ) :   0.9668
B( 31-C , 39-H ) :   0.9671 B( 32-C , 33-C ) :   0.9222 B( 32-C , 34-H ) :   0.9660
B( 32-C , 35-H ) :   0.9634 B( 33-C , 36-H ) :   0.9713 B( 33-C , 37-H ) :   0.9623

FINAL SINGLE POINT ENERGY     -6337.347702202479

DIPOLE MOMENT
-------------
                                X             Y             Z
Electronic contribution:      4.65547     -11.88476      -5.03409
Nuclear contribution   :     -4.92243      12.71809       6.57133
                        -----------------------------------------
Total Dipole Moment    :     -0.26695       0.83334       1.53724
                        -----------------------------------------
Magnitude (a.u.)       :      1.76884
Magnitude (Debye)      :      4.49604

Rotational constants in cm-1:     0.010752     0.000804     0.000783
Rotational constants in MHz :   322.325925    24.112194    23.481556

                             ****ORCA TERMINATED NORMALLY****
TOTAL RUN TIME: 0 days 1 hours 7 minutes 5 seconds 638 msec
