                         Program Version 5.0.4 -  RELEASE  -
|  1> ! nofrozencore ReducedPop printbasis
|  2> ! B3LYP TZVP
|  3>
|  4> %basis
|  5> newgto V "CP(PPP)" end
|  6> end
|  7>
|  8> %pal
|  9> nprocs 6
| 10> end
| 11>
| 12> % sym SymThresh 1e-2 end
| 13> * xyz -2 2
| 14> V 0.17209866397771797 1.0868895481666734 -0.3536386288856587
| 15> S -1.6090161814817536 0.30219288959785867 -1.8799660193719923
| 16> S -1.6058875492185578 1.1631560616856014 1.367494037024972
| 17> S 1.7028520081552432 -0.3124805231051096 -1.7066012207632493
| 18> S 1.680587888594487 0.45831893730585194 1.495483803848895
| 19> O 0.4731132852859278 2.602733719301699 -0.7263431325123831
| 20> C -0.6206719046995369 1.2049091785051889 2.8243625019907768
| 21> C 0.6939787639540853 0.9193339694337775 2.8753941534377323
| 22> C -0.6590511855128307 -0.4989468818663015 -3.1237870472365796
| 23> C 0.6615445086415229 -0.746762233539863 -3.0523166462170668
| 24> S -1.413877563062337 1.5847795048195998 4.392127745663444
| 25> S 1.457092786618491 0.9427797433114029 4.500596710823804
| 26> S 1.3855923333375628 -1.6373672700352935 -4.433600032241783
| 27> S -1.5038059123474492 -1.0886475244175746 -4.595450109654803
| 28> C 0.01284912590028998 1.386666843456321 5.415385087023035
| 29> C -0.10618410111508474 -1.8607761391693332 -5.354865570186189
| 30> C 0.008624520974517342 1.5802322791151615 6.770051234533344
| 31> C -0.16892943496628118 -2.5440355437812006 -6.537464834711301
| 32> S -1.4369003492888937 2.1581877859292224 7.637871726148547
| 33> S 1.4941257110458985 1.4340073121092372 7.743947557845342
| 34> S -1.6935525797656168 -2.7189335066905023 -7.443605716803242
| 35> S 1.2720327733292391 -3.302365941329308 -7.2631953965726765
| 36> C 0.6917264214430597 -5.061140040623903 -7.24948140171206
| 37> C -1.8262693714658211 -4.565914958691678 -7.409135745067936
| 38> C -0.6161826372336713 -5.282522545179034 -8.013190392750692
| 39> H 0.5930316901198996 -5.377829940275928 -6.207989243048616
| 40> H 1.5004768556200911 -5.637114757736272 -7.706629197510957
| 41> H -0.8279850211910907 -6.36161530858496 -8.025199655505567
| 42> H -0.4871410628869485 -4.964253425719235 -9.053195223507457
| 43> H -2.729274254314416 -4.801530947585296 -7.9782979689411295
| 44> H -1.9844455442084195 -4.876183704215012 -6.373095521503291
| 45> C 1.6960262225899765 3.2292186479687772 8.18458053469302
| 46> C -0.8042535396837232 3.848836861202509 8.087209814871258
| 47> C 0.4865682062199819 3.824595031718384 8.91373263639307
| 48> H -0.6643207565441711 4.413672051752757 7.157750873355344
| 49> H -1.6074704656257224 4.3229728173396005 8.659732414694403
| 50> H 0.3116808619315087 3.2669879247614215 9.845079789881934
| 51> H 0.7331420825932595 4.863084771079429 9.195260381244413
| 52> H 2.582449620156471 3.2789190993140824 8.824633371153219
| 53> H 1.9073833713362673 3.7801311309747625 7.260259763698979
| 54> *
| 55>
| 56> % eprnmr
| 57> gtensor true
| 58> Nuclei = all H {aiso,adip,aorb,fgrad,rho}
| 59> Nuclei = all V {aiso,adip,aorb,fgrad,rho}
| 60> end
| 61>
| 62>                          ****END OF INPUT****

CARTESIAN COORDINATES (ANGSTROEM)
---------------------------------
  V      0.171515    1.084644   -0.350587
  S     -1.609600    0.299947   -1.876914
  S     -1.606471    1.160911    1.370546
  S      1.702268   -0.314726   -1.703549
  S      1.680004    0.456073    1.498536
  O      0.472529    2.600488   -0.723291
  C     -0.621256    1.202664    2.827414
  C      0.693395    0.917088    2.878446
  C     -0.659635   -0.501192   -3.120735
  C      0.660961   -0.749008   -3.049265
  S     -1.414461    1.582534    4.395180
  S      1.456509    0.940534    4.503649
  S      1.385008   -1.639613   -4.430548
  S     -1.504390   -1.090893   -4.592398
  C      0.012265    1.384421    5.418437
  C     -0.106768   -1.863022   -5.351814
  C      0.008041    1.577987    6.773103
  C     -0.169513   -2.546281   -6.534413
  S     -1.437484    2.155942    7.640924
  S      1.493542    1.431762    7.746999
  S     -1.694137   -2.721179   -7.440554
  S      1.271449   -3.304612   -7.260144
  C      0.691142   -5.063386   -7.246430
  C     -1.826853   -4.568161   -7.406084
  C     -0.616767   -5.284768   -8.010139
  H      0.592448   -5.380075   -6.204937
  H      1.499893   -5.639360   -7.703577
  H     -0.828569   -6.363861   -8.022148
  H     -0.487725   -4.966499   -9.050143
  H     -2.729858   -4.803777   -7.975246
  H     -1.985029   -4.878429   -6.370044
  C      1.695442    3.226973    8.187632
  C     -0.804837    3.846591    8.090262
  C      0.485984    3.822349    8.916784
  H     -0.664905    4.411426    7.160803
  H     -1.608054    4.320727    8.662784
  H      0.311097    3.264742    9.848132
  H      0.732558    4.860839    9.198312
  H      2.581866    3.276674    8.827685
  H      1.906799    3.777886    7.263312

 Total Charge           Charge          ....   -2
 Multiplicity           Mult            ....    2
 Number of Electrons    NEL             ....  321
 Basis Dimension        Dim             ....  681

ORBITAL ENERGIES
----------------
                 SPIN UP ORBITALS
  NO   OCC          E(Eh)            E(eV)
   0   1.0000    -196.675169     -5351.8034
   1   1.0000     -88.733543     -2414.5625
   2   1.0000     -88.733459     -2414.5602
   3   1.0000     -88.732340     -2414.5297
   4   1.0000     -88.732337     -2414.5296
   5   1.0000     -88.730708     -2414.4853
   6   1.0000     -88.730538     -2414.4807
   7   1.0000     -88.729849     -2414.4619
   8   1.0000     -88.729797     -2414.4605
   9   1.0000     -88.639745     -2412.0101
  10   1.0000     -88.639655     -2412.0076
  11   1.0000     -88.639644     -2412.0073
  12   1.0000     -88.639129     -2411.9933
  13   1.0000     -22.050593      -600.0271
  14   1.0000     -18.890028      -514.0238
  15   1.0000     -18.557024      -504.9623
  16   1.0000     -18.551881      -504.8224
  17   1.0000     -18.551770      -504.8193
  18   1.0000     -10.076254      -274.1888
  19   1.0000     -10.075566      -274.1701
  20   1.0000     -10.063815      -273.8503
  21   1.0000     -10.063784      -273.8495
  22   1.0000     -10.062983      -273.8277
  23   1.0000     -10.062923      -273.8260
  24   1.0000     -10.051663      -273.5197
  25   1.0000     -10.051553      -273.5167
  26   1.0000     -10.048585      -273.4359
  27   1.0000     -10.047495      -273.4062
  28   1.0000     -10.018400      -272.6145
  29   1.0000     -10.017688      -272.5952
  30   1.0000     -10.017476      -272.5894
  31   1.0000     -10.016894      -272.5735
  32   1.0000      -7.786962      -211.8940
  33   1.0000      -7.786872      -211.8916
  34   1.0000      -7.785675      -211.8590
  35   1.0000      -7.785663      -211.8587
  36   1.0000      -7.783948      -211.8120
  37   1.0000      -7.783812      -211.8083
  38   1.0000      -7.783111      -211.7892
  39   1.0000      -7.783087      -211.7886
  40   1.0000      -7.694074      -209.3664
  41   1.0000      -7.693926      -209.3624
  42   1.0000      -7.693856      -209.3605
  43   1.0000      -7.693511      -209.3511
  44   1.0000      -5.751947      -156.5184
  45   1.0000      -5.751855      -156.5159
  46   1.0000      -5.750703      -156.4846
  47   1.0000      -5.750698      -156.4844
  48   1.0000      -5.748876      -156.4349
  49   1.0000      -5.748736      -156.4311
  50   1.0000      -5.748541      -156.4258
  51   1.0000      -5.748455      -156.4234
  52   1.0000      -5.748063      -156.4127
  53   1.0000      -5.748043      -156.4122
  54   1.0000      -5.747247      -156.3905
  55   1.0000      -5.747243      -156.3904
  56   1.0000      -5.744457      -156.3146
  57   1.0000      -5.744317      -156.3108
  58   1.0000      -5.743633      -156.2922
  59   1.0000      -5.743605      -156.2914
  60   1.0000      -5.741764      -156.2414
  61   1.0000      -5.741674      -156.2389
  62   1.0000      -5.740462      -156.2059
  63   1.0000      -5.740442      -156.2054
  64   1.0000      -5.739795      -156.1878
  65   1.0000      -5.739664      -156.1842
  66   1.0000      -5.738920      -156.1639
  67   1.0000      -5.738897      -156.1633
  68   1.0000      -5.659379      -153.9995
  69   1.0000      -5.659244      -153.9958
  70   1.0000      -5.659206      -153.9948
  71   1.0000      -5.658801      -153.9838
  72   1.0000      -5.652718      -153.8183
  73   1.0000      -5.652602      -153.8151
  74   1.0000      -5.652533      -153.8132
  75   1.0000      -5.652184      -153.8037
  76   1.0000      -5.651378      -153.7818
  77   1.0000      -5.651230      -153.7778
  78   1.0000      -5.651154      -153.7757
  79   1.0000      -5.650802      -153.7662
  80   1.0000      -2.444165       -66.5091
  81   1.0000      -1.485295       -40.4169
  82   1.0000      -1.473934       -40.1078
  83   1.0000      -1.472943       -40.0808
  84   1.0000      -0.709404       -19.3039
  85   1.0000      -0.708664       -19.2837
  86   1.0000      -0.685517       -18.6539
  87   1.0000      -0.683981       -18.6121
  88   1.0000      -0.649642       -17.6777
  89   1.0000      -0.631381       -17.1807
  90   1.0000      -0.630253       -17.1501
  91   1.0000      -0.617258       -16.7965
  92   1.0000      -0.614247       -16.7145
  93   1.0000      -0.574552       -15.6344
  94   1.0000      -0.574292       -15.6273
  95   1.0000      -0.573293       -15.6001
  96   1.0000      -0.572340       -15.5742
  97   1.0000      -0.496528       -13.5112
  98   1.0000      -0.496175       -13.5016
  99   1.0000      -0.494761       -13.4631
 100   1.0000      -0.494149       -13.4465
 101   1.0000      -0.479719       -13.0538
 102   1.0000      -0.477056       -12.9813
 103   1.0000      -0.446842       -12.1592
 104   1.0000      -0.444303       -12.0901
 105   1.0000      -0.416275       -11.3274
 106   1.0000      -0.411020       -11.1844
 107   1.0000      -0.355391        -9.6707
 108   1.0000      -0.352961        -9.6046
 109   1.0000      -0.326650        -8.8886
 110   1.0000      -0.324796        -8.8381
 111   1.0000      -0.318941        -8.6788
 112   1.0000      -0.314237        -8.5508
 113   1.0000      -0.304039        -8.2733
 114   1.0000      -0.303064        -8.2468
 115   1.0000      -0.292476        -7.9587
 116   1.0000      -0.290020        -7.8919
 117   1.0000      -0.257908        -7.0180
 118   1.0000      -0.257381        -7.0037
 119   1.0000      -0.255619        -6.9557
 120   1.0000      -0.254474        -6.9246
 121   1.0000      -0.234727        -6.3872
 122   1.0000      -0.232948        -6.3388
 123   1.0000      -0.230927        -6.2838
 124   1.0000      -0.228291        -6.2121
 125   1.0000      -0.219941        -5.9849
 126   1.0000      -0.218003        -5.9322
 127   1.0000      -0.213081        -5.7982
 128   1.0000      -0.211916        -5.7665
 129   1.0000      -0.192976        -5.2512
 130   1.0000      -0.187198        -5.0939
 131   1.0000      -0.185918        -5.0591
 132   1.0000      -0.184613        -5.0236
 133   1.0000      -0.179263        -4.8780
 134   1.0000      -0.159290        -4.3345
 135   1.0000      -0.151431        -4.1206
 136   1.0000      -0.146623        -3.9898
 137   1.0000      -0.135182        -3.6785
 138   1.0000      -0.133910        -3.6439
 139   1.0000      -0.132995        -3.6190
 140   1.0000      -0.124898        -3.3986
 141   1.0000      -0.120944        -3.2910
 142   1.0000      -0.113383        -3.0853
 143   1.0000      -0.109294        -2.9741
 144   1.0000      -0.099622        -2.7108
 145   1.0000      -0.098005        -2.6668
 146   1.0000      -0.097202        -2.6450
 147   1.0000      -0.094313        -2.5664
 148   1.0000      -0.074454        -2.0260
 149   1.0000      -0.067804        -1.8450
 150   1.0000      -0.065893        -1.7930
 151   1.0000      -0.051975        -1.4143
 152   1.0000      -0.045497        -1.2380
 153   1.0000      -0.037863        -1.0303
 154   1.0000      -0.036908        -1.0043
 155   1.0000      -0.031215        -0.8494
 156   1.0000      -0.025151        -0.6844
 157   1.0000      -0.019319        -0.5257
 158   1.0000      -0.015409        -0.4193
 159   1.0000       0.020220         0.5502
 160   1.0000       0.041639         1.1330
 161   0.0000       0.137111         3.7310
 162   0.0000       0.137228         3.7342
 163   0.0000       0.161863         4.4045
 164   0.0000       0.163006         4.4356
 165   0.0000       0.170218         4.6319

                 SPIN DOWN ORBITALS
  NO   OCC          E(Eh)            E(eV)
   0   1.0000    -196.675316     -5351.8074
   1   1.0000     -88.733543     -2414.5625
   2   1.0000     -88.733460     -2414.5602
   3   1.0000     -88.732341     -2414.5297
   4   1.0000     -88.732338     -2414.5297
   5   1.0000     -88.730716     -2414.4855
   6   1.0000     -88.730546     -2414.4809
   7   1.0000     -88.729857     -2414.4621
   8   1.0000     -88.729805     -2414.4607
   9   1.0000     -88.639891     -2412.0141
  10   1.0000     -88.639801     -2412.0116
  11   1.0000     -88.639787     -2412.0112
  12   1.0000     -88.639273     -2411.9972
  13   1.0000     -22.035640      -599.6202
  14   1.0000     -18.893835      -514.1274
  15   1.0000     -18.551737      -504.8184
  16   1.0000     -18.535873      -504.3867
  17   1.0000     -18.535593      -504.3791
  18   1.0000     -10.076250      -274.1887
  19   1.0000     -10.075565      -274.1701
  20   1.0000     -10.063815      -273.8503
  21   1.0000     -10.063784      -273.8495
  22   1.0000     -10.062983      -273.8277
  23   1.0000     -10.062922      -273.8260
  24   1.0000     -10.051663      -273.5197
  25   1.0000     -10.051553      -273.5167
  26   1.0000     -10.048581      -273.4358
  27   1.0000     -10.047485      -273.4060
  28   1.0000     -10.018168      -272.6082
  29   1.0000     -10.017470      -272.5892
  30   1.0000     -10.017255      -272.5834
  31   1.0000     -10.016678      -272.5677
  32   1.0000      -7.786963      -211.8940
  33   1.0000      -7.786873      -211.8916
  34   1.0000      -7.785676      -211.8590
  35   1.0000      -7.785664      -211.8587
  36   1.0000      -7.783957      -211.8122
  37   1.0000      -7.783821      -211.8085
  38   1.0000      -7.783120      -211.7895
  39   1.0000      -7.783096      -211.7888
  40   1.0000      -7.694211      -209.3701
  41   1.0000      -7.694059      -209.3660
  42   1.0000      -7.693992      -209.3642
  43   1.0000      -7.693645      -209.3547
  44   1.0000      -5.751947      -156.5184
  45   1.0000      -5.751856      -156.5159
  46   1.0000      -5.750704      -156.4846
  47   1.0000      -5.750699      -156.4845
  48   1.0000      -5.748887      -156.4352
  49   1.0000      -5.748746      -156.4313
  50   1.0000      -5.748542      -156.4258
  51   1.0000      -5.748456      -156.4234
  52   1.0000      -5.748073      -156.4130
  53   1.0000      -5.748053      -156.4125
  54   1.0000      -5.747248      -156.3906
  55   1.0000      -5.747244      -156.3905
  56   1.0000      -5.744471      -156.3150
  57   1.0000      -5.744330      -156.3112
  58   1.0000      -5.743647      -156.2926
  59   1.0000      -5.743619      -156.2918
  60   1.0000      -5.741765      -156.2414
  61   1.0000      -5.741674      -156.2389
  62   1.0000      -5.740462      -156.2059
  63   1.0000      -5.740443      -156.2054
  64   1.0000      -5.739802      -156.1880
  65   1.0000      -5.739672      -156.1844
  66   1.0000      -5.738926      -156.1641
  67   1.0000      -5.738903      -156.1635
  68   1.0000      -5.659524      -154.0035
  69   1.0000      -5.659390      -153.9998
  70   1.0000      -5.659352      -153.9988
  71   1.0000      -5.658946      -153.9877
  72   1.0000      -5.653103      -153.8288
  73   1.0000      -5.652963      -153.8249
  74   1.0000      -5.652912      -153.8236
  75   1.0000      -5.652554      -153.8138
  76   1.0000      -5.651489      -153.7848
  77   1.0000      -5.651346      -153.7809
  78   1.0000      -5.651267      -153.7788
  79   1.0000      -5.650919      -153.7693
  80   1.0000      -2.399200       -65.2856
  81   1.0000      -1.465925       -39.8898
  82   1.0000      -1.411310       -38.4037
  83   1.0000      -1.411277       -38.4028
  84   1.0000      -0.709388       -19.3034
  85   1.0000      -0.708639       -19.2830
  86   1.0000      -0.685473       -18.6527
  87   1.0000      -0.683932       -18.6107
  88   1.0000      -0.657821       -17.9002
  89   1.0000      -0.631323       -17.1792
  90   1.0000      -0.630185       -17.1482
  91   1.0000      -0.617260       -16.7965
  92   1.0000      -0.614247       -16.7145
  93   1.0000      -0.574524       -15.6336
  94   1.0000      -0.574268       -15.6266
  95   1.0000      -0.573223       -15.5982
  96   1.0000      -0.572271       -15.5723
  97   1.0000      -0.496551       -13.5118
  98   1.0000      -0.496223       -13.5029
  99   1.0000      -0.494814       -13.4646
 100   1.0000      -0.494181       -13.4473
 101   1.0000      -0.479918       -13.0592
 102   1.0000      -0.477319       -12.9885
 103   1.0000      -0.446869       -12.1599
 104   1.0000      -0.444353       -12.0915
 105   1.0000      -0.416283       -11.3276
 106   1.0000      -0.411146       -11.1879
 107   1.0000      -0.355386        -9.6705
 108   1.0000      -0.352952        -9.6043
 109   1.0000      -0.326639        -8.8883
 110   1.0000      -0.324782        -8.8378
 111   1.0000      -0.318863        -8.6767
 112   1.0000      -0.314270        -8.5517
 113   1.0000      -0.303988        -8.2719
 114   1.0000      -0.303037        -8.2460
 115   1.0000      -0.292471        -7.9586
 116   1.0000      -0.290015        -7.8917
 117   1.0000      -0.257745        -7.0136
 118   1.0000      -0.257306        -7.0017
 119   1.0000      -0.255594        -6.9551
 120   1.0000      -0.254432        -6.9235
 121   1.0000      -0.234687        -6.3862
 122   1.0000      -0.232924        -6.3382
 123   1.0000      -0.230881        -6.2826
 124   1.0000      -0.228257        -6.2112
 125   1.0000      -0.219591        -5.9754
 126   1.0000      -0.217865        -5.9284
 127   1.0000      -0.212849        -5.7919
 128   1.0000      -0.211828        -5.7641
 129   1.0000      -0.191106        -5.2003
 130   1.0000      -0.187130        -5.0921
 131   1.0000      -0.185685        -5.0528
 132   1.0000      -0.184375        -5.0171
 133   1.0000      -0.179148        -4.8749
 134   1.0000      -0.158687        -4.3181
 135   1.0000      -0.151260        -4.1160
 136   1.0000      -0.146547        -3.9878
 137   1.0000      -0.134385        -3.6568
 138   1.0000      -0.133731        -3.6390
 139   1.0000      -0.132767        -3.6128
 140   1.0000      -0.124353        -3.3838
 141   1.0000      -0.120594        -3.2815
 142   1.0000      -0.115184        -3.1343
 143   1.0000      -0.110932        -3.0186
 144   1.0000      -0.099625        -2.7109
 145   1.0000      -0.098341        -2.6760
 146   1.0000      -0.097212        -2.6453
 147   1.0000      -0.094603        -2.5743
 148   1.0000      -0.070623        -1.9218
 149   1.0000      -0.067792        -1.8447
 150   1.0000      -0.065897        -1.7932
 151   1.0000      -0.049357        -1.3431
 152   1.0000      -0.044545        -1.2121
 153   1.0000      -0.037921        -1.0319
 154   1.0000      -0.036387        -0.9901
 155   1.0000      -0.031389        -0.8542
 156   1.0000      -0.026221        -0.7135
 157   1.0000      -0.015692        -0.4270
 158   1.0000       0.020524         0.5585
 159   1.0000       0.040839         1.1113
 160   0.0000       0.137081         3.7302
 161   0.0000       0.137223         3.7340
 162   0.0000       0.155426         4.2294
 163   0.0000       0.162316         4.4169
 164   0.0000       0.163772         4.4565

MULLIKEN ATOMIC CHARGES AND SPIN POPULATIONS
--------------------------------------------
   0 V :    0.471668    1.214123
   1 S :   -0.289913   -0.023609
   2 S :   -0.288683   -0.025403
   3 S :   -0.288507   -0.024459
   4 S :   -0.284649   -0.026074
   5 O :   -0.469270   -0.147343
   6 C :   -0.079450    0.009223
   7 C :   -0.087365    0.008019
   8 C :   -0.083448    0.008030
   9 C :   -0.084209    0.007671
  10 S :    0.102458   -0.000511
  11 S :    0.103662   -0.000536
  12 S :    0.099074   -0.000390
  13 S :    0.098400   -0.000342
  14 C :   -0.212678    0.001365
  15 C :   -0.212398    0.001066
  16 C :   -0.187435   -0.000166
  17 C :   -0.191122   -0.000437
  18 S :    0.003276   -0.000095
  19 S :    0.003212   -0.000096
  20 S :    0.010061   -0.000058
  21 S :    0.009912   -0.000060
  22 C :   -0.300643   -0.000014
  23 C :   -0.300200   -0.000015
  24 C :   -0.156704    0.000005
  25 H :    0.141854   -0.000000
  26 H :    0.113881   -0.000005
  27 H :    0.083196   -0.000002
  28 H :    0.092377   -0.000002
  29 H :    0.113521   -0.000006
  30 H :    0.141510    0.000000
  31 C :   -0.299633    0.000123
  32 C :   -0.300158    0.000118
  33 C :   -0.162161   -0.000131
  34 H :    0.145452   -0.000012
  35 H :    0.112922    0.000010
  36 H :    0.091474    0.000010
  37 H :    0.082585    0.000006
  38 H :    0.112693    0.000011
  39 H :    0.145440   -0.000014
Sum of atomic charges         :   -2.0000000

LOEWDIN ATOMIC CHARGES AND SPIN POPULATIONS
-------------------------------------------
   0 V :   -0.155159    1.167243
   1 S :    0.080534   -0.015334
   2 S :    0.079695   -0.016447
   3 S :    0.081516   -0.016062
   4 S :    0.083223   -0.016837
   5 O :   -0.320555   -0.132218
   6 C :   -0.550170    0.008755
   7 C :   -0.552247    0.007976
   8 C :   -0.552344    0.008286
   9 C :   -0.552257    0.007818
  10 S :    0.472930   -0.000874
  11 S :    0.473815   -0.000894
  12 S :    0.470921   -0.000810
  13 S :    0.470205   -0.000815
  14 C :   -0.464578    0.000082
  15 C :   -0.465533   -0.000067
  16 C :   -0.625802    0.000373
  17 C :   -0.621268    0.000087
  18 S :    0.353558   -0.000082
  19 S :    0.354865   -0.000081
  20 S :    0.359847   -0.000065
  21 S :    0.359311   -0.000068
  22 C :   -0.283592   -0.000009
  23 C :   -0.283768   -0.000010
  24 C :   -0.176385   -0.000003
  25 H :    0.062227   -0.000001
  26 H :    0.053666   -0.000003
  27 H :    0.057986   -0.000002
  28 H :    0.060383   -0.000001
  29 H :    0.053640   -0.000003
  30 H :    0.062067   -0.000002
  31 C :   -0.282552    0.000030
  32 C :   -0.282250    0.000026
  33 C :   -0.176624    0.000002
  34 H :    0.064264   -0.000002
  35 H :    0.053434    0.000004
  36 H :    0.060688    0.000002
  37 H :    0.058669    0.000000
  38 H :    0.053507    0.000004
  39 H :    0.064129   -0.000002

  Mayer bond orders larger than 0.100000
B(  0-V ,  1-S ) :   0.7735 B(  0-V ,  2-S ) :   0.7704 B(  0-V ,  3-S ) :   0.7665
B(  0-V ,  4-S ) :   0.7769 B(  0-V ,  5-O ) :   2.1458 B(  1-S ,  8-C ) :   1.1044
B(  2-S ,  6-C ) :   1.1064 B(  3-S ,  9-C ) :   1.1076 B(  4-S ,  7-C ) :   1.1076
B(  6-C ,  7-C ) :   1.6882 B(  6-C , 10-S ) :   0.9353 B(  7-C , 11-S ) :   0.9391
B(  8-C ,  9-C ) :   1.6966 B(  8-C , 13-S ) :   0.9336 B(  9-C , 12-S ) :   0.9355
B( 10-S , 14-C ) :   1.2514 B( 11-S , 14-C ) :   1.2511 B( 12-S , 15-C ) :   1.2456
B( 13-S , 15-C ) :   1.2458 B( 14-C , 16-C ) :   1.4400 B( 15-C , 17-C ) :   1.4575
B( 16-C , 18-S ) :   1.0891 B( 16-C , 19-S ) :   1.0899 B( 17-C , 20-S ) :   1.0878
B( 17-C , 21-S ) :   1.0882 B( 18-S , 32-C ) :   0.9902 B( 19-S , 31-C ) :   0.9901
B( 20-S , 23-C ) :   0.9910 B( 21-S , 22-C ) :   0.9900 B( 22-C , 24-C ) :   0.9124
B( 22-C , 25-H ) :   0.9652 B( 22-C , 26-H ) :   0.9658 B( 23-C , 24-C ) :   0.9129
B( 23-C , 29-H ) :   0.9657 B( 23-C , 30-H ) :   0.9650 B( 24-C , 27-H ) :   0.9624
B( 24-C , 28-H ) :   0.9721 B( 31-C , 33-C ) :   0.9156 B( 31-C , 38-H ) :   0.9652
B( 31-C , 39-H ) :   0.9666 B( 32-C , 33-C ) :   0.9152 B( 32-C , 34-H ) :   0.9665
B( 32-C , 35-H ) :   0.9651 B( 33-C , 36-H ) :   0.9707 B( 33-C , 37-H ) :   0.9619

FINAL SINGLE POINT ENERGY     -6337.706688750644

DIPOLE MOMENT
-------------
                                X             Y             Z
Electronic contribution:      1.26257      11.22321      -6.26604
Nuclear contribution   :     -1.41545     -12.56395       6.90111
                        -----------------------------------------
Total Dipole Moment    :     -0.15288      -1.34075       0.63507
                        -----------------------------------------
Magnitude (a.u.)       :      1.49140
Magnitude (Debye)      :      3.79085

Rotational constants in cm-1:     0.010619     0.000808     0.000787
Rotational constants in MHz :   318.356995    24.214981    23.603219

                             ****ORCA TERMINATED NORMALLY****
TOTAL RUN TIME: 0 days 1 hours 6 minutes 49 seconds 10 msec
