                         Program Version 5.0.4 -  RELEASE  -
|  1> ! nofrozencore ReducedPop printbasis
|  2> ! B3LYP TZVP
|  3>
|  4> %basis
|  5> newgto V "CP(PPP)" end
|  6> end
|  7>
|  8> %pal
|  9> nprocs 8
| 10> end
| 11>
| 12> % sym SymThresh 1e-2 end
| 13> * xyz -2 2
| 14> V -0.25158561000452706 1.045809384516502 0.2862875128640182
| 15> S 1.669852323348102 0.5937532607467373 1.7771401241431588
| 16> S 1.4225772360530669 1.1453340098394085 -1.5342265335988678
| 17> S -1.5648384669907307 -0.3625246404160051 1.8428950743363945
| 18> S -1.7682944517527641 0.10413695327522789 -1.4160427713924972
| 19> O -0.6939579536826738 2.5516974488021815 0.5329255797041406
| 20> C 0.3441108358138563 1.0458583514875404 -2.919662109147778
| 21> C -0.9337587122580893 0.6247415285925993 -2.872620182876932
| 22> C 0.8731396069097493 -0.20001094461816926 3.1287886281322095
| 23> C -0.41639238325594063 -0.5837751534506611 3.1529947686028748
| 24> S 0.986271815893673 1.4580857864851444 -4.546310326146225
| 25> S -1.8034595839083798 0.5217741941038366 -4.4389262467309925
| 26> S -0.9731673149166153 -1.4281007067841442 4.63716883533203
| 27> S 1.847593065318541 -0.5830422826054688 4.588737461437955
| 28> C -0.47056801704764284 1.0643457442470032 -5.466065064603616
| 29> C 0.5793551791250218 -1.431529799798637 5.481488200724552
| 30> C -0.5661710435393391 1.1764728723763902 -6.825762072243217
| 31> C 0.7754347310712125 -2.0193973404358503 6.700463581776498
| 32> S 0.7888567492774632 1.778597871471237 -7.823985500158559
| 33> S -2.0590896676370862 0.765303533785014 -7.697150964555609
| 34> S 2.361702263258478 -1.99925563920958 7.512019781870019
| 35> S -0.5324919124205355 -2.882125964321052 7.550388455253886
| 36> C 0.22061025557685351 -4.573585762367649 7.554451184484499
| 37> C 2.6813816289075167 -3.822953904606417 7.527718750714975
| 38> C 1.5913160363324885 -4.633769872919439 8.232609822542862
| 39> H 0.28234609491593937 -4.918188335215064 6.519774910821552
| 40> H -0.4934579846146728 -5.209186865715402 8.084136694982845
| 41> H 1.9124386142680039 -5.684415402390846 8.262451217010868
| 42> H 1.4977383952260095 -4.292629698978838 9.268406015852978
| 43> H 3.6377505902661462 -3.9451981709368336 8.042271966581083
| 44> H 2.804898138600156 -4.1540505815882485 6.494203194732416
| 45> C -2.4487639895462667 2.425553777147283 -8.405037028007314
| 46> C -0.033962961339153844 3.3102734479070066 -8.474958617875368
| 47> C -1.3292154684963158 3.0209864088189575 -9.2499390646479
| 48> H -0.39420940639203184 4.118699186673203 -7.777253179507501
| 49> H 0.8553098837206071 3.6736000330707355 -9.035189330658573
| 50> H -1.3191311536102217 2.2729930844778568 -10.077211886661548
| 51> H -1.690003178358284 3.966812717248648 -9.677891037276629
| 52> H -3.3047181014444664 2.455662377997118 -9.115041803251415
| 53> H -2.7365336258254755 2.880605442054104 -7.425150405055829
| 54> *
| 55>
| 56> % eprnmr
| 57> gtensor true
| 58> Nuclei = all H {aiso,adip,aorb,fgrad,rho}
| 59> Nuclei = all V {aiso,adip,aorb,fgrad,rho}
| 60> end
| 61>
| 62>                          ****END OF INPUT****

CARTESIAN COORDINATES (ANGSTROEM)
---------------------------------
  V     -0.250935    1.043422    0.283359
  S      1.670503    0.591366    1.774212
  S      1.423228    1.142946   -1.537155
  S     -1.564188   -0.364912    1.839967
  S     -1.767644    0.101749   -1.418971
  O     -0.693308    2.549310    0.529997
  C      0.344761    1.043471   -2.922590
  C     -0.933108    0.622354   -2.875548
  C      0.873790   -0.202399    3.125860
  C     -0.415742   -0.586163    3.150067
  S      0.986922    1.455698   -4.549239
  S     -1.802809    0.519387   -4.441854
  S     -0.972517   -1.430488    4.634241
  S      1.848243   -0.585430    4.585809
  C     -0.469918    1.061958   -5.468993
  C      0.580005   -1.433917    5.478560
  C     -0.565521    1.174085   -6.828690
  C      0.776085   -2.021785    6.697535
  S      0.789507    1.776210   -7.826914
  S     -2.058439    0.762916   -7.700079
  S      2.362353   -2.001643    7.509092
  S     -0.531842   -2.884514    7.547460
  C      0.221261   -4.575973    7.551523
  C      2.682032   -3.825342    7.524791
  C      1.591966   -4.636158    8.229682
  H      0.282996   -4.920576    6.516847
  H     -0.492808   -5.211575    8.081208
  H      1.913089   -5.686803    8.259523
  H      1.498389   -4.295017    9.265478
  H      3.638401   -3.947586    8.039344
  H      2.805548   -4.156438    6.491275
  C     -2.448114    2.423166   -8.407965
  C     -0.033313    3.307886   -8.477887
  C     -1.328565    3.018599   -9.252867
  H     -0.393559    4.116312   -7.780181
  H      0.855960    3.671212   -9.038118
  H     -1.318481    2.270605  -10.080140
  H     -1.689353    3.964425   -9.680819
  H     -3.304068    2.453275   -9.117970
  H     -2.735883    2.878218   -7.428079

 Total Charge           Charge          ....   -2
 Multiplicity           Mult            ....    2
 Number of Electrons    NEL             ....  321
 Basis Dimension        Dim             ....  681

ORBITAL ENERGIES
----------------
                 SPIN UP ORBITALS
  NO   OCC          E(Eh)            E(eV)
   0   1.0000    -196.674805     -5351.7935
   1   1.0000     -88.737200     -2414.6620
   2   1.0000     -88.733157     -2414.5520
   3   1.0000     -88.733065     -2414.5494
   4   1.0000     -88.731676     -2414.5117
   5   1.0000     -88.730737     -2414.4861
   6   1.0000     -88.730489     -2414.4794
   7   1.0000     -88.730003     -2414.4661
   8   1.0000     -88.729957     -2414.4649
   9   1.0000     -88.639820     -2412.0121
  10   1.0000     -88.639726     -2412.0096
  11   1.0000     -88.639612     -2412.0065
  12   1.0000     -88.639184     -2411.9948
  13   1.0000     -22.050200      -600.0164
  14   1.0000     -18.890100      -514.0258
  15   1.0000     -18.556648      -504.9521
  16   1.0000     -18.551475      -504.8113
  17   1.0000     -18.551375      -504.8086
  18   1.0000     -10.076276      -274.1894
  19   1.0000     -10.075767      -274.1756
  20   1.0000     -10.071020      -274.0464
  21   1.0000     -10.066095      -273.9124
  22   1.0000     -10.063202      -273.8337
  23   1.0000     -10.063163      -273.8326
  24   1.0000     -10.054955      -273.6092
  25   1.0000     -10.051075      -273.5037
  26   1.0000     -10.048848      -273.4431
  27   1.0000     -10.048313      -273.4285
  28   1.0000     -10.018471      -272.6165
  29   1.0000     -10.017804      -272.5983
  30   1.0000     -10.017520      -272.5906
  31   1.0000     -10.017010      -272.5767
  32   1.0000      -7.790269      -211.9840
  33   1.0000      -7.786602      -211.8842
  34   1.0000      -7.786504      -211.8815
  35   1.0000      -7.785497      -211.8541
  36   1.0000      -7.783989      -211.8131
  37   1.0000      -7.783771      -211.8072
  38   1.0000      -7.783276      -211.7937
  39   1.0000      -7.783242      -211.7928
  40   1.0000      -7.694113      -209.3675
  41   1.0000      -7.694002      -209.3644
  42   1.0000      -7.693842      -209.3601
  43   1.0000      -7.693567      -209.3526
  44   1.0000      -5.755348      -156.6110
  45   1.0000      -5.751872      -156.5164
  46   1.0000      -5.751595      -156.5089
  47   1.0000      -5.751490      -156.5060
  48   1.0000      -5.750431      -156.4772
  49   1.0000      -5.748930      -156.4363
  50   1.0000      -5.748717      -156.4306
  51   1.0000      -5.748219      -156.4170
  52   1.0000      -5.748186      -156.4161
  53   1.0000      -5.748167      -156.4156
  54   1.0000      -5.748082      -156.4133
  55   1.0000      -5.747065      -156.3856
  56   1.0000      -5.745019      -156.3299
  57   1.0000      -5.744493      -156.3156
  58   1.0000      -5.744267      -156.3094
  59   1.0000      -5.743798      -156.2967
  60   1.0000      -5.743764      -156.2958
  61   1.0000      -5.741404      -156.2315
  62   1.0000      -5.741304      -156.2288
  63   1.0000      -5.740239      -156.1998
  64   1.0000      -5.739824      -156.1886
  65   1.0000      -5.739609      -156.1827
  66   1.0000      -5.739084      -156.1684
  67   1.0000      -5.739063      -156.1678
  68   1.0000      -5.659426      -154.0008
  69   1.0000      -5.659320      -153.9979
  70   1.0000      -5.659189      -153.9944
  71   1.0000      -5.658861      -153.9854
  72   1.0000      -5.652765      -153.8195
  73   1.0000      -5.652668      -153.8169
  74   1.0000      -5.652508      -153.8126
  75   1.0000      -5.652229      -153.8050
  76   1.0000      -5.651439      -153.7835
  77   1.0000      -5.651331      -153.7805
  78   1.0000      -5.651141      -153.7754
  79   1.0000      -5.650866      -153.7679
  80   1.0000      -2.443842       -66.5003
  81   1.0000      -1.485145       -40.4129
  82   1.0000      -1.473483       -40.0955
  83   1.0000      -1.472662       -40.0732
  84   1.0000      -0.710216       -19.3260
  85   1.0000      -0.709435       -19.3047
  86   1.0000      -0.686144       -18.6709
  87   1.0000      -0.685409       -18.6509
  88   1.0000      -0.649709       -17.6795
  89   1.0000      -0.632174       -17.2023
  90   1.0000      -0.631152       -17.1745
  91   1.0000      -0.617327       -16.7983
  92   1.0000      -0.617091       -16.7919
  93   1.0000      -0.574926       -15.6445
  94   1.0000      -0.574395       -15.6301
  95   1.0000      -0.574064       -15.6211
  96   1.0000      -0.572743       -15.5851
  97   1.0000      -0.498297       -13.5594
  98   1.0000      -0.495912       -13.4945
  99   1.0000      -0.495723       -13.4893
 100   1.0000      -0.493856       -13.4385
 101   1.0000      -0.479737       -13.0543
 102   1.0000      -0.477140       -12.9836
 103   1.0000      -0.446415       -12.1476
 104   1.0000      -0.441589       -12.0162
 105   1.0000      -0.415780       -11.3140
 106   1.0000      -0.410670       -11.1749
 107   1.0000      -0.357241        -9.7210
 108   1.0000      -0.355099        -9.6627
 109   1.0000      -0.327485        -8.9113
 110   1.0000      -0.326380        -8.8813
 111   1.0000      -0.318708        -8.6725
 112   1.0000      -0.314293        -8.5524
 113   1.0000      -0.306401        -8.3376
 114   1.0000      -0.303735        -8.2650
 115   1.0000      -0.292142        -7.9496
 116   1.0000      -0.289527        -7.8784
 117   1.0000      -0.260417        -7.0863
 118   1.0000      -0.256952        -6.9920
 119   1.0000      -0.256377        -6.9764
 120   1.0000      -0.248575        -6.7641
 121   1.0000      -0.236892        -6.4462
 122   1.0000      -0.234296        -6.3755
 123   1.0000      -0.230479        -6.2716
 124   1.0000      -0.224325        -6.1042
 125   1.0000      -0.219853        -5.9825
 126   1.0000      -0.217187        -5.9100
 127   1.0000      -0.211918        -5.7666
 128   1.0000      -0.208361        -5.6698
 129   1.0000      -0.193327        -5.2607
 130   1.0000      -0.189098        -5.1456
 131   1.0000      -0.187119        -5.0918
 132   1.0000      -0.182717        -4.9720
 133   1.0000      -0.176386        -4.7997
 134   1.0000      -0.159446        -4.3388
 135   1.0000      -0.151225        -4.1150
 136   1.0000      -0.146538        -3.9875
 137   1.0000      -0.135460        -3.6860
 138   1.0000      -0.134301        -3.6545
 139   1.0000      -0.132866        -3.6155
 140   1.0000      -0.125102        -3.4042
 141   1.0000      -0.121038        -3.2936
 142   1.0000      -0.113400        -3.0858
 143   1.0000      -0.109661        -2.9840
 144   1.0000      -0.099761        -2.7146
 145   1.0000      -0.098098        -2.6694
 146   1.0000      -0.097295        -2.6475
 147   1.0000      -0.094567        -2.5733
 148   1.0000      -0.074436        -2.0255
 149   1.0000      -0.067817        -1.8454
 150   1.0000      -0.067170        -1.8278
 151   1.0000      -0.052279        -1.4226
 152   1.0000      -0.045517        -1.2386
 153   1.0000      -0.037357        -1.0165
 154   1.0000      -0.036998        -1.0068
 155   1.0000      -0.031160        -0.8479
 156   1.0000      -0.024871        -0.6768
 157   1.0000      -0.019026        -0.5177
 158   1.0000      -0.015379        -0.4185
 159   1.0000       0.020448         0.5564
 160   1.0000       0.041306         1.1240
 161   0.0000       0.135153         3.6777
 162   0.0000       0.137436         3.7398
 163   0.0000       0.158933         4.3248
 164   0.0000       0.162376         4.4185
 165   0.0000       0.168078         4.5736

                 SPIN DOWN ORBITALS
  NO   OCC          E(Eh)            E(eV)
   0   1.0000    -196.674952     -5351.7975
   1   1.0000     -88.737201     -2414.6620
   2   1.0000     -88.733157     -2414.5520
   3   1.0000     -88.733065     -2414.5495
   4   1.0000     -88.731677     -2414.5117
   5   1.0000     -88.730745     -2414.4863
   6   1.0000     -88.730498     -2414.4796
   7   1.0000     -88.730012     -2414.4664
   8   1.0000     -88.729965     -2414.4651
   9   1.0000     -88.639960     -2412.0159
  10   1.0000     -88.639863     -2412.0133
  11   1.0000     -88.639753     -2412.0103
  12   1.0000     -88.639323     -2411.9986
  13   1.0000     -22.035273      -599.6103
  14   1.0000     -18.893876      -514.1285
  15   1.0000     -18.551385      -504.8089
  16   1.0000     -18.535446      -504.3751
  17   1.0000     -18.535261      -504.3701
  18   1.0000     -10.076270      -274.1893
  19   1.0000     -10.075767      -274.1755
  20   1.0000     -10.071019      -274.0464
  21   1.0000     -10.066093      -273.9123
  22   1.0000     -10.063202      -273.8337
  23   1.0000     -10.063163      -273.8326
  24   1.0000     -10.054955      -273.6092
  25   1.0000     -10.051075      -273.5037
  26   1.0000     -10.048837      -273.4427
  27   1.0000     -10.048309      -273.4284
  28   1.0000     -10.018233      -272.6100
  29   1.0000     -10.017590      -272.5925
  30   1.0000     -10.017297      -272.5845
  31   1.0000     -10.016798      -272.5709
  32   1.0000      -7.790270      -211.9840
  33   1.0000      -7.786602      -211.8842
  34   1.0000      -7.786505      -211.8816
  35   1.0000      -7.785498      -211.8542
  36   1.0000      -7.783998      -211.8134
  37   1.0000      -7.783781      -211.8074
  38   1.0000      -7.783285      -211.7940
  39   1.0000      -7.783252      -211.7930
  40   1.0000      -7.694243      -209.3710
  41   1.0000      -7.694130      -209.3679
  42   1.0000      -7.693973      -209.3636
  43   1.0000      -7.693697      -209.3561
  44   1.0000      -5.755350      -156.6110
  45   1.0000      -5.751873      -156.5164
  46   1.0000      -5.751596      -156.5089
  47   1.0000      -5.751491      -156.5060
  48   1.0000      -5.750432      -156.4772
  49   1.0000      -5.748941      -156.4366
  50   1.0000      -5.748728      -156.4308
  51   1.0000      -5.748230      -156.4173
  52   1.0000      -5.748197      -156.4164
  53   1.0000      -5.748168      -156.4156
  54   1.0000      -5.748083      -156.4133
  55   1.0000      -5.747066      -156.3856
  56   1.0000      -5.745020      -156.3299
  57   1.0000      -5.744507      -156.3160
  58   1.0000      -5.744280      -156.3098
  59   1.0000      -5.743812      -156.2971
  60   1.0000      -5.743778      -156.2961
  61   1.0000      -5.741405      -156.2316
  62   1.0000      -5.741305      -156.2289
  63   1.0000      -5.740240      -156.1999
  64   1.0000      -5.739832      -156.1888
  65   1.0000      -5.739618      -156.1829
  66   1.0000      -5.739090      -156.1686
  67   1.0000      -5.739069      -156.1680
  68   1.0000      -5.659564      -154.0046
  69   1.0000      -5.659462      -154.0018
  70   1.0000      -5.659331      -153.9982
  71   1.0000      -5.659002      -153.9893
  72   1.0000      -5.653151      -153.8301
  73   1.0000      -5.653018      -153.8264
  74   1.0000      -5.652890      -153.8229
  75   1.0000      -5.652590      -153.8148
  76   1.0000      -5.651525      -153.7858
  77   1.0000      -5.651437      -153.7834
  78   1.0000      -5.651233      -153.7779
  79   1.0000      -5.650972      -153.7708
  80   1.0000      -2.398972       -65.2793
  81   1.0000      -1.465869       -39.8883
  82   1.0000      -1.411114       -38.3984
  83   1.0000      -1.410958       -38.3941
  84   1.0000      -0.710190       -19.3253
  85   1.0000      -0.709419       -19.3043
  86   1.0000      -0.686088       -18.6694
  87   1.0000      -0.685366       -18.6498
  88   1.0000      -0.657807       -17.8998
  89   1.0000      -0.632102       -17.2004
  90   1.0000      -0.631093       -17.1729
  91   1.0000      -0.617326       -16.7983
  92   1.0000      -0.617093       -16.7920
  93   1.0000      -0.574888       -15.6435
  94   1.0000      -0.574371       -15.6294
  95   1.0000      -0.573989       -15.6190
  96   1.0000      -0.572677       -15.5833
  97   1.0000      -0.498315       -13.5598
  98   1.0000      -0.495950       -13.4955
  99   1.0000      -0.495760       -13.4903
 100   1.0000      -0.493904       -13.4398
 101   1.0000      -0.479923       -13.0594
 102   1.0000      -0.477387       -12.9904
 103   1.0000      -0.446443       -12.1483
 104   1.0000      -0.441631       -12.0174
 105   1.0000      -0.415779       -11.3139
 106   1.0000      -0.410773       -11.1777
 107   1.0000      -0.357234        -9.7208
 108   1.0000      -0.355094        -9.6626
 109   1.0000      -0.327467        -8.9108
 110   1.0000      -0.326371        -8.8810
 111   1.0000      -0.318631        -8.6704
 112   1.0000      -0.314317        -8.5530
 113   1.0000      -0.306364        -8.3366
 114   1.0000      -0.303701        -8.2641
 115   1.0000      -0.292138        -7.9495
 116   1.0000      -0.289511        -7.8780
 117   1.0000      -0.260309        -7.0834
 118   1.0000      -0.256864        -6.9896
 119   1.0000      -0.256326        -6.9750
 120   1.0000      -0.248512        -6.7623
 121   1.0000      -0.236856        -6.4452
 122   1.0000      -0.234266        -6.3747
 123   1.0000      -0.230439        -6.2706
 124   1.0000      -0.224298        -6.1035
 125   1.0000      -0.219523        -5.9735
 126   1.0000      -0.216931        -5.9030
 127   1.0000      -0.211756        -5.7622
 128   1.0000      -0.208283        -5.6677
 129   1.0000      -0.191857        -5.2207
 130   1.0000      -0.188537        -5.1304
 131   1.0000      -0.187015        -5.0889
 132   1.0000      -0.182500        -4.9661
 133   1.0000      -0.176252        -4.7961
 134   1.0000      -0.158828        -4.3219
 135   1.0000      -0.151051        -4.1103
 136   1.0000      -0.146450        -3.9851
 137   1.0000      -0.134832        -3.6690
 138   1.0000      -0.133959        -3.6452
 139   1.0000      -0.132660        -3.6099
 140   1.0000      -0.124489        -3.3875
 141   1.0000      -0.120709        -3.2847
 142   1.0000      -0.115180        -3.1342
 143   1.0000      -0.111237        -3.0269
 144   1.0000      -0.099752        -2.7144
 145   1.0000      -0.098427        -2.6783
 146   1.0000      -0.097271        -2.6469
 147   1.0000      -0.094894        -2.5822
 148   1.0000      -0.070606        -1.9213
 149   1.0000      -0.067809        -1.8452
 150   1.0000      -0.067167        -1.8277
 151   1.0000      -0.049693        -1.3522
 152   1.0000      -0.044579        -1.2130
 153   1.0000      -0.037393        -1.0175
 154   1.0000      -0.036432        -0.9914
 155   1.0000      -0.031200        -0.8490
 156   1.0000      -0.025908        -0.7050
 157   1.0000      -0.015589        -0.4242
 158   1.0000       0.020736         0.5643
 159   1.0000       0.040209         1.0941
 160   0.0000       0.135161         3.6779
 161   0.0000       0.137426         3.7396
 162   0.0000       0.155534         4.2323
 163   0.0000       0.159793         4.3482
 164   0.0000       0.163232         4.4418

MULLIKEN ATOMIC CHARGES AND SPIN POPULATIONS
--------------------------------------------
   0 V :    0.471294    1.210394
   1 S :   -0.291250   -0.022478
   2 S :   -0.289106   -0.025082
   3 S :   -0.289107   -0.023423
   4 S :   -0.285095   -0.025639
   5 O :   -0.467683   -0.146520
   6 C :   -0.077810    0.009663
   7 C :   -0.084816    0.008054
   8 C :   -0.083904    0.007760
   9 C :   -0.084652    0.007383
  10 S :    0.103031   -0.000604
  11 S :    0.097945   -0.000610
  12 S :    0.100031   -0.000393
  13 S :    0.099174   -0.000347
  14 C :   -0.203453    0.001499
  15 C :   -0.212345    0.000999
  16 C :   -0.203057   -0.000054
  17 C :   -0.190274   -0.000405
  18 S :    0.003750   -0.000119
  19 S :    0.014689   -0.000109
  20 S :    0.008184   -0.000068
  21 S :    0.008266   -0.000071
  22 C :   -0.300761   -0.000001
  23 C :   -0.299702   -0.000001
  24 C :   -0.158124   -0.000012
  25 H :    0.143319   -0.000001
  26 H :    0.113709   -0.000004
  27 H :    0.083545   -0.000001
  28 H :    0.092011   -0.000001
  29 H :    0.113339   -0.000005
  30 H :    0.142686   -0.000001
  31 C :   -0.324640    0.000185
  32 C :   -0.251893    0.000183
  33 C :   -0.151447   -0.000223
  34 H :    0.116738   -0.000015
  35 H :    0.105656    0.000015
  36 H :    0.082835    0.000024
  37 H :    0.088233    0.000015
  38 H :    0.111399    0.000032
  39 H :    0.149284   -0.000020
Sum of atomic charges         :   -2.0000000

LOEWDIN ATOMIC CHARGES AND SPIN POPULATIONS
-------------------------------------------
   0 V :   -0.155850    1.163791
   1 S :    0.079929   -0.014489
   2 S :    0.079568   -0.015986
   3 S :    0.081330   -0.015290
   4 S :    0.083401   -0.016274
   5 O :   -0.318921   -0.131447
   6 C :   -0.549737    0.009038
   7 C :   -0.551983    0.007954
   8 C :   -0.552396    0.008132
   9 C :   -0.552416    0.007665
  10 S :    0.472993   -0.000917
  11 S :    0.471722   -0.000939
  12 S :    0.471313   -0.000822
  13 S :    0.470571   -0.000830
  14 C :   -0.464821    0.000167
  15 C :   -0.465152   -0.000080
  16 C :   -0.622839    0.000476
  17 C :   -0.622095    0.000085
  18 S :    0.366441   -0.000095
  19 S :    0.356383   -0.000083
  20 S :    0.358982   -0.000073
  21 S :    0.358572   -0.000075
  22 C :   -0.283306   -0.000007
  23 C :   -0.283378   -0.000009
  24 C :   -0.176110   -0.000002
  25 H :    0.062562   -0.000001
  26 H :    0.053611   -0.000002
  27 H :    0.058019   -0.000002
  28 H :    0.060174   -0.000001
  29 H :    0.053540   -0.000002
  30 H :    0.062375   -0.000002
  31 C :   -0.299488    0.000050
  32 C :   -0.289301    0.000038
  33 C :   -0.182696    0.000006
  34 H :    0.069713   -0.000001
  35 H :    0.052324    0.000006
  36 H :    0.063134    0.000005
  37 H :    0.057096    0.000002
  38 H :    0.061481    0.000013
  39 H :    0.065255   -0.000000

  Mayer bond orders larger than 0.100000
B(  0-V ,  1-S ) :   0.7721 B(  0-V ,  2-S ) :   0.7704 B(  0-V ,  3-S ) :   0.7654
B(  0-V ,  4-S ) :   0.7779 B(  0-V ,  5-O ) :   2.1488 B(  1-S ,  8-C ) :   1.1033
B(  2-S ,  6-C ) :   1.1047 B(  3-S ,  9-C ) :   1.1060 B(  4-S ,  7-C ) :   1.1053
B(  6-C ,  7-C ) :   1.6837 B(  6-C , 10-S ) :   0.9352 B(  7-C , 11-S ) :   0.9397
B(  8-C ,  9-C ) :   1.6987 B(  8-C , 13-S ) :   0.9335 B(  9-C , 12-S ) :   0.9354
B( 10-S , 14-C ) :   1.2494 B( 11-S , 14-C ) :   1.2459 B( 12-S , 15-C ) :   1.2466
B( 13-S , 15-C ) :   1.2467 B( 14-C , 16-C ) :   1.4456 B( 15-C , 17-C ) :   1.4535
B( 16-C , 18-S ) :   1.0540 B( 16-C , 19-S ) :   1.1297 B( 17-C , 20-S ) :   1.0881
B( 17-C , 21-S ) :   1.0886 B( 18-S , 32-C ) :   0.9942 B( 19-S , 31-C ) :   0.9790
B( 20-S , 23-C ) :   0.9915 B( 21-S , 22-C ) :   0.9907 B( 22-C , 24-C ) :   0.9132
B( 22-C , 25-H ) :   0.9657 B( 22-C , 26-H ) :   0.9655 B( 23-C , 24-C ) :   0.9140
B( 23-C , 29-H ) :   0.9656 B( 23-C , 30-H ) :   0.9656 B( 24-C , 27-H ) :   0.9625
B( 24-C , 28-H ) :   0.9718 B( 31-C , 33-C ) :   0.8919 B( 31-C , 38-H ) :   0.9597
B( 31-C , 39-H ) :   0.9747 B( 32-C , 33-C ) :   0.9349 B( 32-C , 34-H ) :   0.9425
B( 32-C , 35-H ) :   0.9692 B( 33-C , 36-H ) :   0.9588 B( 33-C , 37-H ) :   0.9719

FINAL SINGLE POINT ENERGY     -6337.682348415028

DIPOLE MOMENT
-------------
                                X             Y             Z
Electronic contribution:     -1.85603      11.70646       6.71661
Nuclear contribution   :      2.13354     -13.07601      -7.38588
                        -----------------------------------------
Total Dipole Moment    :      0.27752      -1.36955      -0.66927
                        -----------------------------------------
Magnitude (a.u.)       :      1.54939
Magnitude (Debye)      :      3.93824

Rotational constants in cm-1:     0.010760     0.000804     0.000783
Rotational constants in MHz :   322.589221    24.115915    23.486653

                             ****ORCA TERMINATED NORMALLY****
TOTAL RUN TIME: 0 days 1 hours 1 minutes 43 seconds 59 msec
