                         Program Version 5.0.4 -  RELEASE  -
|  1> ! nofrozencore ReducedPop printbasis
|  2> ! B3LYP TZVP
|  3>
|  4> %basis
|  5> newgto V "CP(PPP)" end
|  6> end
|  7>
|  8> %pal
|  9> nprocs 8
| 10> end
| 11>
| 12> % sym SymThresh 1e-2 end
| 13> * xyz -2 2
| 14> V -0.6332943523462063 -0.915180433103296 0.018728160301061683
| 15> S 0.653024960390518 -1.2694969062977435 -2.0642505840390166
| 16> S 1.481456088973137 -1.4384932851797438 1.1939027513203095
| 17> S -1.949209928675291 0.7301690959887294 -1.2821150812792383
| 18> S -1.0763061525295363 0.6214419943323726 1.896912775582807
| 19> O -1.5555304096812603 -2.192388658260899 0.2248127425988651
| 20> C 1.0633474491117307 -0.8653404213308199 2.8031848632724126
| 21> C 0.039901929736453 -0.03680765209620784 3.083876411267882
| 22> C -0.311756099922382 -0.36031181663862305 -3.2194211193544966
| 23> C -1.3476431163604612 0.43937924626291897 -2.9062535012976225
| 24> S 2.1036662744798225 -1.3427721855757488 4.188016133519342
| 25> S -0.1265403648211808 0.48210796039938447 4.793776656198479
| 26> S -2.1339412605537227 1.3030532760772533 -4.270618167104936
| 27> S 0.1287875344218765 -0.451868289511484 -4.958763293452461
| 28> C 1.2666082098349523 -0.4010314329134467 5.428265204953797
| 29> C -1.0691757279565384 0.7067096018632962 -5.548846418626562
| 30> C 1.6469092381500696 -0.3665634172566661 6.741703359741889
| 31> C -1.1684937207513528 1.0930124663945155 -6.856719498247893
| 32> S 3.0250176430598406 -1.3174674127281283 7.352091104998505
| 33> S 0.7672988291488456 0.6062684003607435 7.9482021453740614
| 34> S -0.06882542244751556 0.465459036495251 -8.110650090744628
| 35> S -2.3816067692703813 2.2819260717871113 -7.397309846485122
| 36> C -1.2247910641337185 3.625039737469752 -7.963933433082701
| 37> C 0.7148190658357546 2.060465818436395 -8.58415226633626
| 38> C -0.23803095126774634 3.1397657533225445 -9.045025882186213
| 39> H -0.7886482026216626 3.9251599010444855 -7.26354435934586
| 40> H -1.7281328399509872 4.244795695176517 -8.275694180732383
| 41> H 0.33832812333436185 4.009934424763928 -9.38208854092452
| 42> H -0.8275257277594866 2.751500800382615 -9.953719195711468
| 43> H 1.6169099708415768 1.7359339927703832 -9.610560098058457
| 44> H 1.472441762137747 2.49965204429954 -7.496927326007356
| 45> C 0.18386993530924514 -0.7693065694955156 9.040891145986794
| 46> C 2.099658208942097 -2.407430429193745 8.528687841097778
| 47> C 1.3155094375718028 -1.6380414107369397 9.593759894120733
| 48> H 1.4334837748535987 -3.0514686067574783 7.943456127233727
| 49> H 2.8610355585639238 -3.04009699325108 8.999568771050065
| 50> H 2.0067401836034895 -1.0109171308363056 10.170845038482973
| 51> H 0.8777216211620806 -2.367307460374506 10.289699566591864
| 52> H -0.3551990679031786 -0.2821939470146572 9.857944770838545
| 53> H -0.5289007696153073 -1.373444820061454 8.47332719368848
| 54> *
| 55>
| 56> % eprnmr
| 57> gtensor true
| 58> Nuclei = all H {aiso,adip,aorb,fgrad,rho}
| 59> Nuclei = all V {aiso,adip,aorb,fgrad,rho}
| 60> end
| 61>
| 62>                          ****END OF INPUT****

CARTESIAN COORDINATES (ANGSTROEM)
---------------------------------
  V     -0.630951   -0.912937    0.020771
  S      0.655368   -1.267253   -2.062207
  S      1.483799   -1.436250    1.195946
  S     -1.946867    0.732413   -1.280072
  S     -1.073963    0.623686    1.898956
  O     -1.553187   -2.190145    0.226856
  C      1.065690   -0.863097    2.805228
  C      0.042245   -0.034564    3.085920
  C     -0.309413   -0.358068   -3.217378
  C     -1.345300    0.441623   -2.904210
  S      2.106009   -1.340528    4.190059
  S     -0.124197    0.484352    4.795820
  S     -2.131598    1.305297   -4.268575
  S      0.131130   -0.449625   -4.956720
  C      1.268951   -0.398788    5.430308
  C     -1.066833    0.708953   -5.546803
  C      1.649252   -0.364320    6.743746
  C     -1.166151    1.095256   -6.854676
  S      3.027361   -1.315224    7.354134
  S      0.769642    0.608512    7.950245
  S     -0.066482    0.467703   -8.108607
  S     -2.379264    2.284170   -7.395267
  C     -1.222448    3.627283   -7.961890
  C      0.717162    2.062710   -8.582109
  C     -0.235688    3.142009   -9.042983
  H     -0.786305    3.927404   -7.261501
  H     -1.725790    4.247039   -8.273651
  H      0.340671    4.012178   -9.380045
  H     -0.825183    2.753745   -9.951676
  H      1.619253    1.738178   -9.608517
  H      1.474785    2.501896   -7.494884
  C      0.186213   -0.767063    9.042934
  C      2.102001   -2.405187    8.530731
  C      1.317852   -1.635798    9.595803
  H      1.435827   -3.049225    7.945499
  H      2.863379   -3.037853    9.001612
  H      2.009083   -1.008673   10.172888
  H      0.880065   -2.365064   10.291743
  H     -0.352856   -0.279950    9.859988
  H     -0.526558   -1.371201    8.475370

 Total Charge           Charge          ....   -2
 Multiplicity           Mult            ....    2
 Number of Electrons    NEL             ....  321
 Basis Dimension        Dim             ....  681

ORBITAL ENERGIES
----------------
                 SPIN UP ORBITALS
  NO   OCC          E(Eh)            E(eV)
   0   1.0000    -196.675385     -5351.8093
   1   1.0000     -88.738714     -2414.7032
   2   1.0000     -88.733602     -2414.5641
   3   1.0000     -88.733402     -2414.5586
   4   1.0000     -88.733384     -2414.5581
   5   1.0000     -88.731925     -2414.5184
   6   1.0000     -88.731691     -2414.5121
   7   1.0000     -88.730479     -2414.4791
   8   1.0000     -88.730301     -2414.4743
   9   1.0000     -88.640712     -2412.0364
  10   1.0000     -88.640149     -2412.0211
  11   1.0000     -88.640023     -2412.0176
  12   1.0000     -88.639892     -2412.0141
  13   1.0000     -22.050778      -600.0322
  14   1.0000     -18.890686      -514.0417
  15   1.0000     -18.557225      -504.9678
  16   1.0000     -18.552053      -504.8270
  17   1.0000     -18.551955      -504.8244
  18   1.0000     -10.111904      -275.1589
  19   1.0000     -10.077804      -274.2310
  20   1.0000     -10.076016      -274.1823
  21   1.0000     -10.064328      -273.8643
  22   1.0000     -10.063760      -273.8488
  23   1.0000     -10.059410      -273.7305
  24   1.0000     -10.051756      -273.5222
  25   1.0000     -10.050528      -273.4888
  26   1.0000     -10.048481      -273.4331
  27   1.0000     -10.019962      -272.6570
  28   1.0000     -10.019217      -272.6367
  29   1.0000     -10.018487      -272.6169
  30   1.0000     -10.018403      -272.6146
  31   1.0000     -10.017552      -272.5914
  32   1.0000      -7.791787      -212.0253
  33   1.0000      -7.787131      -211.8986
  34   1.0000      -7.786840      -211.8907
  35   1.0000      -7.786832      -211.8905
  36   1.0000      -7.785169      -211.8452
  37   1.0000      -7.784938      -211.8389
  38   1.0000      -7.783727      -211.8060
  39   1.0000      -7.783600      -211.8025
  40   1.0000      -7.694960      -209.3905
  41   1.0000      -7.694511      -209.3783
  42   1.0000      -7.694374      -209.3746
  43   1.0000      -7.694100      -209.3671
  44   1.0000      -5.756851      -156.6519
  45   1.0000      -5.753358      -156.5568
  46   1.0000      -5.752100      -156.5226
  47   1.0000      -5.751829      -156.5152
  48   1.0000      -5.751824      -156.5151
  49   1.0000      -5.750109      -156.4684
  50   1.0000      -5.749887      -156.4624
  51   1.0000      -5.748695      -156.4299
  52   1.0000      -5.748667      -156.4292
  53   1.0000      -5.748545      -156.4259
  54   1.0000      -5.748421      -156.4225
  55   1.0000      -5.748413      -156.4223
  56   1.0000      -5.746549      -156.3715
  57   1.0000      -5.745662      -156.3474
  58   1.0000      -5.745455      -156.3418
  59   1.0000      -5.744245      -156.3089
  60   1.0000      -5.744109      -156.3052
  61   1.0000      -5.741956      -156.2466
  62   1.0000      -5.741629      -156.2377
  63   1.0000      -5.741622      -156.2375
  64   1.0000      -5.741019      -156.2211
  65   1.0000      -5.740759      -156.2140
  66   1.0000      -5.739553      -156.1812
  67   1.0000      -5.739420      -156.1776
  68   1.0000      -5.660291      -154.0244
  69   1.0000      -5.659819      -154.0115
  70   1.0000      -5.659667      -154.0074
  71   1.0000      -5.659436      -154.0011
  72   1.0000      -5.653620      -153.8428
  73   1.0000      -5.653168      -153.8305
  74   1.0000      -5.653009      -153.8262
  75   1.0000      -5.652778      -153.8199
  76   1.0000      -5.652294      -153.8067
  77   1.0000      -5.651819      -153.7938
  78   1.0000      -5.651695      -153.7904
  79   1.0000      -5.651405      -153.7825
  80   1.0000      -2.444421       -66.5161
  81   1.0000      -1.485722       -40.4286
  82   1.0000      -1.474059       -40.1112
  83   1.0000      -1.473247       -40.0891
  84   1.0000      -0.714033       -19.4298
  85   1.0000      -0.709693       -19.3117
  86   1.0000      -0.691486       -18.8163
  87   1.0000      -0.685789       -18.6613
  88   1.0000      -0.650289       -17.6953
  89   1.0000      -0.639898       -17.4125
  90   1.0000      -0.631516       -17.1844
  91   1.0000      -0.618647       -16.8342
  92   1.0000      -0.617291       -16.7973
  93   1.0000      -0.576375       -15.6840
  94   1.0000      -0.574666       -15.6374
  95   1.0000      -0.574375       -15.6296
  96   1.0000      -0.573209       -15.5978
  97   1.0000      -0.516403       -14.0520
  98   1.0000      -0.496526       -13.5112
  99   1.0000      -0.495952       -13.4955
 100   1.0000      -0.491842       -13.3837
 101   1.0000      -0.482130       -13.1194
 102   1.0000      -0.478170       -13.0117
 103   1.0000      -0.446290       -12.1442
 104   1.0000      -0.432466       -11.7680
 105   1.0000      -0.415258       -11.2997
 106   1.0000      -0.410746       -11.1770
 107   1.0000      -0.369624       -10.0580
 108   1.0000      -0.355340        -9.6693
 109   1.0000      -0.328603        -8.9417
 110   1.0000      -0.326812        -8.8930
 111   1.0000      -0.319580        -8.6962
 112   1.0000      -0.315148        -8.5756
 113   1.0000      -0.310350        -8.4451
 114   1.0000      -0.304085        -8.2746
 115   1.0000      -0.292260        -7.9528
 116   1.0000      -0.285075        -7.7573
 117   1.0000      -0.265836        -7.2338
 118   1.0000      -0.257799        -7.0151
 119   1.0000      -0.256864        -6.9896
 120   1.0000      -0.255051        -6.9403
 121   1.0000      -0.234540        -6.3822
 122   1.0000      -0.233437        -6.3521
 123   1.0000      -0.230743        -6.2788
 124   1.0000      -0.219830        -5.9819
 125   1.0000      -0.218551        -5.9471
 126   1.0000      -0.216985        -5.9045
 127   1.0000      -0.214118        -5.8264
 128   1.0000      -0.202352        -5.5063
 129   1.0000      -0.193804        -5.2737
 130   1.0000      -0.187712        -5.1079
 131   1.0000      -0.186233        -5.0676
 132   1.0000      -0.184017        -5.0074
 133   1.0000      -0.179029        -4.8716
 134   1.0000      -0.160054        -4.3553
 135   1.0000      -0.151897        -4.1333
 136   1.0000      -0.147285        -4.0078
 137   1.0000      -0.136252        -3.7076
 138   1.0000      -0.135274        -3.6810
 139   1.0000      -0.133566        -3.6345
 140   1.0000      -0.125719        -3.4210
 141   1.0000      -0.121698        -3.3116
 142   1.0000      -0.113966        -3.1012
 143   1.0000      -0.110273        -3.0007
 144   1.0000      -0.100520        -2.7353
 145   1.0000      -0.098662        -2.6847
 146   1.0000      -0.098396        -2.6775
 147   1.0000      -0.095264        -2.5923
 148   1.0000      -0.075045        -2.0421
 149   1.0000      -0.069194        -1.8829
 150   1.0000      -0.067652        -1.8409
 151   1.0000      -0.052811        -1.4371
 152   1.0000      -0.046115        -1.2549
 153   1.0000      -0.038437        -1.0459
 154   1.0000      -0.037643        -1.0243
 155   1.0000      -0.032003        -0.8709
 156   1.0000      -0.025550        -0.6952
 157   1.0000      -0.019610        -0.5336
 158   1.0000      -0.015906        -0.4328
 159   1.0000       0.019774         0.5381
 160   1.0000       0.040663         1.1065
 161   0.0000       0.126543         3.4434
 162   0.0000       0.136623         3.7177
 163   0.0000       0.150251         4.0885
 164   0.0000       0.161791         4.4026
 165   0.0000       0.162806         4.4302

                 SPIN DOWN ORBITALS
  NO   OCC          E(Eh)            E(eV)
   0   1.0000    -196.675532     -5351.8133
   1   1.0000     -88.738715     -2414.7032
   2   1.0000     -88.733603     -2414.5641
   3   1.0000     -88.733403     -2414.5586
   4   1.0000     -88.733384     -2414.5581
   5   1.0000     -88.731933     -2414.5187
   6   1.0000     -88.731699     -2414.5123
   7   1.0000     -88.730487     -2414.4793
   8   1.0000     -88.730310     -2414.4745
   9   1.0000     -88.640848     -2412.0401
  10   1.0000     -88.640287     -2412.0248
  11   1.0000     -88.640163     -2412.0215
  12   1.0000     -88.640033     -2412.0179
  13   1.0000     -22.035852      -599.6260
  14   1.0000     -18.894462      -514.1445
  15   1.0000     -18.551962      -504.8246
  16   1.0000     -18.536024      -504.3909
  17   1.0000     -18.535843      -504.3859
  18   1.0000     -10.111904      -275.1589
  19   1.0000     -10.077803      -274.2310
  20   1.0000     -10.076010      -274.1822
  21   1.0000     -10.064327      -273.8643
  22   1.0000     -10.063759      -273.8488
  23   1.0000     -10.059410      -273.7305
  24   1.0000     -10.051756      -273.5222
  25   1.0000     -10.050524      -273.4887
  26   1.0000     -10.048470      -273.4328
  27   1.0000     -10.019962      -272.6570
  28   1.0000     -10.019002      -272.6309
  29   1.0000     -10.018249      -272.6104
  30   1.0000     -10.018192      -272.6089
  31   1.0000     -10.017328      -272.5854
  32   1.0000      -7.791788      -212.0253
  33   1.0000      -7.787132      -211.8986
  34   1.0000      -7.786841      -211.8907
  35   1.0000      -7.786833      -211.8905
  36   1.0000      -7.785179      -211.8455
  37   1.0000      -7.784947      -211.8392
  38   1.0000      -7.783737      -211.8062
  39   1.0000      -7.783610      -211.8028
  40   1.0000      -7.695087      -209.3940
  41   1.0000      -7.694640      -209.3818
  42   1.0000      -7.694505      -209.3781
  43   1.0000      -7.694232      -209.3707
  44   1.0000      -5.756852      -156.6519
  45   1.0000      -5.753358      -156.5568
  46   1.0000      -5.752101      -156.5226
  47   1.0000      -5.751830      -156.5153
  48   1.0000      -5.751826      -156.5151
  49   1.0000      -5.750119      -156.4687
  50   1.0000      -5.749898      -156.4627
  51   1.0000      -5.748696      -156.4300
  52   1.0000      -5.748678      -156.4295
  53   1.0000      -5.748556      -156.4261
  54   1.0000      -5.748422      -156.4225
  55   1.0000      -5.748414      -156.4223
  56   1.0000      -5.746550      -156.3716
  57   1.0000      -5.745676      -156.3478
  58   1.0000      -5.745469      -156.3422
  59   1.0000      -5.744259      -156.3092
  60   1.0000      -5.744123      -156.3055
  61   1.0000      -5.741957      -156.2466
  62   1.0000      -5.741629      -156.2377
  63   1.0000      -5.741623      -156.2375
  64   1.0000      -5.741026      -156.2212
  65   1.0000      -5.740765      -156.2142
  66   1.0000      -5.739560      -156.1814
  67   1.0000      -5.739429      -156.1778
  68   1.0000      -5.660433      -154.0282
  69   1.0000      -5.659960      -154.0154
  70   1.0000      -5.659806      -154.0111
  71   1.0000      -5.659578      -154.0049
  72   1.0000      -5.653969      -153.8523
  73   1.0000      -5.653527      -153.8403
  74   1.0000      -5.653397      -153.8368
  75   1.0000      -5.653161      -153.8303
  76   1.0000      -5.652398      -153.8096
  77   1.0000      -5.651924      -153.7967
  78   1.0000      -5.651781      -153.7928
  79   1.0000      -5.651499      -153.7851
  80   1.0000      -2.399553       -65.2952
  81   1.0000      -1.466445       -39.9040
  82   1.0000      -1.411702       -38.4144
  83   1.0000      -1.411539       -38.4099
  84   1.0000      -0.714024       -19.4296
  85   1.0000      -0.709667       -19.3110
  86   1.0000      -0.691442       -18.8151
  87   1.0000      -0.685733       -18.6597
  88   1.0000      -0.658382       -17.9155
  89   1.0000      -0.639859       -17.4114
  90   1.0000      -0.631440       -17.1824
  91   1.0000      -0.618631       -16.8338
  92   1.0000      -0.617291       -16.7973
  93   1.0000      -0.576351       -15.6833
  94   1.0000      -0.574636       -15.6366
  95   1.0000      -0.574307       -15.6277
  96   1.0000      -0.573129       -15.5956
  97   1.0000      -0.516407       -14.0522
  98   1.0000      -0.496543       -13.5116
  99   1.0000      -0.495998       -13.4968
 100   1.0000      -0.491895       -13.3851
 101   1.0000      -0.482341       -13.1252
 102   1.0000      -0.478417       -13.0184
 103   1.0000      -0.446319       -12.1450
 104   1.0000      -0.432512       -11.7693
 105   1.0000      -0.415261       -11.2998
 106   1.0000      -0.410835       -11.1794
 107   1.0000      -0.369623       -10.0579
 108   1.0000      -0.355330        -9.6690
 109   1.0000      -0.328585        -8.9413
 110   1.0000      -0.326797        -8.8926
 111   1.0000      -0.319503        -8.6941
 112   1.0000      -0.315170        -8.5762
 113   1.0000      -0.310331        -8.4445
 114   1.0000      -0.304044        -8.2735
 115   1.0000      -0.292255        -7.9527
 116   1.0000      -0.285060        -7.7569
 117   1.0000      -0.265773        -7.2321
 118   1.0000      -0.257702        -7.0124
 119   1.0000      -0.256778        -6.9873
 120   1.0000      -0.254995        -6.9388
 121   1.0000      -0.234493        -6.3809
 122   1.0000      -0.233380        -6.3506
 123   1.0000      -0.230704        -6.2778
 124   1.0000      -0.219528        -5.9737
 125   1.0000      -0.218347        -5.9415
 126   1.0000      -0.216854        -5.9009
 127   1.0000      -0.213976        -5.8226
 128   1.0000      -0.202296        -5.5047
 129   1.0000      -0.192064        -5.2263
 130   1.0000      -0.187622        -5.1054
 131   1.0000      -0.185895        -5.0585
 132   1.0000      -0.183824        -5.0021
 133   1.0000      -0.178910        -4.8684
 134   1.0000      -0.159438        -4.3385
 135   1.0000      -0.151725        -4.1286
 136   1.0000      -0.147206        -4.0057
 137   1.0000      -0.135440        -3.6855
 138   1.0000      -0.135139        -3.6773
 139   1.0000      -0.133332        -3.6281
 140   1.0000      -0.125097        -3.4041
 141   1.0000      -0.121365        -3.3025
 142   1.0000      -0.115748        -3.1497
 143   1.0000      -0.111838        -3.0433
 144   1.0000      -0.100539        -2.7358
 145   1.0000      -0.098963        -2.6929
 146   1.0000      -0.098381        -2.6771
 147   1.0000      -0.095594        -2.6012
 148   1.0000      -0.071206        -1.9376
 149   1.0000      -0.069180        -1.8825
 150   1.0000      -0.067656        -1.8410
 151   1.0000      -0.050214        -1.3664
 152   1.0000      -0.045175        -1.2293
 153   1.0000      -0.038474        -1.0469
 154   1.0000      -0.037084        -1.0091
 155   1.0000      -0.032066        -0.8726
 156   1.0000      -0.026578        -0.7232
 157   1.0000      -0.016120        -0.4387
 158   1.0000       0.020077         0.5463
 159   1.0000       0.039554         1.0763
 160   0.0000       0.126544         3.4434
 161   0.0000       0.136631         3.7179
 162   0.0000       0.150005         4.0819
 163   0.0000       0.155927         4.2430
 164   0.0000       0.162433         4.4200

MULLIKEN ATOMIC CHARGES AND SPIN POPULATIONS
--------------------------------------------
   0 V :    0.470898    1.210381
   1 S :   -0.289020   -0.022313
   2 S :   -0.289263   -0.025260
   3 S :   -0.288226   -0.023284
   4 S :   -0.285528   -0.025749
   5 O :   -0.467383   -0.146553
   6 C :   -0.077468    0.009698
   7 C :   -0.084226    0.008071
   8 C :   -0.084510    0.007724
   9 C :   -0.084662    0.007399
  10 S :    0.099823   -0.000586
  11 S :    0.100963   -0.000628
  12 S :    0.103160   -0.000393
  13 S :    0.101928   -0.000344
  14 C :   -0.213605    0.001517
  15 C :   -0.211173    0.001000
  16 C :   -0.191616   -0.000070
  17 C :   -0.192003   -0.000407
  18 S :    0.009606   -0.000115
  19 S :    0.009502   -0.000114
  20 S :    0.042640   -0.000069
  21 S :   -0.009761   -0.000072
  22 C :   -0.347998   -0.000004
  23 C :   -0.252446    0.000003
  24 C :   -0.155873   -0.000014
  25 H :    0.185491   -0.000000
  26 H :    0.163403   -0.000002
  27 H :    0.091500    0.000000
  28 H :    0.084437   -0.000001
  29 H :    0.047426   -0.000001
  30 H :    0.087026   -0.000003
  31 C :   -0.299895    0.000197
  32 C :   -0.300146    0.000192
  33 C :   -0.157633   -0.000241
  34 H :    0.141466   -0.000018
  35 H :    0.112968    0.000020
  36 H :    0.091866    0.000024
  37 H :    0.082964    0.000015
  38 H :    0.113424    0.000020
  39 H :    0.141946   -0.000018
Sum of atomic charges         :   -2.0000000

LOEWDIN ATOMIC CHARGES AND SPIN POPULATIONS
-------------------------------------------
   0 V :   -0.155787    1.163764
   1 S :    0.081155   -0.014366
   2 S :    0.079644   -0.016121
   3 S :    0.081803   -0.015175
   4 S :    0.083327   -0.016349
   5 O :   -0.318786   -0.131469
   6 C :   -0.549885    0.009061
   7 C :   -0.552089    0.007953
   8 C :   -0.551441    0.008137
   9 C :   -0.552304    0.007666
  10 S :    0.471408   -0.000901
  11 S :    0.472270   -0.000950
  12 S :    0.474050   -0.000822
  13 S :    0.473728   -0.000830
  14 C :   -0.465028    0.000157
  15 C :   -0.463731   -0.000080
  16 C :   -0.622645    0.000482
  17 C :   -0.621963    0.000085
  18 S :    0.358928   -0.000091
  19 S :    0.360206   -0.000088
  20 S :    0.372707   -0.000073
  21 S :    0.360472   -0.000076
  22 C :   -0.196901   -0.000008
  23 C :   -0.324037   -0.000007
  24 C :   -0.179354   -0.000002
  25 H :    0.014954   -0.000001
  26 H :   -0.001974   -0.000002
  27 H :    0.060075   -0.000001
  28 H :    0.069031   -0.000001
  29 H :    0.061937   -0.000001
  30 H :    0.075245   -0.000003
  31 C :   -0.284339    0.000044
  32 C :   -0.284779    0.000037
  33 C :   -0.176888    0.000006
  34 H :    0.062649   -0.000001
  35 H :    0.054028    0.000008
  36 H :    0.060648    0.000005
  37 H :    0.057818    0.000002
  38 H :    0.053698    0.000009
  39 H :    0.062151   -0.000001

  Mayer bond orders larger than 0.100000
B(  0-V ,  1-S ) :   0.7707 B(  0-V ,  2-S ) :   0.7722 B(  0-V ,  3-S ) :   0.7637
B(  0-V ,  4-S ) :   0.7793 B(  0-V ,  5-O ) :   2.1490 B(  1-S ,  8-C ) :   1.1060
B(  2-S ,  6-C ) :   1.1043 B(  3-S ,  9-C ) :   1.1071 B(  4-S ,  7-C ) :   1.1042
B(  6-C ,  7-C ) :   1.6847 B(  6-C , 10-S ) :   0.9352 B(  7-C , 11-S ) :   0.9388
B(  8-C ,  9-C ) :   1.6950 B(  8-C , 13-S ) :   0.9353 B(  9-C , 12-S ) :   0.9359
B( 10-S , 14-C ) :   1.2485 B( 11-S , 14-C ) :   1.2483 B( 12-S , 15-C ) :   1.2505
B( 13-S , 15-C ) :   1.2477 B( 14-C , 16-C ) :   1.4515 B( 15-C , 17-C ) :   1.4474
B( 16-C , 18-S ) :   1.0880 B( 16-C , 19-S ) :   1.0894 B( 17-C , 20-S ) :   1.0835
B( 17-C , 21-S ) :   1.0883 B( 18-S , 32-C ) :   0.9917 B( 19-S , 31-C ) :   0.9916
B( 20-S , 23-C ) :   0.9967 B( 21-S , 22-C ) :   0.9658 B( 22-C , 24-C ) :   0.8900
B( 22-C , 25-H ) :   0.9768 B( 22-C , 26-H ) :   0.9753 B( 23-C , 24-C ) :   0.9403
B( 23-C , 29-H ) :   0.9329 B( 23-C , 30-H ) :   0.9246 B( 24-C , 27-H ) :   0.9597
B( 24-C , 28-H ) :   0.9618 B( 31-C , 33-C ) :   0.9136 B( 31-C , 38-H ) :   0.9654
B( 31-C , 39-H ) :   0.9657 B( 32-C , 33-C ) :   0.9136 B( 32-C , 34-H ) :   0.9653
B( 32-C , 35-H ) :   0.9653 B( 33-C , 36-H ) :   0.9714 B( 33-C , 37-H ) :   0.9623

FINAL SINGLE POINT ENERGY     -6337.543845407728

DIPOLE MOMENT
-------------
                                X             Y             Z
Electronic contribution:     -8.27548     -10.51613      -2.94243
Nuclear contribution   :      8.89151      11.73808       3.47051
                        -----------------------------------------
Total Dipole Moment    :      0.61603       1.22195       0.52809
                        -----------------------------------------
Magnitude (a.u.)       :      1.46681
Magnitude (Debye)      :      3.72834

Rotational constants in cm-1:     0.010759     0.000804     0.000783
Rotational constants in MHz :   322.552486    24.115395    23.486258

                             ****ORCA TERMINATED NORMALLY****
TOTAL RUN TIME: 0 days 1 hours 1 minutes 50 seconds 751 msec
