                         Program Version 5.0.4 -  RELEASE  -
|  1> ! nofrozencore ReducedPop printbasis
|  2> ! B3LYP TZVP
|  3>
|  4> %basis
|  5> newgto V "CP(PPP)" end
|  6> end
|  7>
|  8> %pal
|  9> nprocs 8
| 10> end
| 11>
| 12> % sym SymThresh 1e-2 end
| 13> * xyz -2 2
| 14> V 0.27457715238598274 -0.055248447333724 -1.0305329177725562
| 15> S -2.183025116962076 -0.29013899694353507 -1.178787824720935
| 16> S -0.16371435174373622 2.32260077831305 -0.5157328991714049
| 17> S 0.2762427523714286 -2.4056587863212346 -0.2573143427866051
| 18> S 2.2103488126887227 0.16797421266203008 0.47847381869557265
| 19> O 0.8445919516821557 -0.04945009608183427 -2.5132332537295907
| 20> C 1.464161103370165 2.778349213610025 -0.02091721983002822
| 21> C 2.415531040413247 1.9137253319489382 0.38178988809949005
| 22> C -2.371219141211937 -2.023857218997235 -0.944090862157293
| 23> C -1.3898061373295754 -2.8664488539870554 -0.5735239224368415
| 24> S 1.886246281076893 4.522944861258349 0.06901468645358726
| 25> S 3.9541886921505878 2.6326132332274543 0.9643978051479147
| 26> S -1.8564981043150695 -4.585093609019553 -0.33477256300301633
| 27> S -4.005603390830894 -2.7440449056596616 -1.1514723892596386
| 28> C 3.44621391660985 4.324433359120691 0.880574760924211
| 29> C -3.59296744673995 -4.374416822645988 -0.6002511349891694
| 30> C 4.19448119152294 5.369427574285309 1.3662194348686718
| 31> C -4.51280055153059 -5.3705290082701636 -0.4162941729593482
| 32> S 3.715641299331717 7.065608613267635 1.1146404294685035
| 33> S 5.805424347681523 5.118751118874899 2.0808282412093844
| 34> S -6.245998128978894 -5.124204855486155 -0.754384326720984
| 35> S -4.032561075844028 -7.00296101227549 0.11925098366934452
| 36> C -5.044986025641792 -7.100568970478327 1.6661872846512136
| 37> C -6.9243343726032025 -5.517199308851162 0.9229917471262027
| 38> C -6.545157889936262 -6.909265953621673 1.432540001500308
| 39> H -4.662964764677359 -6.357554184796782 2.3708481225283817
| 40> H -4.847196443343538 -8.09410854705105 2.0764043535732357
| 41> H -7.066436941274545 -7.079450843895914 2.3857734428499096
| 42> H -6.902260666389972 -7.665969907818705 0.7258646155240961
| 43> H -8.00920110562524 -5.432971155317092 0.8195766072320101
| 44> H -6.586106101399308 -4.7441390201907705 1.6176437217521564
| 45> C 6.8056512910135005 5.833305662655817 0.6899411415032957
| 46> C 5.012251314288194 7.495781653737589 -0.14286176959653216
| 47> C 6.446019031703469 7.285220067723265 0.35625644093672504
| 48> H 4.81850499097297 6.89956982606617 -1.0400275247736561
| 49> H 4.851872560417134 8.549044968818293 -0.39020049918203703
| 50> H 6.61606874132835 7.9124592828136455 1.2408173835581464
| 51> H 7.13518191393048 7.6350490579739825 -0.42927010705495294
| 52> H 7.849862104477953 5.768653811759401 1.0087877499854505
| 53> H 6.67284090497043 5.186495255152692 -0.1829443366000639
| 54> *
| 55>
| 56> % eprnmr
| 57> gtensor true
| 58> Nuclei = all H {aiso,adip,aorb,fgrad,rho}
| 59> Nuclei = all V {aiso,adip,aorb,fgrad,rho}
| 60> end
| 61>
| 62>                          ****END OF INPUT****

CARTESIAN COORDINATES (ANGSTROEM)
---------------------------------
  V      0.275048   -0.053264   -1.027287
  S     -2.182554   -0.288155   -1.175542
  S     -0.163243    2.324585   -0.512487
  S      0.276714   -2.403674   -0.254068
  S      2.210820    0.169959    0.481720
  O      0.845063   -0.047466   -2.509987
  C      1.464632    2.780334   -0.017671
  C      2.416002    1.915710    0.385036
  C     -2.370748   -2.021873   -0.940845
  C     -1.389335   -2.864465   -0.570278
  S      1.886717    4.524929    0.072261
  S      3.954660    2.634598    0.967644
  S     -1.856027   -4.583109   -0.331526
  S     -4.005132   -2.742061   -1.148226
  C      3.446685    4.326418    0.883821
  C     -3.592496   -4.372433   -0.597005
  C      4.194952    5.371412    1.369466
  C     -4.512330   -5.368545   -0.413048
  S      3.716112    7.067593    1.117887
  S      5.805895    5.120735    2.084075
  S     -6.245527   -5.122221   -0.751138
  S     -4.032090   -7.000977    0.122497
  C     -5.044515   -7.098585    1.669434
  C     -6.923863   -5.515215    0.926238
  C     -6.544687   -6.907282    1.435786
  H     -4.662494   -6.355570    2.374094
  H     -4.846725   -8.092124    2.079651
  H     -7.065966   -7.077467    2.389020
  H     -6.901790   -7.663986    0.729111
  H     -8.008730   -5.430987    0.822823
  H     -6.585635   -4.742155    1.620890
  C      6.806122    5.835290    0.693187
  C      5.012722    7.497766   -0.139615
  C      6.446490    7.287204    0.359503
  H      4.818976    6.901554   -1.036781
  H      4.852344    8.551029   -0.386954
  H      6.616540    7.914444    1.244064
  H      7.135653    7.637033   -0.426024
  H      7.850333    5.770638    1.012034
  H      6.673312    5.188480   -0.179698

 Total Charge           Charge          ....   -2
 Multiplicity           Mult            ....    2
 Number of Electrons    NEL             ....  321
 Basis Dimension        Dim             ....  681

ORBITAL ENERGIES
----------------
                 SPIN UP ORBITALS
  NO   OCC          E(Eh)            E(eV)
   0   1.0000    -196.673678     -5351.7629
   1   1.0000     -88.734112     -2414.5779
   2   1.0000     -88.733908     -2414.5724
   3   1.0000     -88.731936     -2414.5187
   4   1.0000     -88.731923     -2414.5184
   5   1.0000     -88.730498     -2414.4796
   6   1.0000     -88.730492     -2414.4794
   7   1.0000     -88.729393     -2414.4495
   8   1.0000     -88.729281     -2414.4465
   9   1.0000     -88.639837     -2412.0126
  10   1.0000     -88.639490     -2412.0031
  11   1.0000     -88.639476     -2412.0028
  12   1.0000     -88.638942     -2411.9882
  13   1.0000     -22.049061      -599.9855
  14   1.0000     -18.889496      -514.0093
  15   1.0000     -18.555552      -504.9222
  16   1.0000     -18.550305      -504.7795
  17   1.0000     -18.550223      -504.7772
  18   1.0000     -10.076912      -274.2067
  19   1.0000     -10.075471      -274.1675
  20   1.0000     -10.064278      -273.8629
  21   1.0000     -10.064162      -273.8598
  22   1.0000     -10.062442      -273.8130
  23   1.0000     -10.062388      -273.8115
  24   1.0000     -10.052028      -273.5296
  25   1.0000     -10.050873      -273.4981
  26   1.0000     -10.049832      -273.4698
  27   1.0000     -10.047926      -273.4180
  28   1.0000     -10.018475      -272.6166
  29   1.0000     -10.017566      -272.5918
  30   1.0000     -10.017478      -272.5894
  31   1.0000     -10.016677      -272.5677
  32   1.0000      -7.787525      -211.9093
  33   1.0000      -7.787319      -211.9037
  34   1.0000      -7.785380      -211.8510
  35   1.0000      -7.785364      -211.8505
  36   1.0000      -7.783703      -211.8053
  37   1.0000      -7.783668      -211.8044
  38   1.0000      -7.782627      -211.7761
  39   1.0000      -7.782544      -211.7738
  40   1.0000      -7.694082      -209.3666
  41   1.0000      -7.693723      -209.3569
  42   1.0000      -7.693696      -209.3561
  43   1.0000      -7.693256      -209.3441
  44   1.0000      -5.752515      -156.5339
  45   1.0000      -5.752312      -156.5284
  46   1.0000      -5.750393      -156.4761
  47   1.0000      -5.750382      -156.4758
  48   1.0000      -5.749090      -156.4407
  49   1.0000      -5.748894      -156.4354
  50   1.0000      -5.748625      -156.4280
  51   1.0000      -5.748601      -156.4274
  52   1.0000      -5.747587      -156.3998
  53   1.0000      -5.747502      -156.3975
  54   1.0000      -5.746972      -156.3831
  55   1.0000      -5.746960      -156.3827
  56   1.0000      -5.744229      -156.3084
  57   1.0000      -5.744201      -156.3077
  58   1.0000      -5.743168      -156.2796
  59   1.0000      -5.743082      -156.2772
  60   1.0000      -5.742329      -156.2567
  61   1.0000      -5.742111      -156.2508
  62   1.0000      -5.740136      -156.1970
  63   1.0000      -5.740130      -156.1969
  64   1.0000      -5.739549      -156.1811
  65   1.0000      -5.739510      -156.1800
  66   1.0000      -5.738413      -156.1502
  67   1.0000      -5.738339      -156.1482
  68   1.0000      -5.659405      -154.0002
  69   1.0000      -5.659042      -153.9904
  70   1.0000      -5.659036      -153.9902
  71   1.0000      -5.658560      -153.9772
  72   1.0000      -5.652695      -153.8176
  73   1.0000      -5.652377      -153.8090
  74   1.0000      -5.652319      -153.8074
  75   1.0000      -5.651919      -153.7965
  76   1.0000      -5.651441      -153.7835
  77   1.0000      -5.651071      -153.7735
  78   1.0000      -5.651021      -153.7721
  79   1.0000      -5.650595      -153.7605
  80   1.0000      -2.442800       -66.4720
  81   1.0000      -1.484288       -40.3895
  82   1.0000      -1.472230       -40.0614
  83   1.0000      -1.471742       -40.0481
  84   1.0000      -0.709143       -19.2968
  85   1.0000      -0.708560       -19.2809
  86   1.0000      -0.685431       -18.6515
  87   1.0000      -0.683977       -18.6120
  88   1.0000      -0.649039       -17.6612
  89   1.0000      -0.631429       -17.1821
  90   1.0000      -0.629732       -17.1359
  91   1.0000      -0.617728       -16.8092
  92   1.0000      -0.615091       -16.7375
  93   1.0000      -0.573807       -15.6141
  94   1.0000      -0.573474       -15.6050
  95   1.0000      -0.572980       -15.5916
  96   1.0000      -0.572021       -15.5655
  97   1.0000      -0.496675       -13.5152
  98   1.0000      -0.496286       -13.5046
  99   1.0000      -0.494404       -13.4534
 100   1.0000      -0.493661       -13.4332
 101   1.0000      -0.479306       -13.0426
 102   1.0000      -0.476674       -12.9710
 103   1.0000      -0.446951       -12.1622
 104   1.0000      -0.444541       -12.0966
 105   1.0000      -0.416001       -11.3200
 106   1.0000      -0.410753       -11.1772
 107   1.0000      -0.355859        -9.6834
 108   1.0000      -0.353116        -9.6088
 109   1.0000      -0.326962        -8.8971
 110   1.0000      -0.324883        -8.8405
 111   1.0000      -0.318155        -8.6574
 112   1.0000      -0.313568        -8.5326
 113   1.0000      -0.303970        -8.2715
 114   1.0000      -0.303084        -8.2473
 115   1.0000      -0.292831        -7.9683
 116   1.0000      -0.290454        -7.9037
 117   1.0000      -0.257967        -7.0196
 118   1.0000      -0.257746        -7.0136
 119   1.0000      -0.255612        -6.9556
 120   1.0000      -0.254792        -6.9333
 121   1.0000      -0.235344        -6.4040
 122   1.0000      -0.232608        -6.3296
 123   1.0000      -0.231339        -6.2950
 124   1.0000      -0.228600        -6.2205
 125   1.0000      -0.221031        -6.0146
 126   1.0000      -0.217657        -5.9228
 127   1.0000      -0.213619        -5.8129
 128   1.0000      -0.209998        -5.7143
 129   1.0000      -0.192753        -5.2451
 130   1.0000      -0.187529        -5.1029
 131   1.0000      -0.184596        -5.0231
 132   1.0000      -0.183919        -5.0047
 133   1.0000      -0.179343        -4.8802
 134   1.0000      -0.159001        -4.3266
 135   1.0000      -0.151589        -4.1249
 136   1.0000      -0.146967        -3.9992
 137   1.0000      -0.135023        -3.6742
 138   1.0000      -0.133223        -3.6252
 139   1.0000      -0.132815        -3.6141
 140   1.0000      -0.124284        -3.3819
 141   1.0000      -0.120372        -3.2755
 142   1.0000      -0.112539        -3.0623
 143   1.0000      -0.108765        -2.9596
 144   1.0000      -0.098801        -2.6885
 145   1.0000      -0.097283        -2.6472
 146   1.0000      -0.097059        -2.6411
 147   1.0000      -0.094000        -2.5579
 148   1.0000      -0.073772        -2.0075
 149   1.0000      -0.068264        -1.8576
 150   1.0000      -0.065568        -1.7842
 151   1.0000      -0.051937        -1.4133
 152   1.0000      -0.044984        -1.2241
 153   1.0000      -0.038375        -1.0443
 154   1.0000      -0.036595        -0.9958
 155   1.0000      -0.031855        -0.8668
 156   1.0000      -0.024110        -0.6561
 157   1.0000      -0.018105        -0.4927
 158   1.0000      -0.015475        -0.4211
 159   1.0000       0.020580         0.5600
 160   1.0000       0.040910         1.1132
 161   0.0000       0.135118         3.6768
 162   0.0000       0.137303         3.7362
 163   0.0000       0.161589         4.3971
 164   0.0000       0.162967         4.4345
 165   0.0000       0.170875         4.6497

                 SPIN DOWN ORBITALS
  NO   OCC          E(Eh)            E(eV)
   0   1.0000    -196.673824     -5351.7668
   1   1.0000     -88.734112     -2414.5780
   2   1.0000     -88.733908     -2414.5724
   3   1.0000     -88.731936     -2414.5187
   4   1.0000     -88.731924     -2414.5184
   5   1.0000     -88.730506     -2414.4798
   6   1.0000     -88.730500     -2414.4797
   7   1.0000     -88.729401     -2414.4498
   8   1.0000     -88.729289     -2414.4467
   9   1.0000     -88.639967     -2412.0161
  10   1.0000     -88.639625     -2412.0068
  11   1.0000     -88.639608     -2412.0064
  12   1.0000     -88.639079     -2411.9920
  13   1.0000     -22.034147      -599.5796
  14   1.0000     -18.893285      -514.1124
  15   1.0000     -18.550295      -504.7792
  16   1.0000     -18.534217      -504.3417
  17   1.0000     -18.534191      -504.3410
  18   1.0000     -10.076902      -274.2064
  19   1.0000     -10.075470      -274.1675
  20   1.0000     -10.064278      -273.8629
  21   1.0000     -10.064162      -273.8598
  22   1.0000     -10.062442      -273.8130
  23   1.0000     -10.062388      -273.8115
  24   1.0000     -10.052028      -273.5296
  25   1.0000     -10.050872      -273.4981
  26   1.0000     -10.049827      -273.4697
  27   1.0000     -10.047919      -273.4178
  28   1.0000     -10.018223      -272.6097
  29   1.0000     -10.017331      -272.5854
  30   1.0000     -10.017267      -272.5837
  31   1.0000     -10.016469      -272.5620
  32   1.0000      -7.787525      -211.9093
  33   1.0000      -7.787320      -211.9037
  34   1.0000      -7.785380      -211.8510
  35   1.0000      -7.785364      -211.8505
  36   1.0000      -7.783712      -211.8056
  37   1.0000      -7.783677      -211.8046
  38   1.0000      -7.782637      -211.7763
  39   1.0000      -7.782554      -211.7741
  40   1.0000      -7.694202      -209.3699
  41   1.0000      -7.693849      -209.3603
  42   1.0000      -7.693820      -209.3595
  43   1.0000      -7.693384      -209.3476
  44   1.0000      -5.752516      -156.5339
  45   1.0000      -5.752313      -156.5284
  46   1.0000      -5.750394      -156.4762
  47   1.0000      -5.750382      -156.4759
  48   1.0000      -5.749091      -156.4407
  49   1.0000      -5.748895      -156.4354
  50   1.0000      -5.748636      -156.4283
  51   1.0000      -5.748612      -156.4277
  52   1.0000      -5.747598      -156.4001
  53   1.0000      -5.747513      -156.3978
  54   1.0000      -5.746972      -156.3831
  55   1.0000      -5.746960      -156.3827
  56   1.0000      -5.744242      -156.3088
  57   1.0000      -5.744215      -156.3080
  58   1.0000      -5.743183      -156.2799
  59   1.0000      -5.743096      -156.2776
  60   1.0000      -5.742329      -156.2567
  61   1.0000      -5.742112      -156.2508
  62   1.0000      -5.740137      -156.1971
  63   1.0000      -5.740130      -156.1969
  64   1.0000      -5.739558      -156.1813
  65   1.0000      -5.739517      -156.1802
  66   1.0000      -5.738420      -156.1503
  67   1.0000      -5.738346      -156.1483
  68   1.0000      -5.659535      -154.0038
  69   1.0000      -5.659183      -153.9942
  70   1.0000      -5.659171      -153.9939
  71   1.0000      -5.658699      -153.9810
  72   1.0000      -5.653082      -153.8282
  73   1.0000      -5.652722      -153.8184
  74   1.0000      -5.652703      -153.8179
  75   1.0000      -5.652273      -153.8062
  76   1.0000      -5.651492      -153.7849
  77   1.0000      -5.651174      -153.7763
  78   1.0000      -5.651084      -153.7738
  79   1.0000      -5.650698      -153.7633
  80   1.0000      -2.397983       -65.2524
  81   1.0000      -1.465037       -39.8657
  82   1.0000      -1.410277       -38.3756
  83   1.0000      -1.409774       -38.3619
  84   1.0000      -0.709129       -19.2964
  85   1.0000      -0.708529       -19.2801
  86   1.0000      -0.685389       -18.6504
  87   1.0000      -0.683911       -18.6102
  88   1.0000      -0.657166       -17.8824
  89   1.0000      -0.631373       -17.1805
  90   1.0000      -0.629651       -17.1337
  91   1.0000      -0.617729       -16.8093
  92   1.0000      -0.615091       -16.7375
  93   1.0000      -0.573767       -15.6130
  94   1.0000      -0.573452       -15.6044
  95   1.0000      -0.572897       -15.5893
  96   1.0000      -0.571934       -15.5631
  97   1.0000      -0.496694       -13.5157
  98   1.0000      -0.496325       -13.5057
  99   1.0000      -0.494441       -13.4544
 100   1.0000      -0.493673       -13.4335
 101   1.0000      -0.479486       -13.0475
 102   1.0000      -0.476911       -12.9774
 103   1.0000      -0.446969       -12.1626
 104   1.0000      -0.444577       -12.0976
 105   1.0000      -0.415988       -11.3196
 106   1.0000      -0.410843       -11.1796
 107   1.0000      -0.355854        -9.6833
 108   1.0000      -0.353104        -9.6085
 109   1.0000      -0.326951        -8.8968
 110   1.0000      -0.324867        -8.8401
 111   1.0000      -0.318067        -8.6550
 112   1.0000      -0.313582        -8.5330
 113   1.0000      -0.303920        -8.2701
 114   1.0000      -0.303055        -8.2466
 115   1.0000      -0.292827        -7.9682
 116   1.0000      -0.290447        -7.9035
 117   1.0000      -0.257850        -7.0165
 118   1.0000      -0.257636        -7.0106
 119   1.0000      -0.255582        -6.9547
 120   1.0000      -0.254751        -6.9321
 121   1.0000      -0.235303        -6.4029
 122   1.0000      -0.232596        -6.3292
 123   1.0000      -0.231294        -6.2938
 124   1.0000      -0.228567        -6.2196
 125   1.0000      -0.220765        -6.0073
 126   1.0000      -0.217305        -5.9132
 127   1.0000      -0.213565        -5.8114
 128   1.0000      -0.209805        -5.7091
 129   1.0000      -0.191162        -5.2018
 130   1.0000      -0.187471        -5.1013
 131   1.0000      -0.184384        -5.0174
 132   1.0000      -0.183474        -4.9926
 133   1.0000      -0.179232        -4.8772
 134   1.0000      -0.158360        -4.3092
 135   1.0000      -0.151426        -4.1205
 136   1.0000      -0.146892        -3.9971
 137   1.0000      -0.134503        -3.6600
 138   1.0000      -0.132762        -3.6127
 139   1.0000      -0.132416        -3.6032
 140   1.0000      -0.123776        -3.3681
 141   1.0000      -0.120072        -3.2673
 142   1.0000      -0.114427        -3.1137
 143   1.0000      -0.110326        -3.0021
 144   1.0000      -0.098759        -2.6874
 145   1.0000      -0.097356        -2.6492
 146   1.0000      -0.097267        -2.6468
 147   1.0000      -0.094292        -2.5658
 148   1.0000      -0.069991        -1.9046
 149   1.0000      -0.068250        -1.8572
 150   1.0000      -0.065566        -1.7842
 151   1.0000      -0.049353        -1.3430
 152   1.0000      -0.044190        -1.2025
 153   1.0000      -0.038332        -1.0431
 154   1.0000      -0.035971        -0.9788
 155   1.0000      -0.031743        -0.8638
 156   1.0000      -0.025132        -0.6839
 157   1.0000      -0.015617        -0.4250
 158   1.0000       0.020656         0.5621
 159   1.0000       0.039538         1.0759
 160   0.0000       0.135153         3.6777
 161   0.0000       0.137305         3.7363
 162   0.0000       0.156993         4.2720
 163   0.0000       0.162238         4.4147
 164   0.0000       0.163920         4.4605

MULLIKEN ATOMIC CHARGES AND SPIN POPULATIONS
--------------------------------------------
   0 V :    0.468817    1.207113
   1 S :   -0.292197   -0.022041
   2 S :   -0.287509   -0.024505
   3 S :   -0.289965   -0.022964
   4 S :   -0.283807   -0.024720
   5 O :   -0.466457   -0.146717
   6 C :   -0.076665    0.010450
   7 C :   -0.080642    0.008510
   8 C :   -0.083933    0.007628
   9 C :   -0.085496    0.007174
  10 S :    0.100850   -0.000598
  11 S :    0.102418   -0.000644
  12 S :    0.096524   -0.000413
  13 S :    0.095439   -0.000365
  14 C :   -0.223333    0.001931
  15 C :   -0.208776    0.000993
  16 C :   -0.181296   -0.000328
  17 C :   -0.192572   -0.000320
  18 S :    0.004885   -0.000077
  19 S :    0.005290   -0.000077
  20 S :    0.010603   -0.000073
  21 S :    0.010642   -0.000075
  22 C :   -0.301010    0.000012
  23 C :   -0.300130    0.000010
  24 C :   -0.155709   -0.000030
  25 H :    0.142175   -0.000002
  26 H :    0.114383   -0.000001
  27 H :    0.084087    0.000000
  28 H :    0.092269    0.000002
  29 H :    0.113929   -0.000002
  30 H :    0.141620   -0.000002
  31 C :   -0.297360    0.000153
  32 C :   -0.297749    0.000144
  33 C :   -0.169388   -0.000201
  34 H :    0.145206   -0.000008
  35 H :    0.112991    0.000012
  36 H :    0.092307    0.000007
  37 H :    0.081733    0.000020
  38 H :    0.112748    0.000015
  39 H :    0.145075   -0.000011
Sum of atomic charges         :   -2.0000000

LOEWDIN ATOMIC CHARGES AND SPIN POPULATIONS
-------------------------------------------
   0 V :   -0.159405    1.160755
   1 S :    0.078742   -0.014210
   2 S :    0.079479   -0.015137
   3 S :    0.080628   -0.014959
   4 S :    0.082936   -0.015186
   5 O :   -0.317967   -0.131626
   6 C :   -0.548169    0.009626
   7 C :   -0.550276    0.008262
   8 C :   -0.551491    0.008016
   9 C :   -0.551705    0.007520
  10 S :    0.470963   -0.000828
  11 S :    0.472240   -0.000902
  12 S :    0.468374   -0.000846
  13 S :    0.467262   -0.000845
  14 C :   -0.461526    0.000355
  15 C :   -0.465732   -0.000034
  16 C :   -0.625433    0.000186
  17 C :   -0.617762    0.000122
  18 S :    0.355713   -0.000073
  19 S :    0.356801   -0.000069
  20 S :    0.360277   -0.000074
  21 S :    0.359600   -0.000076
  22 C :   -0.283462   -0.000002
  23 C :   -0.283685   -0.000004
  24 C :   -0.176194   -0.000002
  25 H :    0.062326   -0.000001
  26 H :    0.053891   -0.000001
  27 H :    0.058092   -0.000001
  28 H :    0.060450    0.000000
  29 H :    0.053868   -0.000001
  30 H :    0.062075   -0.000001
  31 C :   -0.283394    0.000014
  32 C :   -0.283055    0.000007
  33 C :   -0.176461    0.000007
  34 H :    0.063432   -0.000001
  35 H :    0.053277    0.000004
  36 H :    0.060426    0.000001
  37 H :    0.058330    0.000000
  38 H :    0.053308    0.000005
  39 H :    0.063227   -0.000001

  Mayer bond orders larger than 0.100000
B(  0-V ,  1-S ) :   0.7706 B(  0-V ,  2-S ) :   0.7709 B(  0-V ,  3-S ) :   0.7645
B(  0-V ,  4-S ) :   0.7783 B(  0-V ,  5-O ) :   2.1523 B(  1-S ,  8-C ) :   1.0996
B(  2-S ,  6-C ) :   1.0991 B(  3-S ,  9-C ) :   1.1020 B(  4-S ,  7-C ) :   1.0981
B(  6-C ,  7-C ) :   1.6794 B(  6-C , 10-S ) :   0.9345 B(  7-C , 11-S ) :   0.9381
B(  8-C ,  9-C ) :   1.7003 B(  8-C , 13-S ) :   0.9322 B(  9-C , 12-S ) :   0.9350
B( 10-S , 14-C ) :   1.2445 B( 11-S , 14-C ) :   1.2458 B( 12-S , 15-C ) :   1.2381
B( 13-S , 15-C ) :   1.2387 B( 14-C , 16-C ) :   1.4432 B( 15-C , 17-C ) :   1.4684
B( 16-C , 18-S ) :   1.0826 B( 16-C , 19-S ) :   1.0852 B( 17-C , 20-S ) :   1.0865
B( 17-C , 21-S ) :   1.0876 B( 18-S , 32-C ) :   0.9939 B( 19-S , 31-C ) :   0.9942
B( 20-S , 23-C ) :   0.9898 B( 21-S , 22-C ) :   0.9888 B( 22-C , 24-C ) :   0.9112
B( 22-C , 25-H ) :   0.9647 B( 22-C , 26-H ) :   0.9661 B( 23-C , 24-C ) :   0.9119
B( 23-C , 29-H ) :   0.9662 B( 23-C , 30-H ) :   0.9645 B( 24-C , 27-H ) :   0.9626
B( 24-C , 28-H ) :   0.9723 B( 31-C , 33-C ) :   0.9161 B( 31-C , 38-H ) :   0.9649
B( 31-C , 39-H ) :   0.9678 B( 32-C , 33-C ) :   0.9155 B( 32-C , 34-H ) :   0.9679
B( 32-C , 35-H ) :   0.9649 B( 33-C , 36-H ) :   0.9709 B( 33-C , 37-H ) :   0.9614

FINAL SINGLE POINT ENERGY     -6337.705530060423

DIPOLE MOMENT
-------------
                                X             Y             Z
Electronic contribution:      1.18096      -2.51889     -12.95781
Nuclear contribution   :     -1.35736       2.69428      14.30212
                        -----------------------------------------
Total Dipole Moment    :     -0.17640       0.17539       1.34430
                        -----------------------------------------
Magnitude (a.u.)       :      1.36713
Magnitude (Debye)      :      3.47496

Rotational constants in cm-1:     0.010756     0.000806     0.000785
Rotational constants in MHz :   322.455157    24.155742    23.527482

                             ****ORCA TERMINATED NORMALLY****
TOTAL RUN TIME: 0 days 1 hours 2 minutes 3 seconds 837 msec
