                         Program Version 5.0.4 -  RELEASE  -
|  1> ! nofrozencore ReducedPop printbasis
|  2> ! B3LYP TZVP
|  3>
|  4> %basis
|  5> newgto V "CP(PPP)" end
|  6> end
|  7>
|  8> %pal
|  9> nprocs 6
| 10> end
| 11>
| 12> % sym SymThresh 1e-2 end
| 13> * xyz -2 2
| 14> V -0.6884745473495287 -0.4376968054121401 -0.7571918195014186
| 15> S 1.5063583471515085 -0.8171676897532245 -1.8341527312468697
| 16> S -0.03254985642873726 -2.2471113434065555 0.7999611228266368
| 17> S -0.4164248457712916 1.9244248412234293 -1.4497398294854613
| 18> S -1.8589236151426232 0.5442667738129666 1.1799901560942387
| 19> O -1.793713775731406 -1.0776833540977986 -1.702905640870892
| 20> C -1.219621295754648 -2.0235842991626734 2.05027876455985
| 21> C -1.985209327309842 -0.8474093166975113 2.211775110052616
| 22> C 1.8092833463543687 0.6564891948991999 -2.6468881472135046
| 23> C 0.9509686384686119 1.8825261786446497 -2.471780945244688
| 24> S -1.4875860739851932 -3.2833691309994193 3.2844867282920234
| 25> S -3.068971555362068 -0.8233260728163219 3.6256508190307546
| 26> S 1.511008173422675 3.2891531636278537 -3.379185495050064
| 27> S 3.185527479198141 0.8924652550292154 -3.7278737979085568
| 28> C -2.6369549591642514 -2.3871682656013893 4.200924713929389
| 29> C 2.836568969863122 2.496163283943482 -3.991387384590872
| 30> C -3.2716997849120317 -2.9665482851404787 5.471333775316823
| 31> C 3.9583392353786726 3.4264504812005896 -4.991679690068969
| 32> S -2.850179789436916 -4.572065192430337 5.991423955133811
| 33> S -4.421987160623617 -2.0144664499660827 6.3641739948312175
| 34> S 5.286396638189533 2.5859465233914283 -5.597657656282598
| 35> S 3.5738353965578273 5.051259924733424 -5.2224449386324245
| 36> C 5.092531413177013 5.721992509721756 -4.387947593286804
| 37> C 6.569031120440196 3.601267105846991 -4.717192288518102
| 38> C 6.395489242432115 5.115782743122685 -4.950831824009902
| 39> H 5.067032582493537 5.283026275614663 -3.3589499426171767
| 40> H 5.066377398164046 6.7562012117871495 -4.820362377299694
| 41> H 7.277324768813845 5.6700440172000155 -4.567319196562992
| 42> H 6.531183623369342 5.37539555099134 -6.012929629223064
| 43> H 7.452625279510437 3.3237345390589845 -5.34437653609533
| 44> H 6.318385739607691 3.503573775596162 -3.6338635625277727
| 45> C -5.880644095192258 -3.1386682720213654 6.156566545775562
| 46> C -4.537937579033859 -5.3235946283861955 5.829919414666033
| 47> C -5.614586201001634 -4.573985353645141 6.628789782767194
| 48> H -4.816994295022505 -5.249952688782945 4.772456764725099
| 49> H -4.402830932167655 -6.306804912236428 6.296338868311261
| 50> H -5.366427081598453 -4.581166953551126 7.69695527600166
| 51> H -6.555483606368657 -5.146504154391673 6.591319285754789
| 52> H -6.626378329967824 -2.6919499369978825 6.822835385905842
| 53> H -6.103537921894862 -3.1797709401550467 5.0854492860144465
| 54> *
| 55>
| 56> % eprnmr
| 57> gtensor true
| 58> Nuclei = all H {aiso,adip,aorb,fgrad,rho}
| 59> Nuclei = all V {aiso,adip,aorb,fgrad,rho}
| 60> end
| 61>
| 62>                          ****END OF INPUT****

CARTESIAN COORDINATES (ANGSTROEM)
---------------------------------
  V     -0.687558   -0.437580   -0.753471
  S      1.507275   -0.817051   -1.830432
  S     -0.031634   -2.246995    0.803682
  S     -0.415509    1.924541   -1.446019
  S     -1.858007    0.544383    1.183711
  O     -1.792798   -1.077567   -1.699185
  C     -1.218705   -2.023468    2.054000
  C     -1.984293   -0.847293    2.215496
  C      1.810200    0.656606   -2.643167
  C      0.951885    1.882643   -2.468060
  S     -1.486670   -3.283253    3.288207
  S     -3.068055   -0.823210    3.629372
  S      1.511924    3.289270   -3.375465
  S      3.186444    0.892582   -3.724153
  C     -2.636039   -2.387052    4.204645
  C      2.837485    2.496280   -3.987667
  C     -3.270784   -2.966432    5.475055
  C      3.959256    3.426567   -4.987959
  S     -2.849264   -4.571949    5.995145
  S     -4.421071   -2.014350    6.367895
  S      5.287313    2.586063   -5.593937
  S      3.574752    5.051376   -5.218724
  C      5.093448    5.722109   -4.384227
  C      6.569947    3.601383   -4.713472
  C      6.396406    5.115899   -4.947111
  H      5.067949    5.283143   -3.355229
  H      5.067294    6.756318   -4.816642
  H      7.278241    5.670160   -4.563598
  H      6.532100    5.375512   -6.009209
  H      7.453542    3.323851   -5.340656
  H      6.319302    3.503690   -3.630143
  C     -5.879728   -3.138552    6.160287
  C     -4.537021   -5.323478    5.833640
  C     -5.613670   -4.573869    6.632511
  H     -4.816078   -5.249836    4.776178
  H     -4.401915   -6.306689    6.300060
  H     -5.365511   -4.581051    7.700676
  H     -6.554567   -5.146388    6.595040
  H     -6.625462   -2.691834    6.826556
  H     -6.102622   -3.179655    5.089170

 Total Charge           Charge          ....   -2
 Multiplicity           Mult            ....    2
 Number of Electrons    NEL             ....  321
 Basis Dimension        Dim             ....  681

ORBITAL ENERGIES
----------------
                 SPIN UP ORBITALS
  NO   OCC          E(Eh)            E(eV)
   0   1.0000    -196.689678     -5352.1982
   1   1.0000     -88.752996     -2415.0918
   2   1.0000     -88.752912     -2415.0895
   3   1.0000     -88.744901     -2414.8715
   4   1.0000     -88.744716     -2414.8665
   5   1.0000     -88.728431     -2414.4234
   6   1.0000     -88.728281     -2414.4193
   7   1.0000     -88.714316     -2414.0393
   8   1.0000     -88.714195     -2414.0360
   9   1.0000     -88.656577     -2412.4681
  10   1.0000     -88.656172     -2412.4571
  11   1.0000     -88.653394     -2412.3815
  12   1.0000     -88.653211     -2412.3765
  13   1.0000     -22.065010      -600.4194
  14   1.0000     -18.904934      -514.4294
  15   1.0000     -18.571261      -505.3497
  16   1.0000     -18.566405      -505.2176
  17   1.0000     -18.566250      -505.2134
  18   1.0000     -10.086496      -274.4675
  19   1.0000     -10.076206      -274.1875
  20   1.0000     -10.059290      -273.7272
  21   1.0000     -10.058724      -273.7118
  22   1.0000     -10.047900      -273.4173
  23   1.0000     -10.047300      -273.4009
  24   1.0000     -10.046238      -273.3720
  25   1.0000     -10.045679      -273.3568
  26   1.0000     -10.043976      -273.3105
  27   1.0000     -10.043715      -273.3034
  28   1.0000     -10.035790      -273.0877
  29   1.0000     -10.035076      -273.0683
  30   1.0000     -10.031360      -272.9672
  31   1.0000     -10.026450      -272.8336
  32   1.0000      -7.807333      -212.4483
  33   1.0000      -7.807297      -212.4474
  34   1.0000      -7.798588      -212.2104
  35   1.0000      -7.798448      -212.2066
  36   1.0000      -7.782219      -211.7650
  37   1.0000      -7.782073      -211.7610
  38   1.0000      -7.768549      -211.3930
  39   1.0000      -7.768409      -211.3892
  40   1.0000      -7.711669      -209.8452
  41   1.0000      -7.711355      -209.8366
  42   1.0000      -7.708028      -209.7461
  43   1.0000      -7.707766      -209.7390
  44   1.0000      -5.771349      -157.0464
  45   1.0000      -5.771314      -157.0454
  46   1.0000      -5.767384      -156.9385
  47   1.0000      -5.767339      -156.9373
  48   1.0000      -5.764412      -156.8576
  49   1.0000      -5.764376      -156.8566
  50   1.0000      -5.763099      -156.8219
  51   1.0000      -5.762950      -156.8178
  52   1.0000      -5.758936      -156.7086
  53   1.0000      -5.758797      -156.7048
  54   1.0000      -5.754956      -156.6003
  55   1.0000      -5.754808      -156.5963
  56   1.0000      -5.747122      -156.3871
  57   1.0000      -5.746984      -156.3834
  58   1.0000      -5.743596      -156.2912
  59   1.0000      -5.743449      -156.2872
  60   1.0000      -5.737287      -156.1195
  61   1.0000      -5.737134      -156.1154
  62   1.0000      -5.733357      -156.0126
  63   1.0000      -5.733217      -156.0088
  64   1.0000      -5.729606      -155.9105
  65   1.0000      -5.729473      -155.9069
  66   1.0000      -5.724009      -155.7582
  67   1.0000      -5.723875      -155.7546
  68   1.0000      -5.676488      -154.4651
  69   1.0000      -5.676155      -154.4560
  70   1.0000      -5.673106      -154.3731
  71   1.0000      -5.672868      -154.3666
  72   1.0000      -5.670210      -154.2943
  73   1.0000      -5.669882      -154.2853
  74   1.0000      -5.669484      -154.2745
  75   1.0000      -5.669165      -154.2658
  76   1.0000      -5.666648      -154.1973
  77   1.0000      -5.666412      -154.1909
  78   1.0000      -5.665534      -154.1670
  79   1.0000      -5.665253      -154.1594
  80   1.0000      -2.458805       -66.9075
  81   1.0000      -1.499789       -40.8113
  82   1.0000      -1.488713       -40.5100
  83   1.0000      -1.487690       -40.4821
  84   1.0000      -0.717946       -19.5363
  85   1.0000      -0.712303       -19.3827
  86   1.0000      -0.690542       -18.7906
  87   1.0000      -0.682290       -18.5661
  88   1.0000      -0.663998       -18.0683
  89   1.0000      -0.622682       -16.9440
  90   1.0000      -0.614910       -16.7325
  91   1.0000      -0.613449       -16.6928
  92   1.0000      -0.605765       -16.4837
  93   1.0000      -0.600278       -16.3344
  94   1.0000      -0.594411       -16.1747
  95   1.0000      -0.582572       -15.8526
  96   1.0000      -0.580900       -15.8071
  97   1.0000      -0.515497       -14.0274
  98   1.0000      -0.504023       -13.7152
  99   1.0000      -0.486348       -13.2342
 100   1.0000      -0.480966       -13.0878
 101   1.0000      -0.474240       -12.9047
 102   1.0000      -0.455468       -12.3939
 103   1.0000      -0.442894       -12.0518
 104   1.0000      -0.430437       -11.7128
 105   1.0000      -0.403264       -10.9734
 106   1.0000      -0.379784       -10.3345
 107   1.0000      -0.361955        -9.8493
 108   1.0000      -0.360781        -9.8174
 109   1.0000      -0.335002        -9.1159
 110   1.0000      -0.326496        -8.8844
 111   1.0000      -0.322541        -8.7768
 112   1.0000      -0.298821        -8.1313
 113   1.0000      -0.297905        -8.1064
 114   1.0000      -0.297804        -8.1037
 115   1.0000      -0.292370        -7.9558
 116   1.0000      -0.278917        -7.5897
 117   1.0000      -0.257686        -7.0120
 118   1.0000      -0.257015        -6.9937
 119   1.0000      -0.248729        -6.7683
 120   1.0000      -0.246567        -6.7094
 121   1.0000      -0.233125        -6.3436
 122   1.0000      -0.228403        -6.2152
 123   1.0000      -0.218618        -5.9489
 124   1.0000      -0.217970        -5.9313
 125   1.0000      -0.215116        -5.8536
 126   1.0000      -0.212699        -5.7878
 127   1.0000      -0.206469        -5.6183
 128   1.0000      -0.204803        -5.5730
 129   1.0000      -0.190844        -5.1931
 130   1.0000      -0.190107        -5.1731
 131   1.0000      -0.188037        -5.1168
 132   1.0000      -0.182125        -4.9559
 133   1.0000      -0.173337        -4.7167
 134   1.0000      -0.166508        -4.5309
 135   1.0000      -0.165665        -4.5080
 136   1.0000      -0.158223        -4.3055
 137   1.0000      -0.153698        -4.1823
 138   1.0000      -0.144974        -3.9449
 139   1.0000      -0.143147        -3.8952
 140   1.0000      -0.134715        -3.6658
 141   1.0000      -0.130066        -3.5393
 142   1.0000      -0.124934        -3.3996
 143   1.0000      -0.123334        -3.3561
 144   1.0000      -0.114631        -3.1193
 145   1.0000      -0.112747        -3.0680
 146   1.0000      -0.095396        -2.5959
 147   1.0000      -0.084258        -2.2928
 148   1.0000      -0.079213        -2.1555
 149   1.0000      -0.068828        -1.8729
 150   1.0000      -0.065992        -1.7957
 151   1.0000      -0.056763        -1.5446
 152   1.0000      -0.056716        -1.5433
 153   1.0000      -0.053206        -1.4478
 154   1.0000      -0.044455        -1.2097
 155   1.0000      -0.034211        -0.9309
 156   1.0000      -0.032646        -0.8884
 157   1.0000      -0.027699        -0.7537
 158   1.0000      -0.005865        -0.1596
 159   1.0000       0.019824         0.5394
 160   1.0000       0.037645         1.0244
 161   0.0000       0.120838         3.2882
 162   0.0000       0.124542         3.3889
 163   0.0000       0.157669         4.2904
 164   0.0000       0.159197         4.3320
 165   0.0000       0.161502         4.3947

                 SPIN DOWN ORBITALS
  NO   OCC          E(Eh)            E(eV)
   0   1.0000    -196.689822     -5352.2022
   1   1.0000     -88.753002     -2415.0920
   2   1.0000     -88.752917     -2415.0896
   3   1.0000     -88.744911     -2414.8718
   4   1.0000     -88.744726     -2414.8668
   5   1.0000     -88.728432     -2414.4234
   6   1.0000     -88.728282     -2414.4193
   7   1.0000     -88.714315     -2414.0392
   8   1.0000     -88.714195     -2414.0360
   9   1.0000     -88.656708     -2412.4717
  10   1.0000     -88.656305     -2412.4607
  11   1.0000     -88.653535     -2412.3853
  12   1.0000     -88.653353     -2412.3804
  13   1.0000     -22.050049      -600.0123
  14   1.0000     -18.908754      -514.5334
  15   1.0000     -18.565957      -505.2054
  16   1.0000     -18.550319      -504.7798
  17   1.0000     -18.550147      -504.7752
  18   1.0000     -10.086488      -274.4673
  19   1.0000     -10.076218      -274.1878
  20   1.0000     -10.059287      -273.7271
  21   1.0000     -10.058722      -273.7117
  22   1.0000     -10.047901      -273.4173
  23   1.0000     -10.047301      -273.4010
  24   1.0000     -10.046215      -273.3714
  25   1.0000     -10.045679      -273.3568
  26   1.0000     -10.043782      -273.3052
  27   1.0000     -10.043521      -273.2981
  28   1.0000     -10.035558      -273.0814
  29   1.0000     -10.034866      -273.0626
  30   1.0000     -10.031360      -272.9672
  31   1.0000     -10.026447      -272.8335
  32   1.0000      -7.807340      -212.4485
  33   1.0000      -7.807304      -212.4475
  34   1.0000      -7.798599      -212.2107
  35   1.0000      -7.798459      -212.2069
  36   1.0000      -7.782220      -211.7650
  37   1.0000      -7.782074      -211.7610
  38   1.0000      -7.768549      -211.3930
  39   1.0000      -7.768409      -211.3892
  40   1.0000      -7.711792      -209.8485
  41   1.0000      -7.711480      -209.8400
  42   1.0000      -7.708159      -209.7497
  43   1.0000      -7.707898      -209.7426
  44   1.0000      -5.771360      -157.0467
  45   1.0000      -5.771325      -157.0457
  46   1.0000      -5.767394      -156.9388
  47   1.0000      -5.767350      -156.9376
  48   1.0000      -5.764411      -156.8576
  49   1.0000      -5.764374      -156.8566
  50   1.0000      -5.763111      -156.8222
  51   1.0000      -5.762963      -156.8182
  52   1.0000      -5.758950      -156.7090
  53   1.0000      -5.758811      -156.7052
  54   1.0000      -5.754967      -156.6006
  55   1.0000      -5.754820      -156.5966
  56   1.0000      -5.747123      -156.3872
  57   1.0000      -5.746985      -156.3834
  58   1.0000      -5.743597      -156.2912
  59   1.0000      -5.743450      -156.2872
  60   1.0000      -5.737287      -156.1195
  61   1.0000      -5.737135      -156.1154
  62   1.0000      -5.733356      -156.0126
  63   1.0000      -5.733216      -156.0087
  64   1.0000      -5.729606      -155.9105
  65   1.0000      -5.729473      -155.9069
  66   1.0000      -5.724008      -155.7582
  67   1.0000      -5.723875      -155.7545
  68   1.0000      -5.676622      -154.4687
  69   1.0000      -5.676288      -154.4597
  70   1.0000      -5.673243      -154.3768
  71   1.0000      -5.673008      -154.3704
  72   1.0000      -5.670530      -154.3030
  73   1.0000      -5.670212      -154.2943
  74   1.0000      -5.669597      -154.2776
  75   1.0000      -5.669279      -154.2689
  76   1.0000      -5.667039      -154.2080
  77   1.0000      -5.666798      -154.2014
  78   1.0000      -5.665622      -154.1694
  79   1.0000      -5.665347      -154.1619
  80   1.0000      -2.413842       -65.6840
  81   1.0000      -1.480350       -40.2824
  82   1.0000      -1.426286       -38.8112
  83   1.0000      -1.425949       -38.8020
  84   1.0000      -0.717920       -19.5356
  85   1.0000      -0.712249       -19.3813
  86   1.0000      -0.690513       -18.7898
  87   1.0000      -0.682288       -18.5660
  88   1.0000      -0.672220       -18.2920
  89   1.0000      -0.622624       -16.9425
  90   1.0000      -0.614906       -16.7324
  91   1.0000      -0.613432       -16.6923
  92   1.0000      -0.605739       -16.4830
  93   1.0000      -0.600275       -16.3343
  94   1.0000      -0.594389       -16.1741
  95   1.0000      -0.582520       -15.8512
  96   1.0000      -0.580835       -15.8053
  97   1.0000      -0.515686       -14.0325
  98   1.0000      -0.504242       -13.7211
  99   1.0000      -0.486393       -13.2354
 100   1.0000      -0.480996       -13.0886
 101   1.0000      -0.474245       -12.9049
 102   1.0000      -0.455513       -12.3951
 103   1.0000      -0.442941       -12.0530
 104   1.0000      -0.430495       -11.7144
 105   1.0000      -0.403282       -10.9738
 106   1.0000      -0.379778       -10.3343
 107   1.0000      -0.361942        -9.8489
 108   1.0000      -0.360779        -9.8173
 109   1.0000      -0.334942        -9.1142
 110   1.0000      -0.326507        -8.8847
 111   1.0000      -0.322507        -8.7759
 112   1.0000      -0.298764        -8.1298
 113   1.0000      -0.297894        -8.1061
 114   1.0000      -0.297795        -8.1034
 115   1.0000      -0.292369        -7.9558
 116   1.0000      -0.278910        -7.5895
 117   1.0000      -0.257643        -7.0108
 118   1.0000      -0.256656        -6.9840
 119   1.0000      -0.248489        -6.7617
 120   1.0000      -0.246546        -6.7089
 121   1.0000      -0.233051        -6.3416
 122   1.0000      -0.228355        -6.2139
 123   1.0000      -0.218453        -5.9444
 124   1.0000      -0.217890        -5.9291
 125   1.0000      -0.215036        -5.8514
 126   1.0000      -0.212674        -5.7872
 127   1.0000      -0.205273        -5.5858
 128   1.0000      -0.204425        -5.5627
 129   1.0000      -0.190344        -5.1795
 130   1.0000      -0.189919        -5.1680
 131   1.0000      -0.187558        -5.1037
 132   1.0000      -0.182118        -4.9557
 133   1.0000      -0.173188        -4.7127
 134   1.0000      -0.166076        -4.5192
 135   1.0000      -0.165375        -4.5001
 136   1.0000      -0.158155        -4.3036
 137   1.0000      -0.153690        -4.1821
 138   1.0000      -0.144583        -3.9343
 139   1.0000      -0.141401        -3.8477
 140   1.0000      -0.135312        -3.6820
 141   1.0000      -0.131239        -3.5712
 142   1.0000      -0.125380        -3.4118
 143   1.0000      -0.124073        -3.3762
 144   1.0000      -0.114928        -3.1273
 145   1.0000      -0.113814        -3.0970
 146   1.0000      -0.095438        -2.5970
 147   1.0000      -0.080277        -2.1844
 148   1.0000      -0.079001        -2.1497
 149   1.0000      -0.067282        -1.8308
 150   1.0000      -0.065033        -1.7696
 151   1.0000      -0.056785        -1.5452
 152   1.0000      -0.055835        -1.5194
 153   1.0000      -0.052668        -1.4332
 154   1.0000      -0.045346        -1.2339
 155   1.0000      -0.033018        -0.8985
 156   1.0000      -0.028023        -0.7625
 157   1.0000      -0.006022        -0.1639
 158   1.0000       0.019842         0.5399
 159   1.0000       0.036897         1.0040
 160   0.0000       0.120831         3.2880
 161   0.0000       0.124495         3.3877
 162   0.0000       0.141874         3.8606
 163   0.0000       0.161991         4.4080
 164   0.0000       0.167513         4.5582

MULLIKEN ATOMIC CHARGES AND SPIN POPULATIONS
--------------------------------------------
   0 V :    0.454652    1.211761
   1 S :   -0.247762   -0.020732
   2 S :   -0.269030   -0.025435
   3 S :   -0.245355   -0.021723
   4 S :   -0.265230   -0.025924
   5 O :   -0.458611   -0.148002
   6 C :   -0.100987    0.009254
   7 C :   -0.106231    0.007426
   8 C :   -0.140384    0.006170
   9 C :   -0.139928    0.005893
  10 S :    0.152847   -0.000736
  11 S :    0.154002   -0.000742
  12 S :    0.217619    0.000092
  13 S :    0.216702    0.000128
  14 C :   -0.177634    0.001137
  15 C :   -0.197172   -0.000220
  16 C :   -0.295266    0.001123
  17 C :   -0.362858    0.000403
  18 S :    0.011717   -0.000123
  19 S :    0.011758   -0.000118
  20 S :    0.013819    0.000039
  21 S :    0.013192    0.000040
  22 C :   -0.279359   -0.000034
  23 C :   -0.280577   -0.000038
  24 C :   -0.165314    0.000038
  25 H :    0.135542    0.000010
  26 H :    0.083770   -0.000022
  27 H :    0.078806   -0.000003
  28 H :    0.063630   -0.000014
  29 H :    0.083904   -0.000022
  30 H :    0.134055    0.000010
  31 C :   -0.292948    0.000287
  32 C :   -0.293525    0.000283
  33 C :   -0.157984   -0.000295
  34 H :    0.138152   -0.000024
  35 H :    0.105678    0.000040
  36 H :    0.081062    0.000035
  37 H :    0.083107    0.000020
  38 H :    0.105115    0.000040
  39 H :    0.137028   -0.000023
Sum of atomic charges         :   -2.0000000

LOEWDIN ATOMIC CHARGES AND SPIN POPULATIONS
-------------------------------------------
   0 V :   -0.155757    1.165112
   1 S :    0.123731   -0.013090
   2 S :    0.099126   -0.016179
   3 S :    0.125572   -0.013928
   4 S :    0.102643   -0.016445
   5 O :   -0.314168   -0.132715
   6 C :   -0.560131    0.008617
   7 C :   -0.562363    0.007287
   8 C :   -0.577107    0.007005
   9 C :   -0.576890    0.006525
  10 S :    0.522393   -0.001082
  11 S :    0.523204   -0.001110
  12 S :    0.587311   -0.000567
  13 S :    0.586457   -0.000582
  14 C :   -0.499024    0.000331
  15 C :   -0.562418   -0.000545
  16 C :   -0.687452    0.001056
  17 C :   -0.762265    0.000220
  18 S :    0.361811   -0.000072
  19 S :    0.363474   -0.000067
  20 S :    0.366717    0.000021
  21 S :    0.365847    0.000023
  22 C :   -0.301833   -0.000023
  23 C :   -0.300972   -0.000025
  24 C :   -0.196873   -0.000005
  25 H :    0.068816   -0.000001
  26 H :    0.053946   -0.000008
  27 H :    0.051274   -0.000003
  28 H :    0.047076   -0.000005
  29 H :    0.053036   -0.000007
  30 H :    0.067376   -0.000001
  31 C :   -0.285230    0.000105
  32 C :   -0.284817    0.000096
  33 C :   -0.182832    0.000009
  34 H :    0.063479    0.000001
  35 H :    0.052523    0.000017
  36 H :    0.055352    0.000008
  37 H :    0.054875    0.000005
  38 H :    0.051905    0.000017
  39 H :    0.062185    0.000002

  Mayer bond orders larger than 0.100000
B(  0-V ,  1-S ) :   0.7641 B(  0-V ,  2-S ) :   0.7794 B(  0-V ,  3-S ) :   0.7574
B(  0-V ,  4-S ) :   0.7863 B(  0-V ,  5-O ) :   2.1539 B(  1-S ,  8-C ) :   1.1591
B(  2-S ,  6-C ) :   1.1243 B(  3-S ,  9-C ) :   1.1635 B(  4-S ,  7-C ) :   1.1242
B(  6-C ,  7-C ) :   1.5801 B(  6-C , 10-S ) :   0.9652 B(  7-C , 11-S ) :   0.9688
B(  8-C ,  9-C ) :   1.4441 B(  8-C , 13-S ) :   1.0053 B(  9-C , 12-S ) :   1.0065
B( 10-S , 14-C ) :   1.2669 B( 11-S , 14-C ) :   1.2663 B( 12-S , 15-C ) :   1.3126
B( 13-S , 15-C ) :   1.3124 B( 14-C , 16-C ) :   1.2700 B( 15-C , 17-C ) :   1.0044
B( 16-C , 18-S ) :   1.1349 B( 16-C , 19-S ) :   1.1351 B( 17-C , 20-S ) :   1.2009
B( 17-C , 21-S ) :   1.2007 B( 18-S , 32-C ) :   0.9836 B( 19-S , 31-C ) :   0.9826
B( 20-S , 23-C ) :   0.9618 B( 21-S , 22-C ) :   0.9617 B( 22-C , 24-C ) :   0.9336
B( 22-C , 25-H ) :   0.9530 B( 22-C , 26-H ) :   0.9447 B( 23-C , 24-C ) :   0.9340
B( 23-C , 29-H ) :   0.9461 B( 23-C , 30-H ) :   0.9532 B( 24-C , 27-H ) :   0.9626
B( 24-C , 28-H ) :   0.9552 B( 31-C , 33-C ) :   0.9183 B( 31-C , 38-H ) :   0.9629
B( 31-C , 39-H ) :   0.9644 B( 32-C , 33-C ) :   0.9171 B( 32-C , 34-H ) :   0.9639
B( 32-C , 35-H ) :   0.9623 B( 33-C , 36-H ) :   0.9652 B( 33-C , 37-H ) :   0.9643

FINAL SINGLE POINT ENERGY     -6337.550273015406

DIPOLE MOMENT
-------------
                                X             Y             Z
Electronic contribution:     -7.05558      -4.88901     -10.79449
Nuclear contribution   :      6.73941       4.57861      12.43670
                        -----------------------------------------
Total Dipole Moment    :     -0.31617      -0.31040       1.64220
                        -----------------------------------------
Magnitude (a.u.)       :      1.70092
Magnitude (Debye)      :      4.32341

Rotational constants in cm-1:     0.010751     0.000804     0.000783
Rotational constants in MHz :   322.292758    24.108647    23.476399

                             ****ORCA TERMINATED NORMALLY****
TOTAL RUN TIME: 0 days 1 hours 9 minutes 15 seconds 96 msec
