                         Program Version 5.0.4 -  RELEASE  -
|  1> ! nofrozencore ReducedPop printbasis
|  2> ! B3LYP TZVP
|  3>
|  4> %basis
|  5> newgto V "CP(PPP)" end
|  6> end
|  7>
|  8> %pal
|  9> nprocs 8
| 10> end
| 11>
| 12> % sym SymThresh 1e-2 end
| 13> * xyz -2 2
| 14> V -0.0979285353593572 0.06544544512636298 -1.0913565620619061
| 15> S 2.2613760686339073 -0.6880387238046863 -0.9794858640955841
| 16> S -0.6587011447312606 -2.194104976839319 -0.36471167057918435
| 17> S 0.6124612558656829 2.366223742001373 -0.48300929682093163
| 18> S -2.1001887251543323 0.6468342594645629 0.1584008693901389
| 19> O -0.4860926672536722 0.11243319691908728 -2.63058704840474
| 20> C -2.419253544571753 -2.0490363493332753 -0.1913265239766108
| 21> C -3.0196692970935812 -0.8651356662182611 0.03070965269162533
| 22> C 2.991555308873107 0.8714252670331215 -0.5148460157206057
| 23> C 2.357721846065006 2.0449331517361484 -0.3214598557258475
| 24> S -3.3617088449264823 -3.5261802343112465 0.2728361433841584
| 25> S -4.669828692300136 -0.9251440021050098 0.7751570422401697
| 26> S 3.412854183991377 3.523957536552448 -0.34229702179502985
| 27> S 4.787240772085864 0.9787459342590574 -0.7684176008135783
| 28> C -4.837419456070983 -2.687252819383877 0.7737785529312061
| 29> C 4.9839603782166355 2.7053310457571853 -0.4147692218186326
| 30> C -6.011515293268646 -3.3291412675237098 1.0599704567872685
| 31> C 6.192104241974312 3.3217055224454892 -0.18675711419079039
| 32> S -6.1620060946201844 -5.103936890857928 0.956726068952979
| 33> S -7.475474791375075 -2.4236829145213807 1.5285129357443863
| 34> S 7.767032076306799 2.477796955574651 -0.2746869346716192
| 35> S 6.355424364244276 5.065392595864852 0.17872889350573046
| 36> C 7.114591591060303 4.945284332583839 1.8682489713817179
| 37> C 8.330725328298447 2.71742267169336 1.4775266574111703
| 38> C 8.4396268600071 4.1804011400924095 1.9143353712107956
| 39> H 6.378575487769825 4.4875454429360415 2.533096111623068
| 40> H 7.261665150447299 5.9809799840937865 2.185583528807512
| 41> H 8.813162001850927 4.202652808944545 2.9494943386003496
| 42> H 9.179760922194479 4.6942501542510735 1.2902358948889687
| 43> H 9.308805053807195 2.232030093641007 1.5275267056753983
| 44> H 7.645189415054329 2.1683858266962512 2.12686292972327
| 45> C -8.587523032241997 -2.9394863496295405 0.14142370274406835
| 46> C -7.473253960788528 -5.196188983393388 -0.34749255363787884
| 47> C -8.758793384001471 -4.454760696382906 0.023430029751207265
| 48> H -7.056083235216636 -4.807501071003714 -1.2793527781882024
| 49> H -7.671563927242745 -6.262714125212111 -0.4800454853236035
| 50> H -9.149962572392187 -4.852685005710214 0.9653134385174592
| 51> H -9.509119114105268 -4.656312768824284 -0.7541679561263205
| 52> H -9.54747844529418 -2.4610779069998516 0.35103715790247636
| 53> H -8.191722084833874 -2.5200655396371756 -0.786433167690796
| 54> *
| 55>
| 56> % eprnmr
| 57> gtensor true
| 58> Nuclei = all H {aiso,adip,aorb,fgrad,rho}
| 59> Nuclei = all V {aiso,adip,aorb,fgrad,rho}
| 60> end
| 61>
| 62>                          ****END OF INPUT****

CARTESIAN COORDINATES (ANGSTROEM)
---------------------------------
  V     -0.099415    0.064108   -1.088086
  S      2.259889   -0.689376   -0.976215
  S     -0.660188   -2.195442   -0.361441
  S      0.610974    2.364886   -0.479738
  S     -2.101676    0.645497    0.161672
  O     -0.487580    0.111096   -2.627316
  C     -2.420740   -2.050374   -0.188055
  C     -3.021156   -0.866473    0.033981
  C      2.990068    0.870088   -0.511575
  C      2.356235    2.043596   -0.318189
  S     -3.363196   -3.527518    0.276107
  S     -4.671316   -0.926481    0.778428
  S      3.411367    3.522620   -0.339026
  S      4.785754    0.977408   -0.765147
  C     -4.838906   -2.688590    0.777050
  C      4.982474    2.703994   -0.411498
  C     -6.013002   -3.330479    1.063241
  C      6.190617    3.320368   -0.183486
  S     -6.163493   -5.105274    0.959997
  S     -7.476962   -2.425020    1.531784
  S      7.765545    2.476459   -0.271416
  S      6.353938    5.064055    0.182000
  C      7.113105    4.943947    1.871520
  C      8.329238    2.716085    1.480798
  C      8.438140    4.179064    1.917606
  H      6.377089    4.486208    2.536367
  H      7.260178    5.979642    2.188855
  H      8.811675    4.201315    2.952765
  H      9.178274    4.692913    1.293507
  H      9.307318    2.230693    1.530798
  H      7.643703    2.167048    2.130134
  C     -8.589010   -2.940824    0.144695
  C     -7.474741   -5.197526   -0.344222
  C     -8.760280   -4.456098    0.026701
  H     -7.057570   -4.808839   -1.276082
  H     -7.673051   -6.264052   -0.476774
  H     -9.151449   -4.854022    0.968584
  H     -9.510606   -4.657650   -0.750897
  H     -9.548965   -2.462415    0.354308
  H     -8.193209   -2.521403   -0.783162

 Total Charge           Charge          ....   -2
 Multiplicity           Mult            ....    2
 Number of Electrons    NEL             ....  321
 Basis Dimension        Dim             ....  681

ORBITAL ENERGIES
----------------
                 SPIN UP ORBITALS
  NO   OCC          E(Eh)            E(eV)
   0   1.0000    -196.671309     -5351.6984
   1   1.0000     -88.734394     -2414.5856
   2   1.0000     -88.734377     -2414.5851
   3   1.0000     -88.732181     -2414.5254
   4   1.0000     -88.731963     -2414.5195
   5   1.0000     -88.730584     -2414.4819
   6   1.0000     -88.730371     -2414.4762
   7   1.0000     -88.728159     -2414.4160
   8   1.0000     -88.728152     -2414.4158
   9   1.0000     -88.642276     -2412.0790
  10   1.0000     -88.641772     -2412.0653
  11   1.0000     -88.640044     -2412.0182
  12   1.0000     -88.639748     -2412.0102
  13   1.0000     -22.046650      -599.9198
  14   1.0000     -18.888979      -513.9952
  15   1.0000     -18.553296      -504.8609
  16   1.0000     -18.547824      -504.7119
  17   1.0000     -18.547728      -504.7094
  18   1.0000     -10.076827      -274.2044
  19   1.0000     -10.076127      -274.1853
  20   1.0000     -10.064581      -273.8712
  21   1.0000     -10.064541      -273.8701
  22   1.0000     -10.063019      -273.8287
  23   1.0000     -10.062975      -273.8275
  24   1.0000     -10.052255      -273.5358
  25   1.0000     -10.051875      -273.5254
  26   1.0000     -10.051572      -273.5172
  27   1.0000     -10.050623      -273.4913
  28   1.0000     -10.023294      -272.7477
  29   1.0000     -10.022510      -272.7264
  30   1.0000     -10.020048      -272.6594
  31   1.0000     -10.019044      -272.6320
  32   1.0000      -7.787830      -211.9176
  33   1.0000      -7.787822      -211.9174
  34   1.0000      -7.785482      -211.8537
  35   1.0000      -7.785273      -211.8480
  36   1.0000      -7.783525      -211.8005
  37   1.0000      -7.783309      -211.7946
  38   1.0000      -7.781075      -211.7338
  39   1.0000      -7.781061      -211.7334
  40   1.0000      -7.696004      -209.4189
  41   1.0000      -7.695549      -209.4065
  42   1.0000      -7.694165      -209.3689
  43   1.0000      -7.693871      -209.3609
  44   1.0000      -5.752856      -156.5432
  45   1.0000      -5.752849      -156.5430
  46   1.0000      -5.750516      -156.4795
  47   1.0000      -5.750312      -156.4739
  48   1.0000      -5.749379      -156.4486
  49   1.0000      -5.749364      -156.4481
  50   1.0000      -5.748486      -156.4243
  51   1.0000      -5.748269      -156.4184
  52   1.0000      -5.747061      -156.3855
  53   1.0000      -5.746851      -156.3798
  54   1.0000      -5.746127      -156.3601
  55   1.0000      -5.746111      -156.3596
  56   1.0000      -5.744120      -156.3055
  57   1.0000      -5.743913      -156.2998
  58   1.0000      -5.742608      -156.2643
  59   1.0000      -5.742603      -156.2642
  60   1.0000      -5.741622      -156.2375
  61   1.0000      -5.741619      -156.2374
  62   1.0000      -5.740240      -156.1999
  63   1.0000      -5.740024      -156.1940
  64   1.0000      -5.739313      -156.1746
  65   1.0000      -5.739089      -156.1686
  66   1.0000      -5.736812      -156.1066
  67   1.0000      -5.736810      -156.1065
  68   1.0000      -5.661538      -154.0583
  69   1.0000      -5.661073      -154.0456
  70   1.0000      -5.659594      -154.0054
  71   1.0000      -5.659318      -153.9979
  72   1.0000      -5.654661      -153.8711
  73   1.0000      -5.654212      -153.8589
  74   1.0000      -5.653237      -153.8324
  75   1.0000      -5.652750      -153.8191
  76   1.0000      -5.652705      -153.8179
  77   1.0000      -5.652420      -153.8102
  78   1.0000      -5.651508      -153.7854
  79   1.0000      -5.651183      -153.7765
  80   1.0000      -2.440778       -66.4170
  81   1.0000      -1.482873       -40.3510
  82   1.0000      -1.470181       -40.0057
  83   1.0000      -1.469587       -39.9895
  84   1.0000      -0.709343       -19.3022
  85   1.0000      -0.705146       -19.1880
  86   1.0000      -0.684736       -18.6326
  87   1.0000      -0.682366       -18.5681
  88   1.0000      -0.648624       -17.6500
  89   1.0000      -0.631399       -17.1812
  90   1.0000      -0.628824       -17.1112
  91   1.0000      -0.618335       -16.8258
  92   1.0000      -0.614089       -16.7102
  93   1.0000      -0.573538       -15.6068
  94   1.0000      -0.571249       -15.5445
  95   1.0000      -0.570703       -15.5296
  96   1.0000      -0.568512       -15.4700
  97   1.0000      -0.496800       -13.5186
  98   1.0000      -0.495777       -13.4908
  99   1.0000      -0.493340       -13.4245
 100   1.0000      -0.493039       -13.4163
 101   1.0000      -0.477431       -12.9916
 102   1.0000      -0.473995       -12.8981
 103   1.0000      -0.447489       -12.1768
 104   1.0000      -0.444452       -12.0942
 105   1.0000      -0.418484       -11.3875
 106   1.0000      -0.412189       -11.2162
 107   1.0000      -0.356082        -9.6895
 108   1.0000      -0.354732        -9.6528
 109   1.0000      -0.327565        -8.9135
 110   1.0000      -0.324857        -8.8398
 111   1.0000      -0.317065        -8.6278
 112   1.0000      -0.311425        -8.4743
 113   1.0000      -0.303687        -8.2637
 114   1.0000      -0.302901        -8.2424
 115   1.0000      -0.293224        -7.9790
 116   1.0000      -0.291009        -7.9188
 117   1.0000      -0.258218        -7.0265
 118   1.0000      -0.257462        -7.0059
 119   1.0000      -0.255600        -6.9552
 120   1.0000      -0.255397        -6.9497
 121   1.0000      -0.235871        -6.4184
 122   1.0000      -0.233838        -6.3631
 123   1.0000      -0.232043        -6.3142
 124   1.0000      -0.228143        -6.2081
 125   1.0000      -0.221306        -6.0220
 126   1.0000      -0.219169        -5.9639
 127   1.0000      -0.210096        -5.7170
 128   1.0000      -0.205264        -5.5855
 129   1.0000      -0.194676        -5.2974
 130   1.0000      -0.186161        -5.0657
 131   1.0000      -0.183416        -4.9910
 132   1.0000      -0.182299        -4.9606
 133   1.0000      -0.178211        -4.8494
 134   1.0000      -0.158965        -4.3257
 135   1.0000      -0.150164        -4.0862
 136   1.0000      -0.145502        -3.9593
 137   1.0000      -0.137058        -3.7295
 138   1.0000      -0.133854        -3.6424
 139   1.0000      -0.130233        -3.5438
 140   1.0000      -0.124367        -3.3842
 141   1.0000      -0.118875        -3.2347
 142   1.0000      -0.110474        -3.0062
 143   1.0000      -0.109228        -2.9722
 144   1.0000      -0.097762        -2.6602
 145   1.0000      -0.097573        -2.6551
 146   1.0000      -0.094015        -2.5583
 147   1.0000      -0.093965        -2.5569
 148   1.0000      -0.074884        -2.0377
 149   1.0000      -0.068325        -1.8592
 150   1.0000      -0.062782        -1.7084
 151   1.0000      -0.053409        -1.4533
 152   1.0000      -0.046710        -1.2710
 153   1.0000      -0.039005        -1.0614
 154   1.0000      -0.035812        -0.9745
 155   1.0000      -0.032929        -0.8960
 156   1.0000      -0.021947        -0.5972
 157   1.0000      -0.014781        -0.4022
 158   1.0000      -0.012081        -0.3287
 159   1.0000       0.017199         0.4680
 160   1.0000       0.036491         0.9930
 161   0.0000       0.136795         3.7224
 162   0.0000       0.136869         3.7244
 163   0.0000       0.160825         4.3763
 164   0.0000       0.163348         4.4449
 165   0.0000       0.168465         4.5842

                 SPIN DOWN ORBITALS
  NO   OCC          E(Eh)            E(eV)
   0   1.0000    -196.671453     -5351.7023
   1   1.0000     -88.734395     -2414.5856
   2   1.0000     -88.734378     -2414.5852
   3   1.0000     -88.732181     -2414.5254
   4   1.0000     -88.731963     -2414.5195
   5   1.0000     -88.730596     -2414.4823
   6   1.0000     -88.730383     -2414.4765
   7   1.0000     -88.728162     -2414.4160
   8   1.0000     -88.728154     -2414.4158
   9   1.0000     -88.642389     -2412.0820
  10   1.0000     -88.641888     -2412.0684
  11   1.0000     -88.640163     -2412.0215
  12   1.0000     -88.639869     -2412.0135
  13   1.0000     -22.031875      -599.5178
  14   1.0000     -18.892629      -514.0946
  15   1.0000     -18.548122      -504.7201
  16   1.0000     -18.531863      -504.2776
  17   1.0000     -18.531833      -504.2768
  18   1.0000     -10.076815      -274.2041
  19   1.0000     -10.076117      -274.1851
  20   1.0000     -10.064579      -273.8711
  21   1.0000     -10.064539      -273.8700
  22   1.0000     -10.063019      -273.8287
  23   1.0000     -10.062975      -273.8275
  24   1.0000     -10.052255      -273.5358
  25   1.0000     -10.051861      -273.5250
  26   1.0000     -10.051572      -273.5172
  27   1.0000     -10.050605      -273.4909
  28   1.0000     -10.023076      -272.7418
  29   1.0000     -10.022294      -272.7205
  30   1.0000     -10.019815      -272.6530
  31   1.0000     -10.018836      -272.6264
  32   1.0000      -7.787831      -211.9177
  33   1.0000      -7.787823      -211.9174
  34   1.0000      -7.785482      -211.8537
  35   1.0000      -7.785273      -211.8481
  36   1.0000      -7.783537      -211.8008
  37   1.0000      -7.783321      -211.7949
  38   1.0000      -7.781077      -211.7339
  39   1.0000      -7.781064      -211.7335
  40   1.0000      -7.696108      -209.4217
  41   1.0000      -7.695655      -209.4094
  42   1.0000      -7.694277      -209.3719
  43   1.0000      -7.693984      -209.3639
  44   1.0000      -5.752857      -156.5432
  45   1.0000      -5.752851      -156.5430
  46   1.0000      -5.750517      -156.4795
  47   1.0000      -5.750313      -156.4740
  48   1.0000      -5.749381      -156.4486
  49   1.0000      -5.749365      -156.4482
  50   1.0000      -5.748501      -156.4247
  51   1.0000      -5.748283      -156.4187
  52   1.0000      -5.747062      -156.3855
  53   1.0000      -5.746852      -156.3798
  54   1.0000      -5.746128      -156.3601
  55   1.0000      -5.746113      -156.3597
  56   1.0000      -5.744136      -156.3059
  57   1.0000      -5.743929      -156.3002
  58   1.0000      -5.742609      -156.2643
  59   1.0000      -5.742604      -156.2642
  60   1.0000      -5.741625      -156.2376
  61   1.0000      -5.741621      -156.2375
  62   1.0000      -5.740240      -156.1999
  63   1.0000      -5.740025      -156.1940
  64   1.0000      -5.739328      -156.1750
  65   1.0000      -5.739105      -156.1690
  66   1.0000      -5.736814      -156.1066
  67   1.0000      -5.736811      -156.1066
  68   1.0000      -5.661660      -154.0616
  69   1.0000      -5.661194      -154.0489
  70   1.0000      -5.659718      -154.0088
  71   1.0000      -5.659446      -154.0014
  72   1.0000      -5.655007      -153.8806
  73   1.0000      -5.654566      -153.8686
  74   1.0000      -5.653263      -153.8331
  75   1.0000      -5.653083      -153.8282
  76   1.0000      -5.652790      -153.8202
  77   1.0000      -5.652782      -153.8200
  78   1.0000      -5.651529      -153.7859
  79   1.0000      -5.651211      -153.7773
  80   1.0000      -2.396410       -65.2096
  81   1.0000      -1.463828       -39.8328
  82   1.0000      -1.408763       -38.3344
  83   1.0000      -1.408331       -38.3226
  84   1.0000      -0.709320       -19.3016
  85   1.0000      -0.705118       -19.1872
  86   1.0000      -0.684683       -18.6312
  87   1.0000      -0.682302       -18.5664
  88   1.0000      -0.656403       -17.8616
  89   1.0000      -0.631329       -17.1793
  90   1.0000      -0.628751       -17.1092
  91   1.0000      -0.618334       -16.8257
  92   1.0000      -0.614089       -16.7102
  93   1.0000      -0.573469       -15.6049
  94   1.0000      -0.571137       -15.5414
  95   1.0000      -0.570684       -15.5291
  96   1.0000      -0.568438       -15.4680
  97   1.0000      -0.496806       -13.5188
  98   1.0000      -0.495792       -13.4912
  99   1.0000      -0.493317       -13.4238
 100   1.0000      -0.493056       -13.4167
 101   1.0000      -0.477555       -12.9949
 102   1.0000      -0.474198       -12.9036
 103   1.0000      -0.447488       -12.1768
 104   1.0000      -0.444478       -12.0949
 105   1.0000      -0.418474       -11.3873
 106   1.0000      -0.412251       -11.2179
 107   1.0000      -0.356071        -9.6892
 108   1.0000      -0.354721        -9.6525
 109   1.0000      -0.327549        -8.9130
 110   1.0000      -0.324839        -8.8393
 111   1.0000      -0.316955        -8.6248
 112   1.0000      -0.311391        -8.4734
 113   1.0000      -0.303620        -8.2619
 114   1.0000      -0.302863        -8.2413
 115   1.0000      -0.293215        -7.9788
 116   1.0000      -0.291001        -7.9185
 117   1.0000      -0.258136        -7.0242
 118   1.0000      -0.257317        -7.0019
 119   1.0000      -0.255548        -6.9538
 120   1.0000      -0.255355        -6.9486
 121   1.0000      -0.235797        -6.4164
 122   1.0000      -0.233795        -6.3619
 123   1.0000      -0.231994        -6.3129
 124   1.0000      -0.228105        -6.2071
 125   1.0000      -0.220938        -6.0120
 126   1.0000      -0.219068        -5.9612
 127   1.0000      -0.209912        -5.7120
 128   1.0000      -0.205106        -5.5812
 129   1.0000      -0.193364        -5.2617
 130   1.0000      -0.186042        -5.0625
 131   1.0000      -0.183220        -4.9857
 132   1.0000      -0.181499        -4.9388
 133   1.0000      -0.178093        -4.8462
 134   1.0000      -0.158296        -4.3075
 135   1.0000      -0.150011        -4.0820
 136   1.0000      -0.145429        -3.9573
 137   1.0000      -0.136732        -3.7207
 138   1.0000      -0.133249        -3.6259
 139   1.0000      -0.129951        -3.5361
 140   1.0000      -0.123542        -3.3617
 141   1.0000      -0.118939        -3.2365
 142   1.0000      -0.111907        -3.0451
 143   1.0000      -0.110421        -3.0047
 144   1.0000      -0.097859        -2.6629
 145   1.0000      -0.097469        -2.6523
 146   1.0000      -0.094263        -2.5650
 147   1.0000      -0.094139        -2.5617
 148   1.0000      -0.071547        -1.9469
 149   1.0000      -0.068333        -1.8594
 150   1.0000      -0.062793        -1.7087
 151   1.0000      -0.050884        -1.3846
 152   1.0000      -0.045253        -1.2314
 153   1.0000      -0.038372        -1.0442
 154   1.0000      -0.035533        -0.9669
 155   1.0000      -0.031900        -0.8680
 156   1.0000      -0.022554        -0.6137
 157   1.0000      -0.011997        -0.3265
 158   1.0000       0.017657         0.4805
 159   1.0000       0.033824         0.9204
 160   0.0000       0.136639         3.7181
 161   0.0000       0.136869         3.7244
 162   0.0000       0.157607         4.2887
 163   0.0000       0.161773         4.4021
 164   0.0000       0.164554         4.4777

MULLIKEN ATOMIC CHARGES AND SPIN POPULATIONS
--------------------------------------------
   0 V :    0.454394    1.196092
   1 S :   -0.294174   -0.020930
   2 S :   -0.263112   -0.022887
   3 S :   -0.291576   -0.021991
   4 S :   -0.258851   -0.023482
   5 O :   -0.466050   -0.141900
   6 C :   -0.086493    0.010274
   7 C :   -0.084140    0.008461
   8 C :   -0.087037    0.008090
   9 C :   -0.085368    0.007498
  10 S :    0.094707   -0.001279
  11 S :    0.095313   -0.001285
  12 S :    0.092713   -0.000046
  13 S :    0.092163    0.000031
  14 C :   -0.202662    0.002080
  15 C :   -0.180604    0.001904
  16 C :   -0.202177    0.000005
  17 C :   -0.222848   -0.000515
  18 S :    0.008893   -0.000153
  19 S :    0.008800   -0.000153
  20 S :    0.007044   -0.000055
  21 S :    0.007358   -0.000058
  22 C :   -0.300895    0.000043
  23 C :   -0.300637    0.000042
  24 C :   -0.157406   -0.000057
  25 H :    0.144045   -0.000001
  26 H :    0.113916    0.000004
  27 H :    0.084174    0.000006
  28 H :    0.090265    0.000004
  29 H :    0.113819    0.000003
  30 H :    0.144112   -0.000001
  31 C :   -0.299652    0.000243
  32 C :   -0.300953    0.000236
  33 C :   -0.161142   -0.000304
  34 H :    0.143105   -0.000015
  35 H :    0.115005    0.000026
  36 H :    0.093923    0.000050
  37 H :    0.084414    0.000008
  38 H :    0.114796    0.000027
  39 H :    0.142818   -0.000015
Sum of atomic charges         :   -2.0000000

LOEWDIN ATOMIC CHARGES AND SPIN POPULATIONS
-------------------------------------------
   0 V :   -0.187964    1.148481
   1 S :    0.066059   -0.012266
   2 S :    0.092199   -0.013351
   3 S :    0.067439   -0.013189
   4 S :    0.096122   -0.013742
   5 O :   -0.316923   -0.126974
   6 C :   -0.535636    0.008832
   7 C :   -0.537636    0.007193
   8 C :   -0.532875    0.008379
   9 C :   -0.532911    0.007679
  10 S :    0.463725   -0.001258
  11 S :    0.463794   -0.001285
  12 S :    0.458847   -0.000237
  13 S :    0.458482   -0.000204
  14 C :   -0.467140    0.000361
  15 C :   -0.466818    0.000351
  16 C :   -0.617922    0.000853
  17 C :   -0.613070    0.000449
  18 S :    0.359161   -0.000102
  19 S :    0.360595   -0.000099
  20 S :    0.351524   -0.000054
  21 S :    0.351374   -0.000057
  22 C :   -0.283604    0.000014
  23 C :   -0.283575    0.000013
  24 C :   -0.174855    0.000003
  25 H :    0.062830   -0.000000
  26 H :    0.054174    0.000003
  27 H :    0.058640    0.000000
  28 H :    0.059970    0.000001
  29 H :    0.054084    0.000003
  30 H :    0.062833   -0.000000
  31 C :   -0.283232    0.000081
  32 C :   -0.283045    0.000073
  33 C :   -0.176188    0.000007
  34 H :    0.062533    0.000001
  35 H :    0.053978    0.000014
  36 H :    0.060733    0.000009
  37 H :    0.057882    0.000003
  38 H :    0.054044    0.000014
  39 H :    0.062375    0.000001

  Mayer bond orders larger than 0.100000
B(  0-V ,  1-S ) :   0.7491 B(  0-V ,  2-S ) :   0.8048 B(  0-V ,  3-S ) :   0.7418
B(  0-V ,  4-S ) :   0.8127 B(  0-V ,  5-O ) :   2.1491 B(  1-S ,  8-C ) :   1.1017
B(  2-S ,  6-C ) :   1.1095 B(  3-S ,  9-C ) :   1.1040 B(  4-S ,  7-C ) :   1.1041
B(  6-C ,  7-C ) :   1.6953 B(  6-C , 10-S ) :   0.9386 B(  7-C , 11-S ) :   0.9410
B(  8-C ,  9-C ) :   1.7122 B(  8-C , 13-S ) :   0.9354 B(  9-C , 12-S ) :   0.9356
B( 10-S , 14-C ) :   1.2350 B( 11-S , 14-C ) :   1.2337 B( 12-S , 15-C ) :   1.2216
B( 13-S , 15-C ) :   1.2209 B( 14-C , 16-C ) :   1.4647 B( 15-C , 17-C ) :   1.4569
B( 16-C , 18-S ) :   1.0898 B( 16-C , 19-S ) :   1.0891 B( 17-C , 20-S ) :   1.0929
B( 17-C , 21-S ) :   1.0934 B( 18-S , 32-C ) :   0.9891 B( 19-S , 31-C ) :   0.9893
B( 20-S , 23-C ) :   0.9903 B( 21-S , 22-C ) :   0.9898 B( 22-C , 24-C ) :   0.9109
B( 22-C , 25-H ) :   0.9650 B( 22-C , 26-H ) :   0.9668 B( 23-C , 24-C ) :   0.9114
B( 23-C , 29-H ) :   0.9668 B( 23-C , 30-H ) :   0.9649 B( 24-C , 27-H ) :   0.9641
B( 24-C , 28-H ) :   0.9729 B( 31-C , 33-C ) :   0.9120 B( 31-C , 38-H ) :   0.9663
B( 31-C , 39-H ) :   0.9655 B( 32-C , 33-C ) :   0.9115 B( 32-C , 34-H ) :   0.9655
B( 32-C , 35-H ) :   0.9663 B( 33-C , 36-H ) :   0.9718 B( 33-C , 37-H ) :   0.9626

FINAL SINGLE POINT ENERGY     -6337.692684114683

DIPOLE MOMENT
-------------
                                X             Y             Z
Electronic contribution:      1.60496       1.70526     -13.45064
Nuclear contribution   :     -1.96784      -1.99865      14.98062
                        -----------------------------------------
Total Dipole Moment    :     -0.36288      -0.29339       1.52998
                        -----------------------------------------
Magnitude (a.u.)       :      1.59957
Magnitude (Debye)      :      4.06577

Rotational constants in cm-1:     0.010750     0.000803     0.000783
Rotational constants in MHz :   322.284025    24.087416    23.469087

                             ****ORCA TERMINATED NORMALLY****
TOTAL RUN TIME: 0 days 1 hours 1 minutes 35 seconds 788 msec
