                         Program Version 5.0.4 -  RELEASE  -
|  1> ! nofrozencore ReducedPop printbasis
|  2> ! B3LYP TZVP
|  3>
|  4> %basis
|  5> newgto V "CP(PPP)" end
|  6> end
|  7>
|  8> %pal
|  9> nprocs 8
| 10> end
| 11>
| 12> % sym SymThresh 1e-2 end
| 13> * xyz -2 2
| 14> V -0.8632091857474314 0.4215806399614783 0.5622256031771647
| 15> S 0.49121628796855715 2.45505888021734 0.1753855230353243
| 16> S -1.4022551317615548 0.5468493131140952 -1.8504094774822213
| 17> S 0.8029208870199912 -0.14329817897261687 2.3045636295585683
| 18> S -0.9853929572171634 -2.024692738005886 0.2692814101308202
| 19> O -2.1881597009500826 0.8749241228842506 1.3127470663777048
| 20> C -2.0709338113184605 -1.0638255078439578 -2.0776877338966364
| 21> C -1.900588834624705 -2.095244415859278 -1.2292503048933603
| 22> C 1.614440492681431 2.3779050797743357 1.526303589795605
| 23> C 1.740492187357026 1.3398435470524814 2.3732350855109106
| 24> S -2.992755891121925 -1.4128516836104923 -3.579832019035252
| 25> S -2.6034607456725833 -3.6692676742436023 -1.7283498682763585
| 26> S 3.0054600266449096 1.4883146787690729 3.6386801526956294
| 27> S 2.7273276995681126 3.764125032376058 1.7903104500584393
| 28> C -3.2741621680939907 -3.1309868031112367 -3.2723032637685554
| 29> C 3.6288955987573237 3.0617084342881435 3.144483824616938
| 30> C -3.9486116254029615 -3.9557839884041988 -4.130071978910605
| 31> C 4.687747138888973 3.689155118040745 3.740540027921373
| 32> S -4.6590957618565065 -3.359816733098347 -5.651917090723916
| 33> S -4.197691467966729 -5.683177929022342 -3.769762849071894
| 34> S 5.287637644144936 5.269901999587839 3.2029449711361724
| 35> S 5.573653080866651 2.9271981056307186 5.096906130382589
| 36> C 7.264753210341437 2.835573428647001 4.231199029590415
| 37> C 6.925429082574983 4.804295577054186 2.6066973560250934
| 38> C 7.812320460007984 3.991326335560833 3.847841387445587
| 39> H 7.249473711464166 2.1503350357531867 3.3753566267916506
| 40> H 7.928823865152041 2.411934071332752 4.989687725052508
| 41> H 8.842171802433187 3.644100447206714 3.5849041589143273
| 42> H 7.919529263785 4.628162877792925 4.734058287411715
| 43> H 7.409751352676434 5.718263824869648 2.2546546019128773
| 44> H 6.722206861616813 4.165791455822651 1.7380286100210864
| 45> C -6.046418358553491 -5.682618256692259 -3.6758253359033715
| 46> C -6.438511061656744 -3.702667434420652 -5.270625149490384
| 47> C -6.726778314470351 -5.170370445865827 -4.9471027823006315
| 48> H -6.7386818907569275 -3.0560788600778865 -4.442978749065843
| 49> H -6.990869397071658 -3.39524140572494 -6.162167202353315
| 50> H -6.427222959169091 -5.793764222351053 -5.795487172920723
| 51> H -7.812725095944046 -5.286249622974503 -4.8238412103264805
| 52> H -6.327617939858365 -6.721697241723432 -3.4868813319377776
| 53> H -6.340962336629978 -5.086018951863662 -2.8094977993786974
| 54> *
| 55>
| 56> % eprnmr
| 57> gtensor true
| 58> Nuclei = all H {aiso,adip,aorb,fgrad,rho}
| 59> Nuclei = all V {aiso,adip,aorb,fgrad,rho}
| 60> end
| 61>
| 62>                          ****END OF INPUT****

CARTESIAN COORDINATES (ANGSTROEM)
---------------------------------
  V     -0.862157    0.419324    0.559311
  S      0.492269    2.452802    0.172471
  S     -1.401203    0.544592   -1.853324
  S      0.803974   -0.145555    2.301649
  S     -0.984340   -2.026950    0.266367
  O     -2.187107    0.872667    1.309832
  C     -2.069881   -1.066083   -2.080602
  C     -1.899536   -2.097502   -1.232165
  C      1.615493    2.375648    1.523389
  C      1.741545    1.337586    2.370321
  S     -2.991703   -1.415109   -3.582747
  S     -2.602408   -3.671525   -1.731264
  S      3.006513    1.486058    3.635766
  S      2.728380    3.761868    1.787396
  C     -3.273110   -3.133244   -3.275218
  C      3.629948    3.059451    3.141569
  C     -3.947559   -3.958041   -4.132987
  C      4.688800    3.686898    3.737625
  S     -4.658043   -3.362074   -5.654832
  S     -4.196639   -5.685435   -3.772677
  S      5.288690    5.267645    3.200030
  S      5.574706    2.924941    5.093992
  C      7.265806    2.833316    4.228284
  C      6.926482    4.802038    2.603783
  C      7.813373    3.989069    3.844927
  H      7.250526    2.148078    3.372442
  H      7.929876    2.409677    4.986773
  H      8.843224    3.641843    3.581990
  H      7.920582    4.625906    4.731144
  H      7.410804    5.716007    2.251740
  H      6.723259    4.163534    1.735114
  C     -6.045366   -5.684875   -3.678740
  C     -6.437458   -3.704925   -5.273540
  C     -6.725726   -5.172628   -4.950017
  H     -6.737629   -3.058336   -4.445893
  H     -6.989817   -3.397499   -6.165082
  H     -6.426170   -5.796021   -5.798402
  H     -7.811672   -5.288507   -4.826756
  H     -6.326565   -6.723954   -3.489796
  H     -6.339910   -5.088276   -2.812412

 Total Charge           Charge          ....   -2
 Multiplicity           Mult            ....    2
 Number of Electrons    NEL             ....  321
 Basis Dimension        Dim             ....  681

ORBITAL ENERGIES
----------------
                 SPIN UP ORBITALS
  NO   OCC          E(Eh)            E(eV)
   0   1.0000    -196.674513     -5351.7856
   1   1.0000     -88.733017     -2414.5482
   2   1.0000     -88.732998     -2414.5476
   3   1.0000     -88.732882     -2414.5445
   4   1.0000     -88.732289     -2414.5283
   5   1.0000     -88.730055     -2414.4675
   6   1.0000     -88.729966     -2414.4651
   7   1.0000     -88.729803     -2414.4607
   8   1.0000     -88.729578     -2414.4546
   9   1.0000     -88.639509     -2412.0037
  10   1.0000     -88.639374     -2412.0000
  11   1.0000     -88.639156     -2411.9941
  12   1.0000     -88.638958     -2411.9887
  13   1.0000     -22.049913      -600.0086
  14   1.0000     -18.889800      -514.0176
  15   1.0000     -18.556362      -504.9443
  16   1.0000     -18.551187      -504.8034
  17   1.0000     -18.551087      -504.8007
  18   1.0000     -10.075589      -274.1707
  19   1.0000     -10.075567      -274.1701
  20   1.0000     -10.072375      -274.0833
  21   1.0000     -10.063302      -273.8364
  22   1.0000     -10.063259      -273.8352
  23   1.0000     -10.052793      -273.5504
  24   1.0000     -10.051153      -273.5058
  25   1.0000     -10.050892      -273.4987
  26   1.0000     -10.048296      -273.4280
  27   1.0000     -10.048066      -273.4218
  28   1.0000     -10.017909      -272.6011
  29   1.0000     -10.017640      -272.5938
  30   1.0000     -10.016968      -272.5755
  31   1.0000     -10.016836      -272.5720
  32   1.0000      -7.787111      -211.8981
  33   1.0000      -7.786457      -211.8803
  34   1.0000      -7.786444      -211.8799
  35   1.0000      -7.785188      -211.8457
  36   1.0000      -7.783399      -211.7971
  37   1.0000      -7.783226      -211.7923
  38   1.0000      -7.783100      -211.7889
  39   1.0000      -7.782804      -211.7809
  40   1.0000      -7.693771      -209.3582
  41   1.0000      -7.693690      -209.3559
  42   1.0000      -7.693410      -209.3483
  43   1.0000      -7.693347      -209.3466
  44   1.0000      -5.752113      -156.5230
  45   1.0000      -5.751448      -156.5049
  46   1.0000      -5.751440      -156.5046
  47   1.0000      -5.750023      -156.4661
  48   1.0000      -5.748482      -156.4242
  49   1.0000      -5.748337      -156.4202
  50   1.0000      -5.748166      -156.4155
  51   1.0000      -5.748039      -156.4121
  52   1.0000      -5.748028      -156.4118
  53   1.0000      -5.748026      -156.4117
  54   1.0000      -5.747759      -156.4045
  55   1.0000      -5.746971      -156.3830
  56   1.0000      -5.743896      -156.2994
  57   1.0000      -5.743741      -156.2951
  58   1.0000      -5.743607      -156.2915
  59   1.0000      -5.743343      -156.2843
  60   1.0000      -5.741925      -156.2457
  61   1.0000      -5.741253      -156.2274
  62   1.0000      -5.741239      -156.2271
  63   1.0000      -5.740053      -156.1948
  64   1.0000      -5.739226      -156.1723
  65   1.0000      -5.739054      -156.1676
  66   1.0000      -5.738928      -156.1642
  67   1.0000      -5.738604      -156.1554
  68   1.0000      -5.659094      -153.9918
  69   1.0000      -5.658988      -153.9889
  70   1.0000      -5.658742      -153.9822
  71   1.0000      -5.658642      -153.9795
  72   1.0000      -5.652442      -153.8108
  73   1.0000      -5.652340      -153.8080
  74   1.0000      -5.652081      -153.8009
  75   1.0000      -5.652000      -153.7987
  76   1.0000      -5.651099      -153.7742
  77   1.0000      -5.651019      -153.7720
  78   1.0000      -5.650701      -153.7634
  79   1.0000      -5.650655      -153.7621
  80   1.0000      -2.443559       -66.4926
  81   1.0000      -1.484866       -40.4053
  82   1.0000      -1.473194       -40.0876
  83   1.0000      -1.472384       -40.0656
  84   1.0000      -0.715716       -19.4756
  85   1.0000      -0.709301       -19.3011
  86   1.0000      -0.694178       -18.8895
  87   1.0000      -0.685426       -18.6514
  88   1.0000      -0.649502       -17.6739
  89   1.0000      -0.647275       -17.6132
  90   1.0000      -0.631133       -17.1740
  91   1.0000      -0.617099       -16.7921
  92   1.0000      -0.612579       -16.6691
  93   1.0000      -0.575525       -15.6608
  94   1.0000      -0.574153       -15.6235
  95   1.0000      -0.572978       -15.5915
  96   1.0000      -0.570377       -15.5207
  97   1.0000      -0.504970       -13.7409
  98   1.0000      -0.495989       -13.4965
  99   1.0000      -0.495692       -13.4885
 100   1.0000      -0.484686       -13.1890
 101   1.0000      -0.478252       -13.0139
 102   1.0000      -0.474300       -12.9064
 103   1.0000      -0.446318       -12.1449
 104   1.0000      -0.440739       -11.9931
 105   1.0000      -0.416196       -11.3253
 106   1.0000      -0.410971       -11.1831
 107   1.0000      -0.360874        -9.8199
 108   1.0000      -0.355189        -9.6652
 109   1.0000      -0.334160        -9.0930
 110   1.0000      -0.326510        -8.8848
 111   1.0000      -0.319749        -8.7008
 112   1.0000      -0.315453        -8.5839
 113   1.0000      -0.306175        -8.3314
 114   1.0000      -0.303712        -8.2644
 115   1.0000      -0.292308        -7.9541
 116   1.0000      -0.291323        -7.9273
 117   1.0000      -0.265055        -7.2125
 118   1.0000      -0.259309        -7.0562
 119   1.0000      -0.256844        -6.9891
 120   1.0000      -0.256069        -6.9680
 121   1.0000      -0.239751        -6.5239
 122   1.0000      -0.234229        -6.3737
 123   1.0000      -0.230492        -6.2720
 124   1.0000      -0.219120        -5.9626
 125   1.0000      -0.217650        -5.9226
 126   1.0000      -0.215440        -5.8624
 127   1.0000      -0.213776        -5.8171
 128   1.0000      -0.208979        -5.6866
 129   1.0000      -0.192678        -5.2430
 130   1.0000      -0.185795        -5.0557
 131   1.0000      -0.184642        -5.0244
 132   1.0000      -0.181764        -4.9461
 133   1.0000      -0.176761        -4.8099
 134   1.0000      -0.159068        -4.3285
 135   1.0000      -0.150806        -4.1037
 136   1.0000      -0.146020        -3.9734
 137   1.0000      -0.135501        -3.6872
 138   1.0000      -0.132956        -3.6179
 139   1.0000      -0.132421        -3.6033
 140   1.0000      -0.124669        -3.3924
 141   1.0000      -0.120646        -3.2829
 142   1.0000      -0.113101        -3.0776
 143   1.0000      -0.109305        -2.9743
 144   1.0000      -0.099345        -2.7033
 145   1.0000      -0.097764        -2.6603
 146   1.0000      -0.096944        -2.6380
 147   1.0000      -0.094373        -2.5680
 148   1.0000      -0.074113        -2.0167
 149   1.0000      -0.067385        -1.8337
 150   1.0000      -0.066591        -1.8120
 151   1.0000      -0.051946        -1.4135
 152   1.0000      -0.045194        -1.2298
 153   1.0000      -0.037069        -1.0087
 154   1.0000      -0.036714        -0.9990
 155   1.0000      -0.030866        -0.8399
 156   1.0000      -0.024578        -0.6688
 157   1.0000      -0.018729        -0.5097
 158   1.0000      -0.015048        -0.4095
 159   1.0000       0.020796         0.5659
 160   1.0000       0.041642         1.1331
 161   0.0000       0.137064         3.7297
 162   0.0000       0.137526         3.7423
 163   0.0000       0.158042         4.3005
 164   0.0000       0.162169         4.4128
 165   0.0000       0.169093         4.6013

                 SPIN DOWN ORBITALS
  NO   OCC          E(Eh)            E(eV)
   0   1.0000    -196.674660     -5351.7896
   1   1.0000     -88.733018     -2414.5482
   2   1.0000     -88.732999     -2414.5476
   3   1.0000     -88.732883     -2414.5445
   4   1.0000     -88.732289     -2414.5283
   5   1.0000     -88.730063     -2414.4678
   6   1.0000     -88.729974     -2414.4653
   7   1.0000     -88.729812     -2414.4609
   8   1.0000     -88.729587     -2414.4548
   9   1.0000     -88.639646     -2412.0074
  10   1.0000     -88.639514     -2412.0038
  11   1.0000     -88.639297     -2411.9979
  12   1.0000     -88.639097     -2411.9925
  13   1.0000     -22.034979      -599.6023
  14   1.0000     -18.893590      -514.1207
  15   1.0000     -18.551092      -504.8009
  16   1.0000     -18.535150      -504.3671
  17   1.0000     -18.534970      -504.3622
  18   1.0000     -10.075589      -274.1707
  19   1.0000     -10.075561      -274.1700
  20   1.0000     -10.072375      -274.0833
  21   1.0000     -10.063301      -273.8364
  22   1.0000     -10.063258      -273.8352
  23   1.0000     -10.052793      -273.5504
  24   1.0000     -10.051152      -273.5058
  25   1.0000     -10.050892      -273.4987
  26   1.0000     -10.048292      -273.4279
  27   1.0000     -10.048055      -273.4215
  28   1.0000     -10.017670      -272.5947
  29   1.0000     -10.017425      -272.5880
  30   1.0000     -10.016744      -272.5695
  31   1.0000     -10.016625      -272.5662
  32   1.0000      -7.787112      -211.8981
  33   1.0000      -7.786458      -211.8803
  34   1.0000      -7.786445      -211.8799
  35   1.0000      -7.785188      -211.8457
  36   1.0000      -7.783409      -211.7973
  37   1.0000      -7.783235      -211.7926
  38   1.0000      -7.783110      -211.7892
  39   1.0000      -7.782813      -211.7811
  40   1.0000      -7.693899      -209.3616
  41   1.0000      -7.693820      -209.3595
  42   1.0000      -7.693542      -209.3519
  43   1.0000      -7.693477      -209.3501
  44   1.0000      -5.752114      -156.5230
  45   1.0000      -5.751449      -156.5049
  46   1.0000      -5.751441      -156.5047
  47   1.0000      -5.750024      -156.4661
  48   1.0000      -5.748483      -156.4242
  49   1.0000      -5.748348      -156.4205
  50   1.0000      -5.748176      -156.4158
  51   1.0000      -5.748050      -156.4124
  52   1.0000      -5.748029      -156.4118
  53   1.0000      -5.748027      -156.4118
  54   1.0000      -5.747769      -156.4048
  55   1.0000      -5.746972      -156.3831
  56   1.0000      -5.743910      -156.2997
  57   1.0000      -5.743755      -156.2955
  58   1.0000      -5.743621      -156.2919
  59   1.0000      -5.743357      -156.2847
  60   1.0000      -5.741926      -156.2457
  61   1.0000      -5.741254      -156.2275
  62   1.0000      -5.741240      -156.2271
  63   1.0000      -5.740053      -156.1948
  64   1.0000      -5.739232      -156.1724
  65   1.0000      -5.739062      -156.1678
  66   1.0000      -5.738937      -156.1644
  67   1.0000      -5.738610      -156.1555
  68   1.0000      -5.659236      -153.9956
  69   1.0000      -5.659126      -153.9927
  70   1.0000      -5.658883      -153.9860
  71   1.0000      -5.658783      -153.9833
  72   1.0000      -5.652794      -153.8203
  73   1.0000      -5.652727      -153.8185
  74   1.0000      -5.652464      -153.8114
  75   1.0000      -5.652360      -153.8085
  76   1.0000      -5.651204      -153.7771
  77   1.0000      -5.651105      -153.7744
  78   1.0000      -5.650794      -153.7659
  79   1.0000      -5.650760      -153.7650
  80   1.0000      -2.398671       -65.2711
  81   1.0000      -1.465563       -39.8800
  82   1.0000      -1.410816       -38.3903
  83   1.0000      -1.410653       -38.3858
  84   1.0000      -0.715711       -19.4755
  85   1.0000      -0.709275       -19.3004
  86   1.0000      -0.694135       -18.8884
  87   1.0000      -0.685370       -18.6499
  88   1.0000      -0.657558       -17.8931
  89   1.0000      -0.647309       -17.6142
  90   1.0000      -0.631059       -17.1720
  91   1.0000      -0.617099       -16.7921
  92   1.0000      -0.612547       -16.6682
  93   1.0000      -0.575495       -15.6600
  94   1.0000      -0.574124       -15.6227
  95   1.0000      -0.572894       -15.5892
  96   1.0000      -0.570325       -15.5193
  97   1.0000      -0.504990       -13.7415
  98   1.0000      -0.496007       -13.4970
  99   1.0000      -0.495735       -13.4896
 100   1.0000      -0.484843       -13.1933
 101   1.0000      -0.478460       -13.0196
 102   1.0000      -0.474435       -12.9100
 103   1.0000      -0.446344       -12.1456
 104   1.0000      -0.440772       -11.9940
 105   1.0000      -0.416194       -11.3252
 106   1.0000      -0.411080       -11.1861
 107   1.0000      -0.360871        -9.8198
 108   1.0000      -0.355179        -9.6649
 109   1.0000      -0.334154        -9.0928
 110   1.0000      -0.326495        -8.8844
 111   1.0000      -0.319685        -8.6991
 112   1.0000      -0.315463        -8.5842
 113   1.0000      -0.306136        -8.3304
 114   1.0000      -0.303674        -8.2634
 115   1.0000      -0.292302        -7.9540
 116   1.0000      -0.291315        -7.9271
 117   1.0000      -0.265030        -7.2118
 118   1.0000      -0.259182        -7.0527
 119   1.0000      -0.256782        -6.9874
 120   1.0000      -0.256020        -6.9667
 121   1.0000      -0.239653        -6.5213
 122   1.0000      -0.234206        -6.3731
 123   1.0000      -0.230452        -6.2709
 124   1.0000      -0.218693        -5.9509
 125   1.0000      -0.217595        -5.9211
 126   1.0000      -0.215301        -5.8586
 127   1.0000      -0.213634        -5.8133
 128   1.0000      -0.208870        -5.6836
 129   1.0000      -0.191000        -5.1974
 130   1.0000      -0.185435        -5.0460
 131   1.0000      -0.184443        -5.0189
 132   1.0000      -0.181636        -4.9426
 133   1.0000      -0.176650        -4.8069
 134   1.0000      -0.158444        -4.3115
 135   1.0000      -0.150641        -4.0992
 136   1.0000      -0.145943        -3.9713
 137   1.0000      -0.134900        -3.6708
 138   1.0000      -0.132684        -3.6105
 139   1.0000      -0.132071        -3.5938
 140   1.0000      -0.124116        -3.3774
 141   1.0000      -0.120323        -3.2742
 142   1.0000      -0.114903        -3.1267
 143   1.0000      -0.110889        -3.0174
 144   1.0000      -0.099324        -2.7028
 145   1.0000      -0.098102        -2.6695
 146   1.0000      -0.096932        -2.6377
 147   1.0000      -0.094695        -2.5768
 148   1.0000      -0.070279        -1.9124
 149   1.0000      -0.067382        -1.8336
 150   1.0000      -0.066585        -1.8119
 151   1.0000      -0.049352        -1.3429
 152   1.0000      -0.044258        -1.2043
 153   1.0000      -0.037116        -1.0100
 154   1.0000      -0.036146        -0.9836
 155   1.0000      -0.030906        -0.8410
 156   1.0000      -0.025611        -0.6969
 157   1.0000      -0.015258        -0.4152
 158   1.0000       0.021089         0.5739
 159   1.0000       0.040541         1.1032
 160   0.0000       0.137071         3.7299
 161   0.0000       0.137517         3.7420
 162   0.0000       0.155614         4.2345
 163   0.0000       0.159084         4.3289
 164   0.0000       0.162978         4.4349

MULLIKEN ATOMIC CHARGES AND SPIN POPULATIONS
--------------------------------------------
   0 V :    0.471263    1.210743
   1 S :   -0.290972   -0.022478
   2 S :   -0.289904   -0.025216
   3 S :   -0.289265   -0.023351
   4 S :   -0.285634   -0.025667
   5 O :   -0.467967   -0.146778
   6 C :   -0.077533    0.009674
   7 C :   -0.084289    0.008077
   8 C :   -0.083277    0.007734
   9 C :   -0.085407    0.007379
  10 S :    0.099593   -0.000586
  11 S :    0.100987   -0.000626
  12 S :    0.104662   -0.000397
  13 S :    0.094041   -0.000339
  14 C :   -0.213739    0.001518
  15 C :   -0.210407    0.000988
  16 C :   -0.191789   -0.000073
  17 C :   -0.192471   -0.000401
  18 S :    0.008874   -0.000113
  19 S :    0.009193   -0.000113
  20 S :    0.017865   -0.000066
  21 S :   -0.007278   -0.000072
  22 C :   -0.303561   -0.000007
  23 C :   -0.306275    0.000001
  24 C :   -0.124685   -0.000009
  25 H :    0.134864   -0.000001
  26 H :    0.104627   -0.000003
  27 H :    0.073660   -0.000001
  28 H :    0.088213   -0.000001
  29 H :    0.119495   -0.000005
  30 H :    0.149681   -0.000001
  31 C :   -0.299629    0.000196
  32 C :   -0.300255    0.000191
  33 C :   -0.158090   -0.000241
  34 H :    0.141960   -0.000018
  35 H :    0.113325    0.000019
  36 H :    0.092300    0.000023
  37 H :    0.082638    0.000015
  38 H :    0.113270    0.000020
  39 H :    0.141916   -0.000018
Sum of atomic charges         :   -2.0000000

LOEWDIN ATOMIC CHARGES AND SPIN POPULATIONS
-------------------------------------------
   0 V :   -0.155918    1.164106
   1 S :    0.079784   -0.014512
   2 S :    0.079215   -0.016076
   3 S :    0.081400   -0.015231
   4 S :    0.083177   -0.016286
   5 O :   -0.319161   -0.131687
   6 C :   -0.549981    0.009040
   7 C :   -0.552157    0.007963
   8 C :   -0.551887    0.008131
   9 C :   -0.552872    0.007660
  10 S :    0.471206   -0.000901
  11 S :    0.472223   -0.000949
  12 S :    0.475195   -0.000824
  13 S :    0.466540   -0.000829
  14 C :   -0.465079    0.000165
  15 C :   -0.465229   -0.000082
  16 C :   -0.622810    0.000470
  17 C :   -0.621935    0.000084
  18 S :    0.358693   -0.000089
  19 S :    0.360102   -0.000087
  20 S :    0.375520   -0.000070
  21 S :    0.336465   -0.000076
  22 C :   -0.278247   -0.000009
  23 C :   -0.296044   -0.000007
  24 C :   -0.171369   -0.000002
  25 H :    0.063892   -0.000001
  26 H :    0.054910   -0.000002
  27 H :    0.065093   -0.000002
  28 H :    0.058615   -0.000001
  29 H :    0.053105   -0.000003
  30 H :    0.062620   -0.000002
  31 C :   -0.284062    0.000043
  32 C :   -0.283774    0.000036
  33 C :   -0.176351    0.000007
  34 H :    0.062095   -0.000001
  35 H :    0.053480    0.000008
  36 H :    0.060220    0.000005
  37 H :    0.057777    0.000002
  38 H :    0.053562    0.000009
  39 H :    0.061986   -0.000000

  Mayer bond orders larger than 0.100000
B(  0-V ,  1-S ) :   0.7718 B(  0-V ,  2-S ) :   0.7710 B(  0-V ,  3-S ) :   0.7650
B(  0-V ,  4-S ) :   0.7784 B(  0-V ,  5-O ) :   2.1484 B(  1-S ,  8-C ) :   1.1036
B(  2-S ,  6-C ) :   1.1044 B(  3-S ,  9-C ) :   1.1063 B(  4-S ,  7-C ) :   1.1047
B(  6-C ,  7-C ) :   1.6844 B(  6-C , 10-S ) :   0.9350 B(  7-C , 11-S ) :   0.9390
B(  8-C ,  9-C ) :   1.6986 B(  8-C , 13-S ) :   0.9344 B(  9-C , 12-S ) :   0.9348
B( 10-S , 14-C ) :   1.2489 B( 11-S , 14-C ) :   1.2485 B( 12-S , 15-C ) :   1.2524
B( 13-S , 15-C ) :   1.2395 B( 14-C , 16-C ) :   1.4510 B( 15-C , 17-C ) :   1.4537
B( 16-C , 18-S ) :   1.0879 B( 16-C , 19-S ) :   1.0896 B( 17-C , 20-S ) :   1.0893
B( 17-C , 21-S ) :   1.0831 B( 18-S , 32-C ) :   0.9918 B( 19-S , 31-C ) :   0.9918
B( 20-S , 23-C ) :   0.9770 B( 21-S , 22-C ) :   0.9946 B( 22-C , 24-C ) :   0.9161
B( 22-C , 25-H ) :   0.9635 B( 22-C , 26-H ) :   0.9767 B( 23-C , 24-C ) :   0.8679
B( 23-C , 29-H ) :   0.9562 B( 23-C , 30-H ) :   0.9664 B( 24-C , 27-H ) :   0.9594
B( 24-C , 28-H ) :   0.9758 B( 31-C , 33-C ) :   0.9135 B( 31-C , 38-H ) :   0.9656
B( 31-C , 39-H ) :   0.9658 B( 32-C , 33-C ) :   0.9132 B( 32-C , 34-H ) :   0.9657
B( 32-C , 35-H ) :   0.9656 B( 33-C , 36-H ) :   0.9719 B( 33-C , 37-H ) :   0.9625

FINAL SINGLE POINT ENERGY     -6337.657823931502

DIPOLE MOMENT
-------------
                                X             Y             Z
Electronic contribution:     -8.10209       7.35362       8.11059
Nuclear contribution   :      9.03297      -8.16623      -9.01650
                        -----------------------------------------
Total Dipole Moment    :      0.93088      -0.81260      -0.90591
                        -----------------------------------------
Magnitude (a.u.)       :      1.53217
Magnitude (Debye)      :      3.89446

Rotational constants in cm-1:     0.010757     0.000804     0.000783
Rotational constants in MHz :   322.489002    24.116182    23.486178

                             ****ORCA TERMINATED NORMALLY****
TOTAL RUN TIME: 0 days 1 hours 1 minutes 58 seconds 800 msec
