                         Program Version 5.0.4 -  RELEASE  -
|  1> ! nofrozencore ReducedPop printbasis
|  2> ! B3LYP TZVP
|  3>
|  4> %basis
|  5> newgto V "CP(PPP)" end
|  6> end
|  7>
|  8> %pal
|  9> nprocs 8
| 10> end
| 11>
| 12> % sym SymThresh 1e-2 end
| 13> * xyz -2 2
| 14> V -1.1084257947438168 0.0029616081052561754 -0.10672033167568808
| 15> S -0.370730921157777 -0.687513597770218 -2.3537851573454103
| 16> S -0.5543043495743624 -2.3235242389107817 0.6093151539934115
| 17> S -0.4478901865990751 2.301428788629904 -0.7869183950167492
| 18> S -0.2091702517218338 0.6921749972380191 2.0698631025894376
| 19> O -2.696746419828616 0.03405270965449717 -0.05754089986026399
| 20> C -0.4225087746597109 -2.050775774511086 2.343263368113581
| 21> C -0.3045296034733537 -0.8416851129155597 2.9288233418008818
| 22> C -0.10495764782859462 0.8724653861944547 -3.1237216914476953
| 23> C -0.12264816028551342 2.06259944700018 -2.4953423083222734
| 24> S -0.37061134005908813 -3.472545768609908 3.4432848476293727
| 25> S -0.15116107081600033 -0.8231251669776424 4.7157494062496355
| 26> S 0.2538206033942949 3.502938459361727 -3.502361877473121
| 27> S 0.27514024965885797 0.8986611927894085 -4.878046590322604
| 28> C -0.17686608415754232 -2.57377248573382 4.95616509973057
| 29> C 0.5511992205599453 2.639658147555177 -5.0154310796558335
| 30> C -0.06973692180150301 -3.1654520458921187 6.1847984548783845
| 31> C 0.9438191754722113 3.2500128088302707 -6.174461260904559
| 32> S -0.0010979275326201323 -4.937284771022729 6.371617033448587
| 33> S -0.026129335738436402 -2.208383162194522 7.693294104907442
| 34> S 1.1921965067690112 2.3273838938630496 -7.6785770516661245
| 35> S 1.2791968314315498 4.998836303007956 -6.25953870753039
| 36> C 3.0813654241386685 4.9014565871521345 -6.677162000512094
| 37> C 3.005521450707496 2.6337859075424825 -7.891572129939492
| 38> C 3.374681841891697 4.1176790275974495 -7.958946227449309
| 39> H 3.6021917456712087 4.4611878151284206 -5.823908946316204
| 40> H 3.412262467357497 5.937979988201023 -6.781705694803448
| 41> H 4.451362828134966 4.192972922287635 -8.16690438301337
| 42> H 2.8480211566799896 4.5848286678032455 -8.797063936415018
| 43> H 3.277780872003332 2.132209636286408 -8.823707520419601
| 44> H 3.5310228087934914 2.1391369099241717 -7.071683660028508
| 45> C -1.5934247223622173 -2.849488039411692 8.450403767016024
| 46> C -1.5585934960373495 -5.181287826107464 7.347367355876638
| 47> C -1.6017619864066137 -4.370262840085993 8.647793039450717
| 48> H -2.4094726694952184 -4.929357724099082 6.705209079249529
| 49> H -1.599930004154144 -6.254822420530751 7.563148959490428
| 50> H -0.7544851012806743 -4.657288736137822 9.283151508857499
| 51> H -2.523371813011183 -4.639188849014657 9.185718244936197
| 52> H -1.6787807226728926 -2.3369835900736535 9.415152280481411
| 53> H -2.431732341937463 -2.5336128173116417 7.820151332082744
| 54> *
| 55>
| 56> % eprnmr
| 57> gtensor true
| 58> Nuclei = all H {aiso,adip,aorb,fgrad,rho}
| 59> Nuclei = all V {aiso,adip,aorb,fgrad,rho}
| 60> end
| 61>
| 62>                          ****END OF INPUT****

CARTESIAN COORDINATES (ANGSTROEM)
---------------------------------
  V     -1.105477    0.001796   -0.104566
  S     -0.367782   -0.688679   -2.351631
  S     -0.551355   -2.324689    0.611470
  S     -0.444941    2.300264   -0.784764
  S     -0.206221    0.691010    2.072018
  O     -2.693797    0.032888   -0.055386
  C     -0.419560   -2.051941    2.345418
  C     -0.301580   -0.842850    2.930978
  C     -0.102008    0.871300   -3.121567
  C     -0.119699    2.061434   -2.493188
  S     -0.367662   -3.473711    3.445439
  S     -0.148212   -0.824290    4.717904
  S      0.256770    3.501773   -3.500207
  S      0.278089    0.897496   -4.875892
  C     -0.173917   -2.574938    4.958320
  C      0.554148    2.638493   -5.013276
  C     -0.066788   -3.166617    6.186953
  C      0.946768    3.248848   -6.172307
  S      0.001851   -4.938450    6.373772
  S     -0.023180   -2.209548    7.695449
  S      1.195146    2.326219   -7.676422
  S      1.282146    4.997671   -6.257384
  C      3.084315    4.900291   -6.675007
  C      3.008471    2.632621   -7.889417
  C      3.377631    4.116514   -7.956792
  H      3.605141    4.460023   -5.821754
  H      3.415212    5.936815   -6.779551
  H      4.454312    4.191808   -8.164750
  H      2.850970    4.583664   -8.794909
  H      3.280730    2.131045   -8.821553
  H      3.533972    2.137972   -7.069529
  C     -1.590476   -2.850653    8.452558
  C     -1.555644   -5.182453    7.349522
  C     -1.598813   -4.371428    8.649948
  H     -2.406523   -4.930523    6.707364
  H     -1.596981   -6.255988    7.565304
  H     -0.751536   -4.658454    9.285306
  H     -2.520423   -4.640354    9.187873
  H     -1.675832   -2.338149    9.417307
  H     -2.428783   -2.534778    7.822306

 Total Charge           Charge          ....   -2
 Multiplicity           Mult            ....    2
 Number of Electrons    NEL             ....  321
 Basis Dimension        Dim             ....  681

ORBITAL ENERGIES
----------------
                 SPIN UP ORBITALS
  NO   OCC          E(Eh)            E(eV)
   0   1.0000    -196.674874     -5351.7954
   1   1.0000     -88.733590     -2414.5637
   2   1.0000     -88.733089     -2414.5501
   3   1.0000     -88.733014     -2414.5481
   4   1.0000     -88.732982     -2414.5472
   5   1.0000     -88.730264     -2414.4732
   6   1.0000     -88.730053     -2414.4675
   7   1.0000     -88.729810     -2414.4609
   8   1.0000     -88.729712     -2414.4582
   9   1.0000     -88.640319     -2412.0257
  10   1.0000     -88.640299     -2412.0252
  11   1.0000     -88.638649     -2411.9803
  12   1.0000     -88.638627     -2411.9797
  13   1.0000     -22.050246      -600.0177
  14   1.0000     -18.889908      -514.0205
  15   1.0000     -18.556694      -504.9533
  16   1.0000     -18.551545      -504.8132
  17   1.0000     -18.551399      -504.8092
  18   1.0000     -10.075730      -274.1745
  19   1.0000     -10.075631      -274.1719
  20   1.0000     -10.064309      -273.8638
  21   1.0000     -10.064283      -273.8631
  22   1.0000     -10.063149      -273.8322
  23   1.0000     -10.063039      -273.8292
  24   1.0000     -10.052049      -273.5302
  25   1.0000     -10.050996      -273.5015
  26   1.0000     -10.048337      -273.4292
  27   1.0000     -10.048191      -273.4252
  28   1.0000     -10.018779      -272.6248
  29   1.0000     -10.017912      -272.6013
  30   1.0000     -10.016935      -272.5747
  31   1.0000     -10.016903      -272.5738
  32   1.0000      -7.786922      -211.8929
  33   1.0000      -7.786453      -211.8801
  34   1.0000      -7.786431      -211.8796
  35   1.0000      -7.786383      -211.8783
  36   1.0000      -7.783411      -211.7974
  37   1.0000      -7.783341      -211.7955
  38   1.0000      -7.783090      -211.7886
  39   1.0000      -7.783024      -211.7868
  40   1.0000      -7.694588      -209.3804
  41   1.0000      -7.694549      -209.3793
  42   1.0000      -7.692984      -209.3367
  43   1.0000      -7.692766      -209.3308
  44   1.0000      -5.751914      -156.5175
  45   1.0000      -5.751437      -156.5046
  46   1.0000      -5.751426      -156.5042
  47   1.0000      -5.751386      -156.5032
  48   1.0000      -5.748508      -156.4249
  49   1.0000      -5.748359      -156.4208
  50   1.0000      -5.748290      -156.4189
  51   1.0000      -5.748037      -156.4120
  52   1.0000      -5.748019      -156.4115
  53   1.0000      -5.748014      -156.4114
  54   1.0000      -5.747992      -156.4108
  55   1.0000      -5.747968      -156.4102
  56   1.0000      -5.743947      -156.3007
  57   1.0000      -5.743856      -156.2983
  58   1.0000      -5.743608      -156.2915
  59   1.0000      -5.743521      -156.2892
  60   1.0000      -5.741724      -156.2403
  61   1.0000      -5.741256      -156.2275
  62   1.0000      -5.741221      -156.2266
  63   1.0000      -5.741165      -156.2251
  64   1.0000      -5.739230      -156.1724
  65   1.0000      -5.739155      -156.1703
  66   1.0000      -5.738901      -156.1634
  67   1.0000      -5.738857      -156.1622
  68   1.0000      -5.659899      -154.0137
  69   1.0000      -5.659854      -154.0125
  70   1.0000      -5.658287      -153.9698
  71   1.0000      -5.658125      -153.9654
  72   1.0000      -5.653235      -153.8324
  73   1.0000      -5.653181      -153.8309
  74   1.0000      -5.651932      -153.7969
  75   1.0000      -5.651884      -153.7956
  76   1.0000      -5.651685      -153.7902
  77   1.0000      -5.651468      -153.7843
  78   1.0000      -5.650260      -153.7514
  79   1.0000      -5.650022      -153.7449
  80   1.0000      -2.443868       -66.5010
  81   1.0000      -1.485095       -40.4115
  82   1.0000      -1.473498       -40.0959
  83   1.0000      -1.472702       -40.0743
  84   1.0000      -0.709295       -19.3009
  85   1.0000      -0.708364       -19.2756
  86   1.0000      -0.685240       -18.6463
  87   1.0000      -0.684412       -18.6238
  88   1.0000      -0.649525       -17.6745
  89   1.0000      -0.631001       -17.1704
  90   1.0000      -0.630209       -17.1489
  91   1.0000      -0.616902       -16.7867
  92   1.0000      -0.616218       -16.7681
  93   1.0000      -0.574373       -15.6295
  94   1.0000      -0.573959       -15.6182
  95   1.0000      -0.572968       -15.5912
  96   1.0000      -0.571809       -15.5597
  97   1.0000      -0.496509       -13.5107
  98   1.0000      -0.495792       -13.4912
  99   1.0000      -0.495072       -13.4716
 100   1.0000      -0.494734       -13.4624
 101   1.0000      -0.479465       -13.0469
 102   1.0000      -0.476788       -12.9741
 103   1.0000      -0.446861       -12.1597
 104   1.0000      -0.444666       -12.1000
 105   1.0000      -0.416015       -11.3203
 106   1.0000      -0.410781       -11.1779
 107   1.0000      -0.354916        -9.6578
 108   1.0000      -0.354364        -9.6427
 109   1.0000      -0.326239        -8.8774
 110   1.0000      -0.325624        -8.8607
 111   1.0000      -0.318740        -8.6734
 112   1.0000      -0.314185        -8.5494
 113   1.0000      -0.304002        -8.2723
 114   1.0000      -0.303193        -8.2503
 115   1.0000      -0.292016        -7.9462
 116   1.0000      -0.291280        -7.9261
 117   1.0000      -0.257964        -7.0195
 118   1.0000      -0.257163        -6.9978
 119   1.0000      -0.255772        -6.9599
 120   1.0000      -0.255037        -6.9399
 121   1.0000      -0.234216        -6.3733
 122   1.0000      -0.233354        -6.3499
 123   1.0000      -0.230967        -6.2849
 124   1.0000      -0.229710        -6.2507
 125   1.0000      -0.219726        -5.9790
 126   1.0000      -0.217682        -5.9234
 127   1.0000      -0.213587        -5.8120
 128   1.0000      -0.211741        -5.7618
 129   1.0000      -0.192489        -5.2379
 130   1.0000      -0.187085        -5.0909
 131   1.0000      -0.185473        -5.0470
 132   1.0000      -0.184299        -5.0150
 133   1.0000      -0.179170        -4.8755
 134   1.0000      -0.159360        -4.3364
 135   1.0000      -0.151300        -4.1171
 136   1.0000      -0.146670        -3.9911
 137   1.0000      -0.135145        -3.6775
 138   1.0000      -0.134252        -3.6532
 139   1.0000      -0.132381        -3.6023
 140   1.0000      -0.125016        -3.4019
 141   1.0000      -0.120727        -3.2852
 142   1.0000      -0.112839        -3.0705
 143   1.0000      -0.109429        -2.9777
 144   1.0000      -0.099483        -2.7071
 145   1.0000      -0.098066        -2.6685
 146   1.0000      -0.096973        -2.6388
 147   1.0000      -0.094248        -2.5646
 148   1.0000      -0.074014        -2.0140
 149   1.0000      -0.067644        -1.8407
 150   1.0000      -0.067046        -1.8244
 151   1.0000      -0.051975        -1.4143
 152   1.0000      -0.045326        -1.2334
 153   1.0000      -0.037076        -1.0089
 154   1.0000      -0.036757        -1.0002
 155   1.0000      -0.030844        -0.8393
 156   1.0000      -0.024401        -0.6640
 157   1.0000      -0.019964        -0.5432
 158   1.0000      -0.014454        -0.3933
 159   1.0000       0.021033         0.5723
 160   1.0000       0.041275         1.1231
 161   0.0000       0.136636         3.7181
 162   0.0000       0.137451         3.7402
 163   0.0000       0.162037         4.4092
 164   0.0000       0.162464         4.4209
 165   0.0000       0.170033         4.6268

                 SPIN DOWN ORBITALS
  NO   OCC          E(Eh)            E(eV)
   0   1.0000    -196.675021     -5351.7994
   1   1.0000     -88.733590     -2414.5638
   2   1.0000     -88.733090     -2414.5501
   3   1.0000     -88.733014     -2414.5481
   4   1.0000     -88.732982     -2414.5472
   5   1.0000     -88.730272     -2414.4735
   6   1.0000     -88.730061     -2414.4677
   7   1.0000     -88.729818     -2414.4611
   8   1.0000     -88.729720     -2414.4584
   9   1.0000     -88.640458     -2412.0295
  10   1.0000     -88.640438     -2412.0289
  11   1.0000     -88.638787     -2411.9840
  12   1.0000     -88.638770     -2411.9836
  13   1.0000     -22.035291      -599.6108
  14   1.0000     -18.893704      -514.1238
  15   1.0000     -18.551415      -504.8097
  16   1.0000     -18.535467      -504.3757
  17   1.0000     -18.535279      -504.3706
  18   1.0000     -10.075729      -274.1745
  19   1.0000     -10.075626      -274.1717
  20   1.0000     -10.064308      -273.8637
  21   1.0000     -10.064282      -273.8630
  22   1.0000     -10.063149      -273.8322
  23   1.0000     -10.063039      -273.8292
  24   1.0000     -10.052049      -273.5302
  25   1.0000     -10.050996      -273.5015
  26   1.0000     -10.048325      -273.4288
  27   1.0000     -10.048187      -273.4251
  28   1.0000     -10.018534      -272.6182
  29   1.0000     -10.017715      -272.5959
  30   1.0000     -10.016725      -272.5689
  31   1.0000     -10.016677      -272.5677
  32   1.0000      -7.786922      -211.8929
  33   1.0000      -7.786453      -211.8802
  34   1.0000      -7.786431      -211.8796
  35   1.0000      -7.786384      -211.8783
  36   1.0000      -7.783420      -211.7976
  37   1.0000      -7.783351      -211.7957
  38   1.0000      -7.783099      -211.7889
  39   1.0000      -7.783033      -211.7871
  40   1.0000      -7.694717      -209.3839
  41   1.0000      -7.694678      -209.3828
  42   1.0000      -7.693113      -209.3402
  43   1.0000      -7.692899      -209.3344
  44   1.0000      -5.751915      -156.5176
  45   1.0000      -5.751438      -156.5046
  46   1.0000      -5.751426      -156.5043
  47   1.0000      -5.751387      -156.5032
  48   1.0000      -5.748510      -156.4249
  49   1.0000      -5.748369      -156.4211
  50   1.0000      -5.748301      -156.4192
  51   1.0000      -5.748047      -156.4123
  52   1.0000      -5.748019      -156.4116
  53   1.0000      -5.748015      -156.4114
  54   1.0000      -5.747993      -156.4109
  55   1.0000      -5.747978      -156.4104
  56   1.0000      -5.743961      -156.3011
  57   1.0000      -5.743870      -156.2987
  58   1.0000      -5.743622      -156.2919
  59   1.0000      -5.743534      -156.2895
  60   1.0000      -5.741725      -156.2403
  61   1.0000      -5.741257      -156.2275
  62   1.0000      -5.741222      -156.2266
  63   1.0000      -5.741166      -156.2251
  64   1.0000      -5.739237      -156.1726
  65   1.0000      -5.739161      -156.1705
  66   1.0000      -5.738906      -156.1636
  67   1.0000      -5.738866      -156.1625
  68   1.0000      -5.660044      -154.0176
  69   1.0000      -5.659992      -154.0162
  70   1.0000      -5.658426      -153.9736
  71   1.0000      -5.658267      -153.9693
  72   1.0000      -5.653583      -153.8418
  73   1.0000      -5.653575      -153.8416
  74   1.0000      -5.652053      -153.8002
  75   1.0000      -5.652047      -153.8000
  76   1.0000      -5.651958      -153.7976
  77   1.0000      -5.651851      -153.7947
  78   1.0000      -5.650358      -153.7541
  79   1.0000      -5.650125      -153.7477
  80   1.0000      -2.398916       -65.2778
  81   1.0000      -1.465754       -39.8852
  82   1.0000      -1.411073       -38.3972
  83   1.0000      -1.410866       -38.3916
  84   1.0000      -0.709280       -19.3005
  85   1.0000      -0.708338       -19.2748
  86   1.0000      -0.685198       -18.6452
  87   1.0000      -0.684359       -18.6223
  88   1.0000      -0.657680       -17.8964
  89   1.0000      -0.630946       -17.1689
  90   1.0000      -0.630134       -17.1468
  91   1.0000      -0.616904       -16.7868
  92   1.0000      -0.616218       -16.7681
  93   1.0000      -0.574349       -15.6288
  94   1.0000      -0.573930       -15.6174
  95   1.0000      -0.572901       -15.5894
  96   1.0000      -0.571732       -15.5576
  97   1.0000      -0.496529       -13.5113
  98   1.0000      -0.495837       -13.4924
  99   1.0000      -0.495114       -13.4727
 100   1.0000      -0.494767       -13.4633
 101   1.0000      -0.479659       -13.0522
 102   1.0000      -0.477045       -12.9811
 103   1.0000      -0.446884       -12.1603
 104   1.0000      -0.444714       -12.1013
 105   1.0000      -0.416020       -11.3205
 106   1.0000      -0.410897       -11.1811
 107   1.0000      -0.354912        -9.6576
 108   1.0000      -0.354354        -9.6425
 109   1.0000      -0.326228        -8.8771
 110   1.0000      -0.325611        -8.8603
 111   1.0000      -0.318665        -8.6713
 112   1.0000      -0.314215        -8.5502
 113   1.0000      -0.303950        -8.2709
 114   1.0000      -0.303169        -8.2497
 115   1.0000      -0.292010        -7.9460
 116   1.0000      -0.291275        -7.9260
 117   1.0000      -0.257850        -7.0165
 118   1.0000      -0.257046        -6.9946
 119   1.0000      -0.255743        -6.9591
 120   1.0000      -0.255003        -6.9390
 121   1.0000      -0.234172        -6.3721
 122   1.0000      -0.233341        -6.3495
 123   1.0000      -0.230916        -6.2835
 124   1.0000      -0.229682        -6.2500
 125   1.0000      -0.219391        -5.9699
 126   1.0000      -0.217550        -5.9198
 127   1.0000      -0.213369        -5.8061
 128   1.0000      -0.211622        -5.7585
 129   1.0000      -0.190800        -5.1919
 130   1.0000      -0.187018        -5.0890
 131   1.0000      -0.185099        -5.0368
 132   1.0000      -0.184063        -5.0086
 133   1.0000      -0.179058        -4.8724
 134   1.0000      -0.158747        -4.3197
 135   1.0000      -0.151135        -4.1126
 136   1.0000      -0.146590        -3.9889
 137   1.0000      -0.134582        -3.6622
 138   1.0000      -0.133799        -3.6409
 139   1.0000      -0.132198        -3.5973
 140   1.0000      -0.124425        -3.3858
 141   1.0000      -0.120425        -3.2769
 142   1.0000      -0.114673        -3.1204
 143   1.0000      -0.111013        -3.0208
 144   1.0000      -0.099473        -2.7068
 145   1.0000      -0.098369        -2.6768
 146   1.0000      -0.096967        -2.6386
 147   1.0000      -0.094589        -2.5739
 148   1.0000      -0.070209        -1.9105
 149   1.0000      -0.067637        -1.8405
 150   1.0000      -0.067045        -1.8244
 151   1.0000      -0.049386        -1.3439
 152   1.0000      -0.044425        -1.2089
 153   1.0000      -0.037118        -1.0100
 154   1.0000      -0.036133        -0.9832
 155   1.0000      -0.030909        -0.8411
 156   1.0000      -0.025410        -0.6914
 157   1.0000      -0.015746        -0.4285
 158   1.0000       0.021342         0.5807
 159   1.0000       0.040184         1.0935
 160   0.0000       0.136649         3.7184
 161   0.0000       0.137441         3.7400
 162   0.0000       0.156212         4.2508
 163   0.0000       0.162273         4.4157
 164   0.0000       0.163697         4.4544

MULLIKEN ATOMIC CHARGES AND SPIN POPULATIONS
--------------------------------------------
   0 V :    0.472439    1.211906
   1 S :   -0.290178   -0.022529
   2 S :   -0.295481   -0.025266
   3 S :   -0.289381   -0.023719
   4 S :   -0.282174   -0.025875
   5 O :   -0.468122   -0.147246
   6 C :   -0.074229    0.010680
   7 C :   -0.088524    0.007002
   8 C :   -0.091860    0.008231
   9 C :   -0.075985    0.006872
  10 S :    0.099117   -0.000605
  11 S :    0.101898   -0.000526
  12 S :    0.099984   -0.000460
  13 S :    0.099666   -0.000254
  14 C :   -0.213078    0.001492
  15 C :   -0.211843    0.000986
  16 C :   -0.191450   -0.000076
  17 C :   -0.190901   -0.000412
  18 S :    0.008189   -0.000110
  19 S :    0.008559   -0.000116
  20 S :    0.008063   -0.000065
  21 S :    0.007915   -0.000071
  22 C :   -0.301143    0.000001
  23 C :   -0.299506   -0.000007
  24 C :   -0.158149   -0.000008
  25 H :    0.143404   -0.000002
  26 H :    0.113623   -0.000003
  27 H :    0.083368   -0.000001
  28 H :    0.091996   -0.000001
  29 H :    0.113408   -0.000006
  30 H :    0.143086   -0.000000
  31 C :   -0.299846    0.000201
  32 C :   -0.296948    0.000183
  33 C :   -0.159320   -0.000238
  34 H :    0.140934   -0.000014
  35 H :    0.112223    0.000014
  36 H :    0.092249    0.000024
  37 H :    0.082549    0.000016
  38 H :    0.113498    0.000025
  39 H :    0.141949   -0.000020
Sum of atomic charges         :   -2.0000000

LOEWDIN ATOMIC CHARGES AND SPIN POPULATIONS
-------------------------------------------
   0 V :   -0.152678    1.165434
   1 S :    0.081310   -0.014411
   2 S :    0.071226   -0.016516
   3 S :    0.080540   -0.015666
   4 S :    0.086270   -0.016205
   5 O :   -0.319567   -0.132174
   6 C :   -0.546874    0.009339
   7 C :   -0.553883    0.007515
   8 C :   -0.553892    0.008772
   9 C :   -0.550626    0.006930
  10 S :    0.469446   -0.000864
  11 S :    0.473277   -0.000903
  12 S :    0.471224   -0.000855
  13 S :    0.470795   -0.000777
  14 C :   -0.464537    0.000146
  15 C :   -0.465025   -0.000090
  16 C :   -0.621252    0.000480
  17 C :   -0.622237    0.000083
  18 S :    0.359985   -0.000087
  19 S :    0.355303   -0.000087
  20 S :    0.359747   -0.000071
  21 S :    0.357280   -0.000075
  22 C :   -0.283122   -0.000005
  23 C :   -0.283461   -0.000012
  24 C :   -0.176030   -0.000002
  25 H :    0.062590   -0.000001
  26 H :    0.053563   -0.000002
  27 H :    0.058014   -0.000002
  28 H :    0.060140   -0.000001
  29 H :    0.053594   -0.000003
  30 H :    0.062435   -0.000002
  31 C :   -0.283390    0.000047
  32 C :   -0.284685    0.000033
  33 C :   -0.176774    0.000007
  34 H :    0.062157   -0.000001
  35 H :    0.053781    0.000006
  36 H :    0.060662    0.000005
  37 H :    0.057881    0.000002
  38 H :    0.053932    0.000010
  39 H :    0.062883   -0.000001

  Mayer bond orders larger than 0.100000
B(  0-V ,  1-S ) :   0.7848 B(  0-V ,  2-S ) :   0.7514 B(  0-V ,  3-S ) :   0.7547
B(  0-V ,  4-S ) :   0.7938 B(  0-V ,  5-O ) :   2.1481 B(  1-S ,  8-C ) :   1.1003
B(  2-S ,  6-C ) :   1.1088 B(  3-S ,  9-C ) :   1.1055 B(  4-S ,  7-C ) :   1.0936
B(  6-C ,  7-C ) :   1.6862 B(  6-C , 10-S ) :   0.9357 B(  7-C , 11-S ) :   0.9382
B(  8-C ,  9-C ) :   1.6997 B(  8-C , 13-S ) :   0.9351 B(  9-C , 12-S ) :   0.9339
B( 10-S , 14-C ) :   1.2467 B( 11-S , 14-C ) :   1.2465 B( 12-S , 15-C ) :   1.2471
B( 13-S , 15-C ) :   1.2461 B( 14-C , 16-C ) :   1.4512 B( 15-C , 17-C ) :   1.4527
B( 16-C , 18-S ) :   1.0865 B( 16-C , 19-S ) :   1.0846 B( 17-C , 20-S ) :   1.0888
B( 17-C , 21-S ) :   1.0883 B( 18-S , 32-C ) :   0.9927 B( 19-S , 31-C ) :   0.9908
B( 20-S , 23-C ) :   0.9911 B( 21-S , 22-C ) :   0.9908 B( 22-C , 24-C ) :   0.9134
B( 22-C , 25-H ) :   0.9658 B( 22-C , 26-H ) :   0.9655 B( 23-C , 24-C ) :   0.9139
B( 23-C , 29-H ) :   0.9656 B( 23-C , 30-H ) :   0.9658 B( 24-C , 27-H ) :   0.9625
B( 24-C , 28-H ) :   0.9718 B( 31-C , 33-C ) :   0.9135 B( 31-C , 38-H ) :   0.9653
B( 31-C , 39-H ) :   0.9652 B( 32-C , 33-C ) :   0.9154 B( 32-C , 34-H ) :   0.9652
B( 32-C , 35-H ) :   0.9653 B( 33-C , 36-H ) :   0.9713 B( 33-C , 37-H ) :   0.9622

FINAL SINGLE POINT ENERGY     -6337.706371872482

DIPOLE MOMENT
-------------
                                X             Y             Z
Electronic contribution:    -12.75149       1.65157      -4.30724
Nuclear contribution   :     14.20204      -1.81361       4.75114
                        -----------------------------------------
Total Dipole Moment    :      1.45054      -0.16204       0.44389
                        -----------------------------------------
Magnitude (a.u.)       :      1.52557
Magnitude (Debye)      :      3.87769

Rotational constants in cm-1:     0.010744     0.000805     0.000784
Rotational constants in MHz :   322.106589    24.121750    23.493552

                             ****ORCA TERMINATED NORMALLY****
TOTAL RUN TIME: 0 days 1 hours 2 minutes 2 seconds 342 msec
