                         Program Version 5.0.4 -  RELEASE  -
|  1> ! nofrozencore ReducedPop printbasis
|  2> ! B3LYP TZVP
|  3>
|  4> %basis
|  5> newgto V "CP(PPP)" end
|  6> end
|  7>
|  8> %pal
|  9> nprocs 8
| 10> end
| 11>
| 12> % sym SymThresh 1e-2 end
| 13> * xyz -2 2
| 14> V 0.04794066963301576 1.0531976033377308 0.34062647059175777
| 15> S 0.9782236761208657 -0.25175942419816993 2.3238390541373524
| 16> S 2.1840973298874706 0.5907738530772125 -0.6794321963085977
| 17> S -2.161131780411775 0.13110367001391093 1.1704083567055195
| 18> S -1.0246644556169981 0.8719539409296372 -1.7776557835614284
| 19> O 0.0582421446249546 2.5664008205454505 0.8359814498199853
| 20> C 1.7098337364078207 1.0479596089421763 -2.3476257097281144
| 21> C 0.43742817383592525 1.1593036537212904 -2.788916251762866
| 22> C -0.46769587376311206 -0.7569230961496519 3.147986197299185
| 23> C -1.7215645681886687 -0.6071875372461734 2.687475949450765
| 24> S 2.9994865496417096 1.2663817887678772 -3.633856388144356
| 25> S 0.2865273761944379 1.4842816785334427 -4.588021404911608
| 26> S -3.0376273444455903 -1.2679533166785455 3.6933950654705634
| 27> S -0.26124992459536606 -1.590510874968392 4.712107146084562
| 28> C 1.990539710662696 1.6949546307746632 -5.041305564726403
| 29> C -1.9850200715713722 -1.8757778997601422 4.97195655355316
| 30> C 2.4398125662180012 1.9275593152402881 -6.323994368175949
| 31> C -2.4622633621562326 -2.584912850243056 6.032376291906483
| 32> S 4.258228350700843 1.8836309526820632 -6.650706921079266
| 33> S 1.215222939548903 2.056233932755314 -7.713671598467862
| 34> S -1.4262448837161987 -3.2834870753210406 7.2601459639184975
| 35> S -4.158881763390869 -2.9792815518638616 6.245687655354255
| 36> C -4.112285628121157 -4.837374047165826 6.1532232705001615
| 37> C -1.7621376303419345 -5.099751796261406 7.03422860507984
| 38> C -3.2248056136196444 -5.512059511208368 7.1989119417461
| 39> H -3.788023137222876 -5.115901123590134 5.147652453373904
| 40> H -5.1576021292183105 -5.137420624907998 6.268918034466448
| 41> H -3.298099754713819 -6.602070869702199 7.070701852549881
| 42> H -3.5770875780897224 -5.273436797026305 8.207906115236952
| 43> H -1.1291746518222863 -5.582832092744535 7.7839837962571385
| 44> H -1.3991881196608242 -5.389291942009983 6.0451279951587695
| 45> C 1.7162937806420548 3.786050598324733 -8.038327039056034
| 46> C 4.244319810481566 3.642039804772569 -7.154147167070502
| 47> C 3.2332214756014954 3.8601599041710197 -8.295570520293206
| 48> H 4.014656008235641 4.247419011648921 -6.274286054204556
| 49> H 5.247438209129165 3.9144069969109556 -7.516142277638766
| 50> H 3.4673026913604392 3.1276099253396503 -9.083006893293573
| 51> H 3.4389832803240314 4.859972635415603 -8.721037509813627
| 52> H 1.1879899889990042 4.145862991358138 -8.935029812018263
| 53> H 1.4093248728343248 4.394468422608316 -7.184379202832205
| 54> *
| 55>
| 56> % eprnmr
| 57> gtensor true
| 58> Nuclei = all H {aiso,adip,aorb,fgrad,rho}
| 59> Nuclei = all V {aiso,adip,aorb,fgrad,rho}
| 60> end
| 61>
| 62>                          ****END OF INPUT****

CARTESIAN COORDINATES (ANGSTROEM)
---------------------------------
  V      0.048768    1.050962    0.337624
  S      0.979051   -0.253995    2.320836
  S      2.184925    0.588539   -0.682435
  S     -2.160304    0.128868    1.167406
  S     -1.023837    0.869719   -1.780659
  O      0.059070    2.564166    0.832979
  C      1.710661    1.045724   -2.350629
  C      0.438256    1.157068   -2.791919
  C     -0.466868   -0.759158    3.144983
  C     -1.720737   -0.609423    2.684473
  S      3.000314    1.264147   -3.636859
  S      0.287355    1.482046   -4.591024
  S     -3.036800   -1.270189    3.690392
  S     -0.260422   -1.592746    4.709104
  C      1.991367    1.692719   -5.044308
  C     -1.984192   -1.878013    4.968954
  C      2.440640    1.925324   -6.326997
  C     -2.461436   -2.587148    6.029373
  S      4.259056    1.881396   -6.653710
  S      1.216051    2.053999   -7.716674
  S     -1.425417   -3.285722    7.257143
  S     -4.158054   -2.981517    6.242685
  C     -4.111458   -4.839609    6.150220
  C     -1.761310   -5.101987    7.031226
  C     -3.223978   -5.514295    7.195909
  H     -3.787195   -5.118136    5.144650
  H     -5.156774   -5.139656    6.265915
  H     -3.297272   -6.604306    7.067699
  H     -3.576260   -5.275672    8.204903
  H     -1.128347   -5.585067    7.780981
  H     -1.398360   -5.391527    6.042125
  C      1.717122    3.783815   -8.041330
  C      4.245148    3.639805   -7.157150
  C      3.234049    3.857925   -8.298573
  H      4.015484    4.245184   -6.277289
  H      5.248266    3.912172   -7.519145
  H      3.468130    3.125375   -9.086010
  H      3.439811    4.857737   -8.724040
  H      1.188818    4.143628   -8.938033
  H      1.410153    4.392233   -7.187382

 Total Charge           Charge          ....   -2
 Multiplicity           Mult            ....    2
 Number of Electrons    NEL             ....  321
 Basis Dimension        Dim             ....  681

ORBITAL ENERGIES
----------------
                 SPIN UP ORBITALS
  NO   OCC          E(Eh)            E(eV)
   0   1.0000    -196.674269     -5351.7789
   1   1.0000     -88.741312     -2414.7739
   2   1.0000     -88.740483     -2414.7513
   3   1.0000     -88.732511     -2414.5344
   4   1.0000     -88.731362     -2414.5031
   5   1.0000     -88.728190     -2414.4168
   6   1.0000     -88.728093     -2414.4142
   7   1.0000     -88.727988     -2414.4113
   8   1.0000     -88.727656     -2414.4023
   9   1.0000     -88.648435     -2412.2466
  10   1.0000     -88.647259     -2412.2146
  11   1.0000     -88.634323     -2411.8625
  12   1.0000     -88.633711     -2411.8459
  13   1.0000     -22.049630      -600.0009
  14   1.0000     -18.888978      -513.9952
  15   1.0000     -18.556081      -504.9366
  16   1.0000     -18.550885      -504.7952
  17   1.0000     -18.550825      -504.7936
  18   1.0000     -10.082292      -274.3531
  19   1.0000     -10.071784      -274.0672
  20   1.0000     -10.067045      -273.9382
  21   1.0000     -10.066605      -273.9263
  22   1.0000     -10.061140      -273.7776
  23   1.0000     -10.061043      -273.7749
  24   1.0000     -10.060004      -273.7466
  25   1.0000     -10.051975      -273.5281
  26   1.0000     -10.050066      -273.4762
  27   1.0000     -10.041673      -273.2478
  28   1.0000     -10.028924      -272.9009
  29   1.0000     -10.027996      -272.8756
  30   1.0000     -10.011780      -272.4344
  31   1.0000     -10.010976      -272.4125
  32   1.0000      -7.793785      -212.0797
  33   1.0000      -7.793112      -212.0614
  34   1.0000      -7.784926      -211.8386
  35   1.0000      -7.784008      -211.8136
  36   1.0000      -7.782158      -211.7633
  37   1.0000      -7.782017      -211.7594
  38   1.0000      -7.781536      -211.7464
  39   1.0000      -7.781186      -211.7368
  40   1.0000      -7.702191      -209.5873
  41   1.0000      -7.700943      -209.5533
  42   1.0000      -7.688804      -209.2230
  43   1.0000      -7.688192      -209.2063
  44   1.0000      -5.758662      -156.7012
  45   1.0000      -5.757967      -156.6822
  46   1.0000      -5.755790      -156.6230
  47   1.0000      -5.755089      -156.6039
  48   1.0000      -5.749964      -156.4645
  49   1.0000      -5.748967      -156.4373
  50   1.0000      -5.748472      -156.4239
  51   1.0000      -5.747820      -156.4061
  52   1.0000      -5.747172      -156.3885
  53   1.0000      -5.747028      -156.3846
  54   1.0000      -5.746494      -156.3701
  55   1.0000      -5.746117      -156.3598
  56   1.0000      -5.745523      -156.3436
  57   1.0000      -5.744593      -156.3183
  58   1.0000      -5.743567      -156.2904
  59   1.0000      -5.743406      -156.2860
  60   1.0000      -5.742046      -156.2490
  61   1.0000      -5.741690      -156.2393
  62   1.0000      -5.740711      -156.2127
  63   1.0000      -5.739841      -156.1890
  64   1.0000      -5.737326      -156.1206
  65   1.0000      -5.736992      -156.1115
  66   1.0000      -5.736975      -156.1110
  67   1.0000      -5.736841      -156.1074
  68   1.0000      -5.667891      -154.2312
  69   1.0000      -5.666608      -154.1962
  70   1.0000      -5.660624      -154.0334
  71   1.0000      -5.659479      -154.0023
  72   1.0000      -5.659360      -153.9990
  73   1.0000      -5.658118      -153.9652
  74   1.0000      -5.653977      -153.8525
  75   1.0000      -5.653342      -153.8353
  76   1.0000      -5.647611      -153.6793
  77   1.0000      -5.647013      -153.6630
  78   1.0000      -5.646098      -153.6381
  79   1.0000      -5.645515      -153.6223
  80   1.0000      -2.443475       -66.4903
  81   1.0000      -1.484409       -40.3928
  82   1.0000      -1.473250       -40.0892
  83   1.0000      -1.472624       -40.0721
  84   1.0000      -0.710425       -19.3316
  85   1.0000      -0.705728       -19.2038
  86   1.0000      -0.684797       -18.6343
  87   1.0000      -0.682327       -18.5671
  88   1.0000      -0.648520       -17.6471
  89   1.0000      -0.633941       -17.2504
  90   1.0000      -0.626184       -17.0393
  91   1.0000      -0.621366       -16.9082
  92   1.0000      -0.611498       -16.6397
  93   1.0000      -0.576464       -15.6864
  94   1.0000      -0.572452       -15.5772
  95   1.0000      -0.569228       -15.4895
  96   1.0000      -0.564390       -15.3578
  97   1.0000      -0.497168       -13.5286
  98   1.0000      -0.494588       -13.4584
  99   1.0000      -0.493487       -13.4285
 100   1.0000      -0.493195       -13.4205
 101   1.0000      -0.479868       -13.0579
 102   1.0000      -0.475254       -12.9323
 103   1.0000      -0.446756       -12.1568
 104   1.0000      -0.444236       -12.0883
 105   1.0000      -0.421164       -11.4604
 106   1.0000      -0.408898       -11.1267
 107   1.0000      -0.355379        -9.6704
 108   1.0000      -0.351736        -9.5712
 109   1.0000      -0.325532        -8.8582
 110   1.0000      -0.324239        -8.8230
 111   1.0000      -0.318358        -8.6630
 112   1.0000      -0.312634        -8.5072
 113   1.0000      -0.303331        -8.2540
 114   1.0000      -0.301076        -8.1927
 115   1.0000      -0.298714        -8.1284
 116   1.0000      -0.287344        -7.8190
 117   1.0000      -0.257601        -7.0097
 118   1.0000      -0.256882        -6.9901
 119   1.0000      -0.255222        -6.9449
 120   1.0000      -0.252329        -6.8662
 121   1.0000      -0.236060        -6.4235
 122   1.0000      -0.235106        -6.3976
 123   1.0000      -0.226369        -6.1598
 124   1.0000      -0.225135        -6.1262
 125   1.0000      -0.219114        -5.9624
 126   1.0000      -0.217598        -5.9211
 127   1.0000      -0.212179        -5.7737
 128   1.0000      -0.209233        -5.6935
 129   1.0000      -0.192338        -5.2338
 130   1.0000      -0.189066        -5.1447
 131   1.0000      -0.186606        -5.0778
 132   1.0000      -0.185462        -5.0467
 133   1.0000      -0.177871        -4.8401
 134   1.0000      -0.158209        -4.3051
 135   1.0000      -0.154157        -4.1948
 136   1.0000      -0.143530        -3.9056
 137   1.0000      -0.135522        -3.6877
 138   1.0000      -0.133030        -3.6199
 139   1.0000      -0.129993        -3.5373
 140   1.0000      -0.123702        -3.3661
 141   1.0000      -0.117907        -3.2084
 142   1.0000      -0.111883        -3.0445
 143   1.0000      -0.108376        -2.9491
 144   1.0000      -0.098494        -2.6802
 145   1.0000      -0.096516        -2.6263
 146   1.0000      -0.094492        -2.5712
 147   1.0000      -0.093786        -2.5520
 148   1.0000      -0.076176        -2.0728
 149   1.0000      -0.075898        -2.0653
 150   1.0000      -0.060760        -1.6534
 151   1.0000      -0.059379        -1.6158
 152   1.0000      -0.045761        -1.2452
 153   1.0000      -0.041448        -1.1278
 154   1.0000      -0.034178        -0.9300
 155   1.0000      -0.028699        -0.7809
 156   1.0000      -0.024946        -0.6788
 157   1.0000      -0.018270        -0.4972
 158   1.0000      -0.014518        -0.3951
 159   1.0000       0.016351         0.4449
 160   1.0000       0.042824         1.1653
 161   0.0000       0.125899         3.4259
 162   0.0000       0.138513         3.7691
 163   0.0000       0.156314         4.2535
 164   0.0000       0.162118         4.4114
 165   0.0000       0.163472         4.4483

                 SPIN DOWN ORBITALS
  NO   OCC          E(Eh)            E(eV)
   0   1.0000    -196.674411     -5351.7828
   1   1.0000     -88.741314     -2414.7739
   2   1.0000     -88.740484     -2414.7513
   3   1.0000     -88.732512     -2414.5344
   4   1.0000     -88.731362     -2414.5031
   5   1.0000     -88.728190     -2414.4168
   6   1.0000     -88.728103     -2414.4144
   7   1.0000     -88.727989     -2414.4113
   8   1.0000     -88.727666     -2414.4025
   9   1.0000     -88.648573     -2412.2503
  10   1.0000     -88.647400     -2412.2184
  11   1.0000     -88.634461     -2411.8663
  12   1.0000     -88.633846     -2411.8496
  13   1.0000     -22.034750      -599.5960
  14   1.0000     -18.892775      -514.0985
  15   1.0000     -18.550822      -504.7935
  16   1.0000     -18.534919      -504.3608
  17   1.0000     -18.534755      -504.3563
  18   1.0000     -10.082272      -274.3526
  19   1.0000     -10.071795      -274.0675
  20   1.0000     -10.067044      -273.9382
  21   1.0000     -10.066604      -273.9262
  22   1.0000     -10.061141      -273.7776
  23   1.0000     -10.061043      -273.7749
  24   1.0000     -10.059978      -273.7459
  25   1.0000     -10.051974      -273.5281
  26   1.0000     -10.050066      -273.4762
  27   1.0000     -10.041672      -273.2478
  28   1.0000     -10.028566      -272.8912
  29   1.0000     -10.027639      -272.8659
  30   1.0000     -10.011639      -272.4305
  31   1.0000     -10.010836      -272.4087
  32   1.0000      -7.793786      -212.0797
  33   1.0000      -7.793113      -212.0614
  34   1.0000      -7.784927      -211.8386
  35   1.0000      -7.784008      -211.8136
  36   1.0000      -7.782159      -211.7633
  37   1.0000      -7.782017      -211.7595
  38   1.0000      -7.781548      -211.7467
  39   1.0000      -7.781198      -211.7372
  40   1.0000      -7.702314      -209.5906
  41   1.0000      -7.701070      -209.5568
  42   1.0000      -7.688936      -209.2266
  43   1.0000      -7.688321      -209.2099
  44   1.0000      -5.758665      -156.7012
  45   1.0000      -5.757969      -156.6823
  46   1.0000      -5.755792      -156.6231
  47   1.0000      -5.755091      -156.6040
  48   1.0000      -5.749964      -156.4645
  49   1.0000      -5.748966      -156.4373
  50   1.0000      -5.748473      -156.4239
  51   1.0000      -5.747821      -156.4062
  52   1.0000      -5.747173      -156.3885
  53   1.0000      -5.747029      -156.3846
  54   1.0000      -5.746508      -156.3704
  55   1.0000      -5.746130      -156.3601
  56   1.0000      -5.745524      -156.3437
  57   1.0000      -5.744592      -156.3183
  58   1.0000      -5.743568      -156.2904
  59   1.0000      -5.743407      -156.2860
  60   1.0000      -5.742063      -156.2495
  61   1.0000      -5.741707      -156.2398
  62   1.0000      -5.740712      -156.2127
  63   1.0000      -5.739843      -156.1891
  64   1.0000      -5.737334      -156.1208
  65   1.0000      -5.736999      -156.1117
  66   1.0000      -5.736976      -156.1110
  67   1.0000      -5.736842      -156.1074
  68   1.0000      -5.668050      -154.2355
  69   1.0000      -5.666765      -154.2005
  70   1.0000      -5.661003      -154.0437
  71   1.0000      -5.659860      -154.0126
  72   1.0000      -5.659432      -154.0010
  73   1.0000      -5.658204      -153.9676
  74   1.0000      -5.654109      -153.8561
  75   1.0000      -5.653471      -153.8388
  76   1.0000      -5.647978      -153.6893
  77   1.0000      -5.647370      -153.6728
  78   1.0000      -5.646197      -153.6408
  79   1.0000      -5.645613      -153.6249
  80   1.0000      -2.398743       -65.2731
  81   1.0000      -1.465136       -39.8684
  82   1.0000      -1.411626       -38.4123
  83   1.0000      -1.410637       -38.3854
  84   1.0000      -0.710429       -19.3318
  85   1.0000      -0.705679       -19.2025
  86   1.0000      -0.684786       -18.6340
  87   1.0000      -0.682197       -18.5635
  88   1.0000      -0.656707       -17.8699
  89   1.0000      -0.633928       -17.2501
  90   1.0000      -0.626183       -17.0393
  91   1.0000      -0.621178       -16.9031
  92   1.0000      -0.611501       -16.6398
  93   1.0000      -0.576505       -15.6875
  94   1.0000      -0.572465       -15.5776
  95   1.0000      -0.569044       -15.4845
  96   1.0000      -0.564235       -15.3536
  97   1.0000      -0.497106       -13.5269
  98   1.0000      -0.494661       -13.4604
  99   1.0000      -0.493557       -13.4304
 100   1.0000      -0.493202       -13.4207
 101   1.0000      -0.479966       -13.0605
 102   1.0000      -0.475547       -12.9403
 103   1.0000      -0.446758       -12.1569
 104   1.0000      -0.444287       -12.0897
 105   1.0000      -0.421132       -11.4596
 106   1.0000      -0.409027       -11.1302
 107   1.0000      -0.355384        -9.6705
 108   1.0000      -0.351700        -9.5702
 109   1.0000      -0.325534        -8.8582
 110   1.0000      -0.324190        -8.8217
 111   1.0000      -0.318175        -8.6580
 112   1.0000      -0.312682        -8.5085
 113   1.0000      -0.303252        -8.2519
 114   1.0000      -0.301075        -8.1927
 115   1.0000      -0.298678        -8.1274
 116   1.0000      -0.287345        -7.8191
 117   1.0000      -0.257535        -7.0079
 118   1.0000      -0.256785        -6.9875
 119   1.0000      -0.255200        -6.9443
 120   1.0000      -0.252215        -6.8631
 121   1.0000      -0.236041        -6.4230
 122   1.0000      -0.234995        -6.3945
 123   1.0000      -0.226202        -6.1553
 124   1.0000      -0.225115        -6.1257
 125   1.0000      -0.218655        -5.9499
 126   1.0000      -0.217546        -5.9197
 127   1.0000      -0.212052        -5.7702
 128   1.0000      -0.208792        -5.6815
 129   1.0000      -0.190595        -5.1863
 130   1.0000      -0.188777        -5.1369
 131   1.0000      -0.186435        -5.0732
 132   1.0000      -0.185334        -5.0432
 133   1.0000      -0.177770        -4.8374
 134   1.0000      -0.157545        -4.2870
 135   1.0000      -0.153881        -4.1873
 136   1.0000      -0.143490        -3.9046
 137   1.0000      -0.134621        -3.6632
 138   1.0000      -0.132853        -3.6151
 139   1.0000      -0.129818        -3.5325
 140   1.0000      -0.123194        -3.3523
 141   1.0000      -0.117722        -3.2034
 142   1.0000      -0.113427        -3.0865
 143   1.0000      -0.109803        -2.9879
 144   1.0000      -0.098625        -2.6837
 145   1.0000      -0.096517        -2.6264
 146   1.0000      -0.094608        -2.5744
 147   1.0000      -0.094142        -2.5617
 148   1.0000      -0.076012        -2.0684
 149   1.0000      -0.073010        -1.9867
 150   1.0000      -0.060749        -1.6531
 151   1.0000      -0.057192        -1.5563
 152   1.0000      -0.043503        -1.1838
 153   1.0000      -0.041495        -1.1291
 154   1.0000      -0.033520        -0.9121
 155   1.0000      -0.028891        -0.7862
 156   1.0000      -0.025580        -0.6961
 157   1.0000      -0.014796        -0.4026
 158   1.0000       0.015798         0.4299
 159   1.0000       0.041823         1.1381
 160   0.0000       0.125923         3.4265
 161   0.0000       0.138505         3.7689
 162   0.0000       0.152436         4.1480
 163   0.0000       0.160149         4.3579
 164   0.0000       0.163447         4.4476

MULLIKEN ATOMIC CHARGES AND SPIN POPULATIONS
--------------------------------------------
   0 V :    0.474852    1.206681
   1 S :   -0.313072   -0.021517
   2 S :   -0.265959   -0.026865
   3 S :   -0.307987   -0.022535
   4 S :   -0.256905   -0.026892
   5 O :   -0.468444   -0.147244
   6 C :   -0.083111    0.014181
   7 C :   -0.076249    0.013402
   8 C :   -0.089152    0.004448
   9 C :   -0.082648    0.004953
  10 S :    0.089598    0.000140
  11 S :    0.088934    0.000199
  12 S :    0.101970   -0.000499
  13 S :    0.102016   -0.000491
  14 C :   -0.232596    0.002107
  15 C :   -0.171357    0.000037
  16 C :   -0.189504    0.000262
  17 C :   -0.224482   -0.000094
  18 S :    0.007724   -0.000220
  19 S :    0.008601   -0.000219
  20 S :    0.006767   -0.000087
  21 S :    0.007159   -0.000093
  22 C :   -0.309845   -0.000004
  23 C :   -0.309036   -0.000004
  24 C :   -0.148537   -0.000004
  25 H :    0.141468   -0.000001
  26 H :    0.115004   -0.000004
  27 H :    0.084143    0.000001
  28 H :    0.090655   -0.000000
  29 H :    0.114447   -0.000003
  30 H :    0.140824   -0.000001
  31 C :   -0.279484    0.000300
  32 C :   -0.279858    0.000306
  33 C :   -0.182659   -0.000385
  34 H :    0.150770   -0.000037
  35 H :    0.107588    0.000069
  36 H :    0.098936    0.000022
  37 H :    0.079703    0.000059
  38 H :    0.108292    0.000067
  39 H :    0.151435   -0.000037
Sum of atomic charges         :   -2.0000000

LOEWDIN ATOMIC CHARGES AND SPIN POPULATIONS
-------------------------------------------
   0 V :   -0.161345    1.159001
   1 S :    0.059177   -0.015138
   2 S :    0.094934   -0.016037
   3 S :    0.064361   -0.015779
   4 S :    0.105358   -0.015449
   5 O :   -0.321759   -0.132278
   6 C :   -0.523865    0.013341
   7 C :   -0.524480    0.013121
   8 C :   -0.563519    0.005025
   9 C :   -0.563163    0.005262
  10 S :    0.445907   -0.000007
  11 S :    0.448439    0.000035
  12 S :    0.479585   -0.001050
  13 S :    0.478298   -0.001084
  14 C :   -0.469446    0.000706
  15 C :   -0.460951   -0.000469
  16 C :   -0.565897    0.001125
  17 C :   -0.645702    0.000012
  18 S :    0.348001   -0.000156
  19 S :    0.346205   -0.000153
  20 S :    0.363201   -0.000089
  21 S :    0.361944   -0.000094
  22 C :   -0.284142   -0.000006
  23 C :   -0.284473   -0.000005
  24 C :   -0.174473   -0.000002
  25 H :    0.062193   -0.000001
  26 H :    0.053962   -0.000003
  27 H :    0.058457   -0.000001
  28 H :    0.059562   -0.000000
  29 H :    0.053908   -0.000002
  30 H :    0.061898   -0.000001
  31 C :   -0.283939    0.000041
  32 C :   -0.284142    0.000037
  33 C :   -0.184986    0.000029
  34 H :    0.063718   -0.000000
  35 H :    0.051938    0.000027
  36 H :    0.062537    0.000009
  37 H :    0.056512    0.000011
  38 H :    0.052208    0.000026
  39 H :    0.063980    0.000000

  Mayer bond orders larger than 0.100000
B(  0-V ,  1-S ) :   0.7244 B(  0-V ,  2-S ) :   0.8017 B(  0-V ,  3-S ) :   0.7292
B(  0-V ,  4-S ) :   0.8251 B(  0-V ,  5-O ) :   2.1450 B(  1-S ,  8-C ) :   1.1266
B(  2-S ,  6-C ) :   1.0836 B(  3-S ,  9-C ) :   1.1167 B(  4-S ,  7-C ) :   1.0686
B(  6-C ,  7-C ) :   1.7217 B(  6-C , 10-S ) :   0.9130 B(  7-C , 11-S ) :   0.9122
B(  8-C ,  9-C ) :   1.6744 B(  8-C , 13-S ) :   0.9438 B(  9-C , 12-S ) :   0.9435
B( 10-S , 14-C ) :   1.2278 B( 11-S , 14-C ) :   1.2330 B( 12-S , 15-C ) :   1.2510
B( 13-S , 15-C ) :   1.2493 B( 14-C , 16-C ) :   1.4475 B( 15-C , 17-C ) :   1.4339
B( 16-C , 18-S ) :   1.0290 B( 16-C , 19-S ) :   1.0310 B( 17-C , 20-S ) :   1.1254
B( 17-C , 21-S ) :   1.1253 B( 18-S , 32-C ) :   1.0066 B( 19-S , 31-C ) :   1.0057
B( 20-S , 23-C ) :   0.9820 B( 21-S , 22-C ) :   0.9818 B( 22-C , 24-C ) :   0.9090
B( 22-C , 25-H ) :   0.9651 B( 22-C , 26-H ) :   0.9668 B( 23-C , 24-C ) :   0.9098
B( 23-C , 29-H ) :   0.9668 B( 23-C , 30-H ) :   0.9648 B( 24-C , 27-H ) :   0.9654
B( 24-C , 28-H ) :   0.9708 B( 31-C , 33-C ) :   0.9156 B( 31-C , 38-H ) :   0.9592
B( 31-C , 39-H ) :   0.9714 B( 32-C , 33-C ) :   0.9158 B( 32-C , 34-H ) :   0.9708
B( 32-C , 35-H ) :   0.9590 B( 33-C , 36-H ) :   0.9730 B( 33-C , 37-H ) :   0.9519

FINAL SINGLE POINT ENERGY     -6337.679654558512

DIPOLE MOMENT
-------------
                                X             Y             Z
Electronic contribution:      0.00549      11.49069       7.00094
Nuclear contribution   :      0.17948     -12.70532      -8.33705
                        -----------------------------------------
Total Dipole Moment    :      0.18496      -1.21463      -1.33611
                        -----------------------------------------
Magnitude (a.u.)       :      1.81514
Magnitude (Debye)      :      4.61372

Rotational constants in cm-1:     0.010649     0.000804     0.000783
Rotational constants in MHz :   319.251933    24.102556    23.460395

                             ****ORCA TERMINATED NORMALLY****
TOTAL RUN TIME: 0 days 1 hours 2 minutes 19 seconds 404 msec
