                         Program Version 5.0.4 -  RELEASE  -
|  1> ! nofrozencore ReducedPop printbasis
|  2> ! B3LYP TZVP
|  3>
|  4> %basis
|  5> newgto V "CP(PPP)" end
|  6> end
|  7>
|  8> %pal
|  9> nprocs 8
| 10> end
| 11>
| 12> % sym SymThresh 1e-2 end
| 13> * xyz -2 2
| 14> V 0.09724644048255568 -0.6498839246348016 -0.8987813878261721
| 15> S -1.4272457646149792 1.117722016509653 -1.744290825503648
| 16> S 1.851516289060689 1.0806050897628103 -1.031513843344162
| 17> S -1.8722696143641353 -1.5332822977722746 0.29628529788186453
| 18> S 1.348905563239076 -1.4956016496390645 1.0631576575266624
| 19> O 0.38992268508838884 -1.6368100768850753 -2.106676511494571
| 20> C 3.3363538686322816 0.18214566004766025 0.08772514266280389
| 21> C 2.608077759120841 -0.846340274580943 0.7855589383276517
| 22> C -2.7781729916709854 0.5590675076099109 -1.2583110196456708
| 23> C -3.3391914516098655 -0.4377056536688116 -0.45877776555099
| 24> S 4.78829638490844 0.8952590160369767 -0.10331951336638681
| 25> S 4.293969223969481 -1.3487252993428733 1.7394725786402658
| 26> S -4.86227169516076 -0.8989742431010933 0.03292342809216658
| 27> S -4.448255314780153 1.40271814847209 -1.756667785480269
| 28> C 5.451279648996539 -0.3025465496464772 1.1903949778784286
| 29> C -5.602336597358623 0.5057643976091529 -0.8938820891164844
| 30> C 6.795199743056993 -0.12905997703462066 1.4646474343540845
| 31> C -6.961940879121272 0.6734105682648488 -0.8037846697408144
| 32> S 7.958452897412078 0.9244076941711925 0.8310849835458436
| 33> S 7.4005133968382175 -1.337696930939429 2.761094119818138
| 34> S -7.656896261723709 2.090641025471473 -1.7440529248764445
| 35> S -8.092346838739067 -0.26060180080486006 0.1106628383247727
| 36> C -8.679635183241404 1.0530881026613084 1.2750092575131313
| 37> C -8.308374096537099 3.0520133137733354 -0.3015706226137454
| 38> C -9.291467819573635 2.262594502413422 0.5749572853978958
| 39> H -7.829245988034617 1.3513352450091023 1.891735181521463
| 40> H -9.413821510763771 0.5577081755121565 1.915505245979038
| 41> H -9.685286372979627 2.9357966752641054 1.3493017083411565
| 42> H -10.138977365898919 1.9415928138600071 -0.03884332934550084
| 43> H -8.814416027390996 3.9214130126992175 -0.7288799059241438
| 44> H -7.460624434169899 3.4103784438744107 0.2872668462942199
| 45> C 8.626229573261218 -2.2344198268445026 1.702151069207955
| 46> C 9.104926804189306 -0.3101830960149474 0.06382259370093173
| 47> C 9.675747099892693 -1.314087783556038 1.0549117503236443
| 48> H 8.550821926701662 -0.8212202025133439 -0.7261456478152392
| 49> H 9.89344870220947 0.29041809800304225 -0.3971840295669341
| 50> H 10.218902509434079 -0.7867143614480454 1.845571307974114
| 51> H 10.404550123961062 -1.9365287764342316 0.5169172549451048
| 52> H 9.13117051453811 -2.944980181429759 2.3618528768309743
| 53> H 8.084464848711548 -2.806520008073238 0.9446489221742529
| 54> *
| 55>
| 56> % eprnmr
| 57> gtensor true
| 58> Nuclei = all H {aiso,adip,aorb,fgrad,rho}
| 59> Nuclei = all V {aiso,adip,aorb,fgrad,rho}
| 60> end
| 61>
| 62>                          ****END OF INPUT****

CARTESIAN COORDINATES (ANGSTROEM)
---------------------------------
  V      0.099151   -0.648082   -0.895984
  S     -1.425342    1.119524   -1.741494
  S      1.853421    1.082407   -1.028717
  S     -1.870365   -1.531480    0.299082
  S      1.350810   -1.493799    1.065955
  O      0.391827   -1.635008   -2.103879
  C      3.338258    0.183948    0.090522
  C      2.609982   -0.844538    0.788356
  C     -2.776269    0.560870   -1.255514
  C     -3.337287   -0.435903   -0.455981
  S      4.790201    0.897061   -0.100522
  S      4.295873   -1.346923    1.742270
  S     -4.860367   -0.897172    0.035721
  S     -4.446351    1.404520   -1.753871
  C      5.453184   -0.300744    1.193192
  C     -5.600432    0.507567   -0.891085
  C      6.797104   -0.127258    1.467445
  C     -6.960037    0.675213   -0.800988
  S      7.960357    0.926210    0.833882
  S      7.402418   -1.335895    2.763891
  S     -7.654992    2.092443   -1.741256
  S     -8.090443   -0.258800    0.113460
  C     -8.677731    1.054890    1.277806
  C     -8.306470    3.053816   -0.298773
  C     -9.289564    2.264397    0.577754
  H     -7.827342    1.353137    1.894532
  H     -9.411917    0.559510    1.918302
  H     -9.683382    2.937599    1.352099
  H    -10.137073    1.943395   -0.036046
  H     -8.812512    3.923215   -0.726083
  H     -7.458720    3.412181    0.290064
  C      8.628134   -2.232618    1.704948
  C      9.106831   -0.308381    0.066620
  C      9.677651   -1.312286    1.057709
  H      8.552726   -0.819418   -0.723349
  H      9.895353    0.292220   -0.394387
  H     10.220807   -0.784912    1.848368
  H     10.406454   -1.934727    0.519714
  H      9.133075   -2.943178    2.364650
  H      8.086369   -2.804718    0.947446

 Total Charge           Charge          ....   -2
 Multiplicity           Mult            ....    2
 Number of Electrons    NEL             ....  321
 Basis Dimension        Dim             ....  681

ORBITAL ENERGIES
----------------
                 SPIN UP ORBITALS
  NO   OCC          E(Eh)            E(eV)
   0   1.0000    -196.685257     -5352.0779
   1   1.0000     -88.736516     -2414.6434
   2   1.0000     -88.735593     -2414.6182
   3   1.0000     -88.731848     -2414.5163
   4   1.0000     -88.731666     -2414.5114
   5   1.0000     -88.726584     -2414.3731
   6   1.0000     -88.718468     -2414.1523
   7   1.0000     -88.717829     -2414.1349
   8   1.0000     -88.706943     -2413.8386
   9   1.0000     -88.661846     -2412.6115
  10   1.0000     -88.656652     -2412.4702
  11   1.0000     -88.638105     -2411.9655
  12   1.0000     -88.632647     -2411.8170
  13   1.0000     -22.059927      -600.2811
  14   1.0000     -18.900925      -514.3203
  15   1.0000     -18.566290      -505.2144
  16   1.0000     -18.561405      -505.0815
  17   1.0000     -18.561072      -505.0725
  18   1.0000     -10.074316      -274.1361
  19   1.0000     -10.068526      -273.9785
  20   1.0000     -10.062465      -273.8136
  21   1.0000     -10.060648      -273.7642
  22   1.0000     -10.057399      -273.6758
  23   1.0000     -10.055142      -273.6143
  24   1.0000     -10.049749      -273.4676
  25   1.0000     -10.046510      -273.3794
  26   1.0000     -10.045153      -273.3425
  27   1.0000     -10.040269      -273.2096
  28   1.0000     -10.038059      -273.1495
  29   1.0000     -10.034947      -273.0648
  30   1.0000     -10.021194      -272.6906
  31   1.0000     -10.019612      -272.6475
  32   1.0000      -7.790121      -211.9800
  33   1.0000      -7.789613      -211.9661
  34   1.0000      -7.786317      -211.8765
  35   1.0000      -7.785457      -211.8531
  36   1.0000      -7.779610      -211.6940
  37   1.0000      -7.773053      -211.5155
  38   1.0000      -7.770681      -211.4510
  39   1.0000      -7.762983      -211.2415
  40   1.0000      -7.727629      -210.2795
  41   1.0000      -7.717210      -209.9960
  42   1.0000      -7.689854      -209.2516
  43   1.0000      -7.683862      -209.0885
  44   1.0000      -5.755098      -156.6042
  45   1.0000      -5.754567      -156.5897
  46   1.0000      -5.751238      -156.4991
  47   1.0000      -5.751006      -156.4928
  48   1.0000      -5.750864      -156.4890
  49   1.0000      -5.750212      -156.4712
  50   1.0000      -5.747578      -156.3996
  51   1.0000      -5.746456      -156.3690
  52   1.0000      -5.745633      -156.3466
  53   1.0000      -5.744598      -156.3184
  54   1.0000      -5.744526      -156.3165
  55   1.0000      -5.741316      -156.2291
  56   1.0000      -5.741299      -156.2287
  57   1.0000      -5.740889      -156.2175
  58   1.0000      -5.737333      -156.1208
  59   1.0000      -5.735646      -156.0749
  60   1.0000      -5.734368      -156.0401
  61   1.0000      -5.733366      -156.0128
  62   1.0000      -5.732421      -155.9871
  63   1.0000      -5.729395      -155.9048
  64   1.0000      -5.726835      -155.8351
  65   1.0000      -5.725441      -155.7972
  66   1.0000      -5.723003      -155.7308
  67   1.0000      -5.719732      -155.6418
  68   1.0000      -5.691279      -154.8676
  69   1.0000      -5.685613      -154.7134
  70   1.0000      -5.684720      -154.6891
  71   1.0000      -5.681379      -154.5982
  72   1.0000      -5.675604      -154.4410
  73   1.0000      -5.674629      -154.4145
  74   1.0000      -5.655561      -153.8956
  75   1.0000      -5.649525      -153.7314
  76   1.0000      -5.648817      -153.7121
  77   1.0000      -5.646978      -153.6621
  78   1.0000      -5.642979      -153.5533
  79   1.0000      -5.640977      -153.4988
  80   1.0000      -2.454261       -66.7838
  81   1.0000      -1.495706       -40.7002
  82   1.0000      -1.486189       -40.4413
  83   1.0000      -1.481249       -40.3068
  84   1.0000      -0.709926       -19.3181
  85   1.0000      -0.706058       -19.2128
  86   1.0000      -0.687247       -18.7009
  87   1.0000      -0.685443       -18.6518
  88   1.0000      -0.660093       -17.9620
  89   1.0000      -0.647830       -17.6283
  90   1.0000      -0.635720       -17.2988
  91   1.0000      -0.617893       -16.8137
  92   1.0000      -0.615530       -16.7494
  93   1.0000      -0.606934       -16.5155
  94   1.0000      -0.604929       -16.4609
  95   1.0000      -0.572890       -15.5891
  96   1.0000      -0.572691       -15.5837
  97   1.0000      -0.512405       -13.9432
  98   1.0000      -0.508178       -13.8282
  99   1.0000      -0.489823       -13.3288
 100   1.0000      -0.484833       -13.1930
 101   1.0000      -0.472920       -12.8688
 102   1.0000      -0.463651       -12.6166
 103   1.0000      -0.440075       -11.9750
 104   1.0000      -0.431681       -11.7466
 105   1.0000      -0.411381       -11.1943
 106   1.0000      -0.401087       -10.9141
 107   1.0000      -0.353244        -9.6123
 108   1.0000      -0.347502        -9.4560
 109   1.0000      -0.324556        -8.8316
 110   1.0000      -0.319303        -8.6887
 111   1.0000      -0.318409        -8.6643
 112   1.0000      -0.310653        -8.4533
 113   1.0000      -0.301509        -8.2045
 114   1.0000      -0.295332        -8.0364
 115   1.0000      -0.290927        -7.9165
 116   1.0000      -0.286103        -7.7853
 117   1.0000      -0.265648        -7.2287
 118   1.0000      -0.264312        -7.1923
 119   1.0000      -0.248131        -6.7520
 120   1.0000      -0.238975        -6.5028
 121   1.0000      -0.235924        -6.4198
 122   1.0000      -0.233102        -6.3430
 123   1.0000      -0.229592        -6.2475
 124   1.0000      -0.227524        -6.1913
 125   1.0000      -0.226500        -6.1634
 126   1.0000      -0.224203        -6.1009
 127   1.0000      -0.219480        -5.9724
 128   1.0000      -0.214263        -5.8304
 129   1.0000      -0.211935        -5.7671
 130   1.0000      -0.210827        -5.7369
 131   1.0000      -0.189478        -5.1559
 132   1.0000      -0.188107        -5.1187
 133   1.0000      -0.170609        -4.6425
 134   1.0000      -0.164147        -4.4667
 135   1.0000      -0.150640        -4.0991
 136   1.0000      -0.144417        -3.9298
 137   1.0000      -0.138860        -3.7786
 138   1.0000      -0.135760        -3.6942
 139   1.0000      -0.134296        -3.6544
 140   1.0000      -0.122956        -3.3458
 141   1.0000      -0.119797        -3.2599
 142   1.0000      -0.115561        -3.1446
 143   1.0000      -0.110050        -2.9946
 144   1.0000      -0.106201        -2.8899
 145   1.0000      -0.102427        -2.7872
 146   1.0000      -0.095605        -2.6015
 147   1.0000      -0.087990        -2.3943
 148   1.0000      -0.072372        -1.9693
 149   1.0000      -0.068534        -1.8649
 150   1.0000      -0.058719        -1.5978
 151   1.0000      -0.055884        -1.5207
 152   1.0000      -0.049335        -1.3425
 153   1.0000      -0.041468        -1.1284
 154   1.0000      -0.037831        -1.0294
 155   1.0000      -0.031395        -0.8543
 156   1.0000      -0.023741        -0.6460
 157   1.0000      -0.016248        -0.4421
 158   1.0000      -0.008970        -0.2441
 159   1.0000       0.024708         0.6723
 160   1.0000       0.043481         1.1832
 161   0.0000       0.138113         3.7582
 162   0.0000       0.140299         3.8177
 163   0.0000       0.143455         3.9036
 164   0.0000       0.149296         4.0626
 165   0.0000       0.165390         4.5005

                 SPIN DOWN ORBITALS
  NO   OCC          E(Eh)            E(eV)
   0   1.0000    -196.685403     -5352.0819
   1   1.0000     -88.736519     -2414.6434
   2   1.0000     -88.735593     -2414.6183
   3   1.0000     -88.731849     -2414.5164
   4   1.0000     -88.731668     -2414.5114
   5   1.0000     -88.726584     -2414.3731
   6   1.0000     -88.718496     -2414.1530
   7   1.0000     -88.717829     -2414.1349
   8   1.0000     -88.706979     -2413.8396
   9   1.0000     -88.661938     -2412.6140
  10   1.0000     -88.656759     -2412.4731
  11   1.0000     -88.638289     -2411.9705
  12   1.0000     -88.632860     -2411.8227
  13   1.0000     -22.045015      -599.8754
  14   1.0000     -18.904754      -514.4245
  15   1.0000     -18.560979      -505.0699
  16   1.0000     -18.545412      -504.6463
  17   1.0000     -18.545007      -504.6353
  18   1.0000     -10.074294      -274.1355
  19   1.0000     -10.068468      -273.9770
  20   1.0000     -10.062465      -273.8136
  21   1.0000     -10.060648      -273.7642
  22   1.0000     -10.057400      -273.6758
  23   1.0000     -10.055139      -273.6142
  24   1.0000     -10.049749      -273.4676
  25   1.0000     -10.046507      -273.3794
  26   1.0000     -10.045153      -273.3425
  27   1.0000     -10.040256      -273.2093
  28   1.0000     -10.038037      -273.1489
  29   1.0000     -10.034822      -273.0614
  30   1.0000     -10.020588      -272.6741
  31   1.0000     -10.019264      -272.6380
  32   1.0000      -7.790124      -211.9800
  33   1.0000      -7.789613      -211.9662
  34   1.0000      -7.786318      -211.8765
  35   1.0000      -7.785458      -211.8531
  36   1.0000      -7.779610      -211.6939
  37   1.0000      -7.773082      -211.5163
  38   1.0000      -7.770680      -211.4509
  39   1.0000      -7.763020      -211.2425
  40   1.0000      -7.727717      -210.2819
  41   1.0000      -7.717312      -209.9987
  42   1.0000      -7.690024      -209.2562
  43   1.0000      -7.684059      -209.0939
  44   1.0000      -5.755104      -156.6044
  45   1.0000      -5.754568      -156.5898
  46   1.0000      -5.751239      -156.4992
  47   1.0000      -5.751008      -156.4929
  48   1.0000      -5.750869      -156.4891
  49   1.0000      -5.750226      -156.4716
  50   1.0000      -5.747580      -156.3996
  51   1.0000      -5.746466      -156.3693
  52   1.0000      -5.745634      -156.3467
  53   1.0000      -5.744597      -156.3184
  54   1.0000      -5.744527      -156.3165
  55   1.0000      -5.741317      -156.2292
  56   1.0000      -5.741298      -156.2287
  57   1.0000      -5.740874      -156.2171
  58   1.0000      -5.737369      -156.1217
  59   1.0000      -5.735645      -156.0748
  60   1.0000      -5.734369      -156.0401
  61   1.0000      -5.733423      -156.0144
  62   1.0000      -5.732419      -155.9871
  63   1.0000      -5.729415      -155.9053
  64   1.0000      -5.726875      -155.8362
  65   1.0000      -5.725442      -155.7972
  66   1.0000      -5.723080      -155.7329
  67   1.0000      -5.719761      -155.6426
  68   1.0000      -5.691356      -154.8697
  69   1.0000      -5.685846      -154.7197
  70   1.0000      -5.684806      -154.6914
  71   1.0000      -5.681483      -154.6010
  72   1.0000      -5.675865      -154.4481
  73   1.0000      -5.674724      -154.4171
  74   1.0000      -5.655797      -153.9021
  75   1.0000      -5.649835      -153.7398
  76   1.0000      -5.649251      -153.7239
  77   1.0000      -5.647117      -153.6659
  78   1.0000      -5.643471      -153.5667
  79   1.0000      -5.641112      -153.5025
  80   1.0000      -2.409423       -65.5637
  81   1.0000      -1.476237       -40.1705
  82   1.0000      -1.424366       -38.7590
  83   1.0000      -1.419365       -38.6229
  84   1.0000      -0.709882       -19.3169
  85   1.0000      -0.705946       -19.2098
  86   1.0000      -0.687184       -18.6992
  87   1.0000      -0.685353       -18.6494
  88   1.0000      -0.668239       -18.1837
  89   1.0000      -0.647924       -17.6309
  90   1.0000      -0.635688       -17.2979
  91   1.0000      -0.617825       -16.8119
  92   1.0000      -0.615531       -16.7495
  93   1.0000      -0.606823       -16.5125
  94   1.0000      -0.604905       -16.4603
  95   1.0000      -0.572835       -15.5876
  96   1.0000      -0.572634       -15.5821
  97   1.0000      -0.512430       -13.9439
  98   1.0000      -0.508092       -13.8259
  99   1.0000      -0.489828       -13.3289
 100   1.0000      -0.484833       -13.1930
 101   1.0000      -0.473003       -12.8711
 102   1.0000      -0.463647       -12.6165
 103   1.0000      -0.440218       -11.9789
 104   1.0000      -0.431877       -11.7520
 105   1.0000      -0.411500       -11.1975
 106   1.0000      -0.401385       -10.9223
 107   1.0000      -0.353233        -9.6120
 108   1.0000      -0.347479        -9.4554
 109   1.0000      -0.324536        -8.8311
 110   1.0000      -0.319271        -8.6878
 111   1.0000      -0.318284        -8.6609
 112   1.0000      -0.310458        -8.4480
 113   1.0000      -0.301463        -8.2032
 114   1.0000      -0.295238        -8.0338
 115   1.0000      -0.290919        -7.9163
 116   1.0000      -0.286085        -7.7848
 117   1.0000      -0.265440        -7.2230
 118   1.0000      -0.264256        -7.1908
 119   1.0000      -0.248007        -6.7486
 120   1.0000      -0.238799        -6.4980
 121   1.0000      -0.235370        -6.4047
 122   1.0000      -0.232945        -6.3388
 123   1.0000      -0.229453        -6.2437
 124   1.0000      -0.227312        -6.1855
 125   1.0000      -0.226266        -6.1570
 126   1.0000      -0.224053        -6.0968
 127   1.0000      -0.219059        -5.9609
 128   1.0000      -0.214224        -5.8293
 129   1.0000      -0.211804        -5.7635
 130   1.0000      -0.210392        -5.7251
 131   1.0000      -0.189391        -5.1536
 132   1.0000      -0.188049        -5.1171
 133   1.0000      -0.170300        -4.6341
 134   1.0000      -0.163942        -4.4611
 135   1.0000      -0.150270        -4.0891
 136   1.0000      -0.143946        -3.9170
 137   1.0000      -0.138445        -3.7673
 138   1.0000      -0.135583        -3.6894
 139   1.0000      -0.133727        -3.6389
 140   1.0000      -0.124610        -3.3908
 141   1.0000      -0.120340        -3.2746
 142   1.0000      -0.115697        -3.1483
 143   1.0000      -0.109704        -2.9852
 144   1.0000      -0.106542        -2.8991
 145   1.0000      -0.102055        -2.7771
 146   1.0000      -0.095455        -2.5975
 147   1.0000      -0.087611        -2.3840
 148   1.0000      -0.070904        -1.9294
 149   1.0000      -0.068167        -1.8549
 150   1.0000      -0.057087        -1.5534
 151   1.0000      -0.053003        -1.4423
 152   1.0000      -0.045930        -1.2498
 153   1.0000      -0.041595        -1.1319
 154   1.0000      -0.037644        -1.0243
 155   1.0000      -0.029391        -0.7998
 156   1.0000      -0.017038        -0.4636
 157   1.0000      -0.009633        -0.2621
 158   1.0000       0.025128         0.6838
 159   1.0000       0.042581         1.1587
 160   0.0000       0.138103         3.7580
 161   0.0000       0.141809         3.8588
 162   0.0000       0.143725         3.9109
 163   0.0000       0.147809         4.0221
 164   0.0000       0.153947         4.1891

MULLIKEN ATOMIC CHARGES AND SPIN POPULATIONS
--------------------------------------------
   0 V :    0.448796    1.206881
   1 S :   -0.162267   -0.015095
   2 S :   -0.376811   -0.041437
   3 S :   -0.361676   -0.034507
   4 S :   -0.099959   -0.015045
   5 O :   -0.454530   -0.147843
   6 C :   -0.130853    0.033079
   7 C :   -0.056628   -0.003251
   8 C :   -0.067071    0.002269
   9 C :   -0.120669    0.017738
  10 S :    0.130499   -0.000051
  11 S :    0.020262   -0.004231
  12 S :    0.135930   -0.000282
  13 S :    0.046874   -0.002859
  14 C :   -0.193585    0.003009
  15 C :   -0.204293    0.001506
  16 C :   -0.211304    0.000333
  17 C :   -0.196811   -0.000267
  18 S :    0.039616   -0.000136
  19 S :   -0.035964   -0.000026
  20 S :   -0.015865    0.000050
  21 S :    0.027408   -0.000119
  22 C :   -0.297343    0.000005
  23 C :   -0.301688    0.000006
  24 C :   -0.155550   -0.000013
  25 H :    0.142773   -0.000001
  26 H :    0.111768   -0.000008
  27 H :    0.082330   -0.000004
  28 H :    0.090774   -0.000002
  29 H :    0.112096    0.000001
  30 H :    0.140002    0.000001
  31 C :   -0.299382    0.000303
  32 C :   -0.294095    0.000215
  33 C :   -0.152750   -0.000236
  34 H :    0.140097   -0.000013
  35 H :    0.108048   -0.000011
  36 H :    0.088470    0.000004
  37 H :    0.078738    0.000006
  38 H :    0.108855    0.000073
  39 H :    0.135759   -0.000043
Sum of atomic charges         :   -2.0000000

LOEWDIN ATOMIC CHARGES AND SPIN POPULATIONS
-------------------------------------------
   0 V :   -0.156444    1.159883
   1 S :    0.244266   -0.009197
   2 S :   -0.068083   -0.029361
   3 S :   -0.034578   -0.023716
   4 S :    0.333173   -0.008851
   5 O :   -0.309828   -0.132591
   6 C :   -0.581873    0.029032
   7 C :   -0.544745   -0.000756
   8 C :   -0.537131    0.003816
   9 C :   -0.578311    0.015959
  10 S :    0.494000    0.000525
  11 S :    0.395333   -0.004193
  12 S :    0.501147   -0.000289
  13 S :    0.419265   -0.003128
  14 C :   -0.466056    0.001805
  15 C :   -0.465304    0.000529
  16 C :   -0.631634    0.000532
  17 C :   -0.625103    0.000023
  18 S :    0.397471   -0.000068
  19 S :    0.310085   -0.000004
  20 S :    0.330685    0.000010
  21 S :    0.382655   -0.000095
  22 C :   -0.282863   -0.000011
  23 C :   -0.285813   -0.000006
  24 C :   -0.176350   -0.000006
  25 H :    0.062990   -0.000001
  26 H :    0.052980   -0.000003
  27 H :    0.057513   -0.000004
  28 H :    0.059852   -0.000002
  29 H :    0.052817    0.000003
  30 H :    0.060669   -0.000000
  31 C :   -0.288740    0.000123
  32 C :   -0.284406    0.000010
  33 C :   -0.177098   -0.000007
  34 H :    0.062439   -0.000001
  35 H :    0.051590   -0.000000
  36 H :    0.059151   -0.000001
  37 H :    0.056183    0.000000
  38 H :    0.051389    0.000044
  39 H :    0.058706   -0.000003

  Mayer bond orders larger than 0.100000
B(  0-V ,  1-S ) :   0.6842 B(  0-V ,  2-S ) :   0.8803 B(  0-V ,  3-S ) :   0.8423
B(  0-V ,  4-S ) :   0.6234 B(  0-V ,  5-O ) :   2.1570 B(  1-S ,  8-C ) :   1.3347
B(  1-S ,  9-C ) :   0.1155 B(  2-S ,  6-C ) :   0.8453 B(  3-S ,  9-C ) :   0.9074
B(  4-S ,  6-C ) :   0.1593 B(  4-S ,  7-C ) :   1.4648 B(  6-C ,  7-C ) :   1.6272
B(  6-C , 10-S ) :   1.1097 B(  7-C , 11-S ) :   0.6232 B(  8-C ,  9-C ) :   1.6801
B(  8-C , 13-S ) :   0.7420 B(  9-C , 12-S ) :   1.0566 B( 10-S , 14-C ) :   1.0534
B( 11-S , 14-C ) :   1.4647 B( 12-S , 15-C ) :   1.1222 B( 13-S , 15-C ) :   1.3791
B( 14-C , 16-C ) :   1.4385 B( 15-C , 17-C ) :   1.4451 B( 16-C , 18-S ) :   1.1887
B( 16-C , 19-S ) :   0.9815 B( 17-C , 20-S ) :   1.0225 B( 17-C , 21-S ) :   1.1471
B( 18-S , 32-C ) :   0.9524 B( 19-S , 31-C ) :   1.0273 B( 20-S , 23-C ) :   1.0138
B( 21-S , 22-C ) :   0.9678 B( 22-C , 24-C ) :   0.9188 B( 22-C , 25-H ) :   0.9658
B( 22-C , 26-H ) :   0.9643 B( 23-C , 24-C ) :   0.9099 B( 23-C , 29-H ) :   0.9664
B( 23-C , 30-H ) :   0.9662 B( 24-C , 27-H ) :   0.9625 B( 24-C , 28-H ) :   0.9715
B( 31-C , 33-C ) :   0.9076 B( 31-C , 38-H ) :   0.9667 B( 31-C , 39-H ) :   0.9671
B( 32-C , 33-C ) :   0.9224 B( 32-C , 34-H ) :   0.9662 B( 32-C , 35-H ) :   0.9632
B( 33-C , 36-H ) :   0.9711 B( 33-C , 37-H ) :   0.9621

FINAL SINGLE POINT ENERGY     -6337.483791952284

DIPOLE MOMENT
-------------
                                X             Y             Z
Electronic contribution:     -2.65403      -7.12775     -11.61932
Nuclear contribution   :      2.34808       7.77009      12.78048
                        -----------------------------------------
Total Dipole Moment    :     -0.30595       0.64233       1.16116
                        -----------------------------------------
Magnitude (a.u.)       :      1.36180
Magnitude (Debye)      :      3.46141

Rotational constants in cm-1:     0.010756     0.000804     0.000783
Rotational constants in MHz :   322.467950    24.113252    23.483327

                             ****ORCA TERMINATED NORMALLY****
TOTAL RUN TIME: 0 days 1 hours 3 minutes 22 seconds 793 msec
