                         Program Version 5.0.4 -  RELEASE  -
|  1> ! nofrozencore ReducedPop printbasis
|  2> ! B3LYP TZVP
|  3>
|  4> %basis
|  5> newgto V "CP(PPP)" end
|  6> end
|  7>
|  8> %pal
|  9> nprocs 8
| 10> end
| 11>
| 12> % sym SymThresh 1e-2 end
| 13> * xyz -2 2
| 14> V 0.2414375086962288 -0.618406310905 -0.8935097428659785
| 15> S -0.17112609089615255 1.5818584695006996 -1.9342593468417064
| 16> S 2.3612226142503343 0.3583115141538842 -0.05794925163077666
| 17> S -2.220026111636039 -0.729196080706709 -0.7035599011549365
| 18> S 0.21205461427968636 -1.9081816042377193 1.2134166301981597
| 19> O 0.6679241779709378 -1.616986506288349 -2.0533271649506433
| 20> C 2.7751107985003554 -0.8600369046472361 1.1531455218911102
| 21> C 1.9127722701951106 -1.7645693033643244 1.6650728952376184
| 22> C -1.8875560139143355 1.571343654936312 -2.1130414995624713
| 23> C -2.7065403130624484 0.647725935850435 -1.6191884468286888
| 24> S 4.464469384293321 -0.8343121306157134 1.8086396611224373
| 25> S 2.507589993318624 -2.866789319463192 2.972087733489721
| 26> S -4.379220146698496 0.9940093650668577 -1.9867136918600985
| 27> S -2.7591038705820594 2.818774363218787 -2.9724352212760876
| 28> C 4.180252931463487 -2.17514306669646 2.9924468321763444
| 29> C -4.365206933559289 2.5094838922144143 -2.671366641967234
| 30> C 5.146509121570315 -2.6183185247927994 3.8525228384521495
| 31> C -5.441003676074634 3.1321012704433744 -3.281664740442619
| 32> S 6.8249981280322585 -1.9434030930488617 3.8359400192017215
| 33> S 4.824873692437819 -3.942282908077259 5.04264302449344
| 34> S -5.202778752208282 4.668071614630846 -4.060935508806536
| 35> S -7.0525355140228205 2.5888071041890846 -2.9167301230720657
| 36> C -7.6265095665706495 4.048076292955398 -1.8811745219664895
| 37> C -6.102406445330806 5.767193782581448 -2.8302512626817986
| 38> C -7.5719538178956265 5.449978938230212 -2.5092124893816634
| 39> H -6.970218085710827 4.0556921281387455 -1.00025270571247
| 40> H -8.639246789691901 3.7826951053941893 -1.5455296312795321
| 41> H -7.898862967820138 6.17045675787611 -1.7298691435995066
| 42> H -8.24372800695216 5.5653719383040485 -3.377395798793563
| 43> H -5.972766038544179 6.790357988992773 -3.2109081225331373
| 44> H -5.5350787610751215 5.681039076622941 -1.8935784943575107
| 45> C 6.047673609485529 -5.167830552666916 4.369732563050126
| 46> C 7.69924071479794 -3.513858583861048 3.3652886480307638
| 47> C 7.5029601495638705 -4.693807294265105 4.321651790022443
| 48> H 7.33888002488005 -3.7880600372091426 2.369569398781914
| 49> H 8.757959975456245 -3.2498961666180053 3.2807450960214917
| 50> H 7.868467844066247 -4.448659649342277 5.325155632118401
| 51> H 8.110971689925648 -5.5305544715522705 3.944003716104594
| 52> H 5.946427026396663 -6.060919347182123 4.994133882706966
| 53> H 5.713277054151361 -5.421992460789688 3.359720301820572
| 54> *
| 55>
| 56> % eprnmr
| 57> gtensor true
| 58> Nuclei = all H {aiso,adip,aorb,fgrad,rho}
| 59> Nuclei = all V {aiso,adip,aorb,fgrad,rho}
| 60> end
| 61>
| 62>                          ****END OF INPUT****

CARTESIAN COORDINATES (ANGSTROEM)
---------------------------------
  V      0.242517   -0.617464   -0.889954
  S     -0.170047    1.582801   -1.930703
  S      2.362302    0.359254   -0.054393
  S     -2.218947   -0.728253   -0.700004
  S      0.213134   -1.907239    1.216973
  O      0.669003   -1.616044   -2.049771
  C      2.776190   -0.859094    1.156702
  C      1.913851   -1.763627    1.668629
  C     -1.886477    1.572286   -2.109485
  C     -2.705461    0.648669   -1.615632
  S      4.465548   -0.833369    1.812196
  S      2.508669   -2.865847    2.975644
  S     -4.378141    0.994952   -1.983158
  S     -2.758025    2.819717   -2.968879
  C      4.181332   -2.174200    2.996003
  C     -4.364128    2.510427   -2.667811
  C      5.147588   -2.617376    3.856079
  C     -5.439925    3.133044   -3.278109
  S      6.826077   -1.942460    3.839496
  S      4.825953   -3.941340    5.046199
  S     -5.201700    4.669014   -4.057379
  S     -7.051456    2.589750   -2.913174
  C     -7.625431    4.049019   -1.877618
  C     -6.101327    5.768136   -2.826695
  C     -7.570875    5.450922   -2.505656
  H     -6.969139    4.056635   -0.996697
  H     -8.638168    3.783638   -1.541974
  H     -7.897784    6.171399   -1.726313
  H     -8.242649    5.566315   -3.373840
  H     -5.971687    6.791301   -3.207352
  H     -5.534000    5.681982   -1.890022
  C      6.048753   -5.166888    4.373289
  C      7.700320   -3.512916    3.368845
  C      7.504039   -4.692865    4.325208
  H      7.339959   -3.787117    2.373126
  H      8.759039   -3.248954    3.284301
  H      7.869547   -4.447717    5.328712
  H      8.112051   -5.529612    3.947560
  H      5.947506   -6.059977    4.997690
  H      5.714356   -5.421050    3.363276

 Total Charge           Charge          ....   -2
 Multiplicity           Mult            ....    2
 Number of Electrons    NEL             ....  321
 Basis Dimension        Dim             ....  681

ORBITAL ENERGIES
----------------
                 SPIN UP ORBITALS
  NO   OCC          E(Eh)            E(eV)
   0   1.0000    -196.678031     -5351.8813
   1   1.0000     -88.740142     -2414.7420
   2   1.0000     -88.740088     -2414.7406
   3   1.0000     -88.733958     -2414.5737
   4   1.0000     -88.733790     -2414.5692
   5   1.0000     -88.724558     -2414.3180
   6   1.0000     -88.724473     -2414.3157
   7   1.0000     -88.723765     -2414.2964
   8   1.0000     -88.723664     -2414.2936
   9   1.0000     -88.643474     -2412.1115
  10   1.0000     -88.642873     -2412.0952
  11   1.0000     -88.641698     -2412.0632
  12   1.0000     -88.641477     -2412.0572
  13   1.0000     -22.053389      -600.1032
  14   1.0000     -18.893324      -514.1135
  15   1.0000     -18.559836      -505.0388
  16   1.0000     -18.554678      -504.8984
  17   1.0000     -18.554562      -504.8953
  18   1.0000     -10.082024      -274.3458
  19   1.0000     -10.068553      -273.9792
  20   1.0000     -10.068517      -273.9783
  21   1.0000     -10.062517      -273.8150
  22   1.0000     -10.057444      -273.6770
  23   1.0000     -10.056867      -273.6613
  24   1.0000     -10.055809      -273.6325
  25   1.0000     -10.055763      -273.6312
  26   1.0000     -10.050162      -273.4788
  27   1.0000     -10.032736      -273.0046
  28   1.0000     -10.021146      -272.6893
  29   1.0000     -10.020238      -272.6645
  30   1.0000     -10.017203      -272.5819
  31   1.0000     -10.016302      -272.5574
  32   1.0000      -7.792951      -212.0570
  33   1.0000      -7.792895      -212.0554
  34   1.0000      -7.785954      -211.8666
  35   1.0000      -7.785832      -211.8633
  36   1.0000      -7.781240      -211.7383
  37   1.0000      -7.781163      -211.7362
  38   1.0000      -7.778092      -211.6526
  39   1.0000      -7.778007      -211.6503
  40   1.0000      -7.698511      -209.4871
  41   1.0000      -7.698013      -209.4736
  42   1.0000      -7.695852      -209.4148
  43   1.0000      -7.695541      -209.4063
  44   1.0000      -5.757973      -156.6824
  45   1.0000      -5.757914      -156.6808
  46   1.0000      -5.754659      -156.5922
  47   1.0000      -5.754615      -156.5910
  48   1.0000      -5.751119      -156.4959
  49   1.0000      -5.750983      -156.4922
  50   1.0000      -5.747700      -156.4029
  51   1.0000      -5.747633      -156.4011
  52   1.0000      -5.746756      -156.3772
  53   1.0000      -5.746635      -156.3739
  54   1.0000      -5.745502      -156.3431
  55   1.0000      -5.745426      -156.3410
  56   1.0000      -5.743211      -156.2807
  57   1.0000      -5.743127      -156.2784
  58   1.0000      -5.741531      -156.2350
  59   1.0000      -5.741412      -156.2318
  60   1.0000      -5.741074      -156.2226
  61   1.0000      -5.740992      -156.2203
  62   1.0000      -5.739436      -156.1780
  63   1.0000      -5.739353      -156.1757
  64   1.0000      -5.737502      -156.1254
  65   1.0000      -5.737422      -156.1232
  66   1.0000      -5.732990      -156.0026
  67   1.0000      -5.732900      -156.0001
  68   1.0000      -5.663711      -154.1174
  69   1.0000      -5.663197      -154.1034
  70   1.0000      -5.661137      -154.0474
  71   1.0000      -5.660853      -154.0396
  72   1.0000      -5.657047      -153.9361
  73   1.0000      -5.656544      -153.9224
  74   1.0000      -5.655929      -153.9057
  75   1.0000      -5.655414      -153.8916
  76   1.0000      -5.654545      -153.8680
  77   1.0000      -5.654272      -153.8606
  78   1.0000      -5.653163      -153.8304
  79   1.0000      -5.652825      -153.8212
  80   1.0000      -2.447044       -66.5875
  81   1.0000      -1.488355       -40.5002
  82   1.0000      -1.476727       -40.1838
  83   1.0000      -1.475852       -40.1600
  84   1.0000      -0.738088       -20.0844
  85   1.0000      -0.706540       -19.2259
  86   1.0000      -0.687995       -18.7213
  87   1.0000      -0.681042       -18.5321
  88   1.0000      -0.652849       -17.7649
  89   1.0000      -0.638055       -17.3624
  90   1.0000      -0.630669       -17.1614
  91   1.0000      -0.619404       -16.8548
  92   1.0000      -0.603496       -16.4220
  93   1.0000      -0.591627       -16.0990
  94   1.0000      -0.580989       -15.8095
  95   1.0000      -0.572986       -15.5917
  96   1.0000      -0.569857       -15.5066
  97   1.0000      -0.499091       -13.5810
  98   1.0000      -0.498560       -13.5665
  99   1.0000      -0.497145       -13.5280
 100   1.0000      -0.495320       -13.4784
 101   1.0000      -0.481379       -13.0990
 102   1.0000      -0.478153       -13.0112
 103   1.0000      -0.449721       -12.2375
 104   1.0000      -0.446779       -12.1575
 105   1.0000      -0.416719       -11.3395
 106   1.0000      -0.411881       -11.2078
 107   1.0000      -0.359243        -9.7755
 108   1.0000      -0.352165        -9.5829
 109   1.0000      -0.331661        -9.0250
 110   1.0000      -0.328232        -8.9317
 111   1.0000      -0.326262        -8.8780
 112   1.0000      -0.312742        -8.5101
 113   1.0000      -0.304874        -8.2960
 114   1.0000      -0.304377        -8.2825
 115   1.0000      -0.293185        -7.9780
 116   1.0000      -0.274397        -7.4667
 117   1.0000      -0.258685        -7.0392
 118   1.0000      -0.258307        -7.0289
 119   1.0000      -0.255204        -6.9445
 120   1.0000      -0.252171        -6.8619
 121   1.0000      -0.243361        -6.6222
 122   1.0000      -0.240096        -6.5333
 123   1.0000      -0.232340        -6.3223
 124   1.0000      -0.223176        -6.0729
 125   1.0000      -0.221091        -6.0162
 126   1.0000      -0.218164        -5.9365
 127   1.0000      -0.215474        -5.8633
 128   1.0000      -0.213230        -5.8023
 129   1.0000      -0.193625        -5.2688
 130   1.0000      -0.188735        -5.1357
 131   1.0000      -0.187454        -5.1009
 132   1.0000      -0.186329        -5.0703
 133   1.0000      -0.177347        -4.8259
 134   1.0000      -0.162793        -4.4298
 135   1.0000      -0.152069        -4.1380
 136   1.0000      -0.148430        -4.0390
 137   1.0000      -0.142062        -3.8657
 138   1.0000      -0.136986        -3.7276
 139   1.0000      -0.130164        -3.5419
 140   1.0000      -0.128199        -3.4885
 141   1.0000      -0.116640        -3.1739
 142   1.0000      -0.114314        -3.1106
 143   1.0000      -0.112415        -3.0590
 144   1.0000      -0.100403        -2.7321
 145   1.0000      -0.098049        -2.6680
 146   1.0000      -0.096651        -2.6300
 147   1.0000      -0.091551        -2.4912
 148   1.0000      -0.077254        -2.1022
 149   1.0000      -0.073330        -1.9954
 150   1.0000      -0.062079        -1.6892
 151   1.0000      -0.054462        -1.4820
 152   1.0000      -0.049119        -1.3366
 153   1.0000      -0.039655        -1.0791
 154   1.0000      -0.038821        -1.0564
 155   1.0000      -0.029637        -0.8065
 156   1.0000      -0.028218        -0.7679
 157   1.0000      -0.022006        -0.5988
 158   1.0000      -0.018090        -0.4922
 159   1.0000       0.018579         0.5055
 160   1.0000       0.038729         1.0539
 161   0.0000       0.132127         3.5954
 162   0.0000       0.141922         3.8619
 163   0.0000       0.154588         4.2066
 164   0.0000       0.165466         4.5026
 165   0.0000       0.166975         4.5436

                 SPIN DOWN ORBITALS
  NO   OCC          E(Eh)            E(eV)
   0   1.0000    -196.678177     -5351.8853
   1   1.0000     -88.740143     -2414.7421
   2   1.0000     -88.740089     -2414.7406
   3   1.0000     -88.733965     -2414.5739
   4   1.0000     -88.733797     -2414.5694
   5   1.0000     -88.724558     -2414.3180
   6   1.0000     -88.724474     -2414.3157
   7   1.0000     -88.723774     -2414.2966
   8   1.0000     -88.723674     -2414.2939
   9   1.0000     -88.643599     -2412.1150
  10   1.0000     -88.643001     -2412.0987
  11   1.0000     -88.641840     -2412.0671
  12   1.0000     -88.641621     -2412.0611
  13   1.0000     -22.038482      -599.6976
  14   1.0000     -18.897115      -514.2166
  15   1.0000     -18.554571      -504.8955
  16   1.0000     -18.538717      -504.4641
  17   1.0000     -18.538428      -504.4563
  18   1.0000     -10.082021      -274.3457
  19   1.0000     -10.068552      -273.9792
  20   1.0000     -10.068516      -273.9783
  21   1.0000     -10.062516      -273.8150
  22   1.0000     -10.057432      -273.6766
  23   1.0000     -10.056867      -273.6613
  24   1.0000     -10.055809      -273.6325
  25   1.0000     -10.055764      -273.6312
  26   1.0000     -10.050162      -273.4788
  27   1.0000     -10.032737      -273.0046
  28   1.0000     -10.020898      -272.6825
  29   1.0000     -10.020005      -272.6582
  30   1.0000     -10.017007      -272.5766
  31   1.0000     -10.016108      -272.5522
  32   1.0000      -7.792952      -212.0570
  33   1.0000      -7.792895      -212.0555
  34   1.0000      -7.785962      -211.8668
  35   1.0000      -7.785840      -211.8635
  36   1.0000      -7.781251      -211.7386
  37   1.0000      -7.781173      -211.7365
  38   1.0000      -7.778092      -211.6527
  39   1.0000      -7.778007      -211.6503
  40   1.0000      -7.698628      -209.4903
  41   1.0000      -7.698133      -209.4768
  42   1.0000      -7.695983      -209.4183
  43   1.0000      -7.695675      -209.4100
  44   1.0000      -5.757975      -156.6825
  45   1.0000      -5.757915      -156.6808
  46   1.0000      -5.754660      -156.5923
  47   1.0000      -5.754616      -156.5911
  48   1.0000      -5.751127      -156.4961
  49   1.0000      -5.750991      -156.4924
  50   1.0000      -5.747700      -156.4029
  51   1.0000      -5.747634      -156.4011
  52   1.0000      -5.746770      -156.3775
  53   1.0000      -5.746648      -156.3743
  54   1.0000      -5.745517      -156.3435
  55   1.0000      -5.745441      -156.3414
  56   1.0000      -5.743211      -156.2807
  57   1.0000      -5.743127      -156.2784
  58   1.0000      -5.741537      -156.2352
  59   1.0000      -5.741419      -156.2320
  60   1.0000      -5.741090      -156.2230
  61   1.0000      -5.741007      -156.2207
  62   1.0000      -5.739437      -156.1780
  63   1.0000      -5.739354      -156.1758
  64   1.0000      -5.737508      -156.1255
  65   1.0000      -5.737429      -156.1234
  66   1.0000      -5.732990      -156.0026
  67   1.0000      -5.732901      -156.0002
  68   1.0000      -5.663844      -154.1210
  69   1.0000      -5.663330      -154.1071
  70   1.0000      -5.661277      -154.0512
  71   1.0000      -5.660997      -154.0436
  72   1.0000      -5.657367      -153.9448
  73   1.0000      -5.656875      -153.9314
  74   1.0000      -5.656024      -153.9082
  75   1.0000      -5.655509      -153.8942
  76   1.0000      -5.654944      -153.8788
  77   1.0000      -5.654667      -153.8713
  78   1.0000      -5.653246      -153.8326
  79   1.0000      -5.652916      -153.8237
  80   1.0000      -2.402230       -65.3680
  81   1.0000      -1.469066       -39.9753
  82   1.0000      -1.414388       -38.4875
  83   1.0000      -1.414310       -38.4853
  84   1.0000      -0.738058       -20.0836
  85   1.0000      -0.706526       -19.2256
  86   1.0000      -0.687983       -18.7210
  87   1.0000      -0.680971       -18.5302
  88   1.0000      -0.660979       -17.9862
  89   1.0000      -0.638018       -17.3614
  90   1.0000      -0.630578       -17.1589
  91   1.0000      -0.619404       -16.8549
  92   1.0000      -0.603497       -16.4220
  93   1.0000      -0.591582       -16.0978
  94   1.0000      -0.580969       -15.8090
  95   1.0000      -0.572951       -15.5908
  96   1.0000      -0.569771       -15.5042
  97   1.0000      -0.499226       -13.5846
  98   1.0000      -0.498571       -13.5668
  99   1.0000      -0.497182       -13.5290
 100   1.0000      -0.495368       -13.4796
 101   1.0000      -0.481468       -13.1014
 102   1.0000      -0.478401       -13.0180
 103   1.0000      -0.449747       -12.2382
 104   1.0000      -0.446823       -12.1587
 105   1.0000      -0.416730       -11.3398
 106   1.0000      -0.411947       -11.2097
 107   1.0000      -0.359236        -9.7753
 108   1.0000      -0.352149        -9.5825
 109   1.0000      -0.331636        -9.0243
 110   1.0000      -0.328221        -8.9313
 111   1.0000      -0.326239        -8.8774
 112   1.0000      -0.312718        -8.5095
 113   1.0000      -0.304844        -8.2952
 114   1.0000      -0.304351        -8.2818
 115   1.0000      -0.293178        -7.9778
 116   1.0000      -0.274396        -7.4667
 117   1.0000      -0.258614        -7.0372
 118   1.0000      -0.258162        -7.0250
 119   1.0000      -0.255135        -6.9426
 120   1.0000      -0.252125        -6.8607
 121   1.0000      -0.243324        -6.6212
 122   1.0000      -0.240072        -6.5327
 123   1.0000      -0.232293        -6.3210
 124   1.0000      -0.223121        -6.0714
 125   1.0000      -0.220517        -6.0006
 126   1.0000      -0.217676        -5.9233
 127   1.0000      -0.215438        -5.8624
 128   1.0000      -0.213140        -5.7998
 129   1.0000      -0.192410        -5.2357
 130   1.0000      -0.188583        -5.1316
 131   1.0000      -0.187281        -5.0962
 132   1.0000      -0.186086        -5.0637
 133   1.0000      -0.177015        -4.8168
 134   1.0000      -0.162067        -4.4101
 135   1.0000      -0.151967        -4.1352
 136   1.0000      -0.148340        -4.0365
 137   1.0000      -0.141637        -3.8541
 138   1.0000      -0.136479        -3.7138
 139   1.0000      -0.129803        -3.5321
 140   1.0000      -0.127620        -3.4727
 141   1.0000      -0.118317        -3.2196
 142   1.0000      -0.114457        -3.1145
 143   1.0000      -0.114062        -3.1038
 144   1.0000      -0.100460        -2.7337
 145   1.0000      -0.098243        -2.6733
 146   1.0000      -0.096774        -2.6334
 147   1.0000      -0.091582        -2.4921
 148   1.0000      -0.073348        -1.9959
 149   1.0000      -0.073166        -1.9910
 150   1.0000      -0.062051        -1.6885
 151   1.0000      -0.051882        -1.4118
 152   1.0000      -0.048165        -1.3106
 153   1.0000      -0.039189        -1.0664
 154   1.0000      -0.038925        -1.0592
 155   1.0000      -0.029455        -0.8015
 156   1.0000      -0.029063        -0.7909
 157   1.0000      -0.018345        -0.4992
 158   1.0000       0.018917         0.5147
 159   1.0000       0.037469         1.0196
 160   0.0000       0.132147         3.5959
 161   0.0000       0.141917         3.8618
 162   0.0000       0.151637         4.1263
 163   0.0000       0.156723         4.2647
 164   0.0000       0.166371         4.5272

MULLIKEN ATOMIC CHARGES AND SPIN POPULATIONS
--------------------------------------------
   0 V :    0.458666    1.208263
   1 S :   -0.268553   -0.019168
   2 S :   -0.294077   -0.026199
   3 S :   -0.266778   -0.020246
   4 S :   -0.289774   -0.026536
   5 O :   -0.465616   -0.146839
   6 C :   -0.069707    0.010338
   7 C :   -0.077049    0.008591
   8 C :   -0.102998    0.006210
   9 C :   -0.103687    0.005978
  10 S :    0.080664   -0.000448
  11 S :    0.082069   -0.000520
  12 S :    0.139171   -0.000372
  13 S :    0.138403   -0.000347
  14 C :   -0.185235    0.001510
  15 C :   -0.280188    0.000152
  16 C :   -0.190486   -0.000294
  17 C :   -0.138738    0.000126
  18 S :    0.009319   -0.000116
  19 S :    0.009716   -0.000115
  20 S :   -0.004604   -0.000067
  21 S :   -0.004747   -0.000069
  22 C :   -0.321501    0.000019
  23 C :   -0.320986    0.000017
  24 C :   -0.134787   -0.000026
  25 H :    0.132331   -0.000002
  26 H :    0.113745    0.000001
  27 H :    0.084169   -0.000001
  28 H :    0.087496   -0.000002
  29 H :    0.113367    0.000000
  30 H :    0.132016   -0.000002
  31 C :   -0.315926    0.000188
  32 C :   -0.316703    0.000182
  33 C :   -0.137083   -0.000240
  34 H :    0.145402   -0.000017
  35 H :    0.118971    0.000017
  36 H :    0.093533    0.000018
  37 H :    0.086079    0.000017
  38 H :    0.118803    0.000018
  39 H :    0.145304   -0.000018
Sum of atomic charges         :   -2.0000000

LOEWDIN ATOMIC CHARGES AND SPIN POPULATIONS
-------------------------------------------
   0 V :   -0.158130    1.162179
   1 S :    0.106718   -0.012207
   2 S :    0.072901   -0.016719
   3 S :    0.107939   -0.013108
   4 S :    0.076934   -0.016845
   5 O :   -0.317874   -0.131731
   6 C :   -0.542142    0.009604
   7 C :   -0.544355    0.008403
   8 C :   -0.577533    0.007048
   9 C :   -0.577480    0.006674
  10 S :    0.445913   -0.000801
  11 S :    0.446951   -0.000872
  12 S :    0.536733   -0.000808
  13 S :    0.536455   -0.000831
  14 C :   -0.436651    0.000018
  15 C :   -0.549384   -0.000078
  16 C :   -0.593948    0.000439
  17 C :   -0.681841   -0.000079
  18 S :    0.352022   -0.000100
  19 S :    0.353474   -0.000097
  20 S :    0.363495   -0.000066
  21 S :    0.363151   -0.000066
  22 C :   -0.288435   -0.000007
  23 C :   -0.288498   -0.000009
  24 C :   -0.168345   -0.000003
  25 H :    0.061049   -0.000001
  26 H :    0.050442   -0.000000
  27 H :    0.061302   -0.000001
  28 H :    0.059044   -0.000001
  29 H :    0.050381   -0.000001
  30 H :    0.060906   -0.000001
  31 C :   -0.283794    0.000026
  32 C :   -0.283549    0.000020
  33 C :   -0.172074    0.000007
  34 H :    0.064217   -0.000001
  35 H :    0.054109    0.000007
  36 H :    0.060758    0.000003
  37 H :    0.060863    0.000001
  38 H :    0.054162    0.000007
  39 H :    0.064113   -0.000001

  Mayer bond orders larger than 0.100000
B(  0-V ,  1-S ) :   0.7740 B(  0-V ,  2-S ) :   0.7756 B(  0-V ,  3-S ) :   0.7674
B(  0-V ,  4-S ) :   0.7830 B(  0-V ,  5-O ) :   2.1501 B(  1-S ,  8-C ) :   1.1442
B(  2-S ,  6-C ) :   1.0918 B(  3-S ,  9-C ) :   1.1467 B(  4-S ,  7-C ) :   1.0927
B(  6-C ,  7-C ) :   1.7045 B(  6-C , 10-S ) :   0.9197 B(  7-C , 11-S ) :   0.9233
B(  8-C ,  9-C ) :   1.5925 B(  8-C , 13-S ) :   1.0121 B(  9-C , 12-S ) :   1.0152
B( 10-S , 14-C ) :   1.1979 B( 11-S , 14-C ) :   1.1975 B( 12-S , 15-C ) :   1.2906
B( 13-S , 15-C ) :   1.2922 B( 14-C , 16-C ) :   1.5325 B( 15-C , 17-C ) :   1.3105
B( 16-C , 18-S ) :   1.0662 B( 16-C , 19-S ) :   1.0678 B( 17-C , 20-S ) :   1.0882
B( 17-C , 21-S ) :   1.0870 B( 18-S , 32-C ) :   0.9925 B( 19-S , 31-C ) :   0.9927
B( 20-S , 23-C ) :   0.9791 B( 21-S , 22-C ) :   0.9786 B( 22-C , 24-C ) :   0.9155
B( 22-C , 25-H ) :   0.9720 B( 22-C , 26-H ) :   0.9595 B( 23-C , 24-C ) :   0.9159
B( 23-C , 29-H ) :   0.9596 B( 23-C , 30-H ) :   0.9717 B( 24-C , 27-H ) :   0.9759
B( 24-C , 28-H ) :   0.9580 B( 31-C , 33-C ) :   0.9110 B( 31-C , 38-H ) :   0.9630
B( 31-C , 39-H ) :   0.9687 B( 32-C , 33-C ) :   0.9109 B( 32-C , 34-H ) :   0.9685
B( 32-C , 35-H ) :   0.9630 B( 33-C , 36-H ) :   0.9663 B( 33-C , 37-H ) :   0.9689

FINAL SINGLE POINT ENERGY     -6337.665734574296

DIPOLE MOMENT
-------------
                                X             Y             Z
Electronic contribution:      1.39179      -6.07583     -12.21237
Nuclear contribution   :     -0.63590       6.14484      13.98194
                        -----------------------------------------
Total Dipole Moment    :      0.75589       0.06901       1.76957
                        -----------------------------------------
Magnitude (a.u.)       :      1.92549
Magnitude (Debye)      :      4.89420

Rotational constants in cm-1:     0.010893     0.000804     0.000784
Rotational constants in MHz :   326.571546    24.116370    23.516384

                             ****ORCA TERMINATED NORMALLY****
TOTAL RUN TIME: 0 days 1 hours 2 minutes 42 seconds 66 msec
