                         Program Version 5.0.4 -  RELEASE  -
|  1> ! nofrozencore ReducedPop printbasis
|  2> ! B3LYP TZVP
|  3>
|  4> %basis
|  5> newgto V "CP(PPP)" end
|  6> end
|  7>
|  8> %pal
|  9> nprocs 8
| 10> end
| 11>
| 12> % sym SymThresh 1e-2 end
| 13> * xyz -2 2
| 14> V -0.7368337422551255 0.17008998209071344 -0.816771590973075
| 15> S 0.7999659685230004 -1.4433566222057757 -1.8910273104674589
| 16> S -1.526875537824488 -1.7568485342488676 0.5210585888504151
| 17> S 1.0358570327364993 1.8529714688479861 -1.212395591659617
| 18> S -1.1851089613421992 1.5139387867390273 1.2026810928835518
| 19> O -1.9038613760224967 0.46900264170389167 -1.8526008430664436
| 20> C -2.406160852052265 -0.8933990766671414 1.7751732956369124
| 21> C -2.2659002961751398 0.4188592017241304 2.0503996839658942
| 22> C 2.0516535566110448 -0.3689004684299236 -2.4993140381391514
| 23> C 2.146701198477874 0.9456662530675993 -2.225597070269403
| 24> S -3.5275030785550694 -1.812853428837263 2.835252419660282
| 25> S -3.2053707761070394 1.0504213765700319 3.4425413309219217
| 26> S 3.55582254518977 1.8099857976290983 -2.9274628693163818
| 27> S 3.345977057593407 -1.0644755863501645 -3.5329144903667054
| 28> C -3.975699980207406 -0.4726283218716607 3.896031447991483
| 29> C 4.303175159981271 0.4112318732955288 -3.706478346889674
| 30> C -4.840261292865126 -0.5978023695791052 4.953749706377002
| 31> C 5.4925676369676735 0.4675492263002849 -4.3814652903498335
| 32> S -5.6391354096082775 -2.139121743501674 5.343626801587519
| 33> S -5.252476224977267 0.7902280381528178 5.9938352953456855
| 34> S 6.20866110167941 -0.9719530771266816 -5.149064483827522
| 35> S 6.430524185070233 1.9774730380986292 -4.509585660166218
| 36> C 7.942765921092038 1.431610929584741 -3.591496065165527
| 37> C 7.75751166961042 -1.0755120398022342 -4.1394709941296375
| 38> C 8.612388927752882 0.19348110097737442 -4.191460624693159
| 39> H 7.663285183415163 1.2596275220835682 -2.5495144423094063
| 40> H 8.624718902491987 2.28541985175584 -3.6174850408811268
| 41> H 9.54100579891618 0.003018838247970966 -3.6353058461819234
| 42> H 8.89238681686197 0.4004843733853457 -5.229145883702288
| 43> H 8.313831799655633 -1.9209522295631603 -4.551496292931162
| 44> H 7.474023898780761 -1.3071359894300256 -3.1105361554426323
| 45> C -7.070407382579444 0.9086979494517889 5.6201435819414085
| 46> C -7.380437783135554 -1.5894125200191702 5.088897507941232
| 47> C -7.8171323609100405 -0.41547959952254593 5.930542846343713
| 48> H -7.660884059466099 -1.6007015273731018 3.987894370745749
| 49> H -8.06077794436199 -2.4968641552874695 5.063076708858445
| 50> H -7.695586834543045 -0.6739105351770059 6.987281908957532
| 51> H -8.889996556643588 -0.2468754028448599 5.761088514051257
| 52> H -7.40268468775087 1.5644762708609714 6.465163856294498
| 53> H -7.100709127776945 0.9323732454250411 4.498845190963983
| 54> *
| 55>
| 56> % eprnmr
| 57> gtensor true
| 58> Nuclei = all H {aiso,adip,aorb,fgrad,rho}
| 59> Nuclei = all V {aiso,adip,aorb,fgrad,rho}
| 60> end
| 61>
| 62>                          ****END OF INPUT****

CARTESIAN COORDINATES (ANGSTROEM)
---------------------------------
  V     -0.736398    0.169288   -0.813048
  S      0.800402   -1.444158   -1.887304
  S     -1.526440   -1.757650    0.524782
  S      1.036293    1.852170   -1.208672
  S     -1.184673    1.513137    1.206405
  O     -1.903425    0.468201   -1.848877
  C     -2.405725   -0.894201    1.778897
  C     -2.265464    0.418058    2.054123
  C      2.052090   -0.369702   -2.495590
  C      2.147137    0.944865   -2.221873
  S     -3.527067   -1.813655    2.838976
  S     -3.204935    1.049620    3.446265
  S      3.556259    1.809184   -2.923739
  S      3.346413   -1.065277   -3.529191
  C     -3.975264   -0.473430    3.899755
  C      4.303611    0.410430   -3.702755
  C     -4.839825   -0.598604    4.957473
  C      5.493004    0.466748   -4.377742
  S     -5.638699   -2.139923    5.347350
  S     -5.252040    0.789426    5.997559
  S      6.209097   -0.972755   -5.145341
  S      6.430960    1.976671   -4.505862
  C      7.943202    1.430809   -3.587772
  C      7.757948   -1.076314   -4.135747
  C      8.612825    0.192679   -4.187737
  H      7.663721    1.258826   -2.545791
  H      8.625155    2.284618   -3.613761
  H      9.541442    0.002217   -3.631582
  H      8.892823    0.399683   -5.225422
  H      8.314268   -1.921754   -4.547773
  H      7.474460   -1.307938   -3.106813
  C     -7.069971    0.907896    5.623867
  C     -7.380002   -1.590214    5.092621
  C     -7.816696   -0.416281    5.934266
  H     -7.660448   -1.601503    3.991618
  H     -8.060342   -2.497666    5.066800
  H     -7.695151   -0.674712    6.991006
  H     -8.889561   -0.247677    5.764812
  H     -7.402249    1.563675    6.468887
  H     -7.100273    0.931572    4.502569

 Total Charge           Charge          ....   -2
 Multiplicity           Mult            ....    2
 Number of Electrons    NEL             ....  321
 Basis Dimension        Dim             ....  681

ORBITAL ENERGIES
----------------
                 SPIN UP ORBITALS
  NO   OCC          E(Eh)            E(eV)
   0   1.0000    -196.674874     -5351.7954
   1   1.0000     -88.735837     -2414.6249
   2   1.0000     -88.733054     -2414.5491
   3   1.0000     -88.733015     -2414.5481
   4   1.0000     -88.731279     -2414.5009
   5   1.0000     -88.730855     -2414.4893
   6   1.0000     -88.730501     -2414.4797
   7   1.0000     -88.730077     -2414.4682
   8   1.0000     -88.730029     -2414.4668
   9   1.0000     -88.639833     -2412.0125
  10   1.0000     -88.639817     -2412.0120
  11   1.0000     -88.639663     -2412.0078
  12   1.0000     -88.639264     -2411.9970
  13   1.0000     -22.050264      -600.0182
  14   1.0000     -18.890170      -514.0277
  15   1.0000     -18.556712      -504.9538
  16   1.0000     -18.551539      -504.8130
  17   1.0000     -18.551439      -504.8103
  18   1.0000     -10.076442      -274.1939
  19   1.0000     -10.075860      -274.1781
  20   1.0000     -10.072686      -274.0917
  21   1.0000     -10.068430      -273.9759
  22   1.0000     -10.063189      -273.8333
  23   1.0000     -10.063058      -273.8297
  24   1.0000     -10.052371      -273.5389
  25   1.0000     -10.051004      -273.5017
  26   1.0000     -10.048306      -273.4283
  27   1.0000     -10.048054      -273.4214
  28   1.0000     -10.018666      -272.6218
  29   1.0000     -10.017905      -272.6010
  30   1.0000     -10.017713      -272.5958
  31   1.0000     -10.017113      -272.5795
  32   1.0000      -7.789006      -211.9496
  33   1.0000      -7.786500      -211.8814
  34   1.0000      -7.786473      -211.8807
  35   1.0000      -7.784874      -211.8372
  36   1.0000      -7.784119      -211.8167
  37   1.0000      -7.783798      -211.8079
  38   1.0000      -7.783345      -211.7956
  39   1.0000      -7.783315      -211.7948
  40   1.0000      -7.694149      -209.3684
  41   1.0000      -7.694080      -209.3666
  42   1.0000      -7.693908      -209.3619
  43   1.0000      -7.693640      -209.3546
  44   1.0000      -5.754033      -156.5752
  45   1.0000      -5.751495      -156.5061
  46   1.0000      -5.751464      -156.5053
  47   1.0000      -5.750641      -156.4829
  48   1.0000      -5.749827      -156.4607
  49   1.0000      -5.749049      -156.4396
  50   1.0000      -5.748723      -156.4307
  51   1.0000      -5.748285      -156.4188
  52   1.0000      -5.748259      -156.4181
  53   1.0000      -5.748063      -156.4128
  54   1.0000      -5.748048      -156.4123
  55   1.0000      -5.746394      -156.3673
  56   1.0000      -5.744612      -156.3188
  57   1.0000      -5.744286      -156.3100
  58   1.0000      -5.743865      -156.2985
  59   1.0000      -5.743833      -156.2976
  60   1.0000      -5.743757      -156.2956
  61   1.0000      -5.741307      -156.2289
  62   1.0000      -5.741269      -156.2279
  63   1.0000      -5.739985      -156.1929
  64   1.0000      -5.739722      -156.1858
  65   1.0000      -5.739653      -156.1839
  66   1.0000      -5.739163      -156.1706
  67   1.0000      -5.739140      -156.1700
  68   1.0000      -5.659450      -154.0015
  69   1.0000      -5.659396      -154.0000
  70   1.0000      -5.659245      -153.9959
  71   1.0000      -5.658928      -153.9873
  72   1.0000      -5.652796      -153.8204
  73   1.0000      -5.652753      -153.8192
  74   1.0000      -5.652573      -153.8143
  75   1.0000      -5.652309      -153.8071
  76   1.0000      -5.651484      -153.7847
  77   1.0000      -5.651413      -153.7828
  78   1.0000      -5.651207      -153.7772
  79   1.0000      -5.650944      -153.7700
  80   1.0000      -2.443914       -66.5023
  81   1.0000      -1.485223       -40.4150
  82   1.0000      -1.473557       -40.0975
  83   1.0000      -1.472736       -40.0752
  84   1.0000      -0.709694       -19.3117
  85   1.0000      -0.709389       -19.3035
  86   1.0000      -0.686000       -18.6670
  87   1.0000      -0.685424       -18.6513
  88   1.0000      -0.649738       -17.6803
  89   1.0000      -0.631370       -17.1805
  90   1.0000      -0.631038       -17.1714
  91   1.0000      -0.617046       -16.7907
  92   1.0000      -0.616408       -16.7733
  93   1.0000      -0.574963       -15.6455
  94   1.0000      -0.574503       -15.6330
  95   1.0000      -0.573783       -15.6134
  96   1.0000      -0.572670       -15.5832
  97   1.0000      -0.497503       -13.5378
  98   1.0000      -0.496003       -13.4969
  99   1.0000      -0.495642       -13.4871
 100   1.0000      -0.494360       -13.4522
 101   1.0000      -0.480078       -13.0636
 102   1.0000      -0.477419       -12.9912
 103   1.0000      -0.446771       -12.1572
 104   1.0000      -0.444393       -12.0926
 105   1.0000      -0.416157       -11.3242
 106   1.0000      -0.410964       -11.1829
 107   1.0000      -0.362255        -9.8575
 108   1.0000      -0.355139        -9.6638
 109   1.0000      -0.336562        -9.1583
 110   1.0000      -0.326326        -8.8798
 111   1.0000      -0.318635        -8.6705
 112   1.0000      -0.313924        -8.5423
 113   1.0000      -0.306387        -8.3372
 114   1.0000      -0.303695        -8.2640
 115   1.0000      -0.292158        -7.9500
 116   1.0000      -0.276264        -7.5175
 117   1.0000      -0.259697        -7.0667
 118   1.0000      -0.256842        -6.9890
 119   1.0000      -0.256535        -6.9807
 120   1.0000      -0.249484        -6.7888
 121   1.0000      -0.238396        -6.4871
 122   1.0000      -0.234301        -6.3757
 123   1.0000      -0.230315        -6.2672
 124   1.0000      -0.226727        -6.1696
 125   1.0000      -0.219653        -5.9771
 126   1.0000      -0.215915        -5.8753
 127   1.0000      -0.211865        -5.7652
 128   1.0000      -0.198176        -5.3927
 129   1.0000      -0.192922        -5.2497
 130   1.0000      -0.187161        -5.0929
 131   1.0000      -0.184045        -5.0081
 132   1.0000      -0.181544        -4.9401
 133   1.0000      -0.178081        -4.8458
 134   1.0000      -0.159379        -4.3369
 135   1.0000      -0.150603        -4.0981
 136   1.0000      -0.145642        -3.9631
 137   1.0000      -0.135270        -3.6809
 138   1.0000      -0.134168        -3.6509
 139   1.0000      -0.133041        -3.6202
 140   1.0000      -0.125031        -3.4023
 141   1.0000      -0.121203        -3.2981
 142   1.0000      -0.113461        -3.0874
 143   1.0000      -0.109499        -2.9796
 144   1.0000      -0.099855        -2.7172
 145   1.0000      -0.098176        -2.6715
 146   1.0000      -0.096995        -2.6394
 147   1.0000      -0.094054        -2.5593
 148   1.0000      -0.074442        -2.0257
 149   1.0000      -0.067589        -1.8392
 150   1.0000      -0.067096        -1.8258
 151   1.0000      -0.052340        -1.4242
 152   1.0000      -0.045541        -1.2392
 153   1.0000      -0.037317        -1.0154
 154   1.0000      -0.037071        -1.0088
 155   1.0000      -0.031140        -0.8474
 156   1.0000      -0.024962        -0.6793
 157   1.0000      -0.019073        -0.5190
 158   1.0000      -0.015479        -0.4212
 159   1.0000       0.020496         0.5577
 160   1.0000       0.041339         1.1249
 161   0.0000       0.134758         3.6670
 162   0.0000       0.137372         3.7381
 163   0.0000       0.158875         4.3232
 164   0.0000       0.162401         4.4191
 165   0.0000       0.166435         4.5289

                 SPIN DOWN ORBITALS
  NO   OCC          E(Eh)            E(eV)
   0   1.0000    -196.675021     -5351.7994
   1   1.0000     -88.735838     -2414.6249
   2   1.0000     -88.733054     -2414.5492
   3   1.0000     -88.733016     -2414.5481
   4   1.0000     -88.731280     -2414.5009
   5   1.0000     -88.730863     -2414.4895
   6   1.0000     -88.730510     -2414.4799
   7   1.0000     -88.730086     -2414.4684
   8   1.0000     -88.730037     -2414.4671
   9   1.0000     -88.639973     -2412.0163
  10   1.0000     -88.639954     -2412.0158
  11   1.0000     -88.639804     -2412.0117
  12   1.0000     -88.639403     -2412.0008
  13   1.0000     -22.035329      -599.6118
  14   1.0000     -18.893965      -514.1309
  15   1.0000     -18.551440      -504.8104
  16   1.0000     -18.535504      -504.3767
  17   1.0000     -18.535320      -504.3717
  18   1.0000     -10.076436      -274.1938
  19   1.0000     -10.075860      -274.1781
  20   1.0000     -10.072685      -274.0917
  21   1.0000     -10.068429      -273.9759
  22   1.0000     -10.063189      -273.8333
  23   1.0000     -10.063058      -273.8297
  24   1.0000     -10.052370      -273.5389
  25   1.0000     -10.051004      -273.5017
  26   1.0000     -10.048302      -273.4282
  27   1.0000     -10.048042      -273.4211
  28   1.0000     -10.018428      -272.6153
  29   1.0000     -10.017691      -272.5952
  30   1.0000     -10.017490      -272.5898
  31   1.0000     -10.016901      -272.5737
  32   1.0000      -7.789007      -211.9497
  33   1.0000      -7.786501      -211.8815
  34   1.0000      -7.786474      -211.8807
  35   1.0000      -7.784874      -211.8372
  36   1.0000      -7.784129      -211.8169
  37   1.0000      -7.783807      -211.8082
  38   1.0000      -7.783355      -211.7958
  39   1.0000      -7.783325      -211.7950
  40   1.0000      -7.694280      -209.3720
  41   1.0000      -7.694207      -209.3700
  42   1.0000      -7.694039      -209.3654
  43   1.0000      -7.693769      -209.3581
  44   1.0000      -5.754034      -156.5752
  45   1.0000      -5.751495      -156.5061
  46   1.0000      -5.751465      -156.5053
  47   1.0000      -5.750643      -156.4829
  48   1.0000      -5.749828      -156.4608
  49   1.0000      -5.749060      -156.4399
  50   1.0000      -5.748734      -156.4310
  51   1.0000      -5.748295      -156.4191
  52   1.0000      -5.748270      -156.4184
  53   1.0000      -5.748064      -156.4128
  54   1.0000      -5.748049      -156.4124
  55   1.0000      -5.746395      -156.3674
  56   1.0000      -5.744626      -156.3192
  57   1.0000      -5.744299      -156.3103
  58   1.0000      -5.743879      -156.2989
  59   1.0000      -5.743847      -156.2980
  60   1.0000      -5.743758      -156.2956
  61   1.0000      -5.741308      -156.2289
  62   1.0000      -5.741269      -156.2279
  63   1.0000      -5.739993      -156.1932
  64   1.0000      -5.739723      -156.1858
  65   1.0000      -5.739662      -156.1841
  66   1.0000      -5.739169      -156.1707
  67   1.0000      -5.739146      -156.1701
  68   1.0000      -5.659589      -154.0052
  69   1.0000      -5.659538      -154.0039
  70   1.0000      -5.659386      -153.9997
  71   1.0000      -5.659070      -153.9911
  72   1.0000      -5.653183      -153.8309
  73   1.0000      -5.653104      -153.8288
  74   1.0000      -5.652955      -153.8247
  75   1.0000      -5.652669      -153.8169
  76   1.0000      -5.651571      -153.7871
  77   1.0000      -5.651518      -153.7856
  78   1.0000      -5.651300      -153.7797
  79   1.0000      -5.651049      -153.7729
  80   1.0000      -2.399020       -65.2806
  81   1.0000      -1.465911       -39.8895
  82   1.0000      -1.411168       -38.3998
  83   1.0000      -1.411007       -38.3955
  84   1.0000      -0.709667       -19.3110
  85   1.0000      -0.709373       -19.3030
  86   1.0000      -0.685945       -18.6655
  87   1.0000      -0.685381       -18.6502
  88   1.0000      -0.657881       -17.9019
  89   1.0000      -0.631301       -17.1786
  90   1.0000      -0.630976       -17.1697
  91   1.0000      -0.617048       -16.7907
  92   1.0000      -0.616407       -16.7733
  93   1.0000      -0.574933       -15.6447
  94   1.0000      -0.574481       -15.6324
  95   1.0000      -0.573701       -15.6112
  96   1.0000      -0.572602       -15.5813
  97   1.0000      -0.497526       -13.5384
  98   1.0000      -0.496037       -13.4978
  99   1.0000      -0.495683       -13.4882
 100   1.0000      -0.494399       -13.4533
 101   1.0000      -0.480267       -13.0687
 102   1.0000      -0.477668       -12.9980
 103   1.0000      -0.446792       -12.1578
 104   1.0000      -0.444440       -12.0938
 105   1.0000      -0.416154       -11.3241
 106   1.0000      -0.411073       -11.1859
 107   1.0000      -0.362250        -9.8573
 108   1.0000      -0.355135        -9.6637
 109   1.0000      -0.336545        -9.1579
 110   1.0000      -0.326316        -8.8795
 111   1.0000      -0.318555        -8.6683
 112   1.0000      -0.313949        -8.5430
 113   1.0000      -0.306352        -8.3363
 114   1.0000      -0.303662        -8.2631
 115   1.0000      -0.292153        -7.9499
 116   1.0000      -0.276220        -7.5163
 117   1.0000      -0.259647        -7.0654
 118   1.0000      -0.256745        -6.9864
 119   1.0000      -0.256483        -6.9792
 120   1.0000      -0.249425        -6.7872
 121   1.0000      -0.238327        -6.4852
 122   1.0000      -0.234267        -6.3747
 123   1.0000      -0.230275        -6.2661
 124   1.0000      -0.226651        -6.1675
 125   1.0000      -0.219392        -5.9700
 126   1.0000      -0.215599        -5.8667
 127   1.0000      -0.211720        -5.7612
 128   1.0000      -0.198123        -5.3912
 129   1.0000      -0.191024        -5.1980
 130   1.0000      -0.187087        -5.0909
 131   1.0000      -0.183816        -5.0019
 132   1.0000      -0.181384        -4.9357
 133   1.0000      -0.177953        -4.8424
 134   1.0000      -0.158760        -4.3201
 135   1.0000      -0.150441        -4.0937
 136   1.0000      -0.145568        -3.9611
 137   1.0000      -0.134519        -3.6605
 138   1.0000      -0.133910        -3.6439
 139   1.0000      -0.132836        -3.6147
 140   1.0000      -0.124470        -3.3870
 141   1.0000      -0.120876        -3.2892
 142   1.0000      -0.115266        -3.1365
 143   1.0000      -0.111119        -3.0237
 144   1.0000      -0.099847        -2.7170
 145   1.0000      -0.098509        -2.6806
 146   1.0000      -0.096975        -2.6388
 147   1.0000      -0.094357        -2.5676
 148   1.0000      -0.070606        -1.9213
 149   1.0000      -0.067578        -1.8389
 150   1.0000      -0.067097        -1.8258
 151   1.0000      -0.049754        -1.3539
 152   1.0000      -0.044606        -1.2138
 153   1.0000      -0.037361        -1.0167
 154   1.0000      -0.036501        -0.9932
 155   1.0000      -0.031173        -0.8483
 156   1.0000      -0.026002        -0.7075
 157   1.0000      -0.015688        -0.4269
 158   1.0000       0.020787         0.5656
 159   1.0000       0.040240         1.0950
 160   0.0000       0.134760         3.6670
 161   0.0000       0.137362         3.7378
 162   0.0000       0.155651         4.2355
 163   0.0000       0.159563         4.3419
 164   0.0000       0.163203         4.4410

MULLIKEN ATOMIC CHARGES AND SPIN POPULATIONS
--------------------------------------------
   0 V :    0.471017    1.210949
   1 S :   -0.291154   -0.022531
   2 S :   -0.289334   -0.025166
   3 S :   -0.289048   -0.023443
   4 S :   -0.284236   -0.025634
   5 O :   -0.467552   -0.146930
   6 C :   -0.077550    0.009672
   7 C :   -0.085772    0.008006
   8 C :   -0.084169    0.007754
   9 C :   -0.084591    0.007410
  10 S :    0.100216   -0.000588
  11 S :    0.104991   -0.000633
  12 S :    0.100516   -0.000391
  13 S :    0.099527   -0.000346
  14 C :   -0.209066    0.001506
  15 C :   -0.211567    0.000992
  16 C :   -0.199270   -0.000038
  17 C :   -0.191855   -0.000401
  18 S :    0.029280   -0.000109
  19 S :    0.010497   -0.000119
  20 S :    0.008093   -0.000068
  21 S :    0.008525   -0.000070
  22 C :   -0.301320   -0.000001
  23 C :   -0.299371   -0.000002
  24 C :   -0.157783   -0.000011
  25 H :    0.143229   -0.000001
  26 H :    0.113606   -0.000004
  27 H :    0.083475   -0.000001
  28 H :    0.091773   -0.000001
  29 H :    0.113348   -0.000005
  30 H :    0.142917   -0.000001
  31 C :   -0.296827    0.000211
  32 C :   -0.340817    0.000175
  33 C :   -0.146325   -0.000248
  34 H :    0.123510   -0.000011
  35 H :    0.107085    0.000024
  36 H :    0.093301    0.000026
  37 H :    0.081419    0.000017
  38 H :    0.121662    0.000040
  39 H :    0.159619   -0.000031
Sum of atomic charges         :   -2.0000000

LOEWDIN ATOMIC CHARGES AND SPIN POPULATIONS
-------------------------------------------
   0 V :   -0.155909    1.164254
   1 S :    0.079992   -0.014519
   2 S :    0.079613   -0.016026
   3 S :    0.081463   -0.015293
   4 S :    0.084094   -0.016269
   5 O :   -0.318888   -0.131819
   6 C :   -0.550177    0.009031
   7 C :   -0.552274    0.007928
   8 C :   -0.552462    0.008130
   9 C :   -0.552467    0.007666
  10 S :    0.472468   -0.000906
  11 S :    0.475455   -0.000960
  12 S :    0.471738   -0.000820
  13 S :    0.470935   -0.000830
  14 C :   -0.465172    0.000179
  15 C :   -0.465368   -0.000081
  16 C :   -0.627406    0.000478
  17 C :   -0.622697    0.000085
  18 S :    0.369707   -0.000087
  19 S :    0.351758   -0.000088
  20 S :    0.358825   -0.000072
  21 S :    0.358792   -0.000075
  22 C :   -0.283644   -0.000007
  23 C :   -0.282988   -0.000009
  24 C :   -0.176138   -0.000002
  25 H :    0.062414   -0.000001
  26 H :    0.053553   -0.000002
  27 H :    0.057964   -0.000002
  28 H :    0.060104   -0.000001
  29 H :    0.053565   -0.000002
  30 H :    0.062545   -0.000002
  31 C :   -0.288719    0.000046
  32 C :   -0.326315    0.000037
  33 C :   -0.180748    0.000007
  34 H :    0.065269   -0.000001
  35 H :    0.062490    0.000012
  36 H :    0.058789    0.000005
  37 H :    0.058569    0.000002
  38 H :    0.067724    0.000013
  39 H :    0.083547    0.000000

  Mayer bond orders larger than 0.100000
B(  0-V ,  1-S ) :   0.7720 B(  0-V ,  2-S ) :   0.7704 B(  0-V ,  3-S ) :   0.7655
B(  0-V ,  4-S ) :   0.7780 B(  0-V ,  5-O ) :   2.1488 B(  1-S ,  8-C ) :   1.1037
B(  2-S ,  6-C ) :   1.1050 B(  3-S ,  9-C ) :   1.1063 B(  4-S ,  7-C ) :   1.1064
B(  6-C ,  7-C ) :   1.6805 B(  6-C , 10-S ) :   0.9362 B(  7-C , 11-S ) :   0.9401
B(  8-C ,  9-C ) :   1.6977 B(  8-C , 13-S ) :   0.9337 B(  9-C , 12-S ) :   0.9357
B( 10-S , 14-C ) :   1.2475 B( 11-S , 14-C ) :   1.2516 B( 12-S , 15-C ) :   1.2466
B( 13-S , 15-C ) :   1.2468 B( 14-C , 16-C ) :   1.4366 B( 15-C , 17-C ) :   1.4524
B( 16-C , 18-S ) :   1.0578 B( 16-C , 19-S ) :   1.1113 B( 17-C , 20-S ) :   1.0890
B( 17-C , 21-S ) :   1.0888 B( 18-S , 32-C ) :   1.0091 B( 19-S , 31-C ) :   1.0061
B( 20-S , 23-C ) :   0.9915 B( 21-S , 22-C ) :   0.9908 B( 22-C , 24-C ) :   0.9134
B( 22-C , 25-H ) :   0.9656 B( 22-C , 26-H ) :   0.9655 B( 23-C , 24-C ) :   0.9136
B( 23-C , 29-H ) :   0.9656 B( 23-C , 30-H ) :   0.9656 B( 24-C , 27-H ) :   0.9626
B( 24-C , 28-H ) :   0.9718 B( 31-C , 33-C ) :   0.9030 B( 31-C , 38-H ) :   0.9587
B( 31-C , 39-H ) :   0.9572 B( 32-C , 33-C ) :   0.9446 B( 32-C , 34-H ) :   0.9455
B( 32-C , 35-H ) :   0.9533 B( 33-C , 36-H ) :   0.9723 B( 33-C , 37-H ) :   0.9604

FINAL SINGLE POINT ENERGY     -6337.665433017903

DIPOLE MOMENT
-------------
                                X             Y             Z
Electronic contribution:     -6.04908       2.20448     -11.92368
Nuclear contribution   :      6.82121      -2.46862      13.21638
                        -----------------------------------------
Total Dipole Moment    :      0.77213      -0.26415       1.29270
                        -----------------------------------------
Magnitude (a.u.)       :      1.52873
Magnitude (Debye)      :      3.88573

Rotational constants in cm-1:     0.010760     0.000804     0.000783
Rotational constants in MHz :   322.569680    24.115878    23.486600

                             ****ORCA TERMINATED NORMALLY****
TOTAL RUN TIME: 0 days 1 hours 2 minutes 19 seconds 820 msec
