                         Program Version 5.0.4 -  RELEASE  -
|  1> ! nofrozencore ReducedPop printbasis
|  2> ! B3LYP TZVP
|  3>
|  4> %basis
|  5> newgto V "CP(PPP)" end
|  6> end
|  7>
|  8> %pal
|  9> nprocs 8
| 10> end
| 11>
| 12> % sym SymThresh 1e-2 end
| 13> * xyz -2 2
| 14> V 0.0074233742973872 -1.1059986013419008 0.1280465656540626
| 15> S -1.8071610156166829 -0.832738990103172 -1.5294947642993841
| 16> S 1.528865519068315 -0.5536748400812804 -1.7508523378611742
| 17> S -1.6215197158091246 -0.2936019673066644 1.805280404608091
| 18> S 1.6376090668553078 0.06140376539162373 1.5728342572521803
| 19> O 0.1916139562907835 -2.6653461475688416 0.37200509607870835
| 20> C 3.007115861227036 -0.2302808976483426 -0.826503102334198
| 21> C 3.0494460925927083 0.020043312321935815 0.503095976282091
| 22> C -3.1824294202306787 -0.5029466024809612 -0.4733196219565448
| 23> C -3.107036977736114 -0.2848181200608727 0.8558684982889728
| 24> S 4.559389074740247 -0.15124645822422217 -1.7834274232709593
| 25> S 4.648570082278773 0.4382539802696921 1.2718439101786403
| 26> S -4.648807229713438 0.09790633415262132 1.7175638217431288
| 27> S -4.819043370708502 -0.3922465233561662 -1.2334795035716786
| 28> C 5.5699575904783885 0.2555482767939545 -0.304815370891667
| 29> C -5.691026188913017 0.013288931551418987 0.27105621971541294
| 30> C 6.906409337333155 0.5360630793692431 -0.3947135504838485
| 31> C -7.017666967160392 0.3468930666169789 0.2929100079306404
| 32> S 7.812943939007362 0.3558359278186138 -1.9739517154410327
| 33> S 7.87653788743403 1.0091633310606556 1.082904275084284
| 34> S -8.042657022518988 0.29435221635529074 -1.1665555089157702
| 35> S -7.8648779738100565 0.8042002174809169 1.7957742136156951
| 36> C -8.362682029816146 2.51447500043212 1.3269544010692298
| 37> C -8.52253201852054 2.071072401737499 -1.2394987238498798
| 38> C -9.206755677621317 2.5242851683026784 0.051316717702505635
| 39> H -7.471495926257648 3.1429592304813294 1.2452574612876568
| 40> H -8.966062091655715 2.877409988826999 2.1654636375563943
| 41> H -9.597912068780921 3.5422984242714275 -0.10050954749525925
| 42> H -10.070233947573904 1.868882689256337 0.21884106471391124
| 43> H -9.2318756638497 2.141300738593759 -2.070582796664143
| 44> H -7.644482758007713 2.675763581664658 -1.4827701046166621
| 45> C 9.001433681008505 -0.48601356459402795 1.0567315973482838
| 46> C 8.945477406584974 -1.0103204944336743 -1.378795868134247
| 47> C 9.87068665985023 -0.7370397206090378 -0.18397415376965026
| 48> H 8.26438523610959 -1.8265266939301332 -1.083605639878506
| 49> H 9.50752934651544 -1.3481014285679764 -2.2678077086604342
| 50> H 10.618781178028392 0.055276470269283805 -0.37216096355410394
| 51> H 10.421991580082588 -1.6851467137304879 0.007714118547141244
| 52> H 9.605378858290761 -0.42814897643913963 1.9799394683335632
| 53> H 8.319010630246037 -1.3471585795439938 1.1567985528524203
| 54> *
| 55>
| 56> % eprnmr
| 57> gtensor true
| 58> Nuclei = all H {aiso,adip,aorb,fgrad,rho}
| 59> Nuclei = all V {aiso,adip,aorb,fgrad,rho}
| 60> end
| 61>
| 62>                          ****END OF INPUT****

CARTESIAN COORDINATES (ANGSTROEM)
---------------------------------
  V      0.009578   -1.102890    0.127421
  S     -1.805006   -0.829631   -1.530121
  S      1.531021   -0.550566   -1.751478
  S     -1.619365   -0.290493    1.804654
  S      1.639764    0.064512    1.572208
  O      0.193769   -2.662238    0.371379
  C      3.009271   -0.227172   -0.827129
  C      3.051601    0.023152    0.502470
  C     -3.180274   -0.499838   -0.473946
  C     -3.104882   -0.281710    0.855242
  S      4.561544   -0.148138   -1.784053
  S      4.650725    0.441362    1.271218
  S     -4.646652    0.101015    1.716938
  S     -4.816888   -0.389138   -1.234106
  C      5.572113    0.258657   -0.305441
  C     -5.688871    0.016397    0.270430
  C      6.908564    0.539172   -0.395340
  C     -7.015512    0.350002    0.292284
  S      7.815099    0.358944   -1.974578
  S      7.878693    1.012272    1.082278
  S     -8.040502    0.297461   -1.167182
  S     -7.862723    0.807309    1.795148
  C     -8.360527    2.517583    1.326328
  C     -8.520377    2.074181   -1.240125
  C     -9.204601    2.527394    0.050691
  H     -7.469341    3.146068    1.244631
  H     -8.963907    2.880518    2.164838
  H     -9.595757    3.545407   -0.101136
  H    -10.068079    1.871991    0.218215
  H     -9.229721    2.144409   -2.071209
  H     -7.642328    2.678872   -1.483396
  C      9.003589   -0.482905    1.056106
  C      8.947632   -1.007212   -1.379422
  C      9.872842   -0.733931   -0.184600
  H      8.266540   -1.823418   -1.084232
  H      9.509684   -1.344993   -2.268434
  H     10.620936    0.058385   -0.372787
  H     10.424147   -1.682038    0.007088
  H      9.607534   -0.425041    1.979313
  H      8.321166   -1.344050    1.156173

 Total Charge           Charge          ....   -2
 Multiplicity           Mult            ....    2
 Number of Electrons    NEL             ....  321
 Basis Dimension        Dim             ....  681

ORBITAL ENERGIES
----------------
                 SPIN UP ORBITALS
  NO   OCC          E(Eh)            E(eV)
   0   1.0000    -196.672007     -5351.7174
   1   1.0000     -88.742629     -2414.8097
   2   1.0000     -88.742554     -2414.8077
   3   1.0000     -88.732059     -2414.5221
   4   1.0000     -88.731950     -2414.5191
   5   1.0000     -88.731590     -2414.5093
   6   1.0000     -88.731410     -2414.5044
   7   1.0000     -88.729953     -2414.4648
   8   1.0000     -88.729886     -2414.4629
   9   1.0000     -88.637672     -2411.9537
  10   1.0000     -88.637199     -2411.9408
  11   1.0000     -88.636817     -2411.9304
  12   1.0000     -88.636552     -2411.9232
  13   1.0000     -22.047364      -599.9393
  14   1.0000     -18.887233      -513.9477
  15   1.0000     -18.553845      -504.8758
  16   1.0000     -18.548614      -504.7334
  17   1.0000     -18.548535      -504.7313
  18   1.0000     -10.081463      -274.3306
  19   1.0000     -10.076924      -274.2070
  20   1.0000     -10.070936      -274.0441
  21   1.0000     -10.070929      -274.0439
  22   1.0000     -10.063580      -273.8439
  23   1.0000     -10.063546      -273.8430
  24   1.0000     -10.061756      -273.7943
  25   1.0000     -10.059652      -273.7370
  26   1.0000     -10.050076      -273.4765
  27   1.0000     -10.049164      -273.4516
  28   1.0000     -10.018086      -272.6060
  29   1.0000     -10.017209      -272.5821
  30   1.0000     -10.017171      -272.5811
  31   1.0000     -10.016435      -272.5611
  32   1.0000      -7.794748      -212.1059
  33   1.0000      -7.794652      -212.1033
  34   1.0000      -7.785768      -211.8615
  35   1.0000      -7.785671      -211.8589
  36   1.0000      -7.782908      -211.7837
  37   1.0000      -7.782787      -211.7804
  38   1.0000      -7.782560      -211.7742
  39   1.0000      -7.782524      -211.7732
  40   1.0000      -7.691806      -209.3047
  41   1.0000      -7.691401      -209.2937
  42   1.0000      -7.690825      -209.2780
  43   1.0000      -7.690502      -209.2692
  44   1.0000      -5.759809      -156.7324
  45   1.0000      -5.759718      -156.7299
  46   1.0000      -5.756582      -156.6446
  47   1.0000      -5.756489      -156.6420
  48   1.0000      -5.750722      -156.4851
  49   1.0000      -5.750624      -156.4824
  50   1.0000      -5.749455      -156.4506
  51   1.0000      -5.749361      -156.4481
  52   1.0000      -5.748212      -156.4168
  53   1.0000      -5.748074      -156.4131
  54   1.0000      -5.747597      -156.4001
  55   1.0000      -5.747560      -156.3991
  56   1.0000      -5.747343      -156.3931
  57   1.0000      -5.747249      -156.3906
  58   1.0000      -5.743859      -156.2983
  59   1.0000      -5.743738      -156.2951
  60   1.0000      -5.743223      -156.2810
  61   1.0000      -5.743181      -156.2799
  62   1.0000      -5.740540      -156.2080
  63   1.0000      -5.740440      -156.2053
  64   1.0000      -5.738340      -156.1482
  65   1.0000      -5.738279      -156.1465
  66   1.0000      -5.738247      -156.1456
  67   1.0000      -5.738222      -156.1450
  68   1.0000      -5.657157      -153.9391
  69   1.0000      -5.656740      -153.9277
  70   1.0000      -5.656173      -153.9123
  71   1.0000      -5.655882      -153.9044
  72   1.0000      -5.650483      -153.7575
  73   1.0000      -5.650083      -153.7466
  74   1.0000      -5.649523      -153.7313
  75   1.0000      -5.649225      -153.7232
  76   1.0000      -5.649106      -153.7200
  77   1.0000      -5.648693      -153.7087
  78   1.0000      -5.648116      -153.6930
  79   1.0000      -5.647756      -153.6833
  80   1.0000      -2.440973       -66.4222
  81   1.0000      -1.482294       -40.3353
  82   1.0000      -1.470531       -40.0152
  83   1.0000      -1.469812       -39.9956
  84   1.0000      -0.707469       -19.2512
  85   1.0000      -0.701333       -19.0842
  86   1.0000      -0.681595       -18.5471
  87   1.0000      -0.673276       -18.3208
  88   1.0000      -0.646873       -17.6023
  89   1.0000      -0.628077       -17.0908
  90   1.0000      -0.625904       -17.0317
  91   1.0000      -0.619285       -16.8516
  92   1.0000      -0.614485       -16.7210
  93   1.0000      -0.571092       -15.5402
  94   1.0000      -0.568738       -15.4761
  95   1.0000      -0.566585       -15.4176
  96   1.0000      -0.563774       -15.3411
  97   1.0000      -0.495119       -13.4729
  98   1.0000      -0.494359       -13.4522
  99   1.0000      -0.493415       -13.4265
 100   1.0000      -0.493238       -13.4217
 101   1.0000      -0.476360       -12.9624
 102   1.0000      -0.472125       -12.8472
 103   1.0000      -0.445209       -12.1147
 104   1.0000      -0.442953       -12.0534
 105   1.0000      -0.414881       -11.2895
 106   1.0000      -0.408893       -11.1265
 107   1.0000      -0.358336        -9.7508
 108   1.0000      -0.353901        -9.6301
 109   1.0000      -0.325651        -8.8614
 110   1.0000      -0.324346        -8.8259
 111   1.0000      -0.313793        -8.5387
 112   1.0000      -0.305114        -8.3026
 113   1.0000      -0.301239        -8.1971
 114   1.0000      -0.300032        -8.1643
 115   1.0000      -0.294908        -8.0249
 116   1.0000      -0.285544        -7.7701
 117   1.0000      -0.257079        -6.9955
 118   1.0000      -0.255388        -6.9495
 119   1.0000      -0.253808        -6.9065
 120   1.0000      -0.250130        -6.8064
 121   1.0000      -0.243863        -6.6358
 122   1.0000      -0.232647        -6.3306
 123   1.0000      -0.229959        -6.2575
 124   1.0000      -0.226788        -6.1712
 125   1.0000      -0.217707        -5.9241
 126   1.0000      -0.216699        -5.8967
 127   1.0000      -0.210111        -5.7174
 128   1.0000      -0.208013        -5.6603
 129   1.0000      -0.188707        -5.1350
 130   1.0000      -0.186048        -5.0626
 131   1.0000      -0.184170        -5.0115
 132   1.0000      -0.182358        -4.9622
 133   1.0000      -0.180813        -4.9202
 134   1.0000      -0.154669        -4.2088
 135   1.0000      -0.149711        -4.0739
 136   1.0000      -0.146867        -3.9965
 137   1.0000      -0.133441        -3.6311
 138   1.0000      -0.133198        -3.6245
 139   1.0000      -0.131476        -3.5776
 140   1.0000      -0.122542        -3.3345
 141   1.0000      -0.118286        -3.2187
 142   1.0000      -0.110490        -3.0066
 143   1.0000      -0.107500        -2.9252
 144   1.0000      -0.097242        -2.6461
 145   1.0000      -0.096937        -2.6378
 146   1.0000      -0.095517        -2.5991
 147   1.0000      -0.093804        -2.5525
 148   1.0000      -0.074642        -2.0311
 149   1.0000      -0.071738        -1.9521
 150   1.0000      -0.065626        -1.7858
 151   1.0000      -0.049712        -1.3527
 152   1.0000      -0.042234        -1.1492
 153   1.0000      -0.037402        -1.0178
 154   1.0000      -0.034880        -0.9491
 155   1.0000      -0.030995        -0.8434
 156   1.0000      -0.022083        -0.6009
 157   1.0000      -0.016261        -0.4425
 158   1.0000      -0.011750        -0.3197
 159   1.0000       0.022161         0.6030
 160   1.0000       0.043342         1.1794
 161   0.0000       0.131921         3.5898
 162   0.0000       0.135988         3.7004
 163   0.0000       0.151379         4.1192
 164   0.0000       0.161979         4.4077
 165   0.0000       0.162410         4.4194

                 SPIN DOWN ORBITALS
  NO   OCC          E(Eh)            E(eV)
   0   1.0000    -196.672154     -5351.7214
   1   1.0000     -88.742629     -2414.8097
   2   1.0000     -88.742555     -2414.8077
   3   1.0000     -88.732059     -2414.5221
   4   1.0000     -88.731951     -2414.5191
   5   1.0000     -88.731597     -2414.5095
   6   1.0000     -88.731417     -2414.5046
   7   1.0000     -88.729961     -2414.4650
   8   1.0000     -88.729894     -2414.4632
   9   1.0000     -88.637809     -2411.9574
  10   1.0000     -88.637339     -2411.9446
  11   1.0000     -88.636959     -2411.9343
  12   1.0000     -88.636697     -2411.9271
  13   1.0000     -22.032414      -599.5325
  14   1.0000     -18.891011      -514.0505
  15   1.0000     -18.548577      -504.7324
  16   1.0000     -18.532522      -504.2956
  17   1.0000     -18.532431      -504.2931
  18   1.0000     -10.081465      -274.3306
  19   1.0000     -10.076924      -274.2070
  20   1.0000     -10.070936      -274.0441
  21   1.0000     -10.070929      -274.0439
  22   1.0000     -10.063580      -273.8439
  23   1.0000     -10.063546      -273.8430
  24   1.0000     -10.061756      -273.7943
  25   1.0000     -10.059642      -273.7368
  26   1.0000     -10.050076      -273.4765
  27   1.0000     -10.049159      -273.4515
  28   1.0000     -10.017838      -272.5992
  29   1.0000     -10.016993      -272.5762
  30   1.0000     -10.016941      -272.5748
  31   1.0000     -10.016221      -272.5552
  32   1.0000      -7.794749      -212.1059
  33   1.0000      -7.794653      -212.1033
  34   1.0000      -7.785768      -211.8615
  35   1.0000      -7.785672      -211.8589
  36   1.0000      -7.782915      -211.7839
  37   1.0000      -7.782795      -211.7806
  38   1.0000      -7.782569      -211.7745
  39   1.0000      -7.782533      -211.7735
  40   1.0000      -7.691934      -209.3082
  41   1.0000      -7.691532      -209.2972
  42   1.0000      -7.690958      -209.2816
  43   1.0000      -7.690636      -209.2729
  44   1.0000      -5.759810      -156.7324
  45   1.0000      -5.759720      -156.7299
  46   1.0000      -5.756583      -156.6446
  47   1.0000      -5.756491      -156.6421
  48   1.0000      -5.750722      -156.4851
  49   1.0000      -5.750625      -156.4825
  50   1.0000      -5.749456      -156.4507
  51   1.0000      -5.749362      -156.4481
  52   1.0000      -5.748219      -156.4170
  53   1.0000      -5.748081      -156.4132
  54   1.0000      -5.747606      -156.4003
  55   1.0000      -5.747570      -156.3993
  56   1.0000      -5.747343      -156.3932
  57   1.0000      -5.747249      -156.3906
  58   1.0000      -5.743873      -156.2987
  59   1.0000      -5.743751      -156.2954
  60   1.0000      -5.743237      -156.2814
  61   1.0000      -5.743196      -156.2803
  62   1.0000      -5.740540      -156.2080
  63   1.0000      -5.740441      -156.2053
  64   1.0000      -5.738344      -156.1483
  65   1.0000      -5.738285      -156.1467
  66   1.0000      -5.738253      -156.1458
  67   1.0000      -5.738228      -156.1451
  68   1.0000      -5.657300      -153.9430
  69   1.0000      -5.656882      -153.9316
  70   1.0000      -5.656314      -153.9161
  71   1.0000      -5.656027      -153.9083
  72   1.0000      -5.650835      -153.7670
  73   1.0000      -5.650444      -153.7564
  74   1.0000      -5.649918      -153.7421
  75   1.0000      -5.649616      -153.7339
  76   1.0000      -5.649212      -153.7229
  77   1.0000      -5.648800      -153.7117
  78   1.0000      -5.648202      -153.6954
  79   1.0000      -5.647850      -153.6858
  80   1.0000      -2.396045       -65.1997
  81   1.0000      -1.462999       -39.8102
  82   1.0000      -1.408211       -38.3194
  83   1.0000      -1.407885       -38.3105
  84   1.0000      -0.707461       -19.2510
  85   1.0000      -0.701326       -19.0841
  86   1.0000      -0.681546       -18.5458
  87   1.0000      -0.673209       -18.3189
  88   1.0000      -0.654977       -17.8228
  89   1.0000      -0.628015       -17.0892
  90   1.0000      -0.625812       -17.0292
  91   1.0000      -0.619287       -16.8516
  92   1.0000      -0.614486       -16.7210
  93   1.0000      -0.571069       -15.5396
  94   1.0000      -0.568670       -15.4743
  95   1.0000      -0.566553       -15.4167
  96   1.0000      -0.563694       -15.3389
  97   1.0000      -0.495130       -13.4732
  98   1.0000      -0.494393       -13.4531
  99   1.0000      -0.493438       -13.4271
 100   1.0000      -0.493265       -13.4224
 101   1.0000      -0.476573       -12.9682
 102   1.0000      -0.472403       -12.8547
 103   1.0000      -0.445232       -12.1154
 104   1.0000      -0.442987       -12.0543
 105   1.0000      -0.414881       -11.2895
 106   1.0000      -0.409015       -11.1299
 107   1.0000      -0.358332        -9.7507
 108   1.0000      -0.353897        -9.6300
 109   1.0000      -0.325643        -8.8612
 110   1.0000      -0.324340        -8.8257
 111   1.0000      -0.313739        -8.5373
 112   1.0000      -0.305103        -8.3023
 113   1.0000      -0.301188        -8.1957
 114   1.0000      -0.300008        -8.1636
 115   1.0000      -0.294902        -8.0247
 116   1.0000      -0.285540        -7.7699
 117   1.0000      -0.257006        -6.9935
 118   1.0000      -0.255259        -6.9459
 119   1.0000      -0.253756        -6.9050
 120   1.0000      -0.250062        -6.8045
 121   1.0000      -0.243824        -6.6348
 122   1.0000      -0.232601        -6.3294
 123   1.0000      -0.229928        -6.2567
 124   1.0000      -0.226745        -6.1700
 125   1.0000      -0.217409        -5.9160
 126   1.0000      -0.216616        -5.8944
 127   1.0000      -0.209967        -5.7135
 128   1.0000      -0.207919        -5.6578
 129   1.0000      -0.186777        -5.0824
 130   1.0000      -0.185888        -5.0583
 131   1.0000      -0.184048        -5.0082
 132   1.0000      -0.182033        -4.9534
 133   1.0000      -0.180689        -4.9168
 134   1.0000      -0.154032        -4.1914
 135   1.0000      -0.149601        -4.0708
 136   1.0000      -0.146818        -3.9951
 137   1.0000      -0.133111        -3.6221
 138   1.0000      -0.132730        -3.6118
 139   1.0000      -0.131083        -3.5669
 140   1.0000      -0.121864        -3.3161
 141   1.0000      -0.117920        -3.2088
 142   1.0000      -0.112265        -3.0549
 143   1.0000      -0.108979        -2.9655
 144   1.0000      -0.097252        -2.6464
 145   1.0000      -0.096931        -2.6376
 146   1.0000      -0.095810        -2.6071
 147   1.0000      -0.094227        -2.5641
 148   1.0000      -0.074643        -2.0312
 149   1.0000      -0.068125        -1.8538
 150   1.0000      -0.065619        -1.7856
 151   1.0000      -0.047098        -1.2816
 152   1.0000      -0.041238        -1.1221
 153   1.0000      -0.037471        -1.0196
 154   1.0000      -0.034325        -0.9340
 155   1.0000      -0.031143        -0.8474
 156   1.0000      -0.023141        -0.6297
 157   1.0000      -0.011960        -0.3254
 158   1.0000       0.022419         0.6100
 159   1.0000       0.042211         1.1486
 160   0.0000       0.131919         3.5897
 161   0.0000       0.135986         3.7004
 162   0.0000       0.150733         4.1016
 163   0.0000       0.159410         4.3378
 164   0.0000       0.162702         4.4273

MULLIKEN ATOMIC CHARGES AND SPIN POPULATIONS
--------------------------------------------
   0 V :    0.482435    1.211644
   1 S :   -0.292964   -0.022734
   2 S :   -0.298638   -0.026028
   3 S :   -0.290884   -0.023638
   4 S :   -0.294306   -0.026438
   5 O :   -0.469617   -0.146596
   6 C :   -0.066928    0.010250
   7 C :   -0.073977    0.008449
   8 C :   -0.083365    0.007909
   9 C :   -0.083941    0.007497
  10 S :    0.066063   -0.000283
  11 S :    0.067458   -0.000377
  12 S :    0.092905   -0.000377
  13 S :    0.091993   -0.000323
  14 C :   -0.166289    0.000878
  15 C :   -0.182959    0.000941
  16 C :   -0.187841   -0.000131
  17 C :   -0.217856   -0.000377
  18 S :    0.008319   -0.000117
  19 S :    0.009083   -0.000116
  20 S :    0.010527   -0.000070
  21 S :    0.010564   -0.000073
  22 C :   -0.285705   -0.000003
  23 C :   -0.284724   -0.000003
  24 C :   -0.181325   -0.000009
  25 H :    0.144458   -0.000002
  26 H :    0.110881   -0.000004
  27 H :    0.081792   -0.000001
  28 H :    0.094679   -0.000001
  29 H :    0.110480   -0.000004
  30 H :    0.143946   -0.000001
  31 C :   -0.335706    0.000162
  32 C :   -0.336126    0.000155
  33 C :   -0.111778   -0.000204
  34 H :    0.145545   -0.000016
  35 H :    0.122778    0.000015
  36 H :    0.094310    0.000008
  37 H :    0.088688    0.000016
  38 H :    0.122574    0.000016
  39 H :    0.145449   -0.000017
Sum of atomic charges         :   -2.0000000

LOEWDIN ATOMIC CHARGES AND SPIN POPULATIONS
-------------------------------------------
   0 V :   -0.153073    1.164704
   1 S :    0.075730   -0.014703
   2 S :    0.066920   -0.016753
   3 S :    0.077102   -0.015480
   4 S :    0.070914   -0.016935
   5 O :   -0.319972   -0.131560
   6 C :   -0.536429    0.009600
   7 C :   -0.538765    0.008370
   8 C :   -0.546467    0.008290
   9 C :   -0.546478    0.007799
  10 S :    0.427459   -0.000721
  11 S :    0.428715   -0.000804
  12 S :    0.460340   -0.000828
  13 S :    0.459483   -0.000828
  14 C :   -0.422722   -0.000183
  15 C :   -0.451167   -0.000097
  16 C :   -0.577001    0.000366
  17 C :   -0.616376    0.000112
  18 S :    0.344707   -0.000106
  19 S :    0.346160   -0.000104
  20 S :    0.359907   -0.000073
  21 S :    0.359447   -0.000076
  22 C :   -0.283689   -0.000005
  23 C :   -0.283826   -0.000006
  24 C :   -0.181941   -0.000001
  25 H :    0.062479   -0.000002
  26 H :    0.054787   -0.000002
  27 H :    0.056280   -0.000001
  28 H :    0.061027   -0.000001
  29 H :    0.054725   -0.000002
  30 H :    0.062270   -0.000002
  31 C :   -0.286554    0.000012
  32 C :   -0.286405    0.000006
  33 C :   -0.168184    0.000007
  34 H :    0.067203   -0.000002
  35 H :    0.054426    0.000006
  36 H :    0.061790    0.000002
  37 H :    0.065655   -0.000000
  38 H :    0.054456    0.000006
  39 H :    0.067066   -0.000002

  Mayer bond orders larger than 0.100000
B(  0-V ,  1-S ) :   0.7690 B(  0-V ,  2-S ) :   0.7664 B(  0-V ,  3-S ) :   0.7623
B(  0-V ,  4-S ) :   0.7737 B(  0-V ,  5-O ) :   2.1477 B(  1-S ,  8-C ) :   1.0991
B(  2-S ,  6-C ) :   1.0892 B(  3-S ,  9-C ) :   1.1017 B(  4-S ,  7-C ) :   1.0899
B(  6-C ,  7-C ) :   1.7168 B(  6-C , 10-S ) :   0.9090 B(  7-C , 11-S ) :   0.9124
B(  8-C ,  9-C ) :   1.7105 B(  8-C , 13-S ) :   0.9241 B(  9-C , 12-S ) :   0.9258
B( 10-S , 14-C ) :   1.1665 B( 11-S , 14-C ) :   1.1664 B( 12-S , 15-C ) :   1.2303
B( 13-S , 15-C ) :   1.2300 B( 14-C , 16-C ) :   1.5760 B( 15-C , 17-C ) :   1.4684
B( 16-C , 18-S ) :   1.0472 B( 16-C , 19-S ) :   1.0502 B( 17-C , 20-S ) :   1.0864
B( 17-C , 21-S ) :   1.0873 B( 18-S , 32-C ) :   0.9931 B( 19-S , 31-C ) :   0.9930
B( 20-S , 23-C ) :   0.9957 B( 21-S , 22-C ) :   0.9952 B( 22-C , 24-C ) :   0.9119
B( 22-C , 25-H ) :   0.9619 B( 22-C , 26-H ) :   0.9678 B( 23-C , 24-C ) :   0.9122
B( 23-C , 29-H ) :   0.9680 B( 23-C , 30-H ) :   0.9618 B( 24-C , 27-H ) :   0.9541
B( 24-C , 28-H ) :   0.9786 B( 31-C , 33-C ) :   0.9083 B( 31-C , 38-H ) :   0.9583
B( 31-C , 39-H ) :   0.9718 B( 32-C , 33-C ) :   0.9084 B( 32-C , 34-H ) :   0.9717
B( 32-C , 35-H ) :   0.9583 B( 33-C , 36-H ) :   0.9560 B( 33-C , 37-H ) :   0.9762

FINAL SINGLE POINT ENERGY     -6337.690337795793

DIPOLE MOMENT
-------------
                                X             Y             Z
Electronic contribution:     -2.89570     -12.62082       1.01727
Nuclear contribution   :      3.52639      14.14060      -1.15104
                        -----------------------------------------
Total Dipole Moment    :      0.63069       1.51978      -0.13377
                        -----------------------------------------
Magnitude (a.u.)       :      1.65088
Magnitude (Debye)      :      4.19620

Rotational constants in cm-1:     0.010547     0.000804     0.000782
Rotational constants in MHz :   316.198985    24.102898    23.440019

                             ****ORCA TERMINATED NORMALLY****
TOTAL RUN TIME: 0 days 1 hours 1 minutes 57 seconds 343 msec
