                         Program Version 5.0.4 -  RELEASE  -
|  1> ! nofrozencore ReducedPop printbasis
|  2> ! B3LYP TZVP
|  3>
|  4> %basis
|  5> newgto V "CP(PPP)" end
|  6> end
|  7>
|  8> %pal
|  9> nprocs 8
| 10> end
| 11>
| 12> % sym SymThresh 1e-2 end
| 13> * xyz -2 2
| 14> V -0.8795823080634043 -0.6296673084251249 -0.262345168445148
| 15> S -1.9042125609434373 1.6212151457205317 -0.21163778536118869
| 16> S 0.1792669316033384 0.10333524922639169 -2.3762483060147233
| 17> S -0.9123907717699699 -0.5075041736843018 2.2105238060701837
| 18> S 1.1842646405172077 -1.931454795160578 0.09949420977049926
| 19> O -2.0150899704105374 -1.6535246905967347 -0.6942853280884117
| 20> C 1.3928969099188366 -1.158892125743545 -2.540501734531225
| 21> C 1.797797020791308 -1.9720103585132052 -1.5467301358839278
| 22> C -2.2628765560851005 1.7940133900913595 1.5012182970115773
| 23> C -1.8640718605633857 0.9458757084423952 2.466780112605976
| 24> S 2.227275837595612 -1.3553681802992732 -4.119483888844936
| 25> S 3.12025265226059 -3.1203401876134746 -1.9381019683894491
| 26> S -2.315394728004316 1.3799250893584893 4.150227916908875
| 27> S -3.1943090464364197 3.233598282325349 2.0372772996816115
| 28> C 3.343964519317949 -2.632566329233765 -3.6219688091844926
| 29> C -3.1223343452914505 2.9064731373853343 3.7729712643009696
| 30> C 4.27496300854229 -3.1936175777997224 -4.452276645122209
| 31> C -3.644125322611948 3.7400208146468192 4.723105236351175
| 32> S 4.42988124390155 -2.7122277017611394 -6.161145144907295
| 33> S 5.379376139965699 -4.475764447155723 -3.89359159111938
| 34> S -4.4464293205023235 5.27208642045795 4.293195423468643
| 35> S -3.5271518135654008 3.3744015352941963 6.463683053267732
| 36> C -2.4934111078038588 4.812112076817036 6.9944874053332855
| 37> C -3.25787229769791 6.41947387775102 5.136383526330545
| 38> C -3.140911420732974 6.232378500995076 6.5647136313658425
| 39> H -1.5190226686994461 4.820694380203731 6.481124439979096
| 40> H -2.3264806732743675 4.6180146673967934 8.062991430590628
| 41> H -2.406246573621613 6.832507775710967 7.195385787936766
| 42> H -3.964165813422029 6.004120581527763 7.409606344725728
| 43> H -3.671310856863624 7.4336363519170785 5.071336121967585
| 44> H -2.3532388115551663 6.3740952834468025 4.517567417250311
| 45> C 4.812806070366463 -5.836469260945903 -5.013488145194152
| 46> C 3.9990589993832444 -4.336769771859926 -6.938596948208541
| 47> C 4.906738124185039 -5.48865334913664 -6.500355992675802
| 48> H 2.9541636336765262 -4.5566548560863716 -6.70830006232783
| 49> H 4.084752549093177 -4.174629103661755 -8.016015085618228
| 50> H 5.943978701276959 -5.246974911001908 -6.753012854309873
| 51> H 4.62891070866848 -6.38086429651247 -7.078868489805391
| 52> H 5.4556909129044 -6.689457510620841 -4.782049023031419
| 53> H 3.7881447199312963 -6.096333045243841 -4.738285221583709
| 54> *
| 55>
| 56> % eprnmr
| 57> gtensor true
| 58> Nuclei = all H {aiso,adip,aorb,fgrad,rho}
| 59> Nuclei = all V {aiso,adip,aorb,fgrad,rho}
| 60> end
| 61>
| 62>                          ****END OF INPUT****

CARTESIAN COORDINATES (ANGSTROEM)
---------------------------------
  V     -0.875919   -0.628886   -0.263164
  S     -1.900550    1.621996   -0.212457
  S      0.182930    0.104116   -2.377067
  S     -0.908728   -0.506723    2.209705
  S      1.187928   -1.930674    0.098675
  O     -2.011427   -1.652744   -0.695104
  C      1.396560   -1.158111   -2.541320
  C      1.801460   -1.971229   -1.547549
  C     -2.259214    1.794794    1.500400
  C     -1.860409    0.946657    2.465961
  S      2.230939   -1.354587   -4.120303
  S      3.123916   -3.119559   -1.938921
  S     -2.311732    1.380706    4.149409
  S     -3.190646    3.234379    2.036459
  C      3.347627   -2.631785   -3.622788
  C     -3.118671    2.907254    3.772153
  C      4.278626   -3.192836   -4.453095
  C     -3.640462    3.740802    4.722287
  S      4.433544   -2.711447   -6.161964
  S      5.383039   -4.474983   -3.894410
  S     -4.442766    5.272868    4.292377
  S     -3.523489    3.375183    6.462864
  C     -2.489748    4.812893    6.993669
  C     -3.254209    6.420255    5.135565
  C     -3.137248    6.233160    6.563895
  H     -1.515360    4.821475    6.480306
  H     -2.322818    4.618796    8.062173
  H     -2.402584    6.833289    7.194567
  H     -3.960503    6.004902    7.408788
  H     -3.667648    7.434417    5.070517
  H     -2.349576    6.374876    4.516749
  C      4.816469   -5.835688   -5.014307
  C      4.002722   -4.335989   -6.939416
  C      4.910401   -5.487872   -6.501175
  H      2.957827   -4.555874   -6.709119
  H      4.088416   -4.173848   -8.016834
  H      5.947642   -5.246194   -6.753832
  H      4.632574   -6.380083   -7.079687
  H      5.459354   -6.688676   -4.782868
  H      3.791808   -6.095552   -4.739104

 Total Charge           Charge          ....   -2
 Multiplicity           Mult            ....    2
 Number of Electrons    NEL             ....  321
 Basis Dimension        Dim             ....  681

ORBITAL ENERGIES
----------------
                 SPIN UP ORBITALS
  NO   OCC          E(Eh)            E(eV)
   0   1.0000    -196.674940     -5351.7972
   1   1.0000     -88.736384     -2414.6398
   2   1.0000     -88.733212     -2414.5534
   3   1.0000     -88.733205     -2414.5533
   4   1.0000     -88.732591     -2414.5366
   5   1.0000     -88.731038     -2414.4943
   6   1.0000     -88.730580     -2414.4818
   7   1.0000     -88.730285     -2414.4738
   8   1.0000     -88.730110     -2414.4690
   9   1.0000     -88.640093     -2412.0195
  10   1.0000     -88.639811     -2412.0119
  11   1.0000     -88.639667     -2412.0080
  12   1.0000     -88.639553     -2412.0049
  13   1.0000     -22.050336      -600.0202
  14   1.0000     -18.890286      -514.0308
  15   1.0000     -18.556784      -504.9558
  16   1.0000     -18.551611      -504.8150
  17   1.0000     -18.551511      -504.8123
  18   1.0000     -10.076669      -274.2001
  19   1.0000     -10.075850      -274.1778
  20   1.0000     -10.069284      -273.9992
  21   1.0000     -10.065107      -273.8855
  22   1.0000     -10.064716      -273.8749
  23   1.0000     -10.063505      -273.8419
  24   1.0000     -10.063463      -273.8408
  25   1.0000     -10.051325      -273.5105
  26   1.0000     -10.049284      -273.4549
  27   1.0000     -10.048323      -273.4288
  28   1.0000     -10.018417      -272.6150
  29   1.0000     -10.018256      -272.6106
  30   1.0000     -10.017620      -272.5933
  31   1.0000     -10.017313      -272.5850
  32   1.0000      -7.789769      -211.9704
  33   1.0000      -7.786672      -211.8861
  34   1.0000      -7.786649      -211.8855
  35   1.0000      -7.786077      -211.8699
  36   1.0000      -7.784314      -211.8219
  37   1.0000      -7.783841      -211.8091
  38   1.0000      -7.783533      -211.8007
  39   1.0000      -7.783401      -211.7971
  40   1.0000      -7.694386      -209.3749
  41   1.0000      -7.694109      -209.3673
  42   1.0000      -7.693996      -209.3643
  43   1.0000      -7.693805      -209.3591
  44   1.0000      -5.754819      -156.5966
  45   1.0000      -5.751667      -156.5108
  46   1.0000      -5.751641      -156.5101
  47   1.0000      -5.751425      -156.5042
  48   1.0000      -5.751032      -156.4935
  49   1.0000      -5.749266      -156.4455
  50   1.0000      -5.748785      -156.4324
  51   1.0000      -5.748480      -156.4241
  52   1.0000      -5.748345      -156.4204
  53   1.0000      -5.748244      -156.4177
  54   1.0000      -5.748230      -156.4173
  55   1.0000      -5.747564      -156.3992
  56   1.0000      -5.744829      -156.3248
  57   1.0000      -5.744399      -156.3131
  58   1.0000      -5.744354      -156.3118
  59   1.0000      -5.744045      -156.3034
  60   1.0000      -5.743905      -156.2996
  61   1.0000      -5.741460      -156.2331
  62   1.0000      -5.741436      -156.2324
  63   1.0000      -5.740998      -156.2205
  64   1.0000      -5.740132      -156.1969
  65   1.0000      -5.739662      -156.1842
  66   1.0000      -5.739364      -156.1760
  67   1.0000      -5.739229      -156.1724
  68   1.0000      -5.659704      -154.0084
  69   1.0000      -5.659424      -154.0008
  70   1.0000      -5.659305      -153.9975
  71   1.0000      -5.659140      -153.9930
  72   1.0000      -5.653038      -153.8270
  73   1.0000      -5.652753      -153.8192
  74   1.0000      -5.652664      -153.8168
  75   1.0000      -5.652465      -153.8114
  76   1.0000      -5.651705      -153.7907
  77   1.0000      -5.651437      -153.7834
  78   1.0000      -5.651311      -153.7800
  79   1.0000      -5.651097      -153.7742
  80   1.0000      -2.443994       -66.5044
  81   1.0000      -1.485298       -40.4170
  82   1.0000      -1.473635       -40.0997
  83   1.0000      -1.472816       -40.0774
  84   1.0000      -0.711158       -19.3516
  85   1.0000      -0.709550       -19.3078
  86   1.0000      -0.687514       -18.7082
  87   1.0000      -0.685676       -18.6582
  88   1.0000      -0.649863       -17.6837
  89   1.0000      -0.633120       -17.2281
  90   1.0000      -0.631382       -17.1808
  91   1.0000      -0.618710       -16.8360
  92   1.0000      -0.617301       -16.7976
  93   1.0000      -0.575237       -15.6530
  94   1.0000      -0.574461       -15.6319
  95   1.0000      -0.573669       -15.6103
  96   1.0000      -0.572745       -15.5852
  97   1.0000      -0.499540       -13.5932
  98   1.0000      -0.496615       -13.5136
  99   1.0000      -0.495913       -13.4945
 100   1.0000      -0.494219       -13.4484
 101   1.0000      -0.480654       -13.0793
 102   1.0000      -0.477641       -12.9973
 103   1.0000      -0.446614       -12.1530
 104   1.0000      -0.440938       -11.9985
 105   1.0000      -0.415980       -11.3194
 106   1.0000      -0.410950       -11.1825
 107   1.0000      -0.355401        -9.6710
 108   1.0000      -0.352829        -9.6010
 109   1.0000      -0.327165        -8.9026
 110   1.0000      -0.326693        -8.8898
 111   1.0000      -0.319796        -8.7021
 112   1.0000      -0.315398        -8.5824
 113   1.0000      -0.313077        -8.5193
 114   1.0000      -0.303994        -8.2721
 115   1.0000      -0.296429        -8.0662
 116   1.0000      -0.292499        -7.9593
 117   1.0000      -0.268275        -7.3001
 118   1.0000      -0.257369        -7.0034
 119   1.0000      -0.256891        -6.9904
 120   1.0000      -0.254287        -6.9195
 121   1.0000      -0.235416        -6.4060
 122   1.0000      -0.234436        -6.3793
 123   1.0000      -0.230620        -6.2755
 124   1.0000      -0.222764        -6.0617
 125   1.0000      -0.218585        -5.9480
 126   1.0000      -0.215311        -5.8589
 127   1.0000      -0.213842        -5.8189
 128   1.0000      -0.193621        -5.2687
 129   1.0000      -0.189023        -5.1436
 130   1.0000      -0.186101        -5.0641
 131   1.0000      -0.184355        -5.0165
 132   1.0000      -0.180731        -4.9179
 133   1.0000      -0.175687        -4.7807
 134   1.0000      -0.159441        -4.3386
 135   1.0000      -0.151629        -4.1260
 136   1.0000      -0.146984        -3.9996
 137   1.0000      -0.135837        -3.6963
 138   1.0000      -0.133643        -3.6366
 139   1.0000      -0.133252        -3.6260
 140   1.0000      -0.125127        -3.4049
 141   1.0000      -0.121246        -3.2993
 142   1.0000      -0.113560        -3.0901
 143   1.0000      -0.109738        -2.9861
 144   1.0000      -0.099935        -2.7194
 145   1.0000      -0.098357        -2.6764
 146   1.0000      -0.097399        -2.6504
 147   1.0000      -0.094816        -2.5801
 148   1.0000      -0.074620        -2.0305
 149   1.0000      -0.067777        -1.8443
 150   1.0000      -0.067344        -1.8325
 151   1.0000      -0.052415        -1.4263
 152   1.0000      -0.045690        -1.2433
 153   1.0000      -0.037764        -1.0276
 154   1.0000      -0.037216        -1.0127
 155   1.0000      -0.031494        -0.8570
 156   1.0000      -0.025093        -0.6828
 157   1.0000      -0.019193        -0.5223
 158   1.0000      -0.015511        -0.4221
 159   1.0000       0.020254         0.5511
 160   1.0000       0.041116         1.1188
 161   0.0000       0.135058         3.6751
 162   0.0000       0.136841         3.7236
 163   0.0000       0.156341         4.2543
 164   0.0000       0.161982         4.4078
 165   0.0000       0.168604         4.5879

                 SPIN DOWN ORBITALS
  NO   OCC          E(Eh)            E(eV)
   0   1.0000    -196.675086     -5351.8012
   1   1.0000     -88.736385     -2414.6398
   2   1.0000     -88.733212     -2414.5535
   3   1.0000     -88.733206     -2414.5533
   4   1.0000     -88.732592     -2414.5366
   5   1.0000     -88.731046     -2414.4945
   6   1.0000     -88.730588     -2414.4821
   7   1.0000     -88.730293     -2414.4740
   8   1.0000     -88.730119     -2414.4693
   9   1.0000     -88.640229     -2412.0233
  10   1.0000     -88.639951     -2412.0157
  11   1.0000     -88.639806     -2412.0117
  12   1.0000     -88.639694     -2412.0087
  13   1.0000     -22.035407      -599.6139
  14   1.0000     -18.894065      -514.1336
  15   1.0000     -18.551519      -504.8125
  16   1.0000     -18.535579      -504.3787
  17   1.0000     -18.535396      -504.3738
  18   1.0000     -10.076668      -274.2001
  19   1.0000     -10.075845      -274.1777
  20   1.0000     -10.069284      -273.9992
  21   1.0000     -10.065107      -273.8855
  22   1.0000     -10.064716      -273.8749
  23   1.0000     -10.063504      -273.8419
  24   1.0000     -10.063462      -273.8407
  25   1.0000     -10.051325      -273.5105
  26   1.0000     -10.049280      -273.4548
  27   1.0000     -10.048311      -273.4285
  28   1.0000     -10.018203      -272.6092
  29   1.0000     -10.018018      -272.6041
  30   1.0000     -10.017408      -272.5875
  31   1.0000     -10.017090      -272.5789
  32   1.0000      -7.789770      -211.9704
  33   1.0000      -7.786673      -211.8861
  34   1.0000      -7.786650      -211.8855
  35   1.0000      -7.786078      -211.8699
  36   1.0000      -7.784323      -211.8222
  37   1.0000      -7.783850      -211.8093
  38   1.0000      -7.783543      -211.8010
  39   1.0000      -7.783410      -211.7974
  40   1.0000      -7.694514      -209.3784
  41   1.0000      -7.694239      -209.3709
  42   1.0000      -7.694125      -209.3678
  43   1.0000      -7.693937      -209.3627
  44   1.0000      -5.754820      -156.5966
  45   1.0000      -5.751668      -156.5108
  46   1.0000      -5.751642      -156.5101
  47   1.0000      -5.751426      -156.5043
  48   1.0000      -5.751033      -156.4936
  49   1.0000      -5.749277      -156.4458
  50   1.0000      -5.748795      -156.4327
  51   1.0000      -5.748491      -156.4244
  52   1.0000      -5.748356      -156.4207
  53   1.0000      -5.748245      -156.4177
  54   1.0000      -5.748232      -156.4173
  55   1.0000      -5.747564      -156.3992
  56   1.0000      -5.744844      -156.3251
  57   1.0000      -5.744400      -156.3131
  58   1.0000      -5.744368      -156.3122
  59   1.0000      -5.744059      -156.3038
  60   1.0000      -5.743919      -156.3000
  61   1.0000      -5.741461      -156.2331
  62   1.0000      -5.741437      -156.2324
  63   1.0000      -5.740999      -156.2205
  64   1.0000      -5.740138      -156.1971
  65   1.0000      -5.739668      -156.1843
  66   1.0000      -5.739372      -156.1762
  67   1.0000      -5.739238      -156.1726
  68   1.0000      -5.659846      -154.0122
  69   1.0000      -5.659563      -154.0045
  70   1.0000      -5.659446      -154.0014
  71   1.0000      -5.659282      -153.9969
  72   1.0000      -5.653388      -153.8365
  73   1.0000      -5.653140      -153.8298
  74   1.0000      -5.653024      -153.8266
  75   1.0000      -5.652848      -153.8218
  76   1.0000      -5.651810      -153.7936
  77   1.0000      -5.651523      -153.7858
  78   1.0000      -5.651417      -153.7829
  79   1.0000      -5.651190      -153.7767
  80   1.0000      -2.399117       -65.2833
  81   1.0000      -1.466013       -39.8922
  82   1.0000      -1.411264       -38.4024
  83   1.0000      -1.411103       -38.3981
  84   1.0000      -0.711145       -19.3512
  85   1.0000      -0.709524       -19.3071
  86   1.0000      -0.687470       -18.7070
  87   1.0000      -0.685620       -18.6567
  88   1.0000      -0.657967       -17.9042
  89   1.0000      -0.633066       -17.2266
  90   1.0000      -0.631307       -17.1787
  91   1.0000      -0.618708       -16.8359
  92   1.0000      -0.617300       -16.7976
  93   1.0000      -0.575212       -15.6523
  94   1.0000      -0.574432       -15.6311
  95   1.0000      -0.573594       -15.6083
  96   1.0000      -0.572673       -15.5832
  97   1.0000      -0.499570       -13.5940
  98   1.0000      -0.496629       -13.5140
  99   1.0000      -0.495957       -13.4957
 100   1.0000      -0.494251       -13.4493
 101   1.0000      -0.480856       -13.0848
 102   1.0000      -0.477896       -13.0042
 103   1.0000      -0.446640       -12.1537
 104   1.0000      -0.440981       -11.9997
 105   1.0000      -0.415977       -11.3193
 106   1.0000      -0.411056       -11.1854
 107   1.0000      -0.355392        -9.6707
 108   1.0000      -0.352825        -9.6008
 109   1.0000      -0.327152        -8.9022
 110   1.0000      -0.326680        -8.8894
 111   1.0000      -0.319724        -8.7001
 112   1.0000      -0.315414        -8.5829
 113   1.0000      -0.313075        -8.5192
 114   1.0000      -0.303951        -8.2709
 115   1.0000      -0.296401        -8.0655
 116   1.0000      -0.292493        -7.9591
 117   1.0000      -0.268222        -7.2987
 118   1.0000      -0.257244        -7.0000
 119   1.0000      -0.256819        -6.9884
 120   1.0000      -0.254240        -6.9182
 121   1.0000      -0.235354        -6.4043
 122   1.0000      -0.234412        -6.3787
 123   1.0000      -0.230584        -6.2745
 124   1.0000      -0.222607        -6.0574
 125   1.0000      -0.218296        -5.9401
 126   1.0000      -0.215027        -5.8512
 127   1.0000      -0.213750        -5.8164
 128   1.0000      -0.191922        -5.2225
 129   1.0000      -0.188890        -5.1400
 130   1.0000      -0.185756        -5.0547
 131   1.0000      -0.184185        -5.0119
 132   1.0000      -0.180636        -4.9154
 133   1.0000      -0.175601        -4.7783
 134   1.0000      -0.158824        -4.3218
 135   1.0000      -0.151460        -4.1214
 136   1.0000      -0.146907        -3.9976
 137   1.0000      -0.135201        -3.6790
 138   1.0000      -0.133288        -3.6269
 139   1.0000      -0.133027        -3.6199
 140   1.0000      -0.124557        -3.3894
 141   1.0000      -0.120915        -3.2903
 142   1.0000      -0.115346        -3.1387
 143   1.0000      -0.111310        -3.0289
 144   1.0000      -0.099929        -2.7192
 145   1.0000      -0.098661        -2.6847
 146   1.0000      -0.097398        -2.6503
 147   1.0000      -0.095141        -2.5889
 148   1.0000      -0.070795        -1.9264
 149   1.0000      -0.067753        -1.8437
 150   1.0000      -0.067347        -1.8326
 151   1.0000      -0.049822        -1.3557
 152   1.0000      -0.044753        -1.2178
 153   1.0000      -0.037805        -1.0287
 154   1.0000      -0.036652        -0.9973
 155   1.0000      -0.031546        -0.8584
 156   1.0000      -0.026131        -0.7110
 157   1.0000      -0.015725        -0.4279
 158   1.0000       0.020551         0.5592
 159   1.0000       0.040011         1.0888
 160   0.0000       0.135049         3.6749
 161   0.0000       0.136850         3.7239
 162   0.0000       0.154985         4.2174
 163   0.0000       0.157482         4.2853
 164   0.0000       0.162687         4.4269

MULLIKEN ATOMIC CHARGES AND SPIN POPULATIONS
--------------------------------------------
   0 V :    0.471267    1.210466
   1 S :   -0.290810   -0.022386
   2 S :   -0.289692   -0.025205
   3 S :   -0.288199   -0.023328
   4 S :   -0.285477   -0.025707
   5 O :   -0.467635   -0.146586
   6 C :   -0.077552    0.009665
   7 C :   -0.084331    0.008079
   8 C :   -0.084734    0.007756
   9 C :   -0.085013    0.007367
  10 S :    0.099679   -0.000586
  11 S :    0.100969   -0.000627
  12 S :    0.103689   -0.000387
  13 S :    0.096902   -0.000343
  14 C :   -0.213819    0.001503
  15 C :   -0.213071    0.000976
  16 C :   -0.191569   -0.000055
  17 C :   -0.186532   -0.000394
  18 S :    0.008979   -0.000114
  19 S :    0.009266   -0.000113
  20 S :    0.014431   -0.000068
  21 S :    0.007602   -0.000073
  22 C :   -0.346566    0.000002
  23 C :   -0.283754   -0.000004
  24 C :   -0.144888   -0.000011
  25 H :    0.137312   -0.000002
  26 H :    0.121090   -0.000005
  27 H :    0.082287   -0.000001
  28 H :    0.077798   -0.000003
  29 H :    0.113393   -0.000003
  30 H :    0.161356   -0.000001
  31 C :   -0.299668    0.000194
  32 C :   -0.300824    0.000191
  33 C :   -0.157778   -0.000239
  34 H :    0.142061   -0.000018
  35 H :    0.113445    0.000019
  36 H :    0.092327    0.000023
  37 H :    0.082619    0.000015
  38 H :    0.113386    0.000020
  39 H :    0.142053   -0.000018
Sum of atomic charges         :   -2.0000000

LOEWDIN ATOMIC CHARGES AND SPIN POPULATIONS
-------------------------------------------
   0 V :   -0.155655    1.163846
   1 S :    0.079812   -0.014422
   2 S :    0.079279   -0.016082
   3 S :    0.081881   -0.015217
   4 S :    0.083291   -0.016321
   5 O :   -0.318981   -0.131501
   6 C :   -0.550003    0.009049
   7 C :   -0.552132    0.007956
   8 C :   -0.552443    0.008130
   9 C :   -0.552047    0.007670
  10 S :    0.471277   -0.000900
  11 S :    0.472258   -0.000949
  12 S :    0.473750   -0.000821
  13 S :    0.469787   -0.000830
  14 C :   -0.465132    0.000162
  15 C :   -0.464879   -0.000082
  16 C :   -0.622713    0.000475
  17 C :   -0.622330    0.000084
  18 S :    0.358751   -0.000090
  19 S :    0.360169   -0.000087
  20 S :    0.367348   -0.000074
  21 S :    0.356343   -0.000075
  22 C :   -0.306028   -0.000008
  23 C :   -0.286446   -0.000009
  24 C :   -0.201169   -0.000002
  25 H :    0.054306   -0.000002
  26 H :    0.052092   -0.000003
  27 H :    0.064690   -0.000002
  28 H :    0.083999   -0.000002
  29 H :    0.061390   -0.000002
  30 H :    0.074391   -0.000001
  31 C :   -0.284009    0.000043
  32 C :   -0.283790    0.000037
  33 C :   -0.176320    0.000006
  34 H :    0.062065   -0.000001
  35 H :    0.053513    0.000008
  36 H :    0.060244    0.000005
  37 H :    0.057797    0.000002
  38 H :    0.053615    0.000009
  39 H :    0.062027   -0.000000

  Mayer bond orders larger than 0.100000
B(  0-V ,  1-S ) :   0.7709 B(  0-V ,  2-S ) :   0.7714 B(  0-V ,  3-S ) :   0.7646
B(  0-V ,  4-S ) :   0.7789 B(  0-V ,  5-O ) :   2.1488 B(  1-S ,  8-C ) :   1.1036
B(  2-S ,  6-C ) :   1.1041 B(  3-S ,  9-C ) :   1.1075 B(  4-S ,  7-C ) :   1.1047
B(  6-C ,  7-C ) :   1.6847 B(  6-C , 10-S ) :   0.9350 B(  7-C , 11-S ) :   0.9389
B(  8-C ,  9-C ) :   1.6975 B(  8-C , 13-S ) :   0.9342 B(  9-C , 12-S ) :   0.9356
B( 10-S , 14-C ) :   1.2485 B( 11-S , 14-C ) :   1.2483 B( 12-S , 15-C ) :   1.2499
B( 13-S , 15-C ) :   1.2441 B( 14-C , 16-C ) :   1.4516 B( 15-C , 17-C ) :   1.4686
B( 16-C , 18-S ) :   1.0880 B( 16-C , 19-S ) :   1.0893 B( 17-C , 20-S ) :   1.0799
B( 17-C , 21-S ) :   1.0822 B( 18-S , 32-C ) :   0.9918 B( 19-S , 31-C ) :   0.9918
B( 20-S , 23-C ) :   0.9616 B( 21-S , 22-C ) :   0.9982 B( 22-C , 24-C ) :   0.8541
B( 22-C , 25-H ) :   0.9589 B( 22-C , 26-H ) :   0.9608 B( 23-C , 24-C ) :   0.9719
B( 23-C , 29-H ) :   0.9667 B( 23-C , 30-H ) :   0.9568 B( 24-C , 27-H ) :   0.9647
B( 24-C , 28-H ) :   0.9538 B( 31-C , 33-C ) :   0.9137 B( 31-C , 38-H ) :   0.9656
B( 31-C , 39-H ) :   0.9658 B( 32-C , 33-C ) :   0.9131 B( 32-C , 34-H ) :   0.9657
B( 32-C , 35-H ) :   0.9656 B( 33-C , 36-H ) :   0.9718 B( 33-C , 37-H ) :   0.9624

FINAL SINGLE POINT ENERGY     -6337.657050663988

DIPOLE MOMENT
-------------
                                X             Y             Z
Electronic contribution:    -12.58251      -5.10445      -1.73601
Nuclear contribution   :     14.01260       5.62274       1.80208
                        -----------------------------------------
Total Dipole Moment    :      1.43009       0.51829       0.06607
                        -----------------------------------------
Magnitude (a.u.)       :      1.52255
Magnitude (Debye)      :      3.87001

Rotational constants in cm-1:     0.010759     0.000804     0.000783
Rotational constants in MHz :   322.549503    24.116033    23.486523

                             ****ORCA TERMINATED NORMALLY****
TOTAL RUN TIME: 0 days 1 hours 2 minutes 31 seconds 361 msec
