                         Program Version 5.0.4 -  RELEASE  -
|  1> ! nofrozencore ReducedPop printbasis
|  2> ! B3LYP TZVP
|  3>
|  4> %basis
|  5> newgto V "CP(PPP)" end
|  6> end
|  7>
|  8> %pal
|  9> nprocs 8
| 10> end
| 11>
| 12> % sym SymThresh 1e-2 end
| 13> * xyz -2 2
| 14> V -0.4285836654507614 -0.9901592399375297 -0.25921534647108274
| 15> S 1.5877780198847578 -0.9285144243003836 -1.7168142971299971
| 16> S 1.1596598384795855 -1.3424512483015085 1.5714656164473417
| 17> S -1.4320940597093637 0.5823851897153999 -1.8833608349860393
| 18> S -1.7973264530655912 0.2506450432943208 1.3564017722742214
| 19> O -1.1225944870786528 -2.397949227089131 -0.5054005109734786
| 20> C 0.08539672645986147 -1.011161222218641 2.9418571389202848
| 21> C -1.0948990487983046 -0.3692947316319208 2.8452694453428267
| 22> C 0.9698118061264582 -0.04192097392187592 -3.1016990508579614
| 23> C -0.22984986161797366 0.5643052248230142 -3.17440247524753
| 24> S 0.5584876423798794 -1.4915105779740347 4.6169493121848895
| 25> S -1.9920240579536614 -0.08419258575499294 4.377848074975047
| 26> S -0.5626652753885045 1.4569302395111552 -4.704163332137177
| 27> S 2.04771977877008 0.11832055253606619 -4.532201294187117
| 28> C -0.7660172489875449 -0.725830087356805 5.49878238619489
| 29> C 0.9723209341539889 1.1363294557585764 -5.508209798273058
| 30> C -0.894315391960663 -0.7894170121392182 6.865928651360167
| 31> C 1.28915176876521 1.6529149620094168 -6.736569515112194
| 32> S 0.2968023091875054 -1.7274748290024144 7.870227889227227
| 33> S -2.4085524046005107 -0.16691477170211252 7.613896176023726
| 34> S 2.886784254999257 1.340905402020199 -7.462811526748779
| 35> S 0.17047735965786467 2.7426604662349687 -7.624820538038444
| 36> C 1.2267461895993965 4.266657467374404 -7.655100301065139
| 37> C 3.5319056106206728 3.0767085698457644 -7.5360212343353865
| 38> C 2.6180746316236987 4.0666109085209206 -8.266500586637619
| 39> H 1.3000728664311343 4.648063690238795 -6.633625901528307
| 40> H 0.6625586937706996 4.990924367652153 -8.249337278775721
| 41> H 3.1228780613919613 5.043573474123241 -8.272824397745744
| 42> H 2.5089422431506994 3.75255552081367 -9.31015842331793
| 43> H 4.487794856003481 2.999388982581825 -8.062477297922673
| 44> H 3.7315523386621217 3.4116078900115054 -6.514473481172633
| 45> C -3.098181798321647 -1.7006937009778158 8.411384136268707
| 46> C -0.8161467690213718 -3.028432371774693 8.605312251925092
| 47> C -2.1244695083515515 -2.542276558260213 9.25584740842599
| 48> H -1.0202580127599543 -3.784283594022884 7.832205203635267
| 49> H -0.1920483449498208 -3.4968330445244455 9.38165013724371
| 50> H -1.8757609809281863 -1.9829106408317043 10.174480802917646
| 51> H -2.678170691664038 -3.447932067543442 9.570927772754342
| 52> H -3.8933845461629883 -1.3153715760098819 9.071153116116026
| 53> H -3.572864596594416 -2.317754309204999 7.630465073473954
| 54> *
| 55>
| 56> % eprnmr
| 57> gtensor true
| 58> Nuclei = all H {aiso,adip,aorb,fgrad,rho}
| 59> Nuclei = all V {aiso,adip,aorb,fgrad,rho}
| 60> end
| 61>
| 62>                          ****END OF INPUT****

CARTESIAN COORDINATES (ANGSTROEM)
---------------------------------
  V     -0.427594   -0.987849   -0.256321
  S      1.588768   -0.926204   -1.713919
  S      1.160649   -1.340141    1.574360
  S     -1.431104    0.584696   -1.880466
  S     -1.796337    0.252956    1.359297
  O     -1.121605   -2.395639   -0.502506
  C      0.086386   -1.008851    2.944752
  C     -1.093909   -0.366984    2.848164
  C      0.970801   -0.039610   -3.098804
  C     -0.228860    0.566616   -3.171508
  S      0.559477   -1.489200    4.619844
  S     -1.991034   -0.081882    4.380743
  S     -0.561676    1.459241   -4.701269
  S      2.048709    0.120631   -4.529306
  C     -0.765028   -0.723519    5.501677
  C      0.973311    1.138640   -5.505315
  C     -0.893326   -0.787106    6.868823
  C      1.290141    1.655226   -6.733675
  S      0.297792   -1.725164    7.873123
  S     -2.407563   -0.164604    7.616791
  S      2.887774    1.343216   -7.459917
  S      0.171467    2.744971   -7.621926
  C      1.227736    4.268968   -7.652205
  C      3.532895    3.079019   -7.533126
  C      2.619064    4.068922   -8.263606
  H      1.301063    4.650374   -6.630731
  H      0.663548    4.993235   -8.246442
  H      3.123868    5.045884   -8.269930
  H      2.509932    3.754866   -9.307264
  H      4.488785    3.001700   -8.059582
  H      3.732542    3.413918   -6.511579
  C     -3.097192   -1.698383    8.414279
  C     -0.815157   -3.026122    8.608207
  C     -2.123480   -2.539966    9.258742
  H     -1.019268   -3.781973    7.835100
  H     -0.191059   -3.494522    9.384545
  H     -1.874771   -1.980600   10.177376
  H     -2.677181   -3.445621    9.573823
  H     -3.892395   -1.313061    9.074048
  H     -3.571875   -2.315444    7.633360

 Total Charge           Charge          ....   -2
 Multiplicity           Mult            ....    2
 Number of Electrons    NEL             ....  321
 Basis Dimension        Dim             ....  681

ORBITAL ENERGIES
----------------
                 SPIN UP ORBITALS
  NO   OCC          E(Eh)            E(eV)
   0   1.0000    -196.673471     -5351.7572
   1   1.0000     -88.738682     -2414.7023
   2   1.0000     -88.736556     -2414.6444
   3   1.0000     -88.734433     -2414.5867
   4   1.0000     -88.732971     -2414.5469
   5   1.0000     -88.730438     -2414.4780
   6   1.0000     -88.729597     -2414.4551
   7   1.0000     -88.728830     -2414.4342
   8   1.0000     -88.728251     -2414.4185
   9   1.0000     -88.641050     -2412.0456
  10   1.0000     -88.640456     -2412.0294
  11   1.0000     -88.638770     -2411.9836
  12   1.0000     -88.638512     -2411.9765
  13   1.0000     -22.048952      -599.9825
  14   1.0000     -18.889059      -513.9974
  15   1.0000     -18.555404      -504.9182
  16   1.0000     -18.550212      -504.7769
  17   1.0000     -18.550129      -504.7747
  18   1.0000     -10.076098      -274.1846
  19   1.0000     -10.075036      -274.1557
  20   1.0000     -10.070357      -274.0283
  21   1.0000     -10.069736      -274.0115
  22   1.0000     -10.064253      -273.8622
  23   1.0000     -10.063695      -273.8471
  24   1.0000     -10.059601      -273.7356
  25   1.0000     -10.053661      -273.5740
  26   1.0000     -10.052309      -273.5372
  27   1.0000     -10.048897      -273.4444
  28   1.0000     -10.019718      -272.6504
  29   1.0000     -10.018604      -272.6201
  30   1.0000     -10.017472      -272.5893
  31   1.0000     -10.016648      -272.5668
  32   1.0000      -7.790995      -212.0037
  33   1.0000      -7.789249      -211.9562
  34   1.0000      -7.787450      -211.9073
  35   1.0000      -7.786313      -211.8763
  36   1.0000      -7.783356      -211.7959
  37   1.0000      -7.782676      -211.7774
  38   1.0000      -7.782067      -211.7608
  39   1.0000      -7.781638      -211.7491
  40   1.0000      -7.695075      -209.3936
  41   1.0000      -7.694836      -209.3871
  42   1.0000      -7.692900      -209.3345
  43   1.0000      -7.692785      -209.3313
  44   1.0000      -5.756176      -156.6335
  45   1.0000      -5.754409      -156.5854
  46   1.0000      -5.752626      -156.5369
  47   1.0000      -5.752500      -156.5335
  48   1.0000      -5.751351      -156.5022
  49   1.0000      -5.750787      -156.4869
  50   1.0000      -5.749050      -156.4396
  51   1.0000      -5.748386      -156.4215
  52   1.0000      -5.747834      -156.4065
  53   1.0000      -5.747684      -156.4024
  54   1.0000      -5.746945      -156.3823
  55   1.0000      -5.746536      -156.3712
  56   1.0000      -5.745734      -156.3494
  57   1.0000      -5.744037      -156.3032
  58   1.0000      -5.743878      -156.2989
  59   1.0000      -5.743187      -156.2801
  60   1.0000      -5.742604      -156.2642
  61   1.0000      -5.742243      -156.2544
  62   1.0000      -5.742150      -156.2519
  63   1.0000      -5.741128      -156.2240
  64   1.0000      -5.739136      -156.1698
  65   1.0000      -5.738472      -156.1518
  66   1.0000      -5.737935      -156.1371
  67   1.0000      -5.737483      -156.1248
  68   1.0000      -5.660529      -154.0308
  69   1.0000      -5.660134      -154.0201
  70   1.0000      -5.658292      -153.9700
  71   1.0000      -5.658078      -153.9641
  72   1.0000      -5.653659      -153.8439
  73   1.0000      -5.653436      -153.8378
  74   1.0000      -5.652346      -153.8081
  75   1.0000      -5.652178      -153.8036
  76   1.0000      -5.651578      -153.7873
  77   1.0000      -5.651500      -153.7851
  78   1.0000      -5.650169      -153.7489
  79   1.0000      -5.650083      -153.7466
  80   1.0000      -2.442726       -66.4700
  81   1.0000      -1.484063       -40.3834
  82   1.0000      -1.472416       -40.0665
  83   1.0000      -1.471615       -40.0447
  84   1.0000      -0.707091       -19.2409
  85   1.0000      -0.704108       -19.1598
  86   1.0000      -0.683516       -18.5994
  87   1.0000      -0.681820       -18.5533
  88   1.0000      -0.648751       -17.6534
  89   1.0000      -0.629756       -17.1365
  90   1.0000      -0.629507       -17.1298
  91   1.0000      -0.617461       -16.8020
  92   1.0000      -0.616896       -16.7866
  93   1.0000      -0.572909       -15.5896
  94   1.0000      -0.572549       -15.5799
  95   1.0000      -0.570869       -15.5341
  96   1.0000      -0.569882       -15.5073
  97   1.0000      -0.499207       -13.5841
  98   1.0000      -0.497860       -13.5475
  99   1.0000      -0.496243       -13.5034
 100   1.0000      -0.495067       -13.4715
 101   1.0000      -0.479519       -13.0484
 102   1.0000      -0.476330       -12.9616
 103   1.0000      -0.445155       -12.1133
 104   1.0000      -0.442007       -12.0276
 105   1.0000      -0.415072       -11.2947
 106   1.0000      -0.409967       -11.1558
 107   1.0000      -0.353598        -9.6219
 108   1.0000      -0.352633        -9.5956
 109   1.0000      -0.324152        -8.8206
 110   1.0000      -0.321117        -8.7380
 111   1.0000      -0.318652        -8.6710
 112   1.0000      -0.313842        -8.5401
 113   1.0000      -0.308208        -8.3868
 114   1.0000      -0.304326        -8.2811
 115   1.0000      -0.293126        -7.9764
 116   1.0000      -0.292215        -7.9516
 117   1.0000      -0.264651        -7.2015
 118   1.0000      -0.258287        -7.0284
 119   1.0000      -0.256814        -6.9883
 120   1.0000      -0.254298        -6.9198
 121   1.0000      -0.232282        -6.3207
 122   1.0000      -0.230318        -6.2673
 123   1.0000      -0.229805        -6.2533
 124   1.0000      -0.228279        -6.2118
 125   1.0000      -0.218565        -5.9474
 126   1.0000      -0.216212        -5.8834
 127   1.0000      -0.213803        -5.8179
 128   1.0000      -0.211042        -5.7427
 129   1.0000      -0.193500        -5.2654
 130   1.0000      -0.185723        -5.0538
 131   1.0000      -0.184123        -5.0102
 132   1.0000      -0.182750        -4.9729
 133   1.0000      -0.178184        -4.8486
 134   1.0000      -0.158319        -4.3081
 135   1.0000      -0.151156        -4.1132
 136   1.0000      -0.145360        -3.9554
 137   1.0000      -0.138701        -3.7743
 138   1.0000      -0.134133        -3.6500
 139   1.0000      -0.130575        -3.5531
 140   1.0000      -0.124778        -3.3954
 141   1.0000      -0.119473        -3.2510
 142   1.0000      -0.112485        -3.0609
 143   1.0000      -0.109444        -2.9781
 144   1.0000      -0.097782        -2.6608
 145   1.0000      -0.096166        -2.6168
 146   1.0000      -0.095460        -2.5976
 147   1.0000      -0.091699        -2.4953
 148   1.0000      -0.074309        -2.0221
 149   1.0000      -0.074161        -2.0180
 150   1.0000      -0.068821        -1.8727
 151   1.0000      -0.052389        -1.4256
 152   1.0000      -0.045028        -1.2253
 153   1.0000      -0.036839        -1.0024
 154   1.0000      -0.035725        -0.9721
 155   1.0000      -0.029766        -0.8100
 156   1.0000      -0.024506        -0.6668
 157   1.0000      -0.018020        -0.4903
 158   1.0000      -0.015264        -0.4153
 159   1.0000       0.020029         0.5450
 160   1.0000       0.041426         1.1272
 161   0.0000       0.135878         3.6974
 162   0.0000       0.138327         3.7641
 163   0.0000       0.155405         4.2288
 164   0.0000       0.161360         4.3908
 165   0.0000       0.165578         4.5056

                 SPIN DOWN ORBITALS
  NO   OCC          E(Eh)            E(eV)
   0   1.0000    -196.673617     -5351.7612
   1   1.0000     -88.738683     -2414.7023
   2   1.0000     -88.736556     -2414.6444
   3   1.0000     -88.734434     -2414.5867
   4   1.0000     -88.732972     -2414.5469
   5   1.0000     -88.730446     -2414.4782
   6   1.0000     -88.729606     -2414.4553
   7   1.0000     -88.728838     -2414.4344
   8   1.0000     -88.728259     -2414.4187
   9   1.0000     -88.641191     -2412.0494
  10   1.0000     -88.640596     -2412.0332
  11   1.0000     -88.638907     -2411.9873
  12   1.0000     -88.638649     -2411.9803
  13   1.0000     -22.034069      -599.5775
  14   1.0000     -18.892828      -514.1000
  15   1.0000     -18.550161      -504.7755
  16   1.0000     -18.534206      -504.3414
  17   1.0000     -18.534080      -504.3379
  18   1.0000     -10.076084      -274.1842
  19   1.0000     -10.075036      -274.1557
  20   1.0000     -10.070356      -274.0283
  21   1.0000     -10.069736      -274.0114
  22   1.0000     -10.064253      -273.8622
  23   1.0000     -10.063696      -273.8471
  24   1.0000     -10.059600      -273.7356
  25   1.0000     -10.053648      -273.5737
  26   1.0000     -10.052309      -273.5372
  27   1.0000     -10.048893      -273.4443
  28   1.0000     -10.019447      -272.6430
  29   1.0000     -10.018367      -272.6136
  30   1.0000     -10.017262      -272.5836
  31   1.0000     -10.016442      -272.5612
  32   1.0000      -7.790995      -212.0038
  33   1.0000      -7.789249      -211.9562
  34   1.0000      -7.787451      -211.9073
  35   1.0000      -7.786314      -211.8764
  36   1.0000      -7.783365      -211.7961
  37   1.0000      -7.782686      -211.7776
  38   1.0000      -7.782076      -211.7610
  39   1.0000      -7.781647      -211.7494
  40   1.0000      -7.695205      -209.3972
  41   1.0000      -7.694966      -209.3907
  42   1.0000      -7.693028      -209.3379
  43   1.0000      -7.692913      -209.3348
  44   1.0000      -5.756177      -156.6335
  45   1.0000      -5.754409      -156.5854
  46   1.0000      -5.752626      -156.5369
  47   1.0000      -5.752500      -156.5335
  48   1.0000      -5.751352      -156.5022
  49   1.0000      -5.750787      -156.4869
  50   1.0000      -5.749051      -156.4396
  51   1.0000      -5.748396      -156.4218
  52   1.0000      -5.747835      -156.4065
  53   1.0000      -5.747695      -156.4027
  54   1.0000      -5.746956      -156.3826
  55   1.0000      -5.746548      -156.3715
  56   1.0000      -5.745735      -156.3494
  57   1.0000      -5.744038      -156.3032
  58   1.0000      -5.743891      -156.2992
  59   1.0000      -5.743202      -156.2805
  60   1.0000      -5.742616      -156.2645
  61   1.0000      -5.742243      -156.2544
  62   1.0000      -5.742164      -156.2522
  63   1.0000      -5.741129      -156.2241
  64   1.0000      -5.739146      -156.1701
  65   1.0000      -5.738479      -156.1519
  66   1.0000      -5.737943      -156.1374
  67   1.0000      -5.737489      -156.1250
  68   1.0000      -5.660677      -154.0348
  69   1.0000      -5.660274      -154.0239
  70   1.0000      -5.658434      -153.9738
  71   1.0000      -5.658217      -153.9679
  72   1.0000      -5.654035      -153.8541
  73   1.0000      -5.653821      -153.8483
  74   1.0000      -5.652440      -153.8107
  75   1.0000      -5.652268      -153.8060
  76   1.0000      -5.651933      -153.7969
  77   1.0000      -5.651853      -153.7947
  78   1.0000      -5.650273      -153.7517
  79   1.0000      -5.650187      -153.7494
  80   1.0000      -2.397969       -65.2521
  81   1.0000      -1.464861       -39.8609
  82   1.0000      -1.410277       -38.3756
  83   1.0000      -1.409973       -38.3673
  84   1.0000      -0.707076       -19.2405
  85   1.0000      -0.704065       -19.1586
  86   1.0000      -0.683477       -18.5984
  87   1.0000      -0.681762       -18.5517
  88   1.0000      -0.656833       -17.8733
  89   1.0000      -0.629700       -17.1350
  90   1.0000      -0.629414       -17.1272
  91   1.0000      -0.617461       -16.8020
  92   1.0000      -0.616898       -16.7867
  93   1.0000      -0.572871       -15.5886
  94   1.0000      -0.572488       -15.5782
  95   1.0000      -0.570819       -15.5328
  96   1.0000      -0.569794       -15.5049
  97   1.0000      -0.499213       -13.5843
  98   1.0000      -0.497872       -13.5478
  99   1.0000      -0.496275       -13.5043
 100   1.0000      -0.495103       -13.4724
 101   1.0000      -0.479710       -13.0536
 102   1.0000      -0.476586       -12.9686
 103   1.0000      -0.445177       -12.1139
 104   1.0000      -0.442054       -12.0289
 105   1.0000      -0.415062       -11.2944
 106   1.0000      -0.410067       -11.1585
 107   1.0000      -0.353594        -9.6218
 108   1.0000      -0.352621        -9.5953
 109   1.0000      -0.324141        -8.8203
 110   1.0000      -0.321088        -8.7373
 111   1.0000      -0.318553        -8.6683
 112   1.0000      -0.313860        -8.5406
 113   1.0000      -0.308167        -8.3856
 114   1.0000      -0.304296        -8.2803
 115   1.0000      -0.293123        -7.9763
 116   1.0000      -0.292213        -7.9515
 117   1.0000      -0.264573        -7.1994
 118   1.0000      -0.258238        -7.0270
 119   1.0000      -0.256631        -6.9833
 120   1.0000      -0.254261        -6.9188
 121   1.0000      -0.232243        -6.3197
 122   1.0000      -0.230301        -6.2668
 123   1.0000      -0.229753        -6.2519
 124   1.0000      -0.228245        -6.2109
 125   1.0000      -0.218088        -5.9345
 126   1.0000      -0.215968        -5.8768
 127   1.0000      -0.213756        -5.8166
 128   1.0000      -0.210899        -5.7388
 129   1.0000      -0.191831        -5.2200
 130   1.0000      -0.185648        -5.0517
 131   1.0000      -0.183887        -5.0038
 132   1.0000      -0.182353        -4.9621
 133   1.0000      -0.178057        -4.8452
 134   1.0000      -0.157641        -4.2896
 135   1.0000      -0.150971        -4.1081
 136   1.0000      -0.145261        -3.9528
 137   1.0000      -0.138256        -3.7621
 138   1.0000      -0.133756        -3.6397
 139   1.0000      -0.130365        -3.5474
 140   1.0000      -0.123973        -3.3735
 141   1.0000      -0.119203        -3.2437
 142   1.0000      -0.114230        -3.1084
 143   1.0000      -0.110995        -3.0203
 144   1.0000      -0.097776        -2.6606
 145   1.0000      -0.096424        -2.6238
 146   1.0000      -0.095432        -2.5968
 147   1.0000      -0.092045        -2.5047
 148   1.0000      -0.074308        -2.0220
 149   1.0000      -0.070475        -1.9177
 150   1.0000      -0.068812        -1.8725
 151   1.0000      -0.049802        -1.3552
 152   1.0000      -0.044065        -1.1991
 153   1.0000      -0.036254        -0.9865
 154   1.0000      -0.035766        -0.9733
 155   1.0000      -0.029687        -0.8078
 156   1.0000      -0.025556        -0.6954
 157   1.0000      -0.015492        -0.4215
 158   1.0000       0.020269         0.5515
 159   1.0000       0.040388         1.0990
 160   0.0000       0.135896         3.6979
 161   0.0000       0.138316         3.7638
 162   0.0000       0.153823         4.1857
 163   0.0000       0.157736         4.2922
 164   0.0000       0.162203         4.4138

MULLIKEN ATOMIC CHARGES AND SPIN POPULATIONS
--------------------------------------------
   0 V :    0.466392    1.208700
   1 S :   -0.295357   -0.022505
   2 S :   -0.278314   -0.025492
   3 S :   -0.288641   -0.023078
   4 S :   -0.278594   -0.026004
   5 O :   -0.467291   -0.146233
   6 C :   -0.067977    0.011360
   7 C :   -0.097058    0.008242
   8 C :   -0.094280    0.006947
   9 C :   -0.075634    0.007842
  10 S :    0.096046   -0.000625
  11 S :    0.100381   -0.000641
  12 S :    0.097847   -0.000403
  13 S :    0.099073   -0.000384
  14 C :   -0.243268    0.002230
  15 C :   -0.225268    0.000863
  16 C :   -0.146764   -0.000277
  17 C :   -0.172709   -0.000354
  18 S :   -0.001444   -0.000087
  19 S :   -0.003905   -0.000072
  20 S :    0.003999   -0.000062
  21 S :    0.004997   -0.000076
  22 C :   -0.293342   -0.000002
  23 C :   -0.291484   -0.000002
  24 C :   -0.159405   -0.000010
  25 H :    0.141801   -0.000001
  26 H :    0.111638   -0.000005
  27 H :    0.083348   -0.000001
  28 H :    0.088768   -0.000001
  29 H :    0.110341   -0.000004
  30 H :    0.139813   -0.000001
  31 C :   -0.274417    0.000159
  32 C :   -0.277794    0.000149
  33 C :   -0.164245   -0.000203
  34 H :    0.136629   -0.000011
  35 H :    0.107498    0.000010
  36 H :    0.084546    0.000020
  37 H :    0.083775    0.000015
  38 H :    0.106259    0.000013
  39 H :    0.134037   -0.000012
Sum of atomic charges         :   -2.0000000

LOEWDIN ATOMIC CHARGES AND SPIN POPULATIONS
-------------------------------------------
   0 V :   -0.164347    1.161494
   1 S :    0.074577   -0.014753
   2 S :    0.086287   -0.015768
   3 S :    0.079201   -0.015040
   4 S :    0.088101   -0.016240
   5 O :   -0.319373   -0.131121
   6 C :   -0.543143    0.010331
   7 C :   -0.549428    0.008407
   8 C :   -0.551661    0.007538
   9 C :   -0.548521    0.007903
  10 S :    0.465808   -0.000812
  11 S :    0.463573   -0.000913
  12 S :    0.469704   -0.000826
  13 S :    0.467057   -0.000873
  14 C :   -0.469953    0.000478
  15 C :   -0.467630   -0.000102
  16 C :   -0.607369    0.000454
  17 C :   -0.618694    0.000074
  18 S :    0.349874   -0.000074
  19 S :    0.357527   -0.000057
  20 S :    0.359990   -0.000067
  21 S :    0.354661   -0.000080
  22 C :   -0.283304   -0.000009
  23 C :   -0.284311   -0.000009
  24 C :   -0.173894   -0.000002
  25 H :    0.061890   -0.000002
  26 H :    0.054183   -0.000003
  27 H :    0.059071   -0.000002
  28 H :    0.060079   -0.000001
  29 H :    0.054148   -0.000002
  30 H :    0.061118   -0.000001
  31 C :   -0.287242    0.000034
  32 C :   -0.285556    0.000021
  33 C :   -0.170048    0.000009
  34 H :    0.060336   -0.000000
  35 H :    0.056740    0.000004
  36 H :    0.061188    0.000004
  37 H :    0.062651    0.000001
  38 H :    0.057019    0.000006
  39 H :    0.059688   -0.000000

  Mayer bond orders larger than 0.100000
B(  0-V ,  1-S ) :   0.7591 B(  0-V ,  2-S ) :   0.7852 B(  0-V ,  3-S ) :   0.7641
B(  0-V ,  4-S ) :   0.7829 B(  0-V ,  5-O ) :   2.1477 B(  1-S ,  8-C ) :   1.1081
B(  2-S ,  6-C ) :   1.0873 B(  3-S ,  9-C ) :   1.0983 B(  4-S ,  7-C ) :   1.1001
B(  6-C ,  7-C ) :   1.6884 B(  6-C , 10-S ) :   0.9306 B(  7-C , 11-S ) :   0.9431
B(  8-C ,  9-C ) :   1.7045 B(  8-C , 13-S ) :   0.9343 B(  9-C , 12-S ) :   0.9296
B( 10-S , 14-C ) :   1.2445 B( 11-S , 14-C ) :   1.2346 B( 12-S , 15-C ) :   1.2495
B( 13-S , 15-C ) :   1.2437 B( 14-C , 16-C ) :   1.4654 B( 15-C , 17-C ) :   1.4544
B( 16-C , 18-S ) :   1.0509 B( 16-C , 19-S ) :   1.0511 B( 17-C , 20-S ) :   1.0767
B( 17-C , 21-S ) :   1.0756 B( 18-S , 32-C ) :   1.0016 B( 19-S , 31-C ) :   0.9983
B( 20-S , 23-C ) :   0.9946 B( 21-S , 22-C ) :   0.9952 B( 22-C , 24-C ) :   0.9187
B( 22-C , 25-H ) :   0.9647 B( 22-C , 26-H ) :   0.9657 B( 23-C , 24-C ) :   0.9200
B( 23-C , 29-H ) :   0.9657 B( 23-C , 30-H ) :   0.9636 B( 24-C , 27-H ) :   0.9635
B( 24-C , 28-H ) :   0.9707 B( 31-C , 33-C ) :   0.9286 B( 31-C , 38-H ) :   0.9656
B( 31-C , 39-H ) :   0.9617 B( 32-C , 33-C ) :   0.9271 B( 32-C , 34-H ) :   0.9626
B( 32-C , 35-H ) :   0.9654 B( 33-C , 36-H ) :   0.9694 B( 33-C , 37-H ) :   0.9661

FINAL SINGLE POINT ENERGY     -6337.698299292700

DIPOLE MOMENT
-------------
                                X             Y             Z
Electronic contribution:     -3.96927     -11.28328      -6.59435
Nuclear contribution   :      4.37803      12.51087       7.43308
                        -----------------------------------------
Total Dipole Moment    :      0.40875       1.22759       0.83873
                        -----------------------------------------
Magnitude (a.u.)       :      1.54192
Magnitude (Debye)      :      3.91926

Rotational constants in cm-1:     0.010636     0.000804     0.000782
Rotational constants in MHz :   318.865642    24.096252    23.451000

                             ****ORCA TERMINATED NORMALLY****
TOTAL RUN TIME: 0 days 1 hours 2 minutes 25 seconds 511 msec
