                         Program Version 5.0.4 -  RELEASE  -
|  1> ! nofrozencore ReducedPop printbasis
|  2> ! B3LYP TZVP
|  3>
|  4> %basis
|  5> newgto V "CP(PPP)" end
|  6> end
|  7>
|  8> %pal
|  9> nprocs 8
| 10> end
| 11>
| 12> % sym SymThresh 1e-2 end
| 13> * xyz -2 2
| 14> V 0.9040871412677703 0.6475914777128252 0.04708473687927048
| 15> S 0.36186958642626804 0.4127405227632646 2.449034267294925
| 16> S 1.656469632861859 -1.7069609981592473 0.17746398777972658
| 17> S -0.9964017515807695 2.2318857225632485 -0.0464718461662804
| 18> S 0.20956983592518574 0.10042842359804013 -2.2557988481941167
| 19> O 2.235411189425358 1.5089689977931786 -0.05245557828254424
| 20> C 1.752775697683761 -2.071735940127742 -1.5418116327289229
| 21> C 1.170489156814143 -1.3497267109375113 -2.5150579022703083
| 22> C -0.8306750917210511 1.6879353558122432 2.655692625656482
| 23> C -1.3743745529105325 2.4113408463550616 1.658960902170281
| 24> S 2.6242191064839506 -3.5525671808916393 -2.061572997774807
| 25> S 1.3337023852414942 -1.9766991199874246 -4.187177845831616
| 26> S -2.6162104415996916 3.6198887615721893 2.1317952752830442
| 27> S -1.4230846410857778 2.0429301880279747 4.314412627642232
| 28> C 2.2809296695377426 -3.4261294974286063 -3.7980512902825647
| 29> C -2.617213878466597 3.2617958601258445 3.860379449688559
| 30> C 2.712071934385269 -4.3176986903195065 -4.726705585715486
| 31> C -3.4492988981817567 3.877440012376298 4.758624716861419
| 32> S 3.705896233067526 -5.740782340280062 -4.282759133674634
| 33> S 2.312844764236728 -4.134246587963607 -6.463544636443384
| 34> S -3.4209247681464845 3.4814148655068853 6.492974332713367
| 35> S -4.6551138859889525 5.083662382610079 4.25000524274336
| 36> C -6.20406380137262 4.164683224211596 4.737408084721267
| 37> C -5.148178331963336 2.7963348800765666 6.662665787282474
| 38> C -6.201844745756642 3.793346870403274 6.210573304926562
| 39> H -6.258338152366678 3.2550393139673433 4.13330530283666
| 40> H -7.06632749572336 4.792800141005328 4.496883077299691
| 41> H -7.162653497877819 3.2747677674074294 6.369294487515317
| 42> H -6.209708217612064 4.685525295718156 6.848434930596294
| 43> H -5.303861319719149 2.516081945964474 7.708109369018947
| 44> H -5.214179756225254 1.8945294112103006 6.04817100350535
| 45> C 4.007206321498911 -3.954605125299952 -7.052370308956169
| 46> C 5.162179669392894 -5.279545420519028 -5.241602216721452
| 47> C 5.044231331995614 -5.118068882265263 -6.807499158504593
| 48> H 5.666061864829369 -4.450380019268613 -4.723267015495105
| 49> H 5.739571213472312 -6.194379166989553 -5.009655847296777
| 50> H 4.397258953524014 -6.015766898496291 -7.050321729347336
| 51> H 5.972043327821025 -5.1743189851796 -7.4411671443414935
| 52> H 3.746469038584424 -3.9139702056444663 -8.126660678169708
| 53> H 4.359746488442862 -2.9497964140992723 -6.776857695714306
| 54> *
| 55>
| 56> % eprnmr
| 57> gtensor true
| 58> Nuclei = all H {aiso,adip,aorb,fgrad,rho}
| 59> Nuclei = all V {aiso,adip,aorb,fgrad,rho}
| 60> end
| 61>
| 62>                          ****END OF INPUT****

CARTESIAN COORDINATES (ANGSTROEM)
---------------------------------
  V      0.902580    0.644402    0.045585
  S      0.360362    0.409551    2.447534
  S      1.654962   -1.710151    0.175964
  S     -0.997909    2.228696   -0.047972
  S      0.208063    0.097238   -2.257299
  O      2.233904    1.505779   -0.053956
  C      1.751268   -2.074926   -1.543312
  C      1.168982   -1.352917   -2.516558
  C     -0.832182    1.684745    2.654193
  C     -1.375882    2.408151    1.657461
  S      2.622712   -3.555757   -2.063073
  S      1.332195   -1.979889   -4.188678
  S     -2.617718    3.616699    2.130295
  S     -1.424592    2.039740    4.312913
  C      2.279422   -3.429319   -3.799551
  C     -2.618721    3.258606    3.858879
  C      2.710565   -4.320889   -4.728206
  C     -3.450806    3.874250    4.757125
  S      3.704389   -5.743972   -4.284259
  S      2.311338   -4.137437   -6.465045
  S     -3.422432    3.478225    6.491474
  S     -4.656621    5.080472    4.248505
  C     -6.205571    4.161493    4.735908
  C     -5.149686    2.793145    6.661166
  C     -6.203352    3.790157    6.209073
  H     -6.259845    3.251849    4.131805
  H     -7.067835    4.789610    4.495383
  H     -7.164161    3.271578    6.367794
  H     -6.211215    4.682335    6.846935
  H     -5.305369    2.512892    7.706609
  H     -5.215687    1.891339    6.046671
  C      4.005699   -3.957795   -7.053870
  C      5.160672   -5.282735   -5.243102
  C      5.042724   -5.121259   -6.808999
  H      5.664555   -4.453570   -4.724767
  H      5.738064   -6.197569   -5.011156
  H      4.395752   -6.018957   -7.051822
  H      5.970536   -5.177509   -7.442667
  H      3.744962   -3.917160   -8.128161
  H      4.358239   -2.952986   -6.778358

 Total Charge           Charge          ....   -2
 Multiplicity           Mult            ....    2
 Number of Electrons    NEL             ....  321
 Basis Dimension        Dim             ....  681

ORBITAL ENERGIES
----------------
                 SPIN UP ORBITALS
  NO   OCC          E(Eh)            E(eV)
   0   1.0000    -196.674246     -5351.7783
   1   1.0000     -88.737862     -2414.6800
   2   1.0000     -88.737848     -2414.6796
   3   1.0000     -88.731682     -2414.5118
   4   1.0000     -88.731585     -2414.5092
   5   1.0000     -88.730226     -2414.4722
   6   1.0000     -88.730164     -2414.4705
   7   1.0000     -88.728633     -2414.4288
   8   1.0000     -88.728394     -2414.4223
   9   1.0000     -88.639377     -2412.0001
  10   1.0000     -88.638997     -2411.9897
  11   1.0000     -88.638938     -2411.9881
  12   1.0000     -88.638795     -2411.9842
  13   1.0000     -22.049640      -600.0012
  14   1.0000     -18.889545      -514.0107
  15   1.0000     -18.556091      -504.9369
  16   1.0000     -18.550914      -504.7960
  17   1.0000     -18.550816      -504.7934
  18   1.0000     -10.075950      -274.1805
  19   1.0000     -10.074100      -274.1302
  20   1.0000     -10.066613      -273.9265
  21   1.0000     -10.065916      -273.9075
  22   1.0000     -10.065775      -273.9037
  23   1.0000     -10.063778      -273.8493
  24   1.0000     -10.063733      -273.8481
  25   1.0000     -10.049508      -273.4610
  26   1.0000     -10.048196      -273.4253
  27   1.0000     -10.047083      -273.3950
  28   1.0000     -10.017740      -272.5966
  29   1.0000     -10.017076      -272.5785
  30   1.0000     -10.016950      -272.5751
  31   1.0000     -10.016135      -272.5529
  32   1.0000      -7.791726      -212.0237
  33   1.0000      -7.791702      -212.0230
  34   1.0000      -7.785028      -211.8414
  35   1.0000      -7.784934      -211.8388
  36   1.0000      -7.783490      -211.7995
  37   1.0000      -7.783444      -211.7983
  38   1.0000      -7.781905      -211.7564
  39   1.0000      -7.781701      -211.7509
  40   1.0000      -7.693677      -209.3556
  41   1.0000      -7.693287      -209.3450
  42   1.0000      -7.693275      -209.3446
  43   1.0000      -7.692998      -209.3371
  44   1.0000      -5.756723      -156.6484
  45   1.0000      -5.756700      -156.6478
  46   1.0000      -5.753219      -156.5530
  47   1.0000      -5.753205      -156.5527
  48   1.0000      -5.750016      -156.4659
  49   1.0000      -5.749930      -156.4635
  50   1.0000      -5.748423      -156.4225
  51   1.0000      -5.748379      -156.4213
  52   1.0000      -5.746891      -156.3809
  53   1.0000      -5.746691      -156.3754
  54   1.0000      -5.746611      -156.3732
  55   1.0000      -5.746515      -156.3706
  56   1.0000      -5.746508      -156.3704
  57   1.0000      -5.746474      -156.3695
  58   1.0000      -5.743997      -156.3021
  59   1.0000      -5.743948      -156.3008
  60   1.0000      -5.742444      -156.2598
  61   1.0000      -5.742238      -156.2542
  62   1.0000      -5.739826      -156.1886
  63   1.0000      -5.739732      -156.1861
  64   1.0000      -5.739331      -156.1751
  65   1.0000      -5.739287      -156.1739
  66   1.0000      -5.737673      -156.1300
  67   1.0000      -5.737453      -156.1240
  68   1.0000      -5.658990      -153.9889
  69   1.0000      -5.658599      -153.9783
  70   1.0000      -5.658581      -153.9778
  71   1.0000      -5.658342      -153.9713
  72   1.0000      -5.652331      -153.8077
  73   1.0000      -5.651948      -153.7973
  74   1.0000      -5.651941      -153.7971
  75   1.0000      -5.651681      -153.7901
  76   1.0000      -5.651004      -153.7716
  77   1.0000      -5.650595      -153.7605
  78   1.0000      -5.650594      -153.7605
  79   1.0000      -5.650283      -153.7520
  80   1.0000      -2.443277       -66.4850
  81   1.0000      -1.484583       -40.3976
  82   1.0000      -1.472912       -40.0800
  83   1.0000      -1.472101       -40.0579
  84   1.0000      -0.710226       -19.3262
  85   1.0000      -0.709286       -19.3006
  86   1.0000      -0.686197       -18.6724
  87   1.0000      -0.683197       -18.5907
  88   1.0000      -0.649139       -17.6640
  89   1.0000      -0.632039       -17.1987
  90   1.0000      -0.627848       -17.0846
  91   1.0000      -0.625929       -17.0324
  92   1.0000      -0.614386       -16.7183
  93   1.0000      -0.574606       -15.6358
  94   1.0000      -0.572924       -15.5901
  95   1.0000      -0.572750       -15.5853
  96   1.0000      -0.571347       -15.5471
  97   1.0000      -0.501685       -13.6515
  98   1.0000      -0.497350       -13.5336
  99   1.0000      -0.493491       -13.4286
 100   1.0000      -0.488991       -13.3061
 101   1.0000      -0.479037       -13.0353
 102   1.0000      -0.474040       -12.8993
 103   1.0000      -0.446616       -12.1530
 104   1.0000      -0.444017       -12.0823
 105   1.0000      -0.415734       -11.3127
 106   1.0000      -0.410506       -11.1704
 107   1.0000      -0.355485        -9.6732
 108   1.0000      -0.353328        -9.6145
 109   1.0000      -0.327201        -8.9036
 110   1.0000      -0.327048        -8.8994
 111   1.0000      -0.319028        -8.6812
 112   1.0000      -0.314554        -8.5594
 113   1.0000      -0.302811        -8.2399
 114   1.0000      -0.301650        -8.2083
 115   1.0000      -0.291475        -7.9314
 116   1.0000      -0.290975        -7.9178
 117   1.0000      -0.257779        -7.0145
 118   1.0000      -0.257548        -7.0082
 119   1.0000      -0.255744        -6.9591
 120   1.0000      -0.249991        -6.8026
 121   1.0000      -0.237855        -6.4724
 122   1.0000      -0.235933        -6.4201
 123   1.0000      -0.233311        -6.3487
 124   1.0000      -0.219365        -5.9692
 125   1.0000      -0.215566        -5.8658
 126   1.0000      -0.212197        -5.7742
 127   1.0000      -0.211910        -5.7664
 128   1.0000      -0.207967        -5.6591
 129   1.0000      -0.196566        -5.3488
 130   1.0000      -0.189369        -5.1530
 131   1.0000      -0.186687        -5.0800
 132   1.0000      -0.183288        -4.9875
 133   1.0000      -0.179593        -4.8870
 134   1.0000      -0.158806        -4.3213
 135   1.0000      -0.150615        -4.0984
 136   1.0000      -0.145654        -3.9634
 137   1.0000      -0.138075        -3.7572
 138   1.0000      -0.132785        -3.6133
 139   1.0000      -0.132230        -3.5982
 140   1.0000      -0.124673        -3.3925
 141   1.0000      -0.120305        -3.2737
 142   1.0000      -0.112812        -3.0698
 143   1.0000      -0.109533        -2.9806
 144   1.0000      -0.099123        -2.6973
 145   1.0000      -0.098402        -2.6777
 146   1.0000      -0.097311        -2.6480
 147   1.0000      -0.094700        -2.5769
 148   1.0000      -0.073961        -2.0126
 149   1.0000      -0.071293        -1.9400
 150   1.0000      -0.065826        -1.7912
 151   1.0000      -0.051653        -1.4056
 152   1.0000      -0.045033        -1.2254
 153   1.0000      -0.037235        -1.0132
 154   1.0000      -0.036466        -0.9923
 155   1.0000      -0.030923        -0.8415
 156   1.0000      -0.024310        -0.6615
 157   1.0000      -0.018469        -0.5026
 158   1.0000      -0.014623        -0.3979
 159   1.0000       0.021056         0.5730
 160   1.0000       0.041880         1.1396
 161   0.0000       0.135703         3.6927
 162   0.0000       0.137010         3.7282
 163   0.0000       0.158906         4.3241
 164   0.0000       0.162354         4.4179
 165   0.0000       0.168643         4.5890

                 SPIN DOWN ORBITALS
  NO   OCC          E(Eh)            E(eV)
   0   1.0000    -196.674392     -5351.7823
   1   1.0000     -88.737862     -2414.6800
   2   1.0000     -88.737849     -2414.6796
   3   1.0000     -88.731683     -2414.5118
   4   1.0000     -88.731586     -2414.5092
   5   1.0000     -88.730234     -2414.4724
   6   1.0000     -88.730172     -2414.4707
   7   1.0000     -88.728641     -2414.4291
   8   1.0000     -88.728402     -2414.4226
   9   1.0000     -88.639514     -2412.0038
  10   1.0000     -88.639137     -2411.9935
  11   1.0000     -88.639077     -2411.9919
  12   1.0000     -88.638936     -2411.9881
  13   1.0000     -22.034715      -599.5951
  14   1.0000     -18.893320      -514.1134
  15   1.0000     -18.550829      -504.7937
  16   1.0000     -18.534885      -504.3599
  17   1.0000     -18.534704      -504.3549
  18   1.0000     -10.075950      -274.1805
  19   1.0000     -10.074095      -274.1301
  20   1.0000     -10.066612      -273.9265
  21   1.0000     -10.065915      -273.9075
  22   1.0000     -10.065775      -273.9037
  23   1.0000     -10.063778      -273.8493
  24   1.0000     -10.063733      -273.8481
  25   1.0000     -10.049508      -273.4610
  26   1.0000     -10.048192      -273.4252
  27   1.0000     -10.047072      -273.3947
  28   1.0000     -10.017526      -272.5907
  29   1.0000     -10.016837      -272.5720
  30   1.0000     -10.016737      -272.5693
  31   1.0000     -10.015910      -272.5468
  32   1.0000      -7.791727      -212.0237
  33   1.0000      -7.791703      -212.0230
  34   1.0000      -7.785029      -211.8414
  35   1.0000      -7.784935      -211.8388
  36   1.0000      -7.783500      -211.7998
  37   1.0000      -7.783454      -211.7985
  38   1.0000      -7.781915      -211.7567
  39   1.0000      -7.781710      -211.7511
  40   1.0000      -7.693804      -209.3591
  41   1.0000      -7.693417      -209.3485
  42   1.0000      -7.693404      -209.3482
  43   1.0000      -7.693129      -209.3407
  44   1.0000      -5.756724      -156.6484
  45   1.0000      -5.756702      -156.6478
  46   1.0000      -5.753220      -156.5531
  47   1.0000      -5.753207      -156.5527
  48   1.0000      -5.750017      -156.4659
  49   1.0000      -5.749930      -156.4636
  50   1.0000      -5.748433      -156.4228
  51   1.0000      -5.748389      -156.4216
  52   1.0000      -5.746902      -156.3811
  53   1.0000      -5.746701      -156.3757
  54   1.0000      -5.746611      -156.3732
  55   1.0000      -5.746515      -156.3706
  56   1.0000      -5.746509      -156.3705
  57   1.0000      -5.746474      -156.3695
  58   1.0000      -5.744011      -156.3025
  59   1.0000      -5.743962      -156.3011
  60   1.0000      -5.742457      -156.2602
  61   1.0000      -5.742251      -156.2546
  62   1.0000      -5.739827      -156.1886
  63   1.0000      -5.739733      -156.1861
  64   1.0000      -5.739337      -156.1753
  65   1.0000      -5.739293      -156.1741
  66   1.0000      -5.737680      -156.1302
  67   1.0000      -5.737462      -156.1243
  68   1.0000      -5.659131      -153.9928
  69   1.0000      -5.658738      -153.9821
  70   1.0000      -5.658722      -153.9817
  71   1.0000      -5.658484      -153.9752
  72   1.0000      -5.652680      -153.8172
  73   1.0000      -5.652329      -153.8077
  74   1.0000      -5.652306      -153.8071
  75   1.0000      -5.652064      -153.8005
  76   1.0000      -5.651109      -153.7745
  77   1.0000      -5.650701      -153.7634
  78   1.0000      -5.650681      -153.7628
  79   1.0000      -5.650376      -153.7545
  80   1.0000      -2.398411       -65.2641
  81   1.0000      -1.465308       -39.8731
  82   1.0000      -1.410557       -38.3832
  83   1.0000      -1.410393       -38.3788
  84   1.0000      -0.710203       -19.3256
  85   1.0000      -0.709270       -19.3002
  86   1.0000      -0.686156       -18.6713
  87   1.0000      -0.683131       -18.5890
  88   1.0000      -0.657237       -17.8843
  89   1.0000      -0.631982       -17.1971
  90   1.0000      -0.627849       -17.0846
  91   1.0000      -0.625850       -17.0302
  92   1.0000      -0.614388       -16.7183
  93   1.0000      -0.574583       -15.6352
  94   1.0000      -0.572861       -15.5883
  95   1.0000      -0.572714       -15.5843
  96   1.0000      -0.571273       -15.5451
  97   1.0000      -0.501696       -13.6519
  98   1.0000      -0.497386       -13.5346
  99   1.0000      -0.493519       -13.4293
 100   1.0000      -0.489092       -13.3089
 101   1.0000      -0.479243       -13.0409
 102   1.0000      -0.474227       -12.9044
 103   1.0000      -0.446639       -12.1537
 104   1.0000      -0.444064       -12.0836
 105   1.0000      -0.415731       -11.3126
 106   1.0000      -0.410613       -11.1733
 107   1.0000      -0.355481        -9.6731
 108   1.0000      -0.353317        -9.6142
 109   1.0000      -0.327189        -8.9033
 110   1.0000      -0.327041        -8.8992
 111   1.0000      -0.318954        -8.6792
 112   1.0000      -0.314579        -8.5601
 113   1.0000      -0.302745        -8.2381
 114   1.0000      -0.301625        -8.2076
 115   1.0000      -0.291465        -7.9312
 116   1.0000      -0.290967        -7.9176
 117   1.0000      -0.257699        -7.0124
 118   1.0000      -0.257440        -7.0053
 119   1.0000      -0.255710        -6.9582
 120   1.0000      -0.249911        -6.8004
 121   1.0000      -0.237813        -6.4712
 122   1.0000      -0.235886        -6.4188
 123   1.0000      -0.233288        -6.3481
 124   1.0000      -0.219060        -5.9609
 125   1.0000      -0.215267        -5.8577
 126   1.0000      -0.212170        -5.7735
 127   1.0000      -0.211772        -5.7626
 128   1.0000      -0.207902        -5.6573
 129   1.0000      -0.195970        -5.3326
 130   1.0000      -0.187919        -5.1135
 131   1.0000      -0.186446        -5.0734
 132   1.0000      -0.183225        -4.9858
 133   1.0000      -0.179454        -4.8832
 134   1.0000      -0.158171        -4.3041
 135   1.0000      -0.150439        -4.0937
 136   1.0000      -0.145577        -3.9613
 137   1.0000      -0.137647        -3.7456
 138   1.0000      -0.132327        -3.6008
 139   1.0000      -0.131978        -3.5913
 140   1.0000      -0.124009        -3.3744
 141   1.0000      -0.119974        -3.2647
 142   1.0000      -0.114598        -3.1184
 143   1.0000      -0.111028        -3.0212
 144   1.0000      -0.099139        -2.6977
 145   1.0000      -0.098571        -2.6822
 146   1.0000      -0.097606        -2.6560
 147   1.0000      -0.094916        -2.5828
 148   1.0000      -0.071299        -1.9401
 149   1.0000      -0.070118        -1.9080
 150   1.0000      -0.065818        -1.7910
 151   1.0000      -0.049054        -1.3348
 152   1.0000      -0.044084        -1.1996
 153   1.0000      -0.037290        -1.0147
 154   1.0000      -0.035904        -0.9770
 155   1.0000      -0.030982        -0.8431
 156   1.0000      -0.025340        -0.6895
 157   1.0000      -0.014839        -0.4038
 158   1.0000       0.021355         0.5811
 159   1.0000       0.040775         1.1095
 160   0.0000       0.135725         3.6933
 161   0.0000       0.137006         3.7281
 162   0.0000       0.155951         4.2436
 163   0.0000       0.159853         4.3498
 164   0.0000       0.163226         4.4416

MULLIKEN ATOMIC CHARGES AND SPIN POPULATIONS
--------------------------------------------
   0 V :    0.471547    1.210301
   1 S :   -0.290990   -0.022365
   2 S :   -0.290949   -0.025231
   3 S :   -0.289037   -0.023321
   4 S :   -0.286734   -0.025729
   5 O :   -0.467879   -0.146488
   6 C :   -0.076147    0.009764
   7 C :   -0.082923    0.008096
   8 C :   -0.084473    0.007741
   9 C :   -0.085177    0.007389
  10 S :    0.089615   -0.000558
  11 S :    0.090430   -0.000605
  12 S :    0.103217   -0.000391
  13 S :    0.102490   -0.000344
  14 C :   -0.224871    0.001604
  15 C :   -0.215866    0.001004
  16 C :   -0.193386   -0.000201
  17 C :   -0.185035   -0.000402
  18 S :    0.023177   -0.000132
  19 S :    0.023535   -0.000132
  20 S :    0.004011   -0.000066
  21 S :    0.004057   -0.000068
  22 C :   -0.301091   -0.000000
  23 C :   -0.299985   -0.000000
  24 C :   -0.153445   -0.000014
  25 H :    0.140761   -0.000001
  26 H :    0.117577   -0.000003
  27 H :    0.074729    0.000000
  28 H :    0.092988   -0.000001
  29 H :    0.117188   -0.000004
  30 H :    0.140170   -0.000001
  31 C :   -0.282562    0.000178
  32 C :   -0.283400    0.000175
  33 C :   -0.183066   -0.000224
  34 H :    0.147358   -0.000012
  35 H :    0.091357    0.000010
  36 H :    0.089505    0.000041
  37 H :    0.114642   -0.000006
  38 H :    0.091404    0.000011
  39 H :    0.147257   -0.000012
Sum of atomic charges         :   -2.0000000

LOEWDIN ATOMIC CHARGES AND SPIN POPULATIONS
-------------------------------------------
   0 V :   -0.156087    1.163686
   1 S :    0.080067   -0.014401
   2 S :    0.078120   -0.016092
   3 S :    0.081398   -0.015205
   4 S :    0.082052   -0.016336
   5 O :   -0.319074   -0.131417
   6 C :   -0.550346    0.009106
   7 C :   -0.552368    0.007990
   8 C :   -0.552340    0.008136
   9 C :   -0.552306    0.007671
  10 S :    0.462617   -0.000865
  11 S :    0.463095   -0.000922
  12 S :    0.474175   -0.000823
  13 S :    0.473533   -0.000829
  14 C :   -0.462686    0.000118
  15 C :   -0.465851   -0.000080
  16 C :   -0.610047    0.000470
  17 C :   -0.626364    0.000088
  18 S :    0.380129   -0.000103
  19 S :    0.381615   -0.000100
  20 S :    0.352794   -0.000070
  21 S :    0.352411   -0.000073
  22 C :   -0.279320   -0.000007
  23 C :   -0.279389   -0.000009
  24 C :   -0.180061   -0.000002
  25 H :    0.063358   -0.000001
  26 H :    0.056003   -0.000002
  27 H :    0.057315   -0.000002
  28 H :    0.059874   -0.000001
  29 H :    0.055937   -0.000002
  30 H :    0.063162   -0.000001
  31 C :   -0.301901    0.000030
  32 C :   -0.301573    0.000024
  33 C :   -0.180071    0.000006
  34 H :    0.060364   -0.000001
  35 H :    0.047245    0.000005
  36 H :    0.068050    0.000007
  37 H :    0.068907   -0.000000
  38 H :    0.047329    0.000006
  39 H :    0.060234   -0.000001

  Mayer bond orders larger than 0.100000
B(  0-V ,  1-S ) :   0.7710 B(  0-V ,  2-S ) :   0.7716 B(  0-V ,  3-S ) :   0.7643
B(  0-V ,  4-S ) :   0.7789 B(  0-V ,  5-O ) :   2.1486 B(  1-S ,  8-C ) :   1.1042
B(  2-S ,  6-C ) :   1.1016 B(  3-S ,  9-C ) :   1.1071 B(  4-S ,  7-C ) :   1.1019
B(  6-C ,  7-C ) :   1.6914 B(  6-C , 10-S ) :   0.9344 B(  7-C , 11-S ) :   0.9386
B(  8-C ,  9-C ) :   1.6961 B(  8-C , 13-S ) :   0.9341 B(  9-C , 12-S ) :   0.9359
B( 10-S , 14-C ) :   1.2396 B( 11-S , 14-C ) :   1.2385 B( 12-S , 15-C ) :   1.2504
B( 13-S , 15-C ) :   1.2506 B( 14-C , 16-C ) :   1.4691 B( 15-C , 17-C ) :   1.4546
B( 16-C , 18-S ) :   1.0604 B( 16-C , 19-S ) :   1.0616 B( 17-C , 20-S ) :   1.0915
B( 17-C , 21-S ) :   1.0921 B( 18-S , 32-C ) :   1.0119 B( 19-S , 31-C ) :   1.0112
B( 20-S , 23-C ) :   0.9827 B( 21-S , 22-C ) :   0.9819 B( 22-C , 24-C ) :   0.9203
B( 22-C , 25-H ) :   0.9672 B( 22-C , 26-H ) :   0.9622 B( 23-C , 24-C ) :   0.9208
B( 23-C , 29-H ) :   0.9623 B( 23-C , 30-H ) :   0.9669 B( 24-C , 27-H ) :   0.9696
B( 24-C , 28-H ) :   0.9613 B( 31-C , 33-C ) :   0.9108 B( 31-C , 38-H ) :   0.9738
B( 31-C , 39-H ) :   0.9546 B( 32-C , 33-C ) :   0.9104 B( 32-C , 34-H ) :   0.9542
B( 32-C , 35-H ) :   0.9737 B( 33-C , 36-H ) :   0.9950 B( 33-C , 37-H ) :   0.9319

FINAL SINGLE POINT ENERGY     -6337.677953546523

DIPOLE MOMENT
-------------
                                X             Y             Z
Electronic contribution:      9.86613       9.58339       3.14357
Nuclear contribution   :    -11.01077     -10.75593      -3.54882
                        -----------------------------------------
Total Dipole Moment    :     -1.14465      -1.17254      -0.40524
                        -----------------------------------------
Magnitude (a.u.)       :      1.68798
Magnitude (Debye)      :      4.29051

Rotational constants in cm-1:     0.010759     0.000804     0.000783
Rotational constants in MHz :   322.555505    24.116148    23.485487

                             ****ORCA TERMINATED NORMALLY****
TOTAL RUN TIME: 0 days 1 hours 1 minutes 43 seconds 463 msec
