                         Program Version 5.0.4 -  RELEASE  -
|  1> ! nofrozencore ReducedPop printbasis
|  2> ! B3LYP TZVP
|  3>
|  4> %basis
|  5> newgto V "CP(PPP)" end
|  6> end
|  7>
|  8> %pal
|  9> nprocs 8
| 10> end
| 11>
| 12> % sym SymThresh 1e-2 end
| 13> * xyz -2 2
| 14> V 0.22939797817392674 -0.3194740296204785 1.0412136083603443
| 15> S 2.492098524745373 -0.2946080558033519 0.042088457642274583
| 16> S 0.3699818756339728 2.1506082391443515 0.9630519836233132
| 17> S -0.10498889373446726 -2.433950735431784 -0.20293683750490135
| 18> S -2.1811499602646816 -0.00680526017719936 0.6209150448115252
| 19> O 0.396616394876043 -0.7014062306888446 2.574650192387773
| 20> C -1.3225118608161799 2.542100370722237 1.2355624668337861
| 21> C -2.3457469620480067 1.6770462096348042 1.0948082640211867
| 22> C 2.5580925100198657 -1.8888084870758388 -0.6946675939156386
| 23> C 1.5185124616786192 -2.7422582989133266 -0.7948557485416625
| 24> S -1.761634760847943 4.231104600156182 1.6622240047991126
| 25> S -3.9955687983567607 2.340038862061124 1.3375364052090644
| 26> S 1.8348292077507344 -4.291696096924524 -1.6450945575527316
| 27> S 4.108129086752118 -2.4320101866219557 -1.4214301886192793
| 28> C -3.5136850082102407 4.0038403269017655 1.6824756995641157
| 29> C 3.5180662013082795 -3.967091724460717 -2.0612898186775244
| 30> C -4.407988479472809 5.00905710733765 1.9489249588966155
| 31> C 4.296204901236652 -4.830697429665141 -2.8018100283187968
| 32> S -3.8788151807187297 6.66172182338651 2.3479456975279107
| 33> S -6.165486953738337 4.7234299548051855 1.950247922061564
| 34> S 5.988870854180907 -4.4608487907799494 -3.1994922483677803
| 35> S 3.649418422329713 -6.358116746557607 -3.44282445567665
| 36> C 3.806028472528464 -6.00139874289434 -5.202960562515334
| 37> C 5.834301570081826 -4.364042232142641 -4.993280923882234
| 38> C 5.254967927861037 -5.643636042767423 -5.704770432880042
| 39> H 3.270103030851083 -5.128691791644326 -5.701057909218576
| 40> H 3.5635112787159504 -6.806278486896768 -5.959326426384064
| 41> H 5.321411020776949 -5.5831617280092205 -6.800920944462868
| 42> H 5.890439677975654 -6.47566420973483 -5.366164140241934
| 43> H 6.762235190959654 -4.229409611851989 -5.624653221355949
| 44> H 5.160870533475181 -3.604890959468216 -5.509427333646657
| 45> C -6.507250927787087 5.101415793370868 3.7114247992724256
| 46> C -4.546116396614895 6.754824991145875 4.053652507516565
| 47> C -6.069510676284441 6.514162029327363 4.16107230230247
| 48> H -4.081048554587161 6.037961395051501 4.746974950943366
| 49> H -4.3652086279019695 7.748022994888906 4.487663204874552
| 50> H -6.570887559724177 7.24404270824252 3.515620941321948
| 51> H -6.4038156957132975 6.6958248631404444 5.191825243589893
| 52> H -7.584149745106017 5.036254489693045 3.9197542910759053
| 53> H -6.025586268946322 4.4017586850228225 4.410826826657864
| 54> *
| 55>
| 56> % eprnmr
| 57> gtensor true
| 58> Nuclei = all H {aiso,adip,aorb,fgrad,rho}
| 59> Nuclei = all V {aiso,adip,aorb,fgrad,rho}
| 60> end
| 61>
| 62>                          ****END OF INPUT****

CARTESIAN COORDINATES (ANGSTROEM)
---------------------------------
  V      0.227514   -0.316933    1.039048
  S      2.490214   -0.292067    0.039923
  S      0.368097    2.153150    0.960886
  S     -0.106873   -2.431409   -0.205102
  S     -2.183034   -0.004264    0.618750
  O      0.394732   -0.698865    2.572485
  C     -1.324396    2.544642    1.233397
  C     -2.347631    1.679588    1.092643
  C      2.556208   -1.886267   -0.696833
  C      1.516628   -2.739717   -0.797021
  S     -1.763519    4.233646    1.660059
  S     -3.997453    2.342580    1.335371
  S      1.832945   -4.289155   -1.647260
  S      4.106245   -2.429469   -1.423596
  C     -3.515569    4.006382    1.680310
  C      3.516182   -3.964550   -2.063455
  C     -4.409873    5.011598    1.946759
  C      4.294321   -4.828156   -2.803976
  S     -3.880700    6.664263    2.345780
  S     -6.167371    4.725971    1.948082
  S      5.986986   -4.458307   -3.201658
  S      3.647534   -6.355575   -3.444990
  C      3.804144   -5.998857   -5.205126
  C      5.832417   -4.361501   -4.995446
  C      5.253084   -5.641095   -5.706936
  H      3.268219   -5.126150   -5.703223
  H      3.561627   -6.803737   -5.961492
  H      5.319527   -5.580620   -6.803086
  H      5.888555   -6.473123   -5.368330
  H      6.760351   -4.226868   -5.626819
  H      5.158986   -3.602350   -5.511593
  C     -6.509135    5.103957    3.709259
  C     -4.548001    6.757366    4.051487
  C     -6.071395    6.516703    4.158907
  H     -4.082933    6.040503    4.744809
  H     -4.367093    7.750564    4.485498
  H     -6.572772    7.246584    3.513455
  H     -6.405700    6.698366    5.189660
  H     -7.586034    5.038796    3.917589
  H     -6.027471    4.404300    4.408661

 Total Charge           Charge          ....   -2
 Multiplicity           Mult            ....    2
 Number of Electrons    NEL             ....  321
 Basis Dimension        Dim             ....  681

ORBITAL ENERGIES
----------------
                 SPIN UP ORBITALS
  NO   OCC          E(Eh)            E(eV)
   0   1.0000    -196.676868     -5351.8497
   1   1.0000     -88.742014     -2414.7930
   2   1.0000     -88.741966     -2414.7916
   3   1.0000     -88.736534     -2414.6439
   4   1.0000     -88.736487     -2414.6426
   5   1.0000     -88.734668     -2414.5931
   6   1.0000     -88.734592     -2414.5910
   7   1.0000     -88.732339     -2414.5297
   8   1.0000     -88.732139     -2414.5243
   9   1.0000     -88.642302     -2412.0797
  10   1.0000     -88.641833     -2412.0669
  11   1.0000     -88.641442     -2412.0563
  12   1.0000     -88.641286     -2412.0520
  13   1.0000     -22.052258      -600.0724
  14   1.0000     -18.892073      -514.0794
  15   1.0000     -18.558697      -505.0078
  16   1.0000     -18.553538      -504.8674
  17   1.0000     -18.553438      -504.8647
  18   1.0000     -10.081675      -274.3363
  19   1.0000     -10.078298      -274.2444
  20   1.0000     -10.064641      -273.8728
  21   1.0000     -10.064620      -273.8722
  22   1.0000     -10.062749      -273.8213
  23   1.0000     -10.062693      -273.8198
  24   1.0000     -10.052845      -273.5518
  25   1.0000     -10.050275      -273.4819
  26   1.0000     -10.048407      -273.4310
  27   1.0000     -10.045170      -273.3430
  28   1.0000     -10.021465      -272.6979
  29   1.0000     -10.020690      -272.6768
  30   1.0000     -10.020103      -272.6609
  31   1.0000     -10.019170      -272.6355
  32   1.0000      -7.795254      -212.1196
  33   1.0000      -7.795211      -212.1185
  34   1.0000      -7.789884      -211.9735
  35   1.0000      -7.789851      -211.9726
  36   1.0000      -7.787880      -211.9190
  37   1.0000      -7.787841      -211.9179
  38   1.0000      -7.785564      -211.8560
  39   1.0000      -7.785421      -211.8521
  40   1.0000      -7.696590      -209.4349
  41   1.0000      -7.696184      -209.4238
  42   1.0000      -7.695779      -209.4128
  43   1.0000      -7.695513      -209.4056
  44   1.0000      -5.760453      -156.7499
  45   1.0000      -5.760412      -156.7488
  46   1.0000      -5.756749      -156.6491
  47   1.0000      -5.756706      -156.6479
  48   1.0000      -5.754951      -156.6002
  49   1.0000      -5.754915      -156.5992
  50   1.0000      -5.752803      -156.5417
  51   1.0000      -5.752761      -156.5406
  52   1.0000      -5.751443      -156.5047
  53   1.0000      -5.751401      -156.5036
  54   1.0000      -5.750502      -156.4791
  55   1.0000      -5.750355      -156.4751
  56   1.0000      -5.749946      -156.4640
  57   1.0000      -5.749902      -156.4628
  58   1.0000      -5.748347      -156.4205
  59   1.0000      -5.748309      -156.4194
  60   1.0000      -5.746067      -156.3584
  61   1.0000      -5.745916      -156.3543
  62   1.0000      -5.744637      -156.3195
  63   1.0000      -5.744615      -156.3189
  64   1.0000      -5.743778      -156.2962
  65   1.0000      -5.743739      -156.2951
  66   1.0000      -5.741411      -156.2317
  67   1.0000      -5.741266      -156.2278
  68   1.0000      -5.661919      -154.0686
  69   1.0000      -5.661506      -154.0574
  70   1.0000      -5.661080      -154.0458
  71   1.0000      -5.660844      -154.0394
  72   1.0000      -5.655230      -153.8866
  73   1.0000      -5.654832      -153.8758
  74   1.0000      -5.654414      -153.8644
  75   1.0000      -5.654188      -153.8583
  76   1.0000      -5.653916      -153.8509
  77   1.0000      -5.653501      -153.8396
  78   1.0000      -5.653098      -153.8286
  79   1.0000      -5.652815      -153.8209
  80   1.0000      -2.445887       -66.5560
  81   1.0000      -1.487140       -40.4671
  82   1.0000      -1.475542       -40.1515
  83   1.0000      -1.474728       -40.1294
  84   1.0000      -0.711967       -19.3736
  85   1.0000      -0.710504       -19.3338
  86   1.0000      -0.685281       -18.6474
  87   1.0000      -0.684075       -18.6146
  88   1.0000      -0.651594       -17.7308
  89   1.0000      -0.631351       -17.1799
  90   1.0000      -0.629601       -17.1323
  91   1.0000      -0.617692       -16.8083
  92   1.0000      -0.617429       -16.8011
  93   1.0000      -0.578452       -15.7405
  94   1.0000      -0.576672       -15.6921
  95   1.0000      -0.576349       -15.6833
  96   1.0000      -0.574739       -15.6394
  97   1.0000      -0.497928       -13.5493
  98   1.0000      -0.497190       -13.5292
  99   1.0000      -0.496722       -13.5165
 100   1.0000      -0.494855       -13.4657
 101   1.0000      -0.482865       -13.1394
 102   1.0000      -0.479860       -13.0577
 103   1.0000      -0.443801       -12.0764
 104   1.0000      -0.435547       -11.8518
 105   1.0000      -0.416766       -11.3408
 106   1.0000      -0.412302       -11.2193
 107   1.0000      -0.353482        -9.6187
 108   1.0000      -0.352160        -9.5828
 109   1.0000      -0.325898        -8.8681
 110   1.0000      -0.324012        -8.8168
 111   1.0000      -0.320178        -8.7125
 112   1.0000      -0.318420        -8.6647
 113   1.0000      -0.303913        -8.2699
 114   1.0000      -0.300561        -8.1787
 115   1.0000      -0.283529        -7.7152
 116   1.0000      -0.268264        -7.2998
 117   1.0000      -0.262836        -7.1521
 118   1.0000      -0.259502        -7.0614
 119   1.0000      -0.257134        -6.9970
 120   1.0000      -0.255867        -6.9625
 121   1.0000      -0.232992        -6.3400
 122   1.0000      -0.230822        -6.2810
 123   1.0000      -0.227658        -6.1949
 124   1.0000      -0.219493        -5.9727
 125   1.0000      -0.217363        -5.9147
 126   1.0000      -0.213008        -5.7962
 127   1.0000      -0.210689        -5.7331
 128   1.0000      -0.198626        -5.4049
 129   1.0000      -0.196706        -5.3527
 130   1.0000      -0.191280        -5.2050
 131   1.0000      -0.189063        -5.1447
 132   1.0000      -0.187765        -5.1094
 133   1.0000      -0.181616        -4.9420
 134   1.0000      -0.161411        -4.3922
 135   1.0000      -0.152984        -4.1629
 136   1.0000      -0.148915        -4.0522
 137   1.0000      -0.138770        -3.7761
 138   1.0000      -0.137818        -3.7502
 139   1.0000      -0.136096        -3.7034
 140   1.0000      -0.127208        -3.4615
 141   1.0000      -0.123681        -3.3655
 142   1.0000      -0.115336        -3.1385
 143   1.0000      -0.111644        -3.0380
 144   1.0000      -0.102634        -2.7928
 145   1.0000      -0.100367        -2.7311
 146   1.0000      -0.100266        -2.7284
 147   1.0000      -0.097000        -2.6395
 148   1.0000      -0.076523        -2.0823
 149   1.0000      -0.069672        -1.8959
 150   1.0000      -0.068813        -1.8725
 151   1.0000      -0.054327        -1.4783
 152   1.0000      -0.047605        -1.2954
 153   1.0000      -0.040961        -1.1146
 154   1.0000      -0.039170        -1.0659
 155   1.0000      -0.034270        -0.9325
 156   1.0000      -0.027175        -0.7395
 157   1.0000      -0.021119        -0.5747
 158   1.0000      -0.017461        -0.4751
 159   1.0000       0.018131         0.4934
 160   1.0000       0.039163         1.0657
 161   0.0000       0.133006         3.6193
 162   0.0000       0.135578         3.6893
 163   0.0000       0.156670         4.2632
 164   0.0000       0.160023         4.3544
 165   0.0000       0.168733         4.5915

                 SPIN DOWN ORBITALS
  NO   OCC          E(Eh)            E(eV)
   0   1.0000    -196.677015     -5351.8537
   1   1.0000     -88.742014     -2414.7930
   2   1.0000     -88.741966     -2414.7917
   3   1.0000     -88.736535     -2414.6439
   4   1.0000     -88.736487     -2414.6426
   5   1.0000     -88.734676     -2414.5933
   6   1.0000     -88.734600     -2414.5912
   7   1.0000     -88.732347     -2414.5299
   8   1.0000     -88.732148     -2414.5245
   9   1.0000     -88.642437     -2412.0833
  10   1.0000     -88.641971     -2412.0706
  11   1.0000     -88.641582     -2412.0601
  12   1.0000     -88.641428     -2412.0559
  13   1.0000     -22.037328      -599.6662
  14   1.0000     -18.895860      -514.1825
  15   1.0000     -18.553429      -504.8645
  16   1.0000     -18.537506      -504.4312
  17   1.0000     -18.537324      -504.4262
  18   1.0000     -10.081674      -274.3363
  19   1.0000     -10.078292      -274.2443
  20   1.0000     -10.064641      -273.8728
  21   1.0000     -10.064620      -273.8722
  22   1.0000     -10.062748      -273.8213
  23   1.0000     -10.062692      -273.8198
  24   1.0000     -10.052841      -273.5517
  25   1.0000     -10.050263      -273.4816
  26   1.0000     -10.048406      -273.4310
  27   1.0000     -10.045171      -273.3430
  28   1.0000     -10.021251      -272.6921
  29   1.0000     -10.020478      -272.6711
  30   1.0000     -10.019864      -272.6544
  31   1.0000     -10.018947      -272.6294
  32   1.0000      -7.795254      -212.1197
  33   1.0000      -7.795212      -212.1185
  34   1.0000      -7.789885      -211.9735
  35   1.0000      -7.789851      -211.9726
  36   1.0000      -7.787889      -211.9192
  37   1.0000      -7.787850      -211.9182
  38   1.0000      -7.785573      -211.8562
  39   1.0000      -7.785430      -211.8523
  40   1.0000      -7.696717      -209.4383
  41   1.0000      -7.696313      -209.4273
  42   1.0000      -7.695910      -209.4163
  43   1.0000      -7.695645      -209.4092
  44   1.0000      -5.760453      -156.7499
  45   1.0000      -5.760412      -156.7488
  46   1.0000      -5.756750      -156.6491
  47   1.0000      -5.756707      -156.6480
  48   1.0000      -5.754953      -156.6002
  49   1.0000      -5.754917      -156.5992
  50   1.0000      -5.752813      -156.5420
  51   1.0000      -5.752771      -156.5409
  52   1.0000      -5.751444      -156.5048
  53   1.0000      -5.751403      -156.5036
  54   1.0000      -5.750513      -156.4794
  55   1.0000      -5.750366      -156.4754
  56   1.0000      -5.749947      -156.4640
  57   1.0000      -5.749902      -156.4628
  58   1.0000      -5.748362      -156.4209
  59   1.0000      -5.748323      -156.4198
  60   1.0000      -5.746081      -156.3588
  61   1.0000      -5.745929      -156.3547
  62   1.0000      -5.744637      -156.3195
  63   1.0000      -5.744616      -156.3189
  64   1.0000      -5.743784      -156.2963
  65   1.0000      -5.743745      -156.2953
  66   1.0000      -5.741419      -156.2319
  67   1.0000      -5.741275      -156.2280
  68   1.0000      -5.662060      -154.0725
  69   1.0000      -5.661647      -154.0612
  70   1.0000      -5.661219      -154.0496
  71   1.0000      -5.660986      -154.0433
  72   1.0000      -5.655577      -153.8961
  73   1.0000      -5.655189      -153.8855
  74   1.0000      -5.654802      -153.8750
  75   1.0000      -5.654572      -153.8687
  76   1.0000      -5.654020      -153.8537
  77   1.0000      -5.653606      -153.8424
  78   1.0000      -5.653185      -153.8310
  79   1.0000      -5.652909      -153.8235
  80   1.0000      -2.401007       -65.3347
  81   1.0000      -1.467841       -39.9420
  82   1.0000      -1.413176       -38.4545
  83   1.0000      -1.413009       -38.4499
  84   1.0000      -0.711948       -19.3731
  85   1.0000      -0.710474       -19.3330
  86   1.0000      -0.685225       -18.6459
  87   1.0000      -0.684031       -18.6134
  88   1.0000      -0.659725       -17.9520
  89   1.0000      -0.631278       -17.1780
  90   1.0000      -0.629547       -17.1308
  91   1.0000      -0.617694       -16.8083
  92   1.0000      -0.617429       -16.8011
  93   1.0000      -0.578429       -15.7398
  94   1.0000      -0.576605       -15.6902
  95   1.0000      -0.576319       -15.6824
  96   1.0000      -0.574657       -15.6372
  97   1.0000      -0.497973       -13.5505
  98   1.0000      -0.497235       -13.5304
  99   1.0000      -0.496739       -13.5170
 100   1.0000      -0.494891       -13.4667
 101   1.0000      -0.483051       -13.1445
 102   1.0000      -0.480110       -13.0645
 103   1.0000      -0.443827       -12.0771
 104   1.0000      -0.435593       -11.8531
 105   1.0000      -0.416764       -11.3407
 106   1.0000      -0.412397       -11.2219
 107   1.0000      -0.353468        -9.6184
 108   1.0000      -0.352149        -9.5825
 109   1.0000      -0.325887        -8.8678
 110   1.0000      -0.323957        -8.8153
 111   1.0000      -0.320178        -8.7125
 112   1.0000      -0.318437        -8.6651
 113   1.0000      -0.303865        -8.2686
 114   1.0000      -0.300519        -8.1775
 115   1.0000      -0.283520        -7.7150
 116   1.0000      -0.268184        -7.2976
 117   1.0000      -0.262736        -7.1494
 118   1.0000      -0.259441        -7.0598
 119   1.0000      -0.257106        -6.9962
 120   1.0000      -0.255814        -6.9611
 121   1.0000      -0.232840        -6.3359
 122   1.0000      -0.230790        -6.2801
 123   1.0000      -0.227649        -6.1946
 124   1.0000      -0.218996        -5.9592
 125   1.0000      -0.217265        -5.9121
 126   1.0000      -0.213006        -5.7962
 127   1.0000      -0.210622        -5.7313
 128   1.0000      -0.198558        -5.4030
 129   1.0000      -0.195277        -5.3138
 130   1.0000      -0.191241        -5.2039
 131   1.0000      -0.188444        -5.1278
 132   1.0000      -0.187463        -5.1011
 133   1.0000      -0.181485        -4.9385
 134   1.0000      -0.160793        -4.3754
 135   1.0000      -0.152835        -4.1589
 136   1.0000      -0.148852        -4.0505
 137   1.0000      -0.138128        -3.7587
 138   1.0000      -0.137541        -3.7427
 139   1.0000      -0.135866        -3.6971
 140   1.0000      -0.126532        -3.4431
 141   1.0000      -0.123335        -3.3561
 142   1.0000      -0.117119        -3.1870
 143   1.0000      -0.113218        -3.0808
 144   1.0000      -0.102692        -2.7944
 145   1.0000      -0.100599        -2.7374
 146   1.0000      -0.100310        -2.7296
 147   1.0000      -0.097331        -2.6485
 148   1.0000      -0.072665        -1.9773
 149   1.0000      -0.069660        -1.8955
 150   1.0000      -0.068818        -1.8726
 151   1.0000      -0.051730        -1.4077
 152   1.0000      -0.046660        -1.2697
 153   1.0000      -0.041002        -1.1157
 154   1.0000      -0.038615        -1.0508
 155   1.0000      -0.034360        -0.9350
 156   1.0000      -0.028209        -0.7676
 157   1.0000      -0.017680        -0.4811
 158   1.0000       0.018439         0.5018
 159   1.0000       0.038046         1.0353
 160   0.0000       0.133004         3.6192
 161   0.0000       0.135580         3.6893
 162   0.0000       0.153108         4.1663
 163   0.0000       0.157859         4.2956
 164   0.0000       0.161017         4.3815

MULLIKEN ATOMIC CHARGES AND SPIN POPULATIONS
--------------------------------------------
   0 V :    0.470223    1.210642
   1 S :   -0.287305   -0.022207
   2 S :   -0.288166   -0.025307
   3 S :   -0.285457   -0.023189
   4 S :   -0.283951   -0.025763
   5 O :   -0.466673   -0.146893
   6 C :   -0.077742    0.009704
   7 C :   -0.084747    0.008041
   8 C :   -0.085566    0.007685
   9 C :   -0.086286    0.007355
  10 S :    0.103426   -0.000596
  11 S :    0.104967   -0.000636
  12 S :    0.110625   -0.000387
  13 S :    0.109860   -0.000338
  14 C :   -0.217480    0.001530
  15 C :   -0.215074    0.000966
  16 C :   -0.188404   -0.000054
  17 C :   -0.193284   -0.000372
  18 S :    0.023585   -0.000111
  19 S :    0.023740   -0.000110
  20 S :    0.049071   -0.000066
  21 S :    0.049089   -0.000068
  22 C :   -0.266888    0.000002
  23 C :   -0.267355    0.000001
  24 C :   -0.241386   -0.000013
  25 H :    0.111004   -0.000002
  26 H :    0.100580   -0.000002
  27 H :    0.091377   -0.000000
  28 H :    0.086111    0.000000
  29 H :    0.100583   -0.000003
  30 H :    0.110805   -0.000002
  31 C :   -0.287762    0.000186
  32 C :   -0.288000    0.000182
  33 C :   -0.189274   -0.000225
  34 H :    0.130531   -0.000016
  35 H :    0.110276    0.000022
  36 H :    0.089691    0.000027
  37 H :    0.084304    0.000013
  38 H :    0.110364    0.000023
  39 H :    0.130588   -0.000016
Sum of atomic charges         :   -2.0000000

LOEWDIN ATOMIC CHARGES AND SPIN POPULATIONS
-------------------------------------------
   0 V :   -0.155427    1.164044
   1 S :    0.082433   -0.014292
   2 S :    0.080491   -0.016146
   3 S :    0.083733   -0.015110
   4 S :    0.084403   -0.016372
   5 O :   -0.318427   -0.131804
   6 C :   -0.549702    0.009047
   7 C :   -0.551857    0.007942
   8 C :   -0.551924    0.008119
   9 C :   -0.551915    0.007649
  10 S :    0.474680   -0.000911
  11 S :    0.475719   -0.000958
  12 S :    0.481214   -0.000823
  13 S :    0.480519   -0.000829
  14 C :   -0.463485    0.000174
  15 C :   -0.460595   -0.000085
  16 C :   -0.622609    0.000488
  17 C :   -0.623262    0.000088
  18 S :    0.372773   -0.000087
  19 S :    0.373996   -0.000084
  20 S :    0.398117   -0.000069
  21 S :    0.397884   -0.000071
  22 C :   -0.329830   -0.000006
  23 C :   -0.329823   -0.000007
  24 C :   -0.191378   -0.000002
  25 H :    0.060324   -0.000002
  26 H :    0.061284   -0.000002
  27 H :    0.056159   -0.000001
  28 H :    0.048089   -0.000000
  29 H :    0.061169   -0.000002
  30 H :    0.060110   -0.000002
  31 C :   -0.297444    0.000043
  32 C :   -0.297256    0.000037
  33 C :   -0.179980    0.000007
  34 H :    0.059798   -0.000001
  35 H :    0.054889    0.000010
  36 H :    0.055785    0.000005
  37 H :    0.056723    0.000002
  38 H :    0.054949    0.000010
  39 H :    0.059672   -0.000001

  Mayer bond orders larger than 0.100000
B(  0-V ,  1-S ) :   0.7700 B(  0-V ,  2-S ) :   0.7725 B(  0-V ,  3-S ) :   0.7634
B(  0-V ,  4-S ) :   0.7796 B(  0-V ,  5-O ) :   2.1495 B(  1-S ,  8-C ) :   1.1071
B(  2-S ,  6-C ) :   1.1049 B(  3-S ,  9-C ) :   1.1100 B(  4-S ,  7-C ) :   1.1054
B(  6-C ,  7-C ) :   1.6814 B(  6-C , 10-S ) :   0.9360 B(  7-C , 11-S ) :   0.9400
B(  8-C ,  9-C ) :   1.6872 B(  8-C , 13-S ) :   0.9367 B(  9-C , 12-S ) :   0.9385
B( 10-S , 14-C ) :   1.2526 B( 11-S , 14-C ) :   1.2527 B( 12-S , 15-C ) :   1.2589
B( 13-S , 15-C ) :   1.2591 B( 14-C , 16-C ) :   1.4415 B( 15-C , 17-C ) :   1.4180
B( 16-C , 18-S ) :   1.0839 B( 16-C , 19-S ) :   1.0852 B( 17-C , 20-S ) :   1.0793
B( 17-C , 21-S ) :   1.0795 B( 18-S , 32-C ) :   0.9941 B( 19-S , 31-C ) :   0.9940
B( 20-S , 23-C ) :   0.9965 B( 21-S , 22-C ) :   0.9960 B( 22-C , 24-C ) :   0.8895
B( 22-C , 25-H ) :   0.9602 B( 22-C , 26-H ) :   0.9610 B( 23-C , 24-C ) :   0.8903
B( 23-C , 29-H ) :   0.9611 B( 23-C , 30-H ) :   0.9600 B( 24-C , 27-H ) :   0.9606
B( 24-C , 28-H ) :   0.9770 B( 31-C , 33-C ) :   0.9066 B( 31-C , 38-H ) :   0.9643
B( 31-C , 39-H ) :   0.9648 B( 32-C , 33-C ) :   0.9064 B( 32-C , 34-H ) :   0.9647
B( 32-C , 35-H ) :   0.9641 B( 33-C , 36-H ) :   0.9748 B( 33-C , 37-H ) :   0.9619

FINAL SINGLE POINT ENERGY     -6337.664096288674

DIPOLE MOMENT
-------------
                                X             Y             Z
Electronic contribution:      5.18104      -5.80185      11.90823
Nuclear contribution   :     -5.82610       6.49359     -12.91278
                        -----------------------------------------
Total Dipole Moment    :     -0.64506       0.69174      -1.00455
                        -----------------------------------------
Magnitude (a.u.)       :      1.37976
Magnitude (Debye)      :      3.50707

Rotational constants in cm-1:     0.010753     0.000804     0.000783
Rotational constants in MHz :   322.358625    24.113710    23.487128

                             ****ORCA TERMINATED NORMALLY****
TOTAL RUN TIME: 0 days 1 hours 1 minutes 53 seconds 196 msec
