                         Program Version 5.0.4 -  RELEASE  -
|  1> ! nofrozencore ReducedPop printbasis
|  2> ! B3LYP TZVP
|  3>
|  4> %basis
|  5> newgto V "CP(PPP)" end
|  6> end
|  7>
|  8> %pal
|  9> nprocs 6
| 10> end
| 11>
| 12> % sym SymThresh 1e-2 end
| 13> * xyz -2 2
| 14> V 0.4363452357830676 0.6579887178579215 -0.8201507796052551
| 15> S -1.625794739522014 1.916707268322741 -0.27888549625844805
| 16> S 1.278112966846691 1.4630075924649584 1.3631865870012938
| 17> S -1.0492084355170168 -0.9035640009251517 -2.0445488938797887
| 18> S 1.7508391472769718 -1.375390401128423 -0.35477525604844745
| 19> O 1.2402589207871346 1.4951478362369173 -1.9074815857963079
| 20> C 2.6976319999768807 0.4328743694991137 1.4992863057009758
| 21> C 2.8858750377034603 -0.7091249410592808 0.8109746417575112
| 22> C -2.8369970136364637 1.022857451906911 -1.1913852970690413
| 23> C -2.6071565725955077 -0.10250139474189351 -1.892061227888255
| 24> S 3.9695516082837825 0.8614156787469075 2.693633797138289
| 25> S 4.369670980519234 -1.6424782185217162 1.196116258230697
| 26> S -4.027549529326258 -0.840685472306805 -2.710971330374065
| 27> S -4.5311997632651275 1.6265978672649786 -1.1823850442423895
| 28> C 4.991434493403567 -0.5608216900014059 2.448419039594743
| 29> C -5.230456043940493 0.33617095727900176 -2.168971964318922
| 30> C 6.144741343668042 -0.7965825357437039 3.1447437892409926
| 31> C -6.556473682246105 0.2667328762552318 -2.4952081489093865
| 32> S 6.754070916483672 0.339457470077381 4.375610913627842
| 33> S 7.124983449522932 -2.2594507029481092 2.869651292123764
| 34> S -7.7198766896496265 1.5144691359045668 -1.9761625717837075
| 35> S -7.202065761521646 -1.031955723406993 -3.5338383503372355
| 36> C -8.467634606422715 -1.7286244074816033 -2.367285887243302
| 37> C -8.911000648188217 0.4314637616177949 -1.0506650444707886
| 38> C -9.501668944039915 -0.7016097429543111 -1.895828539024556
| 39> H -7.939983034203496 -2.171886761865621 -1.5141070079398333
| 40> H -8.9604360397233 -2.533290434292175 -2.921577353465521
| 41> H -10.259097832096655 -1.2267997653555214 -1.2889181665367007
| 42> H -10.018183214525079 -0.2767391617189173 -2.7679904310376595
| 43> H -9.706193379982302 1.1020319846459288 -0.7112389417109256
| 44> H -8.39736504428203 0.03240255469561094 -0.16763929668325242
| 45> C 8.690371642345106 -1.4472088035120463 2.3065020313416658
| 46> C 8.372003018011396 0.763239981483351 3.5804545712658307
| 47> C 9.264764069917645 -0.45131938250550774 3.316301893648841
| 48> H 8.164445783031336 1.30193761465582 2.652682791703737
| 49> H 8.863300655403059 1.4516283816444002 4.272887018792
| 50> H 9.464750621018077 -0.9666481716619667 4.26145228489168
| 51> H 10.228779671668104 -0.09020496025395404 2.9303452101769403
| 52> H 9.395474675319344 -2.264855188742573 2.136462123472992
| 53> H 8.494282323609134 -0.9600890598750781 1.3482164514904844
| 54> *
| 55>
| 56> % eprnmr
| 57> gtensor true
| 58> Nuclei = all H {aiso,adip,aorb,fgrad,rho}
| 59> Nuclei = all V {aiso,adip,aorb,fgrad,rho}
| 60> end
| 61>
| 62>                          ****END OF INPUT****

CARTESIAN COORDINATES (ANGSTROEM)
---------------------------------
  V      0.437164    0.656130   -0.816899
  S     -1.624976    1.914848   -0.275634
  S      1.278931    1.461149    1.366438
  S     -1.048390   -0.905423   -2.041297
  S      1.751658   -1.377249   -0.351523
  O      1.241077    1.493289   -1.904230
  C      2.698450    0.431016    1.502538
  C      2.886693   -0.710984    0.814226
  C     -2.836179    1.020999   -1.188134
  C     -2.606338   -0.104360   -1.888809
  S      3.970370    0.859557    2.696886
  S      4.370489   -1.644337    1.199368
  S     -4.026731   -0.842544   -2.707720
  S     -4.530381    1.624739   -1.179133
  C      4.992253   -0.562681    2.451671
  C     -5.229638    0.334312   -2.165720
  C      6.145560   -0.798441    3.147996
  C     -6.555655    0.264874   -2.491956
  S      6.754889    0.337599    4.378863
  S      7.125802   -2.261310    2.872903
  S     -7.719058    1.512610   -1.972911
  S     -7.201247   -1.033815   -3.530587
  C     -8.466816   -1.730483   -2.364034
  C     -8.910182    0.429605   -1.047413
  C     -9.500851   -0.703469   -1.892577
  H     -7.939165   -2.173746   -1.510855
  H     -8.959618   -2.535149   -2.918326
  H    -10.258279   -1.228659   -1.285666
  H    -10.017365   -0.278598   -2.764739
  H     -9.705375    1.100173   -0.707987
  H     -8.396547    0.030544   -0.164388
  C      8.691190   -1.449068    2.309754
  C      8.372821    0.761381    3.583706
  C      9.265583   -0.453178    3.319554
  H      8.165264    1.300079    2.655935
  H      8.864119    1.449770    4.276139
  H      9.465569   -0.968507    4.264704
  H     10.229598   -0.092064    2.933597
  H      9.396293   -2.266714    2.139714
  H      8.495101   -0.961948    1.351468

 Total Charge           Charge          ....   -2
 Multiplicity           Mult            ....    2
 Number of Electrons    NEL             ....  321
 Basis Dimension        Dim             ....  681

ORBITAL ENERGIES
----------------
                 SPIN UP ORBITALS
  NO   OCC          E(Eh)            E(eV)
   0   1.0000    -196.674342     -5351.7809
   1   1.0000     -88.734371     -2414.5850
   2   1.0000     -88.734220     -2414.5809
   3   1.0000     -88.733157     -2414.5519
   4   1.0000     -88.733134     -2414.5513
   5   1.0000     -88.729748     -2414.4592
   6   1.0000     -88.729740     -2414.4590
   7   1.0000     -88.729679     -2414.4573
   8   1.0000     -88.729545     -2414.4537
   9   1.0000     -88.639616     -2412.0066
  10   1.0000     -88.639431     -2412.0016
  11   1.0000     -88.639055     -2411.9913
  12   1.0000     -88.639021     -2411.9904
  13   1.0000     -22.049629      -600.0009
  14   1.0000     -18.889523      -514.0101
  15   1.0000     -18.556163      -504.9389
  16   1.0000     -18.550877      -504.7950
  17   1.0000     -18.550771      -504.7921
  18   1.0000     -10.075494      -274.1681
  19   1.0000     -10.075288      -274.1625
  20   1.0000     -10.065315      -273.8912
  21   1.0000     -10.065287      -273.8904
  22   1.0000     -10.063590      -273.8442
  23   1.0000     -10.063537      -273.8428
  24   1.0000     -10.053330      -273.5650
  25   1.0000     -10.051380      -273.5120
  26   1.0000     -10.049242      -273.4538
  27   1.0000     -10.048203      -273.4255
  28   1.0000     -10.017782      -272.5977
  29   1.0000     -10.017727      -272.5962
  30   1.0000     -10.016985      -272.5760
  31   1.0000     -10.016773      -272.5703
  32   1.0000      -7.787646      -211.9126
  33   1.0000      -7.787517      -211.9091
  34   1.0000      -7.786592      -211.8839
  35   1.0000      -7.786566      -211.8832
  36   1.0000      -7.782974      -211.7855
  37   1.0000      -7.782972      -211.7854
  38   1.0000      -7.782926      -211.7842
  39   1.0000      -7.782840      -211.7818
  40   1.0000      -7.693778      -209.3584
  41   1.0000      -7.693665      -209.3553
  42   1.0000      -7.693294      -209.3452
  43   1.0000      -7.693270      -209.3445
  44   1.0000      -5.752633      -156.5371
  45   1.0000      -5.752499      -156.5335
  46   1.0000      -5.751577      -156.5084
  47   1.0000      -5.751552      -156.5077
  48   1.0000      -5.749247      -156.4450
  49   1.0000      -5.749122      -156.4416
  50   1.0000      -5.748169      -156.4156
  51   1.0000      -5.748156      -156.4153
  52   1.0000      -5.747935      -156.4093
  53   1.0000      -5.747925      -156.4090
  54   1.0000      -5.747899      -156.4083
  55   1.0000      -5.747779      -156.4050
  56   1.0000      -5.743510      -156.2889
  57   1.0000      -5.743482      -156.2881
  58   1.0000      -5.743448      -156.2872
  59   1.0000      -5.743350      -156.2845
  60   1.0000      -5.742446      -156.2599
  61   1.0000      -5.742311      -156.2562
  62   1.0000      -5.741388      -156.2311
  63   1.0000      -5.741353      -156.2302
  64   1.0000      -5.738797      -156.1606
  65   1.0000      -5.738764      -156.1597
  66   1.0000      -5.738725      -156.1586
  67   1.0000      -5.738663      -156.1570
  68   1.0000      -5.659123      -153.9926
  69   1.0000      -5.658987      -153.9889
  70   1.0000      -5.658613      -153.9787
  71   1.0000      -5.658597      -153.9783
  72   1.0000      -5.652446      -153.8109
  73   1.0000      -5.652300      -153.8069
  74   1.0000      -5.651952      -153.7974
  75   1.0000      -5.651931      -153.7969
  76   1.0000      -5.651128      -153.7750
  77   1.0000      -5.651012      -153.7719
  78   1.0000      -5.650624      -153.7613
  79   1.0000      -5.650573      -153.7599
  80   1.0000      -2.443151       -66.4815
  81   1.0000      -1.484443       -40.3938
  82   1.0000      -1.472746       -40.0755
  83   1.0000      -1.471908       -40.0527
  84   1.0000      -0.709109       -19.2958
  85   1.0000      -0.708775       -19.2868
  86   1.0000      -0.685338       -18.6490
  87   1.0000      -0.684988       -18.6395
  88   1.0000      -0.649109       -17.6631
  89   1.0000      -0.631357       -17.1801
  90   1.0000      -0.631104       -17.1732
  91   1.0000      -0.617127       -16.7929
  92   1.0000      -0.616461       -16.7748
  93   1.0000      -0.573810       -15.6142
  94   1.0000      -0.573601       -15.6085
  95   1.0000      -0.573170       -15.5967
  96   1.0000      -0.572221       -15.5709
  97   1.0000      -0.496850       -13.5200
  98   1.0000      -0.496404       -13.5078
  99   1.0000      -0.495576       -13.4853
 100   1.0000      -0.495207       -13.4753
 101   1.0000      -0.479337       -13.0434
 102   1.0000      -0.476640       -12.9700
 103   1.0000      -0.447071       -12.1654
 104   1.0000      -0.444906       -12.1065
 105   1.0000      -0.416043       -11.3211
 106   1.0000      -0.410759       -11.1773
 107   1.0000      -0.355286        -9.6678
 108   1.0000      -0.355214        -9.6659
 109   1.0000      -0.326681        -8.8894
 110   1.0000      -0.326487        -8.8842
 111   1.0000      -0.318627        -8.6703
 112   1.0000      -0.314140        -8.5482
 113   1.0000      -0.304013        -8.2726
 114   1.0000      -0.303243        -8.2517
 115   1.0000      -0.292543        -7.9605
 116   1.0000      -0.292263        -7.9529
 117   1.0000      -0.257846        -7.0164
 118   1.0000      -0.257492        -7.0067
 119   1.0000      -0.255845        -6.9619
 120   1.0000      -0.255253        -6.9458
 121   1.0000      -0.235153        -6.3988
 122   1.0000      -0.234317        -6.3761
 123   1.0000      -0.231250        -6.2926
 124   1.0000      -0.230019        -6.2591
 125   1.0000      -0.219387        -5.9698
 126   1.0000      -0.217583        -5.9207
 127   1.0000      -0.214233        -5.8296
 128   1.0000      -0.212583        -5.7847
 129   1.0000      -0.192742        -5.2448
 130   1.0000      -0.186689        -5.0801
 131   1.0000      -0.185070        -5.0360
 132   1.0000      -0.183800        -5.0015
 133   1.0000      -0.178712        -4.8630
 134   1.0000      -0.159253        -4.3335
 135   1.0000      -0.151312        -4.1174
 136   1.0000      -0.146453        -3.9852
 137   1.0000      -0.135660        -3.6915
 138   1.0000      -0.134987        -3.6732
 139   1.0000      -0.132166        -3.5964
 140   1.0000      -0.124757        -3.3948
 141   1.0000      -0.120682        -3.2839
 142   1.0000      -0.112363        -3.0575
 143   1.0000      -0.109396        -2.9768
 144   1.0000      -0.098954        -2.6927
 145   1.0000      -0.098229        -2.6730
 146   1.0000      -0.097335        -2.6486
 147   1.0000      -0.094516        -2.5719
 148   1.0000      -0.073925        -2.0116
 149   1.0000      -0.068542        -1.8651
 150   1.0000      -0.067516        -1.8372
 151   1.0000      -0.051612        -1.4044
 152   1.0000      -0.045204        -1.2301
 153   1.0000      -0.036676        -0.9980
 154   1.0000      -0.036098        -0.9823
 155   1.0000      -0.030611        -0.8330
 156   1.0000      -0.024132        -0.6567
 157   1.0000      -0.018160        -0.4942
 158   1.0000      -0.014557        -0.3961
 159   1.0000       0.021467         0.5841
 160   1.0000       0.041606         1.1322
 161   0.0000       0.136527         3.7151
 162   0.0000       0.136964         3.7270
 163   0.0000       0.160837         4.3766
 164   0.0000       0.161986         4.4079
 165   0.0000       0.170209         4.6316

                 SPIN DOWN ORBITALS
  NO   OCC          E(Eh)            E(eV)
   0   1.0000    -196.674488     -5351.7849
   1   1.0000     -88.734371     -2414.5850
   2   1.0000     -88.734221     -2414.5809
   3   1.0000     -88.733157     -2414.5520
   4   1.0000     -88.733135     -2414.5514
   5   1.0000     -88.729757     -2414.4594
   6   1.0000     -88.729749     -2414.4592
   7   1.0000     -88.729687     -2414.4575
   8   1.0000     -88.729554     -2414.4539
   9   1.0000     -88.639737     -2412.0099
  10   1.0000     -88.639561     -2412.0051
  11   1.0000     -88.639188     -2411.9949
  12   1.0000     -88.639144     -2411.9937
  13   1.0000     -22.034730      -599.5955
  14   1.0000     -18.893272      -514.1121
  15   1.0000     -18.550912      -504.7960
  16   1.0000     -18.534890      -504.3600
  17   1.0000     -18.534670      -504.3540
  18   1.0000     -10.075495      -274.1682
  19   1.0000     -10.075281      -274.1623
  20   1.0000     -10.065316      -273.8912
  21   1.0000     -10.065287      -273.8904
  22   1.0000     -10.063589      -273.8442
  23   1.0000     -10.063535      -273.8427
  24   1.0000     -10.053330      -273.5650
  25   1.0000     -10.051380      -273.5120
  26   1.0000     -10.049239      -273.4537
  27   1.0000     -10.048190      -273.4251
  28   1.0000     -10.017578      -272.5921
  29   1.0000     -10.017488      -272.5897
  30   1.0000     -10.016784      -272.5705
  31   1.0000     -10.016553      -272.5643
  32   1.0000      -7.787646      -211.9126
  33   1.0000      -7.787518      -211.9091
  34   1.0000      -7.786593      -211.8840
  35   1.0000      -7.786567      -211.8832
  36   1.0000      -7.782984      -211.7858
  37   1.0000      -7.782982      -211.7857
  38   1.0000      -7.782936      -211.7845
  39   1.0000      -7.782850      -211.7821
  40   1.0000      -7.693891      -209.3614
  41   1.0000      -7.693787      -209.3586
  42   1.0000      -7.693410      -209.3483
  43   1.0000      -7.693395      -209.3479
  44   1.0000      -5.752634      -156.5371
  45   1.0000      -5.752500      -156.5335
  46   1.0000      -5.751579      -156.5084
  47   1.0000      -5.751553      -156.5077
  48   1.0000      -5.749248      -156.4450
  49   1.0000      -5.749123      -156.4416
  50   1.0000      -5.748170      -156.4157
  51   1.0000      -5.748157      -156.4153
  52   1.0000      -5.747946      -156.4096
  53   1.0000      -5.747936      -156.4093
  54   1.0000      -5.747911      -156.4086
  55   1.0000      -5.747790      -156.4053
  56   1.0000      -5.743525      -156.2893
  57   1.0000      -5.743497      -156.2885
  58   1.0000      -5.743463      -156.2876
  59   1.0000      -5.743364      -156.2849
  60   1.0000      -5.742447      -156.2599
  61   1.0000      -5.742312      -156.2563
  62   1.0000      -5.741388      -156.2311
  63   1.0000      -5.741354      -156.2302
  64   1.0000      -5.738806      -156.1609
  65   1.0000      -5.738770      -156.1599
  66   1.0000      -5.738731      -156.1588
  67   1.0000      -5.738674      -156.1573
  68   1.0000      -5.659255      -153.9962
  69   1.0000      -5.659117      -153.9924
  70   1.0000      -5.658745      -153.9823
  71   1.0000      -5.658731      -153.9819
  72   1.0000      -5.652780      -153.8200
  73   1.0000      -5.652689      -153.8175
  74   1.0000      -5.652319      -153.8074
  75   1.0000      -5.652297      -153.8068
  76   1.0000      -5.651192      -153.7768
  77   1.0000      -5.651062      -153.7732
  78   1.0000      -5.650688      -153.7630
  79   1.0000      -5.650634      -153.7616
  80   1.0000      -2.398396       -65.2637
  81   1.0000      -1.465212       -39.8705
  82   1.0000      -1.410480       -38.3811
  83   1.0000      -1.410435       -38.3799
  84   1.0000      -0.709080       -19.2950
  85   1.0000      -0.708763       -19.2864
  86   1.0000      -0.685278       -18.6474
  87   1.0000      -0.684948       -18.6384
  88   1.0000      -0.657159       -17.8822
  89   1.0000      -0.631303       -17.1786
  90   1.0000      -0.631021       -17.1710
  91   1.0000      -0.617126       -16.7929
  92   1.0000      -0.616463       -16.7748
  93   1.0000      -0.573783       -15.6134
  94   1.0000      -0.573583       -15.6080
  95   1.0000      -0.573087       -15.5945
  96   1.0000      -0.572147       -15.5689
  97   1.0000      -0.496860       -13.5203
  98   1.0000      -0.496438       -13.5088
  99   1.0000      -0.495612       -13.4863
 100   1.0000      -0.495232       -13.4759
 101   1.0000      -0.479510       -13.0481
 102   1.0000      -0.476872       -12.9763
 103   1.0000      -0.447081       -12.1657
 104   1.0000      -0.444944       -12.1075
 105   1.0000      -0.416017       -11.3204
 106   1.0000      -0.410838       -11.1795
 107   1.0000      -0.355274        -9.6675
 108   1.0000      -0.355211        -9.6658
 109   1.0000      -0.326665        -8.8890
 110   1.0000      -0.326478        -8.8839
 111   1.0000      -0.318548        -8.6681
 112   1.0000      -0.314160        -8.5487
 113   1.0000      -0.303963        -8.2713
 114   1.0000      -0.303221        -8.2511
 115   1.0000      -0.292535        -7.9603
 116   1.0000      -0.292261        -7.9528
 117   1.0000      -0.257768        -7.0142
 118   1.0000      -0.257335        -7.0024
 119   1.0000      -0.255807        -6.9609
 120   1.0000      -0.255225        -6.9450
 121   1.0000      -0.235122        -6.3980
 122   1.0000      -0.234302        -6.3757
 123   1.0000      -0.231201        -6.2913
 124   1.0000      -0.229990        -6.2583
 125   1.0000      -0.219033        -5.9602
 126   1.0000      -0.217472        -5.9177
 127   1.0000      -0.214002        -5.8233
 128   1.0000      -0.212469        -5.7816
 129   1.0000      -0.191176        -5.2022
 130   1.0000      -0.186615        -5.0781
 131   1.0000      -0.184576        -5.0226
 132   1.0000      -0.183576        -4.9954
 133   1.0000      -0.178603        -4.8600
 134   1.0000      -0.158632        -4.3166
 135   1.0000      -0.151148        -4.1129
 136   1.0000      -0.146375        -3.9831
 137   1.0000      -0.135190        -3.6787
 138   1.0000      -0.134589        -3.6623
 139   1.0000      -0.131958        -3.5908
 140   1.0000      -0.124039        -3.3753
 141   1.0000      -0.120387        -3.2759
 142   1.0000      -0.114092        -3.1046
 143   1.0000      -0.110841        -3.0161
 144   1.0000      -0.098928        -2.6920
 145   1.0000      -0.098216        -2.6726
 146   1.0000      -0.097678        -2.6580
 147   1.0000      -0.094907        -2.5826
 148   1.0000      -0.070104        -1.9076
 149   1.0000      -0.068531        -1.8648
 150   1.0000      -0.067522        -1.8374
 151   1.0000      -0.049056        -1.3349
 152   1.0000      -0.044271        -1.2047
 153   1.0000      -0.036209        -0.9853
 154   1.0000      -0.036064        -0.9814
 155   1.0000      -0.030157        -0.8206
 156   1.0000      -0.024950        -0.6789
 157   1.0000      -0.014626        -0.3980
 158   1.0000       0.021935         0.5969
 159   1.0000       0.039602         1.0776
 160   0.0000       0.136511         3.7147
 161   0.0000       0.136982         3.7275
 162   0.0000       0.156840         4.2678
 163   0.0000       0.161351         4.3906
 164   0.0000       0.163263         4.4426

MULLIKEN ATOMIC CHARGES AND SPIN POPULATIONS
--------------------------------------------
   0 V :    0.471573    1.204456
   1 S :   -0.291744   -0.019776
   2 S :   -0.287930   -0.024839
   3 S :   -0.290061   -0.020705
   4 S :   -0.283501   -0.024961
   5 O :   -0.469706   -0.145600
   6 C :   -0.077465    0.009953
   7 C :   -0.082945    0.007925
   8 C :   -0.085560    0.007113
   9 C :   -0.083854    0.006772
  10 S :    0.099082   -0.000711
  11 S :    0.100428   -0.000761
  12 S :    0.097640   -0.000433
  13 S :    0.096844   -0.000384
  14 C :   -0.214133    0.001592
  15 C :   -0.211554    0.000773
  16 C :   -0.192929    0.000115
  17 C :   -0.192831   -0.000345
  18 S :    0.010211   -0.000133
  19 S :    0.010444   -0.000129
  20 S :    0.012484   -0.000099
  21 S :    0.012236   -0.000101
  22 C :   -0.300624    0.000029
  23 C :   -0.299987    0.000028
  24 C :   -0.154216   -0.000058
  25 H :    0.139437   -0.000004
  26 H :    0.114118    0.000000
  27 H :    0.082411    0.000004
  28 H :    0.092631    0.000002
  29 H :    0.113814   -0.000001
  30 H :    0.138882   -0.000004
  31 C :   -0.299537    0.000278
  32 C :   -0.300293    0.000275
  33 C :   -0.157032   -0.000352
  34 H :    0.141066   -0.000024
  35 H :    0.113523    0.000032
  36 H :    0.092314    0.000037
  37 H :    0.082441    0.000027
  38 H :    0.113434    0.000034
  39 H :    0.140889   -0.000024
Sum of atomic charges         :   -2.0000000

LOEWDIN ATOMIC CHARGES AND SPIN POPULATIONS
-------------------------------------------
   0 V :   -0.155615    1.158420
   1 S :    0.079055   -0.012377
   2 S :    0.080000   -0.015498
   3 S :    0.080283   -0.013140
   4 S :    0.084057   -0.015465
   5 O :   -0.320489   -0.130699
   6 C :   -0.549429    0.009130
   7 C :   -0.551685    0.007761
   8 C :   -0.551135    0.007791
   9 C :   -0.551062    0.007312
  10 S :    0.470810   -0.000973
  11 S :    0.471755   -0.001044
  12 S :    0.469436   -0.000875
  13 S :    0.468771   -0.000878
  14 C :   -0.465322    0.000251
  15 C :   -0.466562   -0.000142
  16 C :   -0.622047    0.000619
  17 C :   -0.620021    0.000042
  18 S :    0.359374   -0.000096
  19 S :    0.360627   -0.000092
  20 S :    0.359710   -0.000097
  21 S :    0.359266   -0.000099
  22 C :   -0.283886   -0.000008
  23 C :   -0.283979   -0.000009
  24 C :   -0.177298    0.000001
  25 H :    0.062203   -0.000001
  26 H :    0.053923   -0.000001
  27 H :    0.058280   -0.000001
  28 H :    0.061133    0.000000
  29 H :    0.053853   -0.000001
  30 H :    0.062034   -0.000001
  31 C :   -0.284294    0.000063
  32 C :   -0.284063    0.000055
  33 C :   -0.176528    0.000011
  34 H :    0.061860    0.000000
  35 H :    0.053566    0.000014
  36 H :    0.060322    0.000008
  37 H :    0.057743    0.000004
  38 H :    0.053615    0.000014
  39 H :    0.061742    0.000001

  Mayer bond orders larger than 0.100000
B(  0-V ,  1-S ) :   0.7700 B(  0-V ,  2-S ) :   0.7746 B(  0-V ,  3-S ) :   0.7629
B(  0-V ,  4-S ) :   0.7836 B(  0-V ,  5-O ) :   2.1464 B(  1-S ,  8-C ) :   1.1007
B(  2-S ,  6-C ) :   1.1020 B(  3-S ,  9-C ) :   1.1018 B(  4-S ,  7-C ) :   1.1008
B(  6-C ,  7-C ) :   1.6829 B(  6-C , 10-S ) :   0.9348 B(  7-C , 11-S ) :   0.9384
B(  8-C ,  9-C ) :   1.7071 B(  8-C , 13-S ) :   0.9313 B(  9-C , 12-S ) :   0.9322
B( 10-S , 14-C ) :   1.2479 B( 11-S , 14-C ) :   1.2477 B( 12-S , 15-C ) :   1.2445
B( 13-S , 15-C ) :   1.2446 B( 14-C , 16-C ) :   1.4541 B( 15-C , 17-C ) :   1.4654
B( 16-C , 18-S ) :   1.0880 B( 16-C , 19-S ) :   1.0895 B( 17-C , 20-S ) :   1.0881
B( 17-C , 21-S ) :   1.0882 B( 18-S , 32-C ) :   0.9916 B( 19-S , 31-C ) :   0.9915
B( 20-S , 23-C ) :   0.9891 B( 21-S , 22-C ) :   0.9883 B( 22-C , 24-C ) :   0.9108
B( 22-C , 25-H ) :   0.9642 B( 22-C , 26-H ) :   0.9662 B( 23-C , 24-C ) :   0.9116
B( 23-C , 29-H ) :   0.9661 B( 23-C , 30-H ) :   0.9640 B( 24-C , 27-H ) :   0.9619
B( 24-C , 28-H ) :   0.9718 B( 31-C , 33-C ) :   0.9132 B( 31-C , 38-H ) :   0.9657
B( 31-C , 39-H ) :   0.9654 B( 32-C , 33-C ) :   0.9127 B( 32-C , 34-H ) :   0.9653
B( 32-C , 35-H ) :   0.9657 B( 33-C , 36-H ) :   0.9719 B( 33-C , 37-H ) :   0.9623

FINAL SINGLE POINT ENERGY     -6337.706634025913

DIPOLE MOMENT
-------------
                                X             Y             Z
Electronic contribution:      2.30106       8.26422     -10.31649
Nuclear contribution   :     -2.59645      -9.21656      11.49396
                        -----------------------------------------
Total Dipole Moment    :     -0.29539      -0.95233       1.17746
                        -----------------------------------------
Magnitude (a.u.)       :      1.54292
Magnitude (Debye)      :      3.92180

Rotational constants in cm-1:     0.010787     0.000801     0.000780
Rotational constants in MHz :   323.387438    24.005953    23.378917

                             ****ORCA TERMINATED NORMALLY****
TOTAL RUN TIME: 0 days 1 hours 6 minutes 18 seconds 211 msec
