                         Program Version 5.0.4 -  RELEASE  -
|  1> ! nofrozencore ReducedPop printbasis
|  2> ! B3LYP TZVP
|  3>
|  4> %basis
|  5> newgto V "CP(PPP)" end
|  6> end
|  7>
|  8> %pal
|  9> nprocs 8
| 10> end
| 11>
| 12> % sym SymThresh 1e-2 end
| 13> * xyz -2 2
| 14> V -0.6603852096787374 -0.6162694149081993 -0.6584093849781273
| 15> S 1.492279260496665 -1.8081622542816909 -0.8927584103476593
| 16> S -0.8137882608985941 -1.6811676102371729 1.5791225904846888
| 17> S 0.3316240488181078 1.1020585333957174 -2.1437877721708287
| 18> S -1.7385441410566922 1.3282187221603958 0.3996915065985933
| 19> O -1.7456882114442118 -1.378437032109928 -1.5337782882439959
| 20> C -2.0361723721995832 -0.6459050569224589 2.3053794924313684
| 21> C -2.402936963211871 0.5619971125399685 1.8353208234531766
| 22> C 2.259523213780447 -0.874132673875212 -2.1711458598887483
| 23> C 1.7967441450168287 0.2884728642017003 -2.6666368837965195
| 24> S -2.8235599162926417 -1.1768272527758745 3.8317695531806812
| 25> S -3.6010867847548016 1.4754435052839419 2.810185966865674
| 26> S 2.796850575562769 1.0744653274424063 -3.9343419379331137
| 27> S 3.8116836102273304 -1.470387013544006 -2.8524739343880925
| 28> C -3.80025963015098 0.2749838859169032 4.092647025227655
| 29> C 4.109083860379587 -0.10952728837419934 -3.941709191940901
| 30> C -4.630939297865342 0.4510976885701152 5.165076594847956
| 31> C 5.229094489568699 0.010504407855439945 -4.717056036534108
| 32> S -4.858820710480484 -0.8109637725915114 6.40425368359359
| 33> S -5.572641942088983 1.9502548900497523 5.384073458380166
| 34> S 6.532332823170566 -1.2047746575303688 -4.68708016701166
| 35> S 5.481949143804062 1.4103856113465474 -5.792298517663738
| 36> C 6.999772318841834 2.0994193442150815 -4.9851499151143015
| 37> C 7.8953842916051755 -0.12453887545495301 -4.049800595110782
| 38> C 8.163566548780194 1.1073847552239726 -4.918484034924947
| 39> H 6.724596474521469 2.444262017272363 -3.9857652594224673
| 40> H 7.277184834191439 2.9716311193518123 -5.583112175139329
| 41> H 9.037544789895872 1.6321472724597264 -4.506783812429573
| 42> H 8.424013309457079 0.7867674006962511 -5.932209823353239
| 43> H 8.780646325702321 -0.7647505461550919 -4.0155547607433775
| 44> H 7.645966458663894 0.16780619289237542 -3.027230488668261
| 45> C -7.275650972288746 1.227390811208531 5.280793131971436
| 46> C -6.66723524915473 -1.1228102481655142 6.1398787532755215
| 47> C -7.539201841222535 0.1252321850760684 6.310378311888109
| 48> H -6.79614146668163 -1.5534093029554699 5.14380659383028
| 49> H -6.941399859067938 -1.8820733297110264 6.87767820669098
| 50> H -7.398723092103576 0.5298559056587101 7.318154038284032
| 51> H -8.592863756805404 -0.179214093168799 6.223078177368802
| 52> H -7.957817233004767 2.067928973343092 5.439008372113388
| 53> H -7.4248031603313915 0.8534105368913342 4.264873559051056
| 54> *
| 55>
| 56> % eprnmr
| 57> gtensor true
| 58> Nuclei = all H {aiso,adip,aorb,fgrad,rho}
| 59> Nuclei = all V {aiso,adip,aorb,fgrad,rho}
| 60> end
| 61>
| 62>                          ****END OF INPUT****

CARTESIAN COORDINATES (ANGSTROEM)
---------------------------------
  V     -0.659991   -0.614687   -0.654940
  S      1.492674   -1.806580   -0.889289
  S     -0.813394   -1.679585    1.582592
  S      0.332019    1.103641   -2.140318
  S     -1.738150    1.329801    0.403161
  O     -1.745294   -1.376855   -1.530309
  C     -2.035778   -0.644323    2.308849
  C     -2.402542    0.563579    1.838790
  C      2.259918   -0.872550   -2.167676
  C      1.797139    0.290055   -2.663167
  S     -2.823165   -1.175245    3.835239
  S     -3.600692    1.477026    2.813656
  S      2.797245    1.076048   -3.930872
  S      3.812078   -1.468805   -2.849004
  C     -3.799865    0.276566    4.096117
  C      4.109478   -0.107945   -3.938240
  C     -4.630545    0.452680    5.168546
  C      5.229489    0.012087   -4.713586
  S     -4.858426   -0.809381    6.407723
  S     -5.572247    1.951837    5.387543
  S      6.532727   -1.203192   -4.683611
  S      5.482344    1.411968   -5.788829
  C      7.000167    2.101002   -4.981680
  C      7.895779   -0.122957   -4.046331
  C      8.163961    1.108967   -4.915014
  H      6.724991    2.445844   -3.982296
  H      7.277579    2.973213   -5.579643
  H      9.037939    1.633730   -4.503314
  H      8.424408    0.788350   -5.928740
  H      8.781041   -0.763168   -4.012085
  H      7.646361    0.169389   -3.023761
  C     -7.275256    1.228973    5.284263
  C     -6.666841   -1.121228    6.143348
  C     -7.538807    0.126815    6.313848
  H     -6.795747   -1.551827    5.147276
  H     -6.941005   -1.880491    6.881148
  H     -7.398329    0.531438    7.321624
  H     -8.592469   -0.177632    6.226548
  H     -7.957423    2.069511    5.442478
  H     -7.424409    0.854993    4.268343

 Total Charge           Charge          ....   -2
 Multiplicity           Mult            ....    2
 Number of Electrons    NEL             ....  321
 Basis Dimension        Dim             ....  681

ORBITAL ENERGIES
----------------
                 SPIN UP ORBITALS
  NO   OCC          E(Eh)            E(eV)
   0   1.0000    -196.674719     -5351.7912
   1   1.0000     -88.733330     -2414.5567
   2   1.0000     -88.733325     -2414.5565
   3   1.0000     -88.733131     -2414.5513
   4   1.0000     -88.733067     -2414.5495
   5   1.0000     -88.730055     -2414.4675
   6   1.0000     -88.729898     -2414.4633
   7   1.0000     -88.729769     -2414.4598
   8   1.0000     -88.729688     -2414.4575
   9   1.0000     -88.639823     -2412.0122
  10   1.0000     -88.639630     -2412.0070
  11   1.0000     -88.638806     -2411.9845
  12   1.0000     -88.638696     -2411.9816
  13   1.0000     -22.050121      -600.0143
  14   1.0000     -18.889835      -514.0186
  15   1.0000     -18.556555      -504.9495
  16   1.0000     -18.551407      -504.8094
  17   1.0000     -18.551297      -504.8065
  18   1.0000     -10.075675      -274.1731
  19   1.0000     -10.075645      -274.1722
  20   1.0000     -10.063822      -273.8505
  21   1.0000     -10.063739      -273.8483
  22   1.0000     -10.063311      -273.8366
  23   1.0000     -10.063251      -273.8350
  24   1.0000     -10.051670      -273.5198
  25   1.0000     -10.051181      -273.5065
  26   1.0000     -10.048388      -273.4305
  27   1.0000     -10.048316      -273.4286
  28   1.0000     -10.018133      -272.6073
  29   1.0000     -10.017649      -272.5941
  30   1.0000     -10.016855      -272.5725
  31   1.0000     -10.016853      -272.5724
  32   1.0000      -7.786707      -211.8871
  33   1.0000      -7.786689      -211.8866
  34   1.0000      -7.786575      -211.8835
  35   1.0000      -7.786496      -211.8813
  36   1.0000      -7.783267      -211.7935
  37   1.0000      -7.783142      -211.7901
  38   1.0000      -7.783055      -211.7877
  39   1.0000      -7.783002      -211.7862
  40   1.0000      -7.694074      -209.3664
  41   1.0000      -7.693981      -209.3639
  42   1.0000      -7.693063      -209.3389
  43   1.0000      -7.693062      -209.3389
  44   1.0000      -5.751698      -156.5117
  45   1.0000      -5.751693      -156.5115
  46   1.0000      -5.751570      -156.5082
  47   1.0000      -5.751490      -156.5060
  48   1.0000      -5.748292      -156.4190
  49   1.0000      -5.748279      -156.4186
  50   1.0000      -5.748212      -156.4168
  51   1.0000      -5.748147      -156.4150
  52   1.0000      -5.748094      -156.4136
  53   1.0000      -5.748071      -156.4130
  54   1.0000      -5.748005      -156.4112
  55   1.0000      -5.747952      -156.4097
  56   1.0000      -5.743790      -156.2965
  57   1.0000      -5.743664      -156.2930
  58   1.0000      -5.743565      -156.2903
  59   1.0000      -5.743516      -156.2890
  60   1.0000      -5.741502      -156.2342
  61   1.0000      -5.741479      -156.2336
  62   1.0000      -5.741367      -156.2305
  63   1.0000      -5.741291      -156.2285
  64   1.0000      -5.739094      -156.1687
  65   1.0000      -5.738958      -156.1650
  66   1.0000      -5.738874      -156.1627
  67   1.0000      -5.738805      -156.1608
  68   1.0000      -5.659388      -153.9998
  69   1.0000      -5.659264      -153.9964
  70   1.0000      -5.658398      -153.9728
  71   1.0000      -5.658366      -153.9720
  72   1.0000      -5.652732      -153.8186
  73   1.0000      -5.652608      -153.8153
  74   1.0000      -5.651748      -153.7919
  75   1.0000      -5.651737      -153.7916
  76   1.0000      -5.651397      -153.7823
  77   1.0000      -5.651313      -153.7800
  78   1.0000      -5.650363      -153.7542
  79   1.0000      -5.650330      -153.7533
  80   1.0000      -2.443749       -66.4978
  81   1.0000      -1.484994       -40.4087
  82   1.0000      -1.473409       -40.0935
  83   1.0000      -1.472572       -40.0707
  84   1.0000      -0.709174       -19.2976
  85   1.0000      -0.708851       -19.2888
  86   1.0000      -0.685171       -18.6444
  87   1.0000      -0.684985       -18.6394
  88   1.0000      -0.649429       -17.6719
  89   1.0000      -0.630999       -17.1704
  90   1.0000      -0.630814       -17.1653
  91   1.0000      -0.616912       -16.7870
  92   1.0000      -0.616747       -16.7825
  93   1.0000      -0.574231       -15.6256
  94   1.0000      -0.574022       -15.6199
  95   1.0000      -0.573101       -15.5949
  96   1.0000      -0.572179       -15.5698
  97   1.0000      -0.496656       -13.5147
  98   1.0000      -0.496002       -13.4969
  99   1.0000      -0.495392       -13.4803
 100   1.0000      -0.494999       -13.4696
 101   1.0000      -0.479526       -13.0486
 102   1.0000      -0.476880       -12.9766
 103   1.0000      -0.447085       -12.1658
 104   1.0000      -0.444933       -12.1072
 105   1.0000      -0.416082       -11.3222
 106   1.0000      -0.410827       -11.1792
 107   1.0000      -0.354955        -9.6588
 108   1.0000      -0.354928        -9.6581
 109   1.0000      -0.326338        -8.8801
 110   1.0000      -0.326136        -8.8746
 111   1.0000      -0.318722        -8.6729
 112   1.0000      -0.314143        -8.5483
 113   1.0000      -0.304076        -8.2743
 114   1.0000      -0.303277        -8.2526
 115   1.0000      -0.292232        -7.9520
 116   1.0000      -0.291909        -7.9433
 117   1.0000      -0.257739        -7.0134
 118   1.0000      -0.257587        -7.0093
 119   1.0000      -0.255744        -6.9592
 120   1.0000      -0.255336        -6.9480
 121   1.0000      -0.234350        -6.3770
 122   1.0000      -0.233860        -6.3636
 123   1.0000      -0.231101        -6.2886
 124   1.0000      -0.229826        -6.2539
 125   1.0000      -0.219761        -5.9800
 126   1.0000      -0.217861        -5.9283
 127   1.0000      -0.213900        -5.8205
 128   1.0000      -0.211658        -5.7595
 129   1.0000      -0.192705        -5.2438
 130   1.0000      -0.187059        -5.0901
 131   1.0000      -0.185681        -5.0526
 132   1.0000      -0.184327        -5.0158
 133   1.0000      -0.179127        -4.8743
 134   1.0000      -0.159137        -4.3303
 135   1.0000      -0.151375        -4.1191
 136   1.0000      -0.146540        -3.9876
 137   1.0000      -0.135492        -3.6869
 138   1.0000      -0.134097        -3.6490
 139   1.0000      -0.132662        -3.6099
 140   1.0000      -0.124909        -3.3989
 141   1.0000      -0.120665        -3.2835
 142   1.0000      -0.113024        -3.0756
 143   1.0000      -0.109463        -2.9786
 144   1.0000      -0.099295        -2.7019
 145   1.0000      -0.097743        -2.6597
 146   1.0000      -0.097256        -2.6465
 147   1.0000      -0.094562        -2.5732
 148   1.0000      -0.074055        -2.0151
 149   1.0000      -0.067701        -1.8422
 150   1.0000      -0.067154        -1.8274
 151   1.0000      -0.051880        -1.4117
 152   1.0000      -0.045190        -1.2297
 153   1.0000      -0.037077        -1.0089
 154   1.0000      -0.036627        -0.9967
 155   1.0000      -0.030794        -0.8380
 156   1.0000      -0.024528        -0.6674
 157   1.0000      -0.019115        -0.5201
 158   1.0000      -0.014943        -0.4066
 159   1.0000       0.020843         0.5672
 160   1.0000       0.041658         1.1336
 161   0.0000       0.136857         3.7241
 162   0.0000       0.137491         3.7413
 163   0.0000       0.161915         4.4059
 164   0.0000       0.162361         4.4181
 165   0.0000       0.170553         4.6410

                 SPIN DOWN ORBITALS
  NO   OCC          E(Eh)            E(eV)
   0   1.0000    -196.674866     -5351.7952
   1   1.0000     -88.733331     -2414.5567
   2   1.0000     -88.733326     -2414.5566
   3   1.0000     -88.733132     -2414.5513
   4   1.0000     -88.733067     -2414.5495
   5   1.0000     -88.730063     -2414.4678
   6   1.0000     -88.729906     -2414.4635
   7   1.0000     -88.729778     -2414.4600
   8   1.0000     -88.729695     -2414.4578
   9   1.0000     -88.639963     -2412.0160
  10   1.0000     -88.639772     -2412.0108
  11   1.0000     -88.638950     -2411.9884
  12   1.0000     -88.638838     -2411.9854
  13   1.0000     -22.035170      -599.6075
  14   1.0000     -18.893640      -514.1221
  15   1.0000     -18.551275      -504.8058
  16   1.0000     -18.535355      -504.3726
  17   1.0000     -18.535164      -504.3675
  18   1.0000     -10.075670      -274.1729
  19   1.0000     -10.075644      -274.1722
  20   1.0000     -10.063821      -273.8505
  21   1.0000     -10.063738      -273.8482
  22   1.0000     -10.063311      -273.8366
  23   1.0000     -10.063251      -273.8350
  24   1.0000     -10.051670      -273.5198
  25   1.0000     -10.051181      -273.5065
  26   1.0000     -10.048377      -273.4302
  27   1.0000     -10.048312      -273.4285
  28   1.0000     -10.017890      -272.6007
  29   1.0000     -10.017435      -272.5883
  30   1.0000     -10.016641      -272.5666
  31   1.0000     -10.016638      -272.5666
  32   1.0000      -7.786708      -211.8871
  33   1.0000      -7.786689      -211.8866
  34   1.0000      -7.786576      -211.8835
  35   1.0000      -7.786496      -211.8813
  36   1.0000      -7.783276      -211.7937
  37   1.0000      -7.783152      -211.7903
  38   1.0000      -7.783065      -211.7880
  39   1.0000      -7.783011      -211.7865
  40   1.0000      -7.694204      -209.3699
  41   1.0000      -7.694113      -209.3675
  42   1.0000      -7.693196      -209.3425
  43   1.0000      -7.693194      -209.3425
  44   1.0000      -5.751699      -156.5117
  45   1.0000      -5.751694      -156.5115
  46   1.0000      -5.751571      -156.5082
  47   1.0000      -5.751490      -156.5060
  48   1.0000      -5.748293      -156.4190
  49   1.0000      -5.748280      -156.4187
  50   1.0000      -5.748222      -156.4171
  51   1.0000      -5.748147      -156.4150
  52   1.0000      -5.748104      -156.4139
  53   1.0000      -5.748071      -156.4130
  54   1.0000      -5.748015      -156.4114
  55   1.0000      -5.747963      -156.4100
  56   1.0000      -5.743804      -156.2968
  57   1.0000      -5.743678      -156.2934
  58   1.0000      -5.743578      -156.2907
  59   1.0000      -5.743530      -156.2894
  60   1.0000      -5.741502      -156.2342
  61   1.0000      -5.741479      -156.2336
  62   1.0000      -5.741368      -156.2306
  63   1.0000      -5.741292      -156.2285
  64   1.0000      -5.739101      -156.1689
  65   1.0000      -5.738964      -156.1651
  66   1.0000      -5.738883      -156.1629
  67   1.0000      -5.738811      -156.1610
  68   1.0000      -5.659533      -154.0037
  69   1.0000      -5.659403      -154.0002
  70   1.0000      -5.658541      -153.9767
  71   1.0000      -5.658509      -153.9759
  72   1.0000      -5.653084      -153.8282
  73   1.0000      -5.652996      -153.8258
  74   1.0000      -5.652118      -153.8020
  75   1.0000      -5.652116      -153.8019
  76   1.0000      -5.651511      -153.7854
  77   1.0000      -5.651404      -153.7825
  78   1.0000      -5.650472      -153.7572
  79   1.0000      -5.650434      -153.7561
  80   1.0000      -2.398803       -65.2747
  81   1.0000      -1.465647       -39.8823
  82   1.0000      -1.410957       -38.3941
  83   1.0000      -1.410779       -38.3892
  84   1.0000      -0.709159       -19.2972
  85   1.0000      -0.708826       -19.2881
  86   1.0000      -0.685128       -18.6433
  87   1.0000      -0.684931       -18.6379
  88   1.0000      -0.657596       -17.8941
  89   1.0000      -0.630944       -17.1689
  90   1.0000      -0.630739       -17.1633
  91   1.0000      -0.616914       -16.7871
  92   1.0000      -0.616747       -16.7825
  93   1.0000      -0.574206       -15.6250
  94   1.0000      -0.573995       -15.6192
  95   1.0000      -0.573027       -15.5928
  96   1.0000      -0.572107       -15.5678
  97   1.0000      -0.496673       -13.5152
  98   1.0000      -0.496049       -13.4982
  99   1.0000      -0.495436       -13.4815
 100   1.0000      -0.495030       -13.4705
 101   1.0000      -0.479723       -13.0539
 102   1.0000      -0.477140       -12.9836
 103   1.0000      -0.447107       -12.1664
 104   1.0000      -0.444982       -12.1086
 105   1.0000      -0.416086       -11.3223
 106   1.0000      -0.410945       -11.1824
 107   1.0000      -0.354948        -9.6586
 108   1.0000      -0.354921        -9.6579
 109   1.0000      -0.326321        -8.8796
 110   1.0000      -0.326128        -8.8744
 111   1.0000      -0.318645        -8.6708
 112   1.0000      -0.314172        -8.5491
 113   1.0000      -0.304023        -8.2729
 114   1.0000      -0.303253        -8.2519
 115   1.0000      -0.292224        -7.9518
 116   1.0000      -0.291908        -7.9432
 117   1.0000      -0.257634        -7.0106
 118   1.0000      -0.257453        -7.0057
 119   1.0000      -0.255709        -6.9582
 120   1.0000      -0.255310        -6.9473
 121   1.0000      -0.234299        -6.3756
 122   1.0000      -0.233854        -6.3635
 123   1.0000      -0.231050        -6.2872
 124   1.0000      -0.229797        -6.2531
 125   1.0000      -0.219416        -5.9706
 126   1.0000      -0.217741        -5.9250
 127   1.0000      -0.213683        -5.8146
 128   1.0000      -0.211528        -5.7560
 129   1.0000      -0.190981        -5.1969
 130   1.0000      -0.186992        -5.0883
 131   1.0000      -0.185339        -5.0433
 132   1.0000      -0.184079        -5.0090
 133   1.0000      -0.179014        -4.8712
 134   1.0000      -0.158518        -4.3135
 135   1.0000      -0.151204        -4.1145
 136   1.0000      -0.146463        -3.9855
 137   1.0000      -0.134806        -3.6682
 138   1.0000      -0.133834        -3.6418
 139   1.0000      -0.132435        -3.6037
 140   1.0000      -0.124306        -3.3825
 141   1.0000      -0.120334        -3.2744
 142   1.0000      -0.114857        -3.1254
 143   1.0000      -0.111058        -3.0221
 144   1.0000      -0.099275        -2.7014
 145   1.0000      -0.098071        -2.6686
 146   1.0000      -0.097249        -2.6463
 147   1.0000      -0.094909        -2.5826
 148   1.0000      -0.070217        -1.9107
 149   1.0000      -0.067692        -1.8420
 150   1.0000      -0.067154        -1.8273
 151   1.0000      -0.049280        -1.3410
 152   1.0000      -0.044266        -1.2045
 153   1.0000      -0.037132        -1.0104
 154   1.0000      -0.036022        -0.9802
 155   1.0000      -0.030914        -0.8412
 156   1.0000      -0.025587        -0.6963
 157   1.0000      -0.015448        -0.4204
 158   1.0000       0.021119         0.5747
 159   1.0000       0.040707         1.1077
 160   0.0000       0.136866         3.7243
 161   0.0000       0.137478         3.7410
 162   0.0000       0.156027         4.2457
 163   0.0000       0.162154         4.4124
 164   0.0000       0.163559         4.4507

MULLIKEN ATOMIC CHARGES AND SPIN POPULATIONS
--------------------------------------------
   0 V :    0.471687    1.212455
   1 S :   -0.291492   -0.022847
   2 S :   -0.292370   -0.025152
   3 S :   -0.288837   -0.024095
   4 S :   -0.284189   -0.025940
   5 O :   -0.467756   -0.147304
   6 C :   -0.075011    0.010162
   7 C :   -0.087217    0.007462
   8 C :   -0.085387    0.007981
   9 C :   -0.082491    0.007406
  10 S :    0.098762   -0.000539
  11 S :    0.100910   -0.000586
  12 S :    0.100008   -0.000408
  13 S :    0.098716   -0.000320
  14 C :   -0.213727    0.001482
  15 C :   -0.212038    0.001025
  16 C :   -0.190605   -0.000147
  17 C :   -0.190267   -0.000420
  18 S :    0.008727   -0.000106
  19 S :    0.008957   -0.000107
  20 S :    0.008266   -0.000058
  21 S :    0.008347   -0.000067
  22 C :   -0.300487   -0.000008
  23 C :   -0.299885   -0.000011
  24 C :   -0.157767   -0.000001
  25 H :    0.143043   -0.000001
  26 H :    0.113652   -0.000004
  27 H :    0.083277   -0.000001
  28 H :    0.092016   -0.000002
  29 H :    0.113306   -0.000006
  30 H :    0.142577   -0.000000
  31 C :   -0.299139    0.000171
  32 C :   -0.300473    0.000162
  33 C :   -0.157724   -0.000208
  34 H :    0.141681   -0.000015
  35 H :    0.113281    0.000015
  36 H :    0.092408    0.000020
  37 H :    0.082362    0.000012
  38 H :    0.113205    0.000017
  39 H :    0.141674   -0.000016
Sum of atomic charges         :   -2.0000000

LOEWDIN ATOMIC CHARGES AND SPIN POPULATIONS
-------------------------------------------
   0 V :   -0.154592    1.165819
   1 S :    0.079300   -0.014771
   2 S :    0.076608   -0.016226
   3 S :    0.081633   -0.015833
   4 S :    0.084560   -0.016497
   5 O :   -0.319262   -0.132184
   6 C :   -0.548906    0.009249
   7 C :   -0.553199    0.007655
   8 C :   -0.552621    0.008409
   9 C :   -0.551794    0.007502
  10 S :    0.470291   -0.000853
  11 S :    0.471852   -0.000932
  12 S :    0.471288   -0.000818
  13 S :    0.470227   -0.000816
  14 C :   -0.464679    0.000130
  15 C :   -0.465058   -0.000073
  16 C :   -0.621709    0.000410
  17 C :   -0.621718    0.000085
  18 S :    0.357668   -0.000088
  19 S :    0.359531   -0.000085
  20 S :    0.358676   -0.000066
  21 S :    0.358508   -0.000072
  22 C :   -0.283310   -0.000007
  23 C :   -0.283333   -0.000011
  24 C :   -0.176130   -0.000002
  25 H :    0.062491   -0.000002
  26 H :    0.053677   -0.000002
  27 H :    0.058028   -0.000002
  28 H :    0.060188   -0.000001
  29 H :    0.053550   -0.000003
  30 H :    0.062321   -0.000001
  31 C :   -0.283891    0.000038
  32 C :   -0.283473    0.000027
  33 C :   -0.176374    0.000005
  34 H :    0.062081   -0.000001
  35 H :    0.053574    0.000006
  36 H :    0.060326    0.000004
  37 H :    0.057925    0.000001
  38 H :    0.053769    0.000007
  39 H :    0.061976   -0.000001

  Mayer bond orders larger than 0.100000
B(  0-V ,  1-S ) :   0.7766 B(  0-V ,  2-S ) :   0.7629 B(  0-V ,  3-S ) :   0.7613
B(  0-V ,  4-S ) :   0.7841 B(  0-V ,  5-O ) :   2.1485 B(  1-S ,  8-C ) :   1.1028
B(  2-S ,  6-C ) :   1.1057 B(  3-S ,  9-C ) :   1.1062 B(  4-S ,  7-C ) :   1.1030
B(  6-C ,  7-C ) :   1.6859 B(  6-C , 10-S ) :   0.9335 B(  7-C , 11-S ) :   0.9393
B(  8-C ,  9-C ) :   1.6981 B(  8-C , 13-S ) :   0.9331 B(  9-C , 12-S ) :   0.9360
B( 10-S , 14-C ) :   1.2476 B( 11-S , 14-C ) :   1.2474 B( 12-S , 15-C ) :   1.2461
B( 13-S , 15-C ) :   1.2465 B( 14-C , 16-C ) :   1.4532 B( 15-C , 17-C ) :   1.4540
B( 16-C , 18-S ) :   1.0859 B( 16-C , 19-S ) :   1.0882 B( 17-C , 20-S ) :   1.0874
B( 17-C , 21-S ) :   1.0883 B( 18-S , 32-C ) :   0.9916 B( 19-S , 31-C ) :   0.9915
B( 20-S , 23-C ) :   0.9912 B( 21-S , 22-C ) :   0.9906 B( 22-C , 24-C ) :   0.9131
B( 22-C , 25-H ) :   0.9657 B( 22-C , 26-H ) :   0.9655 B( 23-C , 24-C ) :   0.9140
B( 23-C , 29-H ) :   0.9656 B( 23-C , 30-H ) :   0.9655 B( 24-C , 27-H ) :   0.9623
B( 24-C , 28-H ) :   0.9719 B( 31-C , 33-C ) :   0.9137 B( 31-C , 38-H ) :   0.9655
B( 31-C , 39-H ) :   0.9658 B( 32-C , 33-C ) :   0.9134 B( 32-C , 34-H ) :   0.9656
B( 32-C , 35-H ) :   0.9655 B( 33-C , 36-H ) :   0.9718 B( 33-C , 37-H ) :   0.9623

FINAL SINGLE POINT ENERGY     -6337.706820905814

DIPOLE MOMENT
-------------
                                X             Y             Z
Electronic contribution:     -5.01656      -8.50597      -9.67773
Nuclear contribution   :      5.60638       9.47048      10.74829
                        -----------------------------------------
Total Dipole Moment    :      0.58982       0.96450       1.07056
                        -----------------------------------------
Magnitude (a.u.)       :      1.55700
Magnitude (Debye)      :      3.95758

Rotational constants in cm-1:     0.010763     0.000803     0.000782
Rotational constants in MHz :   322.655078    24.084999    23.449018

                             ****ORCA TERMINATED NORMALLY****
TOTAL RUN TIME: 0 days 1 hours 2 minutes 5 seconds 133 msec
