                         Program Version 5.0.4 -  RELEASE  -
|  1> ! nofrozencore ReducedPop printbasis
|  2> ! B3LYP TZVP
|  3>
|  4> %basis
|  5> newgto V "CP(PPP)" end
|  6> end
|  7>
|  8> %pal
|  9> nprocs 6
| 10> end
| 11>
| 12> % sym SymThresh 1e-2 end
| 13> * xyz -2 2
| 14> V -0.32394349291435454 -0.21448085545806658 1.048934567955229
| 15> S 0.8961295876346383 1.8996242760893658 1.2138912115604614
| 16> S -1.9633992380176626 1.256295620151827 -0.02617520888167495
| 17> S 1.8346674789554556 -1.3310371581342264 0.7733979657706601
| 18> S -0.9870605744759897 -1.9381247143837355 -0.5479112141452244
| 19> O -0.8951850013243134 -0.5948422761582679 2.4867366837630476
| 20> C -2.9299316006880534 0.010391743894078605 -0.7916402533407336
| 21> C -2.539913628577691 -1.2613947946245903 -0.9978397970056585
| 22> C 2.509129812677726 1.258684074425449 1.4707318910700857
| 23> C 2.879479148289919 -0.02265552108945723 1.2928083055556727
| 24> S -4.550029584488349 0.4572503026995363 -1.4091363413360563
| 25> S -3.6858694369386256 -2.326400577919143 -1.8558425753240018
| 26> S 4.606751583799768 -0.4026534906741631 1.544953942407425
| 27> S 3.802285877214206 2.4059506399428203 1.9412820525964607
| 28> C -4.962662308566332 -1.1268595978712732 -2.0714518674416458
| 29> C 5.1403249421952895 1.260077291589772 1.8103065946788648
| 30> C -6.144806821253929 -1.4122580126952717 -2.690450996477021
| 31> C 6.455430068577168 1.6043138733980784 1.9260350211912671
| 32> S -7.419003241274187 -0.18803986358235128 -2.895589137560272
| 33> S -6.431487615011851 -3.0233088422975456 -3.392039267681117
| 34> S 6.957043645662257 3.2720164463745895 2.2900789496359315
| 35> S 7.72962963091172 0.36377513980780835 1.8145787043595956
| 36> C 8.709886282160449 1.103272664341413 0.42846464609840834
| 37> C 8.08578966267961 3.5590159116724145 0.8463750646126831
| 38> C 9.206922346822678 2.523349713406443 0.7219078031763035
| 39> H 8.093262834649588 1.0841695221974572 -0.47701931970609385
| 40> H 9.55657945805163 0.4272699991068554 0.2819367170197431
| 41> H 9.872625435527288 2.8372531731074537 -0.09993408465728346
| 42> H 9.805688050379764 2.515826831616188 1.6436749232003136
| 43> H 8.509034366541558 4.556026263317974 1.0055347307923124
| 44> H 7.477904014505533 3.5860328380284536 -0.06575720332889845
| 45> C -7.964596070077184 -3.470186792982792 -2.456520782189493
| 46> C -8.805543443095305 -1.0779795043473275 -2.0448975745793265
| 47> C -9.103080116080877 -2.460680842179119 -2.6319334037651183
| 48> H -8.56423241006671 -1.1518137276704024 -0.9789636314562301
| 49> H -9.677246582119437 -0.4259048743650736 -2.154093386559352
| 50> H -9.340990418287966 -2.3620079924408834 -3.69944294477085
| 51> H -10.000513427073596 -2.8592489074577134 -2.1309852854078124
| 52> H -8.262849406768472 -4.448960783395394 -2.841730602617666
| 53> H -7.701852171428786 -3.581884924343115 -1.3994599632326783
| 54> *
| 55>
| 56> % eprnmr
| 57> gtensor true
| 58> Nuclei = all H {aiso,adip,aorb,fgrad,rho}
| 59> Nuclei = all V {aiso,adip,aorb,fgrad,rho}
| 60> end
| 61>
| 62>                          ****END OF INPUT****

CARTESIAN COORDINATES (ANGSTROEM)
---------------------------------
  V     -0.325053   -0.214266    1.045271
  S      0.895020    1.899840    1.210228
  S     -1.964509    1.256511   -0.029838
  S      1.833558   -1.330822    0.769735
  S     -0.988170   -1.937909   -0.551575
  O     -0.896295   -0.594627    2.483073
  C     -2.931041    0.010607   -0.795304
  C     -2.541023   -1.261179   -1.001503
  C      2.508020    1.258899    1.467069
  C      2.878369   -0.022440    1.289145
  S     -4.551139    0.457466   -1.412800
  S     -3.686979   -2.326185   -1.859506
  S      4.605642   -0.402438    1.541291
  S      3.801176    2.406166    1.937619
  C     -4.963772   -1.126644   -2.075115
  C      5.139215    1.260293    1.806643
  C     -6.145917   -1.412043   -2.694114
  C      6.454320    1.604529    1.922372
  S     -7.420113   -0.187825   -2.899252
  S     -6.432597   -3.023094   -3.395703
  S      6.955934    3.272232    2.286416
  S      7.728520    0.363990    1.810915
  C      8.708776    1.103488    0.424801
  C      8.084680    3.559231    0.842712
  C      9.205813    2.523565    0.718245
  H      8.092153    1.084385   -0.480683
  H      9.555470    0.427485    0.278273
  H      9.871516    2.837469   -0.103597
  H      9.804578    2.516042    1.640012
  H      8.507925    4.556242    1.001871
  H      7.476794    3.586248   -0.069420
  C     -7.965706   -3.469971   -2.460184
  C     -8.806653   -1.077764   -2.048561
  C     -9.104190   -2.460466   -2.635597
  H     -8.565342   -1.151598   -0.982627
  H     -9.678356   -0.425690   -2.157757
  H     -9.342100   -2.361793   -3.703106
  H    -10.001623   -2.859034   -2.134649
  H     -8.263959   -4.448745   -2.845394
  H     -7.702962   -3.581670   -1.403123

 Total Charge           Charge          ....   -2
 Multiplicity           Mult            ....    2
 Number of Electrons    NEL             ....  321
 Basis Dimension        Dim             ....  681

ORBITAL ENERGIES
----------------
                 SPIN UP ORBITALS
  NO   OCC          E(Eh)            E(eV)
   0   1.0000    -196.666877     -5351.5778
   1   1.0000     -88.733653     -2414.5655
   2   1.0000     -88.732990     -2414.5474
   3   1.0000     -88.732670     -2414.5387
   4   1.0000     -88.732385     -2414.5310
   5   1.0000     -88.727368     -2414.3944
   6   1.0000     -88.726786     -2414.3786
   7   1.0000     -88.726420     -2414.3686
   8   1.0000     -88.726016     -2414.3576
   9   1.0000     -88.636313     -2411.9167
  10   1.0000     -88.636149     -2411.9122
  11   1.0000     -88.636007     -2411.9084
  12   1.0000     -88.635878     -2411.9049
  13   1.0000     -22.042692      -599.8121
  14   1.0000     -18.882946      -513.8311
  15   1.0000     -18.549136      -504.7477
  16   1.0000     -18.543890      -504.6049
  17   1.0000     -18.543866      -504.6043
  18   1.0000     -10.071594      -274.0620
  19   1.0000     -10.071447      -274.0580
  20   1.0000     -10.064459      -273.8679
  21   1.0000     -10.063902      -273.8527
  22   1.0000     -10.063722      -273.8478
  23   1.0000     -10.063390      -273.8388
  24   1.0000     -10.052360      -273.5386
  25   1.0000     -10.051805      -273.5235
  26   1.0000     -10.047287      -273.4006
  27   1.0000     -10.046090      -273.3680
  28   1.0000     -10.014580      -272.5106
  29   1.0000     -10.014063      -272.4965
  30   1.0000     -10.013365      -272.4775
  31   1.0000     -10.013180      -272.4725
  32   1.0000      -7.787017      -211.8955
  33   1.0000      -7.786366      -211.8778
  34   1.0000      -7.786169      -211.8724
  35   1.0000      -7.785905      -211.8652
  36   1.0000      -7.780829      -211.7271
  37   1.0000      -7.780227      -211.7107
  38   1.0000      -7.780026      -211.7053
  39   1.0000      -7.779599      -211.6936
  40   1.0000      -7.690999      -209.2827
  41   1.0000      -7.690919      -209.2805
  42   1.0000      -7.690755      -209.2761
  43   1.0000      -7.690551      -209.2705
  44   1.0000      -5.752010      -156.5202
  45   1.0000      -5.751354      -156.5023
  46   1.0000      -5.751148      -156.4967
  47   1.0000      -5.750870      -156.4891
  48   1.0000      -5.748576      -156.4267
  49   1.0000      -5.747944      -156.4095
  50   1.0000      -5.747733      -156.4038
  51   1.0000      -5.747467      -156.3965
  52   1.0000      -5.745772      -156.3504
  53   1.0000      -5.745178      -156.3342
  54   1.0000      -5.744966      -156.3285
  55   1.0000      -5.744546      -156.3170
  56   1.0000      -5.741834      -156.2432
  57   1.0000      -5.741314      -156.2291
  58   1.0000      -5.741175      -156.2253
  59   1.0000      -5.740963      -156.2196
  60   1.0000      -5.740744      -156.2136
  61   1.0000      -5.740713      -156.2128
  62   1.0000      -5.740488      -156.2066
  63   1.0000      -5.740088      -156.1957
  64   1.0000      -5.736652      -156.1022
  65   1.0000      -5.736022      -156.0851
  66   1.0000      -5.735836      -156.0800
  67   1.0000      -5.735387      -156.0678
  68   1.0000      -5.656279      -153.9152
  69   1.0000      -5.656190      -153.9128
  70   1.0000      -5.656022      -153.9082
  71   1.0000      -5.655856      -153.9037
  72   1.0000      -5.649614      -153.7338
  73   1.0000      -5.649525      -153.7314
  74   1.0000      -5.649390      -153.7277
  75   1.0000      -5.649191      -153.7223
  76   1.0000      -5.648273      -153.6973
  77   1.0000      -5.648188      -153.6950
  78   1.0000      -5.648029      -153.6907
  79   1.0000      -5.647805      -153.6846
  80   1.0000      -2.436943       -66.3126
  81   1.0000      -1.477788       -40.2127
  82   1.0000      -1.466723       -39.9116
  83   1.0000      -1.466463       -39.9045
  84   1.0000      -0.708841       -19.2886
  85   1.0000      -0.708690       -19.2844
  86   1.0000      -0.684759       -18.6332
  87   1.0000      -0.684420       -18.6240
  88   1.0000      -0.643280       -17.5045
  89   1.0000      -0.630853       -17.1664
  90   1.0000      -0.630671       -17.1614
  91   1.0000      -0.616677       -16.7806
  92   1.0000      -0.616629       -16.7793
  93   1.0000      -0.574337       -15.6285
  94   1.0000      -0.573664       -15.6102
  95   1.0000      -0.571364       -15.5476
  96   1.0000      -0.570058       -15.5121
  97   1.0000      -0.496672       -13.5151
  98   1.0000      -0.495855       -13.4929
  99   1.0000      -0.495692       -13.4885
 100   1.0000      -0.493800       -13.4370
 101   1.0000      -0.479247       -13.0410
 102   1.0000      -0.475277       -12.9329
 103   1.0000      -0.446030       -12.1371
 104   1.0000      -0.443260       -12.0617
 105   1.0000      -0.415173       -11.2974
 106   1.0000      -0.408542       -11.1170
 107   1.0000      -0.354278        -9.6404
 108   1.0000      -0.354212        -9.6386
 109   1.0000      -0.325776        -8.8648
 110   1.0000      -0.325456        -8.8561
 111   1.0000      -0.318832        -8.6759
 112   1.0000      -0.312389        -8.5005
 113   1.0000      -0.302603        -8.2342
 114   1.0000      -0.301549        -8.2056
 115   1.0000      -0.291744        -7.9387
 116   1.0000      -0.291362        -7.9284
 117   1.0000      -0.257718        -7.0129
 118   1.0000      -0.256497        -6.9796
 119   1.0000      -0.254728        -6.9315
 120   1.0000      -0.253465        -6.8971
 121   1.0000      -0.234785        -6.3888
 122   1.0000      -0.233929        -6.3655
 123   1.0000      -0.231021        -6.2864
 124   1.0000      -0.229277        -6.2389
 125   1.0000      -0.220453        -5.9988
 126   1.0000      -0.217829        -5.9274
 127   1.0000      -0.212701        -5.7879
 128   1.0000      -0.208533        -5.6745
 129   1.0000      -0.193228        -5.2580
 130   1.0000      -0.186556        -5.0765
 131   1.0000      -0.185068        -5.0360
 132   1.0000      -0.183523        -4.9939
 133   1.0000      -0.177315        -4.8250
 134   1.0000      -0.153649        -4.1810
 135   1.0000      -0.151270        -4.1163
 136   1.0000      -0.144933        -3.9438
 137   1.0000      -0.134893        -3.6706
 138   1.0000      -0.133536        -3.6337
 139   1.0000      -0.132435        -3.6037
 140   1.0000      -0.119459        -3.2506
 141   1.0000      -0.116413        -3.1678
 142   1.0000      -0.108001        -2.9389
 143   1.0000      -0.105037        -2.8582
 144   1.0000      -0.098091        -2.6692
 145   1.0000      -0.096168        -2.6169
 146   1.0000      -0.095657        -2.6030
 147   1.0000      -0.092151        -2.5076
 148   1.0000      -0.071737        -1.9521
 149   1.0000      -0.068382        -1.8608
 150   1.0000      -0.067778        -1.8443
 151   1.0000      -0.051587        -1.4038
 152   1.0000      -0.040037        -1.0895
 153   1.0000      -0.039301        -1.0694
 154   1.0000      -0.034531        -0.9396
 155   1.0000      -0.026814        -0.7296
 156   1.0000      -0.023526        -0.6402
 157   1.0000      -0.013872        -0.3775
 158   1.0000      -0.010843        -0.2950
 159   1.0000       0.022151         0.6027
 160   1.0000       0.045638         1.2419
 161   0.0000       0.138510         3.7690
 162   0.0000       0.138911         3.7800
 163   0.0000       0.162057         4.4098
 164   0.0000       0.162207         4.4139
 165   0.0000       0.171815         4.6753

                 SPIN DOWN ORBITALS
  NO   OCC          E(Eh)            E(eV)
   0   1.0000    -196.667021     -5351.5817
   1   1.0000     -88.733653     -2414.5655
   2   1.0000     -88.732991     -2414.5474
   3   1.0000     -88.732670     -2414.5387
   4   1.0000     -88.732386     -2414.5310
   5   1.0000     -88.727374     -2414.3946
   6   1.0000     -88.726792     -2414.3787
   7   1.0000     -88.726426     -2414.3688
   8   1.0000     -88.726021     -2414.3578
   9   1.0000     -88.636462     -2411.9207
  10   1.0000     -88.636293     -2411.9162
  11   1.0000     -88.636156     -2411.9124
  12   1.0000     -88.636023     -2411.9088
  13   1.0000     -22.027819      -599.4074
  14   1.0000     -18.886638      -513.9316
  15   1.0000     -18.543921      -504.6058
  16   1.0000     -18.528090      -504.1750
  17   1.0000     -18.527610      -504.1619
  18   1.0000     -10.071588      -274.0618
  19   1.0000     -10.071442      -274.0579
  20   1.0000     -10.064459      -273.8679
  21   1.0000     -10.063901      -273.8527
  22   1.0000     -10.063722      -273.8478
  23   1.0000     -10.063389      -273.8387
  24   1.0000     -10.052360      -273.5386
  25   1.0000     -10.051805      -273.5235
  26   1.0000     -10.047280      -273.4004
  27   1.0000     -10.046074      -273.3676
  28   1.0000     -10.014327      -272.5037
  29   1.0000     -10.013826      -272.4901
  30   1.0000     -10.013118      -272.4708
  31   1.0000     -10.012943      -272.4660
  32   1.0000      -7.787017      -211.8955
  33   1.0000      -7.786367      -211.8778
  34   1.0000      -7.786169      -211.8724
  35   1.0000      -7.785906      -211.8653
  36   1.0000      -7.780836      -211.7273
  37   1.0000      -7.780233      -211.7109
  38   1.0000      -7.780033      -211.7055
  39   1.0000      -7.779605      -211.6938
  40   1.0000      -7.691139      -209.2865
  41   1.0000      -7.691054      -209.2842
  42   1.0000      -7.690895      -209.2799
  43   1.0000      -7.690686      -209.2742
  44   1.0000      -5.752011      -156.5202
  45   1.0000      -5.751356      -156.5023
  46   1.0000      -5.751148      -156.4967
  47   1.0000      -5.750871      -156.4892
  48   1.0000      -5.748576      -156.4267
  49   1.0000      -5.747945      -156.4095
  50   1.0000      -5.747733      -156.4038
  51   1.0000      -5.747468      -156.3966
  52   1.0000      -5.745779      -156.3506
  53   1.0000      -5.745183      -156.3344
  54   1.0000      -5.744972      -156.3286
  55   1.0000      -5.744551      -156.3172
  56   1.0000      -5.741835      -156.2433
  57   1.0000      -5.741324      -156.2294
  58   1.0000      -5.741176      -156.2253
  59   1.0000      -5.740964      -156.2196
  60   1.0000      -5.740753      -156.2138
  61   1.0000      -5.740714      -156.2128
  62   1.0000      -5.740497      -156.2069
  63   1.0000      -5.740096      -156.1960
  64   1.0000      -5.736659      -156.1024
  65   1.0000      -5.736027      -156.0852
  66   1.0000      -5.735844      -156.0802
  67   1.0000      -5.735391      -156.0679
  68   1.0000      -5.656427      -153.9192
  69   1.0000      -5.656332      -153.9166
  70   1.0000      -5.656169      -153.9122
  71   1.0000      -5.655998      -153.9075
  72   1.0000      -5.649989      -153.7440
  73   1.0000      -5.649912      -153.7419
  74   1.0000      -5.649766      -153.7379
  75   1.0000      -5.649577      -153.7328
  76   1.0000      -5.648398      -153.7007
  77   1.0000      -5.648288      -153.6977
  78   1.0000      -5.648155      -153.6941
  79   1.0000      -5.647909      -153.6874
  80   1.0000      -2.392208       -65.0953
  81   1.0000      -1.458672       -39.6925
  82   1.0000      -1.405424       -38.2435
  83   1.0000      -1.403967       -38.2039
  84   1.0000      -0.708806       -19.2876
  85   1.0000      -0.708666       -19.2838
  86   1.0000      -0.684694       -18.6315
  87   1.0000      -0.684365       -18.6225
  88   1.0000      -0.651173       -17.7193
  89   1.0000      -0.630793       -17.1648
  90   1.0000      -0.630588       -17.1592
  91   1.0000      -0.616678       -16.7807
  92   1.0000      -0.616628       -16.7793
  93   1.0000      -0.574281       -15.6270
  94   1.0000      -0.573612       -15.6088
  95   1.0000      -0.571258       -15.5447
  96   1.0000      -0.569958       -15.5094
  97   1.0000      -0.496706       -13.5160
  98   1.0000      -0.495857       -13.4929
  99   1.0000      -0.495722       -13.4893
 100   1.0000      -0.493806       -13.4372
 101   1.0000      -0.479419       -13.0457
 102   1.0000      -0.475513       -12.9394
 103   1.0000      -0.446048       -12.1376
 104   1.0000      -0.443299       -12.0628
 105   1.0000      -0.415180       -11.2976
 106   1.0000      -0.408666       -11.1204
 107   1.0000      -0.354263        -9.6400
 108   1.0000      -0.354204        -9.6384
 109   1.0000      -0.325753        -8.8642
 110   1.0000      -0.325444        -8.8558
 111   1.0000      -0.318725        -8.6729
 112   1.0000      -0.312408        -8.5011
 113   1.0000      -0.302537        -8.2325
 114   1.0000      -0.301514        -8.2046
 115   1.0000      -0.291736        -7.9385
 116   1.0000      -0.291360        -7.9283
 117   1.0000      -0.257621        -7.0102
 118   1.0000      -0.256302        -6.9743
 119   1.0000      -0.254688        -6.9304
 120   1.0000      -0.253434        -6.8963
 121   1.0000      -0.234709        -6.3868
 122   1.0000      -0.233916        -6.3652
 123   1.0000      -0.230967        -6.2849
 124   1.0000      -0.229246        -6.2381
 125   1.0000      -0.220177        -5.9913
 126   1.0000      -0.217666        -5.9230
 127   1.0000      -0.212358        -5.7786
 128   1.0000      -0.208314        -5.6685
 129   1.0000      -0.191501        -5.2110
 130   1.0000      -0.186467        -5.0740
 131   1.0000      -0.184776        -5.0280
 132   1.0000      -0.183310        -4.9881
 133   1.0000      -0.177219        -4.8224
 134   1.0000      -0.153033        -4.1642
 135   1.0000      -0.151082        -4.1112
 136   1.0000      -0.144862        -3.9419
 137   1.0000      -0.134321        -3.6551
 138   1.0000      -0.133202        -3.6246
 139   1.0000      -0.132216        -3.5978
 140   1.0000      -0.118522        -3.2252
 141   1.0000      -0.116050        -3.1579
 142   1.0000      -0.109428        -2.9777
 143   1.0000      -0.106178        -2.8893
 144   1.0000      -0.098061        -2.6684
 145   1.0000      -0.096279        -2.6199
 146   1.0000      -0.095960        -2.6112
 147   1.0000      -0.092597        -2.5197
 148   1.0000      -0.068945        -1.8761
 149   1.0000      -0.068151        -1.8545
 150   1.0000      -0.067780        -1.8444
 151   1.0000      -0.049004        -1.3335
 152   1.0000      -0.039198        -1.0666
 153   1.0000      -0.038763        -1.0548
 154   1.0000      -0.034553        -0.9402
 155   1.0000      -0.027095        -0.7373
 156   1.0000      -0.024788        -0.6745
 157   1.0000      -0.011138        -0.3031
 158   1.0000       0.021968         0.5978
 159   1.0000       0.044920         1.2223
 160   0.0000       0.138516         3.7692
 161   0.0000       0.138913         3.7800
 162   0.0000       0.159178         4.3314
 163   0.0000       0.162180         4.4131
 164   0.0000       0.166191         4.5223

MULLIKEN ATOMIC CHARGES AND SPIN POPULATIONS
--------------------------------------------
   0 V :    0.464246    1.209860
   1 S :   -0.283995   -0.026227
   2 S :   -0.286387   -0.026529
   3 S :   -0.284752   -0.026143
   4 S :   -0.284286   -0.026509
   5 O :   -0.486350   -0.142697
   6 C :   -0.074638    0.009862
   7 C :   -0.085312    0.008934
   8 C :   -0.081153    0.008713
   9 C :   -0.082859    0.008906
  10 S :    0.097137   -0.000326
  11 S :    0.099885   -0.000314
  12 S :    0.096188   -0.000054
  13 S :    0.094187   -0.000082
  14 C :   -0.221705    0.001840
  15 C :   -0.218231    0.001631
  16 C :   -0.181133   -0.000146
  17 C :   -0.181283   -0.000630
  18 S :    0.011101   -0.000115
  19 S :    0.012209   -0.000112
  20 S :    0.011329   -0.000012
  21 S :    0.011923   -0.000022
  22 C :   -0.300600   -0.000028
  23 C :   -0.297733   -0.000030
  24 C :   -0.155027    0.000013
  25 H :    0.140885    0.000000
  26 H :    0.114514   -0.000004
  27 H :    0.083332   -0.000005
  28 H :    0.092082   -0.000004
  29 H :    0.112883   -0.000005
  30 H :    0.138699    0.000000
  31 C :   -0.300310    0.000238
  32 C :   -0.299905    0.000236
  33 C :   -0.153337   -0.000316
  34 H :    0.138236   -0.000017
  35 H :    0.112756    0.000027
  36 H :    0.092161    0.000038
  37 H :    0.081838    0.000022
  38 H :    0.113670    0.000024
  39 H :    0.139736   -0.000016
Sum of atomic charges         :   -2.0000000

LOEWDIN ATOMIC CHARGES AND SPIN POPULATIONS
-------------------------------------------
   0 V :   -0.171188    1.160446
   1 S :    0.088816   -0.016731
   2 S :    0.086961   -0.016804
   3 S :    0.090026   -0.016695
   4 S :    0.089801   -0.016620
   5 O :   -0.333085   -0.127924
   6 C :   -0.553032    0.009275
   7 C :   -0.556654    0.008981
   8 C :   -0.554113    0.008682
   9 C :   -0.555442    0.008747
  10 S :    0.472291   -0.000657
  11 S :    0.474460   -0.000693
  12 S :    0.471286   -0.000503
  13 S :    0.469041   -0.000519
  14 C :   -0.467903    0.000198
  15 C :   -0.467968    0.000117
  16 C :   -0.622596    0.000690
  17 C :   -0.618788    0.000136
  18 S :    0.361150   -0.000084
  19 S :    0.364088   -0.000081
  20 S :    0.362007   -0.000033
  21 S :    0.361997   -0.000038
  22 C :   -0.283628   -0.000009
  23 C :   -0.283990   -0.000011
  24 C :   -0.176956   -0.000004
  25 H :    0.062597   -0.000002
  26 H :    0.053608   -0.000003
  27 H :    0.058116   -0.000001
  28 H :    0.061129   -0.000001
  29 H :    0.053752   -0.000003
  30 H :    0.061782   -0.000002
  31 C :   -0.284587    0.000047
  32 C :   -0.284439    0.000049
  33 C :   -0.177225    0.000013
  34 H :    0.061349    0.000001
  35 H :    0.053438    0.000012
  36 H :    0.060925    0.000008
  37 H :    0.057714    0.000003
  38 H :    0.053475    0.000011
  39 H :    0.061787    0.000001

  Mayer bond orders larger than 0.100000
B(  0-V ,  1-S ) :   0.7761 B(  0-V ,  2-S ) :   0.7697 B(  0-V ,  3-S ) :   0.7738
B(  0-V ,  4-S ) :   0.7805 B(  0-V ,  5-O ) :   2.1264 B(  1-S ,  8-C ) :   1.1069
B(  2-S ,  6-C ) :   1.1100 B(  3-S ,  9-C ) :   1.1046 B(  4-S ,  7-C ) :   1.1077
B(  6-C ,  7-C ) :   1.6703 B(  6-C , 10-S ) :   0.9413 B(  7-C , 11-S ) :   0.9485
B(  8-C ,  9-C ) :   1.6800 B(  8-C , 13-S ) :   0.9385 B(  9-C , 12-S ) :   0.9446
B( 10-S , 14-C ) :   1.2480 B( 11-S , 14-C ) :   1.2459 B( 12-S , 15-C ) :   1.2372
B( 13-S , 15-C ) :   1.2404 B( 14-C , 16-C ) :   1.4560 B( 15-C , 17-C ) :   1.4687
B( 16-C , 18-S ) :   1.0852 B( 16-C , 19-S ) :   1.0886 B( 17-C , 20-S ) :   1.0843
B( 17-C , 21-S ) :   1.0861 B( 18-S , 32-C ) :   0.9903 B( 19-S , 31-C ) :   0.9884
B( 20-S , 23-C ) :   0.9893 B( 21-S , 22-C ) :   0.9861 B( 22-C , 24-C ) :   0.9101
B( 22-C , 25-H ) :   0.9643 B( 22-C , 26-H ) :   0.9663 B( 23-C , 24-C ) :   0.9132
B( 23-C , 29-H ) :   0.9664 B( 23-C , 30-H ) :   0.9633 B( 24-C , 27-H ) :   0.9619
B( 24-C , 28-H ) :   0.9717 B( 31-C , 33-C ) :   0.9108 B( 31-C , 38-H ) :   0.9660
B( 31-C , 39-H ) :   0.9648 B( 32-C , 33-C ) :   0.9129 B( 32-C , 34-H ) :   0.9639
B( 32-C , 35-H ) :   0.9659 B( 33-C , 36-H ) :   0.9715 B( 33-C , 37-H ) :   0.9617

FINAL SINGLE POINT ENERGY     -6337.703516638899

DIPOLE MOMENT
-------------
                                X             Y             Z
Electronic contribution:     -1.04512      -1.00708      13.55119
Nuclear contribution   :      1.23646       1.13716     -15.06158
                        -----------------------------------------
Total Dipole Moment    :      0.19134       0.13008      -1.51040
                        -----------------------------------------
Magnitude (a.u.)       :      1.52801
Magnitude (Debye)      :      3.88390

Rotational constants in cm-1:     0.010840     0.000824     0.000801
Rotational constants in MHz :   324.962794    24.703818    24.013233

                             ****ORCA TERMINATED NORMALLY****
TOTAL RUN TIME: 0 days 1 hours 7 minutes 5 seconds 762 msec
