                         Program Version 5.0.4 -  RELEASE  -
|  1> ! nofrozencore ReducedPop printbasis
|  2> ! B3LYP TZVP
|  3>
|  4> %basis
|  5> newgto V "CP(PPP)" end
|  6> end
|  7>
|  8> %pal
|  9> nprocs 8
| 10> end
| 11>
| 12> % sym SymThresh 1e-2 end
| 13> * xyz -2 2
| 14> V -0.07544197468525508 0.0488135039320958 -1.109451254405736
| 15> S 2.355341444950759 -0.3010854523872971 -0.8129833226032435
| 16> S -0.30993007069057665 -2.3232901810331366 -0.44228155555680987
| 17> S 0.3537225320528622 2.384321707932234 -0.4078127662864768
| 18> S -2.234135096476562 0.3876468204924997 0.03518419296673696
| 19> O -0.35940402217746686 0.07561246032639138 -2.6724476590824096
| 20> C -2.0384534404854975 -2.359594462843949 -0.11938449836982924
| 21> C -2.808492290206919 -1.272739277154321 0.0752957237696439
| 22> C 2.908685464737587 1.348488308777567 -0.5592569723584203
| 23> C 2.1095233852501387 2.418607010782606 -0.39475375119436984
| 24> S -2.8539655139787614 -3.952347982547523 0.04258523949066073
| 25> S -4.530383652955835 -1.5718620498658473 0.48338921273761554
| 26> S 2.9262770073197952 3.989715291651331 -0.09450758491274255
| 27> S 4.677039229605514 1.6501299547805561 -0.4609059537920791
| 28> C -4.459271957030197 -3.3377433600573716 0.4569452572497194
| 29> C 4.584093415331911 3.377561712446025 -0.09674144389193953
| 30> C -5.535454190327694 -4.139600396623924 0.7180015848392242
| 31> C 5.678948257670995 4.159800891808335 0.14730441803003885
| 32> S -5.43522802398295 -5.916635851562025 0.62509474363917
| 33> S -7.130429562654539 -3.4633539508384064 1.136394891021694
| 34> S 7.332493958017056 3.495834656716536 0.13698965433545676
| 35> S 5.529609714334061 5.89407076675725 0.5310923985918018
| 36> C 6.2250051470810295 5.850774321087875 2.247705786767793
| 37> C 7.764111952899362 3.8130765272934215 1.9102496898338206
| 38> C 7.6484902545968705 5.2864207914570684 2.3157640579981686
| 39> H 5.561899374184564 5.285069323509815 2.858047588608851
| 40> H 6.211875436843347 6.8631092857842235 2.5857893206929403
| 41> H 8.002450624804835 5.381862148867839 3.3526812627830207
| 42> H 8.292118563107712 5.874316396317319 1.7044318120373732
| 43> H 8.776862752799419 3.475601700174335 2.021932625807674
| 44> H 7.135618843757305 3.198760091733518 2.5200291517763533
| 45> C -8.08019304971182 -4.116511916628036 -0.2990286677815431
| 46> C -6.651131023332743 -6.175350770794154 -0.7368062921038433
| 47> C -8.031039490362904 -5.61317444975794 -0.4805018874408342
| 48> H -6.147811960897766 -5.653247481601163 -1.8251889554743315
| 49> H -6.6997302169921005 -7.440294339684312 -0.9086719332980208
| 50> H -8.53197373721601 -6.202615160026172 0.6618539803701539
| 51> H -8.69968501737191 -5.905417368282608 -1.296623179849035
| 52> H -9.334573814513865 -3.7015872832677434 -0.10732438455744923
| 53> H -7.616447310111895 -3.4918172265454293 -1.4204028755884273
| 54> *
| 55>
| 56> % eprnmr
| 57> gtensor true
| 58> Nuclei = all H {aiso,adip,aorb,fgrad,rho}
| 59> Nuclei = all V {aiso,adip,aorb,fgrad,rho}
| 60> end
| 61>
| 62>                          ****END OF INPUT****

CARTESIAN COORDINATES (ANGSTROEM)
---------------------------------
  V     -0.076894    0.047246   -1.106268
  S      2.353890   -0.302653   -0.809800
  S     -0.311382   -2.324857   -0.439098
  S      0.352271    2.382755   -0.404629
  S     -2.235587    0.386080    0.038368
  O     -0.360856    0.074045   -2.669264
  C     -2.039905   -2.361162   -0.116201
  C     -2.809944   -1.274306    0.078479
  C      2.907234    1.346921   -0.556073
  C      2.108072    2.417040   -0.391570
  S     -2.855417   -3.953915    0.045769
  S     -4.531835   -1.573429    0.486573
  S      2.924825    3.988148   -0.091324
  S      4.675587    1.648563   -0.457722
  C     -4.460724   -3.339311    0.460129
  C      4.582642    3.375995   -0.093558
  C     -5.536906   -4.141168    0.721185
  C      5.677496    4.158234    0.150488
  S     -5.436680   -5.918203    0.628278
  S     -7.131881   -3.464921    1.139578
  S      7.331042    3.494267    0.140173
  S      5.528158    5.892504    0.534276
  C      6.223553    5.849207    2.250889
  C      7.762660    3.811509    1.913433
  C      7.647038    5.284854    2.318948
  H      5.560448    5.283502    2.861231
  H      6.210424    6.861542    2.588973
  H      8.000999    5.380295    3.355865
  H      8.290667    5.872749    1.707615
  H      8.775411    3.474035    2.025116
  H      7.134167    3.197193    2.523213
  C     -8.081645   -4.118079   -0.295845
  C     -6.652583   -6.176918   -0.733623
  C     -8.032491   -5.614742   -0.477318
  H     -6.149264   -5.654815   -1.822005
  H     -6.701182   -7.441861   -0.905488
  H     -8.533426   -6.204182    0.665037
  H     -8.701137   -5.906985   -1.293440
  H     -9.336026   -3.703154   -0.104141
  H     -7.617899   -3.493384   -1.417219

 Total Charge           Charge          ....   -2
 Multiplicity           Mult            ....    2
 Number of Electrons    NEL             ....  321
 Basis Dimension        Dim             ....  681

ORBITAL ENERGIES
----------------
                 SPIN UP ORBITALS
  NO   OCC          E(Eh)            E(eV)
   0   1.0000    -196.676289     -5351.8339
   1   1.0000     -88.739620     -2414.7278
   2   1.0000     -88.738767     -2414.7046
   3   1.0000     -88.734077     -2414.5770
   4   1.0000     -88.733824     -2414.5701
   5   1.0000     -88.733416     -2414.5590
   6   1.0000     -88.733273     -2414.5551
   7   1.0000     -88.730626     -2414.4831
   8   1.0000     -88.730555     -2414.4812
   9   1.0000     -88.641828     -2412.0668
  10   1.0000     -88.641615     -2412.0610
  11   1.0000     -88.640816     -2412.0392
  12   1.0000     -88.640327     -2412.0259
  13   1.0000     -22.051672      -600.0565
  14   1.0000     -18.891560      -514.0655
  15   1.0000     -18.558116      -504.9920
  16   1.0000     -18.552951      -504.8515
  17   1.0000     -18.552849      -504.8487
  18   1.0000     -10.108655      -275.0705
  19   1.0000     -10.101248      -274.8689
  20   1.0000     -10.080627      -274.3078
  21   1.0000     -10.079883      -274.2875
  22   1.0000     -10.076288      -274.1897
  23   1.0000     -10.059401      -273.7302
  24   1.0000     -10.058212      -273.6979
  25   1.0000     -10.051989      -273.5285
  26   1.0000     -10.048853      -273.4432
  27   1.0000     -10.048272      -273.4274
  28   1.0000     -10.021182      -272.6902
  29   1.0000     -10.020258      -272.6651
  30   1.0000     -10.018661      -272.6216
  31   1.0000     -10.017867      -272.6000
  32   1.0000      -7.792749      -212.0515
  33   1.0000      -7.791964      -212.0301
  34   1.0000      -7.787256      -211.9020
  35   1.0000      -7.787055      -211.8965
  36   1.0000      -7.786882      -211.8918
  37   1.0000      -7.786739      -211.8879
  38   1.0000      -7.783893      -211.8105
  39   1.0000      -7.783856      -211.8095
  40   1.0000      -7.696126      -209.4222
  41   1.0000      -7.695842      -209.4145
  42   1.0000      -7.695111      -209.3946
  43   1.0000      -7.694686      -209.3831
  44   1.0000      -5.757828      -156.6785
  45   1.0000      -5.757044      -156.6571
  46   1.0000      -5.754316      -156.5829
  47   1.0000      -5.753541      -156.5618
  48   1.0000      -5.752196      -156.5252
  49   1.0000      -5.751993      -156.5197
  50   1.0000      -5.751867      -156.5162
  51   1.0000      -5.751721      -156.5123
  52   1.0000      -5.748839      -156.4339
  53   1.0000      -5.748802      -156.4328
  54   1.0000      -5.748453      -156.4234
  55   1.0000      -5.748314      -156.4196
  56   1.0000      -5.747736      -156.4038
  57   1.0000      -5.747532      -156.3983
  58   1.0000      -5.747486      -156.3971
  59   1.0000      -5.746690      -156.3754
  60   1.0000      -5.744422      -156.3137
  61   1.0000      -5.744381      -156.3126
  62   1.0000      -5.743135      -156.2786
  63   1.0000      -5.742928      -156.2730
  64   1.0000      -5.741687      -156.2393
  65   1.0000      -5.741542      -156.2353
  66   1.0000      -5.739696      -156.1851
  67   1.0000      -5.739661      -156.1841
  68   1.0000      -5.661460      -154.0562
  69   1.0000      -5.661207      -154.0493
  70   1.0000      -5.660408      -154.0275
  71   1.0000      -5.659979      -154.0158
  72   1.0000      -5.654752      -153.8736
  73   1.0000      -5.654485      -153.8663
  74   1.0000      -5.653782      -153.8472
  75   1.0000      -5.653447      -153.8381
  76   1.0000      -5.653362      -153.8358
  77   1.0000      -5.653138      -153.8297
  78   1.0000      -5.652433      -153.8105
  79   1.0000      -5.651996      -153.7986
  80   1.0000      -2.445319       -66.5405
  81   1.0000      -1.486607       -40.4526
  82   1.0000      -1.474971       -40.1360
  83   1.0000      -1.474145       -40.1135
  84   1.0000      -0.711826       -19.3698
  85   1.0000      -0.710338       -19.3293
  86   1.0000      -0.686772       -18.6880
  87   1.0000      -0.685149       -18.6439
  88   1.0000      -0.651101       -17.7174
  89   1.0000      -0.632306       -17.2059
  90   1.0000      -0.631774       -17.1915
  91   1.0000      -0.619509       -16.8577
  92   1.0000      -0.609941       -16.5973
  93   1.0000      -0.576927       -15.6990
  94   1.0000      -0.576091       -15.6762
  95   1.0000      -0.575206       -15.6521
  96   1.0000      -0.573651       -15.6098
  97   1.0000      -0.498514       -13.5652
  98   1.0000      -0.498027       -13.5520
  99   1.0000      -0.495824       -13.4921
 100   1.0000      -0.488283       -13.2869
 101   1.0000      -0.479723       -13.0539
 102   1.0000      -0.471113       -12.8196
 103   1.0000      -0.450947       -12.2709
 104   1.0000      -0.428216       -11.6524
 105   1.0000      -0.414863       -11.2890
 106   1.0000      -0.400457       -10.8970
 107   1.0000      -0.358146        -9.7457
 108   1.0000      -0.338704        -9.2166
 109   1.0000      -0.327685        -8.9168
 110   1.0000      -0.322841        -8.7849
 111   1.0000      -0.320957        -8.7337
 112   1.0000      -0.316090        -8.6012
 113   1.0000      -0.304891        -8.2965
 114   1.0000      -0.297049        -8.0831
 115   1.0000      -0.295780        -8.0486
 116   1.0000      -0.268426        -7.3042
 117   1.0000      -0.258234        -7.0269
 118   1.0000      -0.257056        -6.9949
 119   1.0000      -0.252309        -6.8657
 120   1.0000      -0.250450        -6.8151
 121   1.0000      -0.236801        -6.4437
 122   1.0000      -0.232516        -6.3271
 123   1.0000      -0.232189        -6.3182
 124   1.0000      -0.221806        -6.0356
 125   1.0000      -0.219268        -5.9666
 126   1.0000      -0.218208        -5.9377
 127   1.0000      -0.213386        -5.8065
 128   1.0000      -0.198168        -5.3924
 129   1.0000      -0.193656        -5.2696
 130   1.0000      -0.187857        -5.1118
 131   1.0000      -0.185804        -5.0560
 132   1.0000      -0.180337        -4.9072
 133   1.0000      -0.176967        -4.8155
 134   1.0000      -0.160976        -4.3804
 135   1.0000      -0.152125        -4.1395
 136   1.0000      -0.147400        -4.0110
 137   1.0000      -0.139170        -3.7870
 138   1.0000      -0.135143        -3.6774
 139   1.0000      -0.134583        -3.6622
 140   1.0000      -0.126604        -3.4451
 141   1.0000      -0.122574        -3.3354
 142   1.0000      -0.114871        -3.1258
 143   1.0000      -0.111260        -3.0275
 144   1.0000      -0.102070        -2.7775
 145   1.0000      -0.099457        -2.7064
 146   1.0000      -0.099148        -2.6980
 147   1.0000      -0.096254        -2.6192
 148   1.0000      -0.075997        -2.0680
 149   1.0000      -0.070362        -1.9147
 150   1.0000      -0.067735        -1.8432
 151   1.0000      -0.053884        -1.4662
 152   1.0000      -0.047060        -1.2806
 153   1.0000      -0.039742        -1.0814
 154   1.0000      -0.038442        -1.0461
 155   1.0000      -0.033016        -0.8984
 156   1.0000      -0.026356        -0.7172
 157   1.0000      -0.020522        -0.5584
 158   1.0000      -0.016983        -0.4621
 159   1.0000       0.018697         0.5088
 160   1.0000       0.039714         1.0807
 161   0.0000       0.121949         3.3184
 162   0.0000       0.137547         3.7428
 163   0.0000       0.146360         3.9827
 164   0.0000       0.151623         4.1259
 165   0.0000       0.160066         4.3556

                 SPIN DOWN ORBITALS
  NO   OCC          E(Eh)            E(eV)
   0   1.0000    -196.676436     -5351.8379
   1   1.0000     -88.739621     -2414.7278
   2   1.0000     -88.738768     -2414.7046
   3   1.0000     -88.734086     -2414.5772
   4   1.0000     -88.733832     -2414.5703
   5   1.0000     -88.733416     -2414.5590
   6   1.0000     -88.733273     -2414.5551
   7   1.0000     -88.730635     -2414.4833
   8   1.0000     -88.730563     -2414.4814
   9   1.0000     -88.641967     -2412.0705
  10   1.0000     -88.641756     -2412.0648
  11   1.0000     -88.640954     -2412.0430
  12   1.0000     -88.640467     -2412.0297
  13   1.0000     -22.036744      -599.6503
  14   1.0000     -18.895344      -514.1684
  15   1.0000     -18.552851      -504.8487
  16   1.0000     -18.536921      -504.4153
  17   1.0000     -18.536735      -504.4102
  18   1.0000     -10.108654      -275.0705
  19   1.0000     -10.101247      -274.8689
  20   1.0000     -10.080627      -274.3078
  21   1.0000     -10.079876      -274.2874
  22   1.0000     -10.076287      -274.1897
  23   1.0000     -10.059401      -273.7302
  24   1.0000     -10.058212      -273.6979
  25   1.0000     -10.051978      -273.5282
  26   1.0000     -10.048849      -273.4431
  27   1.0000     -10.048272      -273.4274
  28   1.0000     -10.020945      -272.6838
  29   1.0000     -10.020035      -272.6590
  30   1.0000     -10.018447      -272.6158
  31   1.0000     -10.017655      -272.5943
  32   1.0000      -7.792750      -212.0515
  33   1.0000      -7.791965      -212.0302
  34   1.0000      -7.787266      -211.9023
  35   1.0000      -7.787065      -211.8968
  36   1.0000      -7.786882      -211.8918
  37   1.0000      -7.786739      -211.8879
  38   1.0000      -7.783902      -211.8108
  39   1.0000      -7.783865      -211.8097
  40   1.0000      -7.696256      -209.4258
  41   1.0000      -7.695973      -209.4181
  42   1.0000      -7.695239      -209.3981
  43   1.0000      -7.694816      -209.3866
  44   1.0000      -5.757829      -156.6785
  45   1.0000      -5.757045      -156.6572
  46   1.0000      -5.754318      -156.5829
  47   1.0000      -5.753542      -156.5618
  48   1.0000      -5.752207      -156.5255
  49   1.0000      -5.752004      -156.5200
  50   1.0000      -5.751867      -156.5163
  51   1.0000      -5.751722      -156.5123
  52   1.0000      -5.748850      -156.4342
  53   1.0000      -5.748812      -156.4331
  54   1.0000      -5.748453      -156.4234
  55   1.0000      -5.748315      -156.4196
  56   1.0000      -5.747750      -156.4042
  57   1.0000      -5.747546      -156.3987
  58   1.0000      -5.747487      -156.3971
  59   1.0000      -5.746691      -156.3754
  60   1.0000      -5.744436      -156.3141
  61   1.0000      -5.744395      -156.3129
  62   1.0000      -5.743143      -156.2789
  63   1.0000      -5.742938      -156.2733
  64   1.0000      -5.741688      -156.2393
  65   1.0000      -5.741543      -156.2353
  66   1.0000      -5.739702      -156.1852
  67   1.0000      -5.739667      -156.1843
  68   1.0000      -5.661598      -154.0599
  69   1.0000      -5.661348      -154.0531
  70   1.0000      -5.660551      -154.0314
  71   1.0000      -5.660121      -154.0197
  72   1.0000      -5.655137      -153.8841
  73   1.0000      -5.654864      -153.8767
  74   1.0000      -5.654135      -153.8568
  75   1.0000      -5.653724      -153.8456
  76   1.0000      -5.653533      -153.8405
  77   1.0000      -5.653230      -153.8322
  78   1.0000      -5.652539      -153.8134
  79   1.0000      -5.652103      -153.8015
  80   1.0000      -2.400443       -65.3194
  81   1.0000      -1.467321       -39.9278
  82   1.0000      -1.412594       -38.4386
  83   1.0000      -1.412441       -38.4345
  84   1.0000      -0.711795       -19.3689
  85   1.0000      -0.710323       -19.3289
  86   1.0000      -0.686729       -18.6869
  87   1.0000      -0.685094       -18.6424
  88   1.0000      -0.659219       -17.9383
  89   1.0000      -0.632249       -17.2044
  90   1.0000      -0.631701       -17.1895
  91   1.0000      -0.619510       -16.8577
  92   1.0000      -0.609941       -16.5973
  93   1.0000      -0.576897       -15.6982
  94   1.0000      -0.576006       -15.6739
  95   1.0000      -0.575183       -15.6515
  96   1.0000      -0.573587       -15.6081
  97   1.0000      -0.498549       -13.5662
  98   1.0000      -0.498047       -13.5525
  99   1.0000      -0.495853       -13.4929
 100   1.0000      -0.488471       -13.2920
 101   1.0000      -0.479952       -13.0602
 102   1.0000      -0.471187       -12.8217
 103   1.0000      -0.450981       -12.2718
 104   1.0000      -0.428265       -11.6537
 105   1.0000      -0.414940       -11.2911
 106   1.0000      -0.400465       -10.8972
 107   1.0000      -0.358142        -9.7455
 108   1.0000      -0.338686        -9.2161
 109   1.0000      -0.327673        -8.9164
 110   1.0000      -0.322830        -8.7847
 111   1.0000      -0.320883        -8.7317
 112   1.0000      -0.316114        -8.6019
 113   1.0000      -0.304855        -8.2955
 114   1.0000      -0.297043        -8.0829
 115   1.0000      -0.295729        -8.0472
 116   1.0000      -0.268393        -7.3034
 117   1.0000      -0.258124        -7.0239
 118   1.0000      -0.256997        -6.9932
 119   1.0000      -0.252264        -6.8644
 120   1.0000      -0.250366        -6.8128
 121   1.0000      -0.236771        -6.4429
 122   1.0000      -0.232481        -6.3261
 123   1.0000      -0.232147        -6.3170
 124   1.0000      -0.221534        -6.0283
 125   1.0000      -0.219102        -5.9621
 126   1.0000      -0.218053        -5.9335
 127   1.0000      -0.213196        -5.8014
 128   1.0000      -0.197919        -5.3857
 129   1.0000      -0.191843        -5.2203
 130   1.0000      -0.187784        -5.1099
 131   1.0000      -0.185576        -5.0498
 132   1.0000      -0.180221        -4.9041
 133   1.0000      -0.176917        -4.8142
 134   1.0000      -0.160351        -4.3634
 135   1.0000      -0.151955        -4.1349
 136   1.0000      -0.147328        -4.0090
 137   1.0000      -0.138690        -3.7739
 138   1.0000      -0.134733        -3.6663
 139   1.0000      -0.134328        -3.6553
 140   1.0000      -0.125946        -3.4272
 141   1.0000      -0.122248        -3.3265
 142   1.0000      -0.116643        -3.1740
 143   1.0000      -0.112812        -3.0698
 144   1.0000      -0.102157        -2.7798
 145   1.0000      -0.099557        -2.7091
 146   1.0000      -0.099398        -2.7048
 147   1.0000      -0.096490        -2.6256
 148   1.0000      -0.072168        -1.9638
 149   1.0000      -0.070362        -1.9147
 150   1.0000      -0.067727        -1.8429
 151   1.0000      -0.051310        -1.3962
 152   1.0000      -0.046118        -1.2549
 153   1.0000      -0.039823        -1.0836
 154   1.0000      -0.037850        -1.0300
 155   1.0000      -0.033034        -0.8989
 156   1.0000      -0.027393        -0.7454
 157   1.0000      -0.017188        -0.4677
 158   1.0000       0.018960         0.5159
 159   1.0000       0.038631         1.0512
 160   0.0000       0.121939         3.3181
 161   0.0000       0.137535         3.7425
 162   0.0000       0.146356         3.9826
 163   0.0000       0.151283         4.1166
 164   0.0000       0.155310         4.2262

MULLIKEN ATOMIC CHARGES AND SPIN POPULATIONS
--------------------------------------------
   0 V :    0.470820    1.210572
   1 S :   -0.290816   -0.022634
   2 S :   -0.287010   -0.024933
   3 S :   -0.288963   -0.023574
   4 S :   -0.282514   -0.025416
   5 O :   -0.466664   -0.146768
   6 C :   -0.077983    0.009643
   7 C :   -0.084923    0.007974
   8 C :   -0.083729    0.007739
   9 C :   -0.084316    0.007433
  10 S :    0.104666   -0.000612
  11 S :    0.106206   -0.000643
  12 S :    0.100034   -0.000397
  13 S :    0.099092   -0.000348
  14 C :   -0.216925    0.001591
  15 C :   -0.211578    0.001006
  16 C :   -0.192368   -0.000099
  17 C :   -0.190365   -0.000409
  18 S :    0.035246   -0.000113
  19 S :    0.041698   -0.000110
  20 S :    0.006059   -0.000068
  21 S :    0.005417   -0.000070
  22 C :   -0.305280   -0.000001
  23 C :   -0.304045   -0.000002
  24 C :   -0.162571   -0.000011
  25 H :    0.148190   -0.000001
  26 H :    0.118238   -0.000004
  27 H :    0.080667   -0.000001
  28 H :    0.098084   -0.000001
  29 H :    0.116789   -0.000004
  30 H :    0.146918   -0.000001
  31 C :   -0.260711    0.000200
  32 C :   -0.269783    0.000199
  33 C :   -0.126116   -0.000290
  34 H :    0.108575   -0.000015
  35 H :    0.082494    0.000056
  36 H :    0.041876    0.000034
  37 H :    0.108948    0.000021
  38 H :    0.069699    0.000071
  39 H :    0.096947   -0.000015
Sum of atomic charges         :   -2.0000000

LOEWDIN ATOMIC CHARGES AND SPIN POPULATIONS
-------------------------------------------
   0 V :   -0.155668    1.163982
   1 S :    0.080256   -0.014623
   2 S :    0.080855   -0.015862
   3 S :    0.081593   -0.015415
   4 S :    0.084917   -0.016110
   5 O :   -0.318149   -0.131684
   6 C :   -0.549020    0.009016
   7 C :   -0.551021    0.007916
   8 C :   -0.552337    0.008131
   9 C :   -0.552321    0.007674
  10 S :    0.476475   -0.000926
  11 S :    0.477629   -0.000966
  12 S :    0.471176   -0.000822
  13 S :    0.470390   -0.000831
  14 C :   -0.462693    0.000219
  15 C :   -0.465353   -0.000078
  16 C :   -0.626044    0.000466
  17 C :   -0.621312    0.000086
  18 S :    0.368726   -0.000088
  19 S :    0.373068   -0.000084
  20 S :    0.358634   -0.000072
  21 S :    0.358139   -0.000075
  22 C :   -0.274559   -0.000007
  23 C :   -0.276384   -0.000009
  24 C :   -0.169470   -0.000002
  25 H :    0.057884   -0.000001
  26 H :    0.049789   -0.000002
  27 H :    0.058086   -0.000002
  28 H :    0.055642   -0.000001
  29 H :    0.050680   -0.000002
  30 H :    0.058670   -0.000001
  31 C :   -0.333196    0.000047
  32 C :   -0.328860    0.000039
  33 C :   -0.210754    0.000012
  34 H :    0.082067   -0.000003
  35 H :    0.070233    0.000029
  36 H :    0.070467    0.000011
  37 H :    0.061681    0.000003
  38 H :    0.069768    0.000038
  39 H :    0.080317   -0.000004

  Mayer bond orders larger than 0.100000
B(  0-V ,  1-S ) :   0.7739 B(  0-V ,  2-S ) :   0.7682 B(  0-V ,  3-S ) :   0.7674
B(  0-V ,  4-S ) :   0.7754 B(  0-V ,  5-O ) :   2.1498 B(  1-S ,  8-C ) :   1.1027
B(  2-S ,  6-C ) :   1.1076 B(  3-S ,  9-C ) :   1.1054 B(  4-S ,  7-C ) :   1.1084
B(  6-C ,  7-C ) :   1.6781 B(  6-C , 10-S ) :   0.9368 B(  7-C , 11-S ) :   0.9409
B(  8-C ,  9-C ) :   1.6991 B(  8-C , 13-S ) :   0.9336 B(  9-C , 12-S ) :   0.9354
B( 10-S , 14-C ) :   1.2539 B( 11-S , 14-C ) :   1.2533 B( 12-S , 15-C ) :   1.2458
B( 13-S , 15-C ) :   1.2456 B( 14-C , 16-C ) :   1.4450 B( 15-C , 17-C ) :   1.4547
B( 16-C , 18-S ) :   1.0800 B( 16-C , 19-S ) :   1.0806 B( 17-C , 20-S ) :   1.0892
B( 17-C , 21-S ) :   1.0898 B( 18-S , 32-C ) :   0.9904 B( 19-S , 31-C ) :   0.9915
B( 20-S , 23-C ) :   0.9909 B( 21-S , 22-C ) :   0.9897 B( 22-C , 24-C ) :   0.9111
B( 22-C , 25-H ) :   0.9688 B( 22-C , 26-H ) :   0.9674 B( 23-C , 24-C ) :   0.9120
B( 23-C , 29-H ) :   0.9671 B( 23-C , 30-H ) :   0.9681 B( 24-C , 27-H ) :   0.9630
B( 24-C , 28-H ) :   0.9753 B( 31-C , 33-C ) :   0.9401 B( 31-C , 38-H ) :   0.9372
B( 31-C , 39-H ) :   0.9204 B( 32-C , 33-C ) :   0.9330 B( 32-C , 34-H ) :   0.9292
B( 32-C , 35-H ) :   0.9439 B( 33-C , 36-H ) :   0.9211 B( 33-C , 37-H ) :   0.9565

FINAL SINGLE POINT ENERGY     -6337.595232378412

DIPOLE MOMENT
-------------
                                X             Y             Z
Electronic contribution:      2.73921       2.40685     -12.95353
Nuclear contribution   :     -2.54622      -2.41542      14.60704
                        -----------------------------------------
Total Dipole Moment    :      0.19298      -0.00856       1.65351
                        -----------------------------------------
Magnitude (a.u.)       :      1.66476
Magnitude (Debye)      :      4.23147

Rotational constants in cm-1:     0.010749     0.000804     0.000783
Rotational constants in MHz :   322.255952    24.113823    23.485463

                             ****ORCA TERMINATED NORMALLY****
TOTAL RUN TIME: 0 days 1 hours 2 minutes 4 seconds 660 msec
