                         Program Version 5.0.4 -  RELEASE  -
|  1> ! nofrozencore ReducedPop printbasis
|  2> ! B3LYP TZVP
|  3>
|  4> %basis
|  5> newgto V "CP(PPP)" end
|  6> end
|  7>
|  8> %pal
|  9> nprocs 8
| 10> end
| 11>
| 12> % sym SymThresh 1e-2 end
| 13> * xyz -2 2
| 14> V 0.6198908486375122 -0.36388397343771683 -0.933215249672145
| 15> S 1.056300587392273 2.0702540866601513 -0.9997240782514354
| 16> S 2.1100418149277163 -0.38637682324633743 1.0429807953076689
| 17> S -1.6079272936678703 0.18784874981293193 -1.8635074130500897
| 18> S -0.6057873318618076 -2.1753354399170353 0.20696482754978432
| 19> O 1.464283211968597 -1.026649873792926 -2.1046889216663107
| 20> C 1.7141250730070177 -1.974787809331433 1.6857890199851955
| 21> C 0.6233270140235655 -2.6901855592675523 1.352615407092051
| 22> C -0.357055774056229 2.649671169428395 -1.8707702688334202
| 23> C -1.4203731636366648 1.8990091240742444 -2.2121496426194915
| 24> S 2.78152264095913 -2.689400765440101 2.942263482960686
| 25> S 0.3858851135955139 -4.242672994659628 2.2214905382828625
| 26> S -2.7646341985126774 2.747715695279555 -3.04849815966068
| 27> S -0.435478306734384 4.390816838268648 -2.308036596344664
| 28> C 1.8231732722035694 -4.144017729709417 3.2454374016472016
| 29> C -2.0581130482809904 4.367263838967326 -3.0095112685972634
| 30> C 2.1608153873271942 -5.098257889096061 4.165813341569906
| 31> C -2.695931334714105 5.482041379585444 -3.48001718874168
| 32> S 3.6476389793365542 -4.9859511226294195 5.142216434352896
| 33> S 1.1502932481997843 -6.54121329099137 4.4358974398772855
| 34> S -1.944727157783323 7.09670947366291 -3.4125818705546256
| 35> S -4.344017073409714 5.408928956054288 -4.155515290760147
| 36> C -5.195153244180022 6.473134948531639 -2.9009580784454796
| 37> C -3.1565125392242313 7.911978378466724 -2.2733724825336603
| 38> C -4.599729903214406 7.878258191428385 -2.7822213088301853
| 39> H -5.1632804187437245 5.953900361044106 -1.9400637808828611
| 40> H -6.237576067992117 6.528642074560233 -3.224963746915439
| 41> H -5.22199180385228 8.455791600806416 -2.0836810387463998
| 42> H -4.653345223546166 8.377714148274153 -3.755125729108972
| 43> H -2.8132043532836426 8.945061264618529 -2.1754577862493956
| 44> H -3.077595732533856 7.431475096726179 -1.2952508155288038
| 45> C 2.372281391233445 -7.835542522107383 3.925831551383677
| 46> C 4.49553688208302 -6.510604192849188 4.5196163929261575
| 47> C 3.6814899585596694 -7.791531895814302 4.716920829619014
| 48> H 4.733136668111936 -6.359738055101053 3.4637615307026715
| 49> H 5.434369040885417 -6.568606324125909 5.076407937403791
| 50> H 3.466624472721206 -7.923776810640958 5.782410274488315
| 51> H 4.301082282310502 -8.642766595371366 4.400290326975887
| 52> H 1.8655577505939172 -8.791094416758371 4.08349543118794
| 53> H 2.5602224552570747 -7.72076465214196 2.8555165947536842
| 54> *
| 55>
| 56> % eprnmr
| 57> gtensor true
| 58> Nuclei = all H {aiso,adip,aorb,fgrad,rho}
| 59> Nuclei = all V {aiso,adip,aorb,fgrad,rho}
| 60> end
| 61>
| 62>                          ****END OF INPUT****

CARTESIAN COORDINATES (ANGSTROEM)
---------------------------------
  V      0.619127   -0.364487   -0.929507
  S      1.055536    2.069651   -0.996016
  S      2.109277   -0.386980    1.046689
  S     -1.608692    0.187246   -1.859799
  S     -0.606552   -2.175938    0.210673
  O      1.463519   -1.027253   -2.100981
  C      1.713361   -1.975391    1.689497
  C      0.622563   -2.690788    1.356324
  C     -0.357820    2.649068   -1.867062
  C     -1.421137    1.898406   -2.208441
  S      2.780758   -2.690003    2.945972
  S      0.385121   -4.243276    2.225199
  S     -2.765399    2.747113   -3.044790
  S     -0.436243    4.390214   -2.304328
  C      1.822409   -4.144620    3.249146
  C     -2.058877    4.366661   -3.005803
  C      2.160051   -5.098861    4.169522
  C     -2.696696    5.481439   -3.476309
  S      3.646875   -4.986554    5.145925
  S      1.149529   -6.541816    4.439606
  S     -1.945491    7.096107   -3.408874
  S     -4.344781    5.408326   -4.151807
  C     -5.195918    6.472532   -2.897250
  C     -3.157277    7.911376   -2.269664
  C     -4.600494    7.877655   -2.778513
  H     -5.164045    5.953298   -1.936356
  H     -6.238340    6.528039   -3.221256
  H     -5.222756    8.455189   -2.079973
  H     -4.654110    8.377111   -3.751418
  H     -2.813969    8.944459   -2.171750
  H     -3.078360    7.430872   -1.291543
  C      2.371517   -7.836145    3.929540
  C      4.494773   -6.511207    4.523325
  C      3.680726   -7.792135    4.720629
  H      4.732372   -6.360341    3.467470
  H      5.433605   -6.569209    5.080116
  H      3.465860   -7.924380    5.786118
  H      4.300318   -8.643369    4.403998
  H      1.864793   -8.791697    4.087204
  H      2.559458   -7.721367    2.859225

 Total Charge           Charge          ....   -2
 Multiplicity           Mult            ....    2
 Number of Electrons    NEL             ....  321
 Basis Dimension        Dim             ....  681

ORBITAL ENERGIES
----------------
                 SPIN UP ORBITALS
  NO   OCC          E(Eh)            E(eV)
   0   1.0000    -196.674544     -5351.7864
   1   1.0000     -88.733156     -2414.5519
   2   1.0000     -88.733150     -2414.5518
   3   1.0000     -88.732969     -2414.5469
   4   1.0000     -88.732867     -2414.5441
   5   1.0000     -88.730024     -2414.4667
   6   1.0000     -88.729872     -2414.4626
   7   1.0000     -88.729848     -2414.4619
   8   1.0000     -88.729831     -2414.4615
   9   1.0000     -88.639541     -2412.0045
  10   1.0000     -88.639477     -2412.0028
  11   1.0000     -88.639242     -2411.9964
  12   1.0000     -88.639075     -2411.9918
  13   1.0000     -22.049935      -600.0092
  14   1.0000     -18.889847      -514.0189
  15   1.0000     -18.556397      -504.9452
  16   1.0000     -18.551208      -504.8040
  17   1.0000     -18.551101      -504.8011
  18   1.0000     -10.075694      -274.1736
  19   1.0000     -10.075654      -274.1725
  20   1.0000     -10.063517      -273.8422
  21   1.0000     -10.063466      -273.8408
  22   1.0000     -10.063054      -273.8296
  23   1.0000     -10.063008      -273.8284
  24   1.0000     -10.051361      -273.5114
  25   1.0000     -10.050964      -273.5006
  26   1.0000     -10.048200      -273.4254
  27   1.0000     -10.048186      -273.4250
  28   1.0000     -10.017910      -272.6012
  29   1.0000     -10.017657      -272.5943
  30   1.0000     -10.016965      -272.5755
  31   1.0000     -10.016863      -272.5727
  32   1.0000      -7.786575      -211.8835
  33   1.0000      -7.786553      -211.8829
  34   1.0000      -7.786399      -211.8787
  35   1.0000      -7.786305      -211.8761
  36   1.0000      -7.783264      -211.7934
  37   1.0000      -7.783131      -211.7898
  38   1.0000      -7.783126      -211.7896
  39   1.0000      -7.783098      -211.7889
  40   1.0000      -7.693808      -209.3592
  41   1.0000      -7.693771      -209.3582
  42   1.0000      -7.693471      -209.3500
  43   1.0000      -7.693401      -209.3481
  44   1.0000      -5.751560      -156.5079
  45   1.0000      -5.751543      -156.5075
  46   1.0000      -5.751392      -156.5033
  47   1.0000      -5.751299      -156.5008
  48   1.0000      -5.748207      -156.4167
  49   1.0000      -5.748152      -156.4152
  50   1.0000      -5.748139      -156.4148
  51   1.0000      -5.748077      -156.4131
  52   1.0000      -5.748075      -156.4131
  53   1.0000      -5.748042      -156.4122
  54   1.0000      -5.747969      -156.4102
  55   1.0000      -5.747877      -156.4077
  56   1.0000      -5.743783      -156.2963
  57   1.0000      -5.743646      -156.2925
  58   1.0000      -5.743640      -156.2924
  59   1.0000      -5.743623      -156.2919
  60   1.0000      -5.741376      -156.2308
  61   1.0000      -5.741351      -156.2301
  62   1.0000      -5.741204      -156.2261
  63   1.0000      -5.741101      -156.2233
  64   1.0000      -5.739088      -156.1685
  65   1.0000      -5.738954      -156.1649
  66   1.0000      -5.738938      -156.1644
  67   1.0000      -5.738918      -156.1639
  68   1.0000      -5.659131      -153.9928
  69   1.0000      -5.659068      -153.9911
  70   1.0000      -5.658804      -153.9839
  71   1.0000      -5.658710      -153.9813
  72   1.0000      -5.652479      -153.8118
  73   1.0000      -5.652432      -153.8105
  74   1.0000      -5.652150      -153.8028
  75   1.0000      -5.652078      -153.8009
  76   1.0000      -5.651133      -153.7751
  77   1.0000      -5.651098      -153.7742
  78   1.0000      -5.650763      -153.7651
  79   1.0000      -5.650720      -153.7639
  80   1.0000      -2.443569       -66.4929
  81   1.0000      -1.484877       -40.4056
  82   1.0000      -1.473240       -40.0889
  83   1.0000      -1.472348       -40.0646
  84   1.0000      -0.709230       -19.2991
  85   1.0000      -0.709118       -19.2961
  86   1.0000      -0.685403       -18.6508
  87   1.0000      -0.685091       -18.6423
  88   1.0000      -0.649479       -17.6732
  89   1.0000      -0.631165       -17.1749
  90   1.0000      -0.630858       -17.1665
  91   1.0000      -0.617041       -16.7905
  92   1.0000      -0.616689       -16.7810
  93   1.0000      -0.574227       -15.6255
  94   1.0000      -0.574060       -15.6210
  95   1.0000      -0.573299       -15.6003
  96   1.0000      -0.572332       -15.5739
  97   1.0000      -0.496665       -13.5150
  98   1.0000      -0.495977       -13.4962
  99   1.0000      -0.495320       -13.4783
 100   1.0000      -0.494965       -13.4687
 101   1.0000      -0.479559       -13.0495
 102   1.0000      -0.476904       -12.9772
 103   1.0000      -0.447092       -12.1660
 104   1.0000      -0.444891       -12.1061
 105   1.0000      -0.416139       -11.3237
 106   1.0000      -0.410878       -11.1806
 107   1.0000      -0.355201        -9.6655
 108   1.0000      -0.354772        -9.6538
 109   1.0000      -0.326564        -8.8862
 110   1.0000      -0.326076        -8.8730
 111   1.0000      -0.318769        -8.6741
 112   1.0000      -0.314170        -8.5490
 113   1.0000      -0.304074        -8.2743
 114   1.0000      -0.303243        -8.2517
 115   1.0000      -0.292382        -7.9561
 116   1.0000      -0.291763        -7.9393
 117   1.0000      -0.257743        -7.0135
 118   1.0000      -0.257617        -7.0101
 119   1.0000      -0.255654        -6.9567
 120   1.0000      -0.255422        -6.9504
 121   1.0000      -0.234448        -6.3796
 122   1.0000      -0.233915        -6.3651
 123   1.0000      -0.231019        -6.2863
 124   1.0000      -0.229705        -6.2506
 125   1.0000      -0.219721        -5.9789
 126   1.0000      -0.217853        -5.9281
 127   1.0000      -0.214062        -5.8249
 128   1.0000      -0.211579        -5.7574
 129   1.0000      -0.192888        -5.2487
 130   1.0000      -0.186985        -5.0881
 131   1.0000      -0.185697        -5.0531
 132   1.0000      -0.184318        -5.0155
 133   1.0000      -0.179045        -4.8721
 134   1.0000      -0.159154        -4.3308
 135   1.0000      -0.151347        -4.1184
 136   1.0000      -0.146507        -3.9866
 137   1.0000      -0.135580        -3.6893
 138   1.0000      -0.133986        -3.6459
 139   1.0000      -0.132631        -3.6091
 140   1.0000      -0.124888        -3.3984
 141   1.0000      -0.120750        -3.2858
 142   1.0000      -0.113139        -3.0787
 143   1.0000      -0.109482        -2.9791
 144   1.0000      -0.099277        -2.7015
 145   1.0000      -0.097740        -2.6596
 146   1.0000      -0.097197        -2.6449
 147   1.0000      -0.094515        -2.5719
 148   1.0000      -0.074170        -2.0183
 149   1.0000      -0.067519        -1.8373
 150   1.0000      -0.066930        -1.8213
 151   1.0000      -0.051781        -1.4090
 152   1.0000      -0.045260        -1.2316
 153   1.0000      -0.037123        -1.0102
 154   1.0000      -0.036714        -0.9990
 155   1.0000      -0.030928        -0.8416
 156   1.0000      -0.024674        -0.6714
 157   1.0000      -0.018708        -0.5091
 158   1.0000      -0.015132        -0.4118
 159   1.0000       0.020805         0.5661
 160   1.0000       0.041714         1.1351
 161   0.0000       0.136931         3.7261
 162   0.0000       0.137589         3.7440
 163   0.0000       0.162017         4.4087
 164   0.0000       0.162582         4.4241
 165   0.0000       0.170872         4.6497

                 SPIN DOWN ORBITALS
  NO   OCC          E(Eh)            E(eV)
   0   1.0000    -196.674691     -5351.7904
   1   1.0000     -88.733157     -2414.5520
   2   1.0000     -88.733151     -2414.5518
   3   1.0000     -88.732970     -2414.5469
   4   1.0000     -88.732867     -2414.5441
   5   1.0000     -88.730032     -2414.4669
   6   1.0000     -88.729881     -2414.4628
   7   1.0000     -88.729856     -2414.4621
   8   1.0000     -88.729840     -2414.4617
   9   1.0000     -88.639676     -2412.0082
  10   1.0000     -88.639618     -2412.0066
  11   1.0000     -88.639384     -2412.0003
  12   1.0000     -88.639212     -2411.9956
  13   1.0000     -22.035011      -599.6031
  14   1.0000     -18.893620      -514.1215
  15   1.0000     -18.551133      -504.8020
  16   1.0000     -18.535203      -504.3685
  17   1.0000     -18.534972      -504.3622
  18   1.0000     -10.075693      -274.1736
  19   1.0000     -10.075649      -274.1723
  20   1.0000     -10.063516      -273.8422
  21   1.0000     -10.063465      -273.8408
  22   1.0000     -10.063054      -273.8296
  23   1.0000     -10.063008      -273.8284
  24   1.0000     -10.051361      -273.5114
  25   1.0000     -10.050964      -273.5006
  26   1.0000     -10.048189      -273.4251
  27   1.0000     -10.048182      -273.4249
  28   1.0000     -10.017673      -272.5947
  29   1.0000     -10.017444      -272.5885
  30   1.0000     -10.016743      -272.5694
  31   1.0000     -10.016652      -272.5670
  32   1.0000      -7.786575      -211.8835
  33   1.0000      -7.786554      -211.8829
  34   1.0000      -7.786400      -211.8787
  35   1.0000      -7.786305      -211.8761
  36   1.0000      -7.783274      -211.7936
  37   1.0000      -7.783141      -211.7900
  38   1.0000      -7.783136      -211.7899
  39   1.0000      -7.783107      -211.7891
  40   1.0000      -7.693935      -209.3626
  41   1.0000      -7.693902      -209.3617
  42   1.0000      -7.693603      -209.3536
  43   1.0000      -7.693528      -209.3516
  44   1.0000      -5.751561      -156.5079
  45   1.0000      -5.751545      -156.5075
  46   1.0000      -5.751393      -156.5034
  47   1.0000      -5.751300      -156.5008
  48   1.0000      -5.748217      -156.4169
  49   1.0000      -5.748153      -156.4152
  50   1.0000      -5.748140      -156.4149
  51   1.0000      -5.748088      -156.4134
  52   1.0000      -5.748086      -156.4134
  53   1.0000      -5.748053      -156.4125
  54   1.0000      -5.747969      -156.4102
  55   1.0000      -5.747877      -156.4077
  56   1.0000      -5.743797      -156.2967
  57   1.0000      -5.743660      -156.2929
  58   1.0000      -5.743654      -156.2928
  59   1.0000      -5.743637      -156.2923
  60   1.0000      -5.741376      -156.2308
  61   1.0000      -5.741351      -156.2301
  62   1.0000      -5.741205      -156.2261
  63   1.0000      -5.741102      -156.2233
  64   1.0000      -5.739095      -156.1687
  65   1.0000      -5.738963      -156.1651
  66   1.0000      -5.738944      -156.1646
  67   1.0000      -5.738924      -156.1641
  68   1.0000      -5.659272      -153.9966
  69   1.0000      -5.659207      -153.9948
  70   1.0000      -5.658946      -153.9878
  71   1.0000      -5.658851      -153.9852
  72   1.0000      -5.652829      -153.8213
  73   1.0000      -5.652819      -153.8210
  74   1.0000      -5.652533      -153.8132
  75   1.0000      -5.652437      -153.8106
  76   1.0000      -5.651233      -153.7779
  77   1.0000      -5.651186      -153.7766
  78   1.0000      -5.650858      -153.7677
  79   1.0000      -5.650820      -153.7666
  80   1.0000      -2.398710       -65.2722
  81   1.0000      -1.465598       -39.8810
  82   1.0000      -1.410811       -38.3901
  83   1.0000      -1.410738       -38.3881
  84   1.0000      -0.709205       -19.2984
  85   1.0000      -0.709103       -19.2957
  86   1.0000      -0.685348       -18.6493
  87   1.0000      -0.685049       -18.6411
  88   1.0000      -0.657570       -17.8934
  89   1.0000      -0.631096       -17.1730
  90   1.0000      -0.630796       -17.1648
  91   1.0000      -0.617041       -16.7905
  92   1.0000      -0.616691       -16.7810
  93   1.0000      -0.574201       -15.6248
  94   1.0000      -0.574035       -15.6203
  95   1.0000      -0.573222       -15.5982
  96   1.0000      -0.572262       -15.5720
  97   1.0000      -0.496680       -13.5153
  98   1.0000      -0.496023       -13.4975
  99   1.0000      -0.495362       -13.4795
 100   1.0000      -0.494995       -13.4695
 101   1.0000      -0.479750       -13.0546
 102   1.0000      -0.477156       -12.9841
 103   1.0000      -0.447111       -12.1665
 104   1.0000      -0.444938       -12.1074
 105   1.0000      -0.416135       -11.3236
 106   1.0000      -0.410988       -11.1835
 107   1.0000      -0.355191        -9.6652
 108   1.0000      -0.354767        -9.6537
 109   1.0000      -0.326547        -8.8858
 110   1.0000      -0.326068        -8.8727
 111   1.0000      -0.318690        -8.6720
 112   1.0000      -0.314198        -8.5498
 113   1.0000      -0.304021        -8.2728
 114   1.0000      -0.303219        -8.2510
 115   1.0000      -0.292376        -7.9559
 116   1.0000      -0.291760        -7.9392
 117   1.0000      -0.257617        -7.0101
 118   1.0000      -0.257503        -7.0070
 119   1.0000      -0.255618        -6.9557
 120   1.0000      -0.255395        -6.9497
 121   1.0000      -0.234402        -6.3784
 122   1.0000      -0.233903        -6.3648
 123   1.0000      -0.230968        -6.2850
 124   1.0000      -0.229676        -6.2498
 125   1.0000      -0.219363        -5.9692
 126   1.0000      -0.217740        -5.9250
 127   1.0000      -0.213854        -5.8193
 128   1.0000      -0.211443        -5.7536
 129   1.0000      -0.191176        -5.2022
 130   1.0000      -0.186920        -5.0863
 131   1.0000      -0.185324        -5.0429
 132   1.0000      -0.184081        -5.0091
 133   1.0000      -0.178932        -4.8690
 134   1.0000      -0.158535        -4.3139
 135   1.0000      -0.151177        -4.1137
 136   1.0000      -0.146429        -3.9845
 137   1.0000      -0.134950        -3.6722
 138   1.0000      -0.133669        -3.6373
 139   1.0000      -0.132410        -3.6031
 140   1.0000      -0.124265        -3.3814
 141   1.0000      -0.120422        -3.2769
 142   1.0000      -0.114908        -3.1268
 143   1.0000      -0.111035        -3.0214
 144   1.0000      -0.099258        -2.7009
 145   1.0000      -0.098075        -2.6688
 146   1.0000      -0.097184        -2.6445
 147   1.0000      -0.094850        -2.5810
 148   1.0000      -0.070336        -1.9139
 149   1.0000      -0.067513        -1.8371
 150   1.0000      -0.066930        -1.8212
 151   1.0000      -0.049186        -1.3384
 152   1.0000      -0.044315        -1.2059
 153   1.0000      -0.037148        -1.0109
 154   1.0000      -0.036194        -0.9849
 155   1.0000      -0.030935        -0.8418
 156   1.0000      -0.025664        -0.6983
 157   1.0000      -0.015346        -0.4176
 158   1.0000       0.021146         0.5754
 159   1.0000       0.040549         1.1034
 160   0.0000       0.136941         3.7264
 161   0.0000       0.137583         3.7438
 162   0.0000       0.156106         4.2479
 163   0.0000       0.162295         4.4163
 164   0.0000       0.163705         4.4546

MULLIKEN ATOMIC CHARGES AND SPIN POPULATIONS
--------------------------------------------
   0 V :    0.471392    1.210129
   1 S :   -0.290900   -0.022178
   2 S :   -0.289081   -0.025333
   3 S :   -0.289007   -0.023045
   4 S :   -0.284891   -0.025810
   5 O :   -0.468581   -0.146334
   6 C :   -0.077865    0.009678
   7 C :   -0.084524    0.008053
   8 C :   -0.084449    0.007692
   9 C :   -0.084852    0.007312
  10 S :    0.099354   -0.000582
  11 S :    0.100649   -0.000621
  12 S :    0.100082   -0.000396
  13 S :    0.099213   -0.000354
  14 C :   -0.212989    0.001517
  15 C :   -0.211764    0.000974
  16 C :   -0.192747   -0.000105
  17 C :   -0.190622   -0.000386
  18 S :    0.009309   -0.000113
  19 S :    0.009483   -0.000112
  20 S :    0.007744   -0.000074
  21 S :    0.007716   -0.000076
  22 C :   -0.300695    0.000007
  23 C :   -0.300200    0.000007
  24 C :   -0.158188   -0.000022
  25 H :    0.143581   -0.000002
  26 H :    0.113710   -0.000003
  27 H :    0.083404    0.000000
  28 H :    0.092117   -0.000000
  29 H :    0.113373   -0.000004
  30 H :    0.143175   -0.000002
  31 C :   -0.299165    0.000190
  32 C :   -0.299990    0.000185
  33 C :   -0.158062   -0.000235
  34 H :    0.141414   -0.000017
  35 H :    0.113377    0.000019
  36 H :    0.092246    0.000023
  37 H :    0.082473    0.000015
  38 H :    0.113343    0.000020
  39 H :    0.141416   -0.000018
Sum of atomic charges         :   -2.0000000

LOEWDIN ATOMIC CHARGES AND SPIN POPULATIONS
-------------------------------------------
   0 V :   -0.156052    1.163536
   1 S :    0.080011   -0.014248
   2 S :    0.079735   -0.016148
   3 S :    0.081272   -0.015001
   4 S :    0.083653   -0.016370
   5 O :   -0.319549   -0.131277
   6 C :   -0.550032    0.009000
   7 C :   -0.552214    0.007911
   8 C :   -0.552373    0.008101
   9 C :   -0.552379    0.007653
  10 S :    0.470996   -0.000896
  11 S :    0.471943   -0.000945
  12 S :    0.471170   -0.000833
  13 S :    0.470440   -0.000841
  14 C :   -0.465093    0.000156
  15 C :   -0.465091   -0.000083
  16 C :   -0.622639    0.000447
  17 C :   -0.622187    0.000089
  18 S :    0.358748   -0.000090
  19 S :    0.360102   -0.000087
  20 S :    0.358509   -0.000076
  21 S :    0.358105   -0.000078
  22 C :   -0.283179   -0.000006
  23 C :   -0.283302   -0.000007
  24 C :   -0.176169   -0.000001
  25 H :    0.062753   -0.000001
  26 H :    0.053605   -0.000002
  27 H :    0.058082   -0.000001
  28 H :    0.060212   -0.000001
  29 H :    0.053570   -0.000002
  30 H :    0.062581   -0.000002
  31 C :   -0.284106    0.000041
  32 C :   -0.283868    0.000034
  33 C :   -0.176423    0.000006
  34 H :    0.062042   -0.000001
  35 H :    0.053511    0.000008
  36 H :    0.060305    0.000004
  37 H :    0.057792    0.000002
  38 H :    0.053582    0.000008
  39 H :    0.061939   -0.000000

  Mayer bond orders larger than 0.100000
B(  0-V ,  1-S ) :   0.7717 B(  0-V ,  2-S ) :   0.7718 B(  0-V ,  3-S ) :   0.7649
B(  0-V ,  4-S ) :   0.7794 B(  0-V ,  5-O ) :   2.1473 B(  1-S ,  8-C ) :   1.1037
B(  2-S ,  6-C ) :   1.1049 B(  3-S ,  9-C ) :   1.1064 B(  4-S ,  7-C ) :   1.1049
B(  6-C ,  7-C ) :   1.6850 B(  6-C , 10-S ) :   0.9347 B(  7-C , 11-S ) :   0.9385
B(  8-C ,  9-C ) :   1.6995 B(  8-C , 13-S ) :   0.9333 B(  9-C , 12-S ) :   0.9352
B( 10-S , 14-C ) :   1.2485 B( 11-S , 14-C ) :   1.2485 B( 12-S , 15-C ) :   1.2464
B( 13-S , 15-C ) :   1.2465 B( 14-C , 16-C ) :   1.4513 B( 15-C , 17-C ) :   1.4535
B( 16-C , 18-S ) :   1.0883 B( 16-C , 19-S ) :   1.0894 B( 17-C , 20-S ) :   1.0879
B( 17-C , 21-S ) :   1.0887 B( 18-S , 32-C ) :   0.9917 B( 19-S , 31-C ) :   0.9917
B( 20-S , 23-C ) :   0.9913 B( 21-S , 22-C ) :   0.9903 B( 22-C , 24-C ) :   0.9135
B( 22-C , 25-H ) :   0.9657 B( 22-C , 26-H ) :   0.9655 B( 23-C , 24-C ) :   0.9139
B( 23-C , 29-H ) :   0.9656 B( 23-C , 30-H ) :   0.9655 B( 24-C , 27-H ) :   0.9624
B( 24-C , 28-H ) :   0.9717 B( 31-C , 33-C ) :   0.9137 B( 31-C , 38-H ) :   0.9656
B( 31-C , 39-H ) :   0.9657 B( 32-C , 33-C ) :   0.9135 B( 32-C , 34-H ) :   0.9656
B( 32-C , 35-H ) :   0.9656 B( 33-C , 36-H ) :   0.9717 B( 33-C , 37-H ) :   0.9623

FINAL SINGLE POINT ENERGY     -6337.706893862345

DIPOLE MOMENT
-------------
                                X             Y             Z
Electronic contribution:      6.59039      -1.19280     -13.31993
Nuclear contribution   :     -7.34160       1.34320      14.79680
                        -----------------------------------------
Total Dipole Moment    :     -0.75121       0.15040       1.47687
                        -----------------------------------------
Magnitude (a.u.)       :      1.66376
Magnitude (Debye)      :      4.22893

Rotational constants in cm-1:     0.010464     0.000807     0.000787
Rotational constants in MHz :   313.705039    24.187977    23.603666

                             ****ORCA TERMINATED NORMALLY****
TOTAL RUN TIME: 0 days 1 hours 2 minutes 5 seconds 936 msec
