                         Program Version 5.0.4 -  RELEASE  -
|  1> ! nofrozencore ReducedPop printbasis
|  2> ! B3LYP TZVP
|  3>
|  4> %basis
|  5> newgto V "CP(PPP)" end
|  6> end
|  7>
|  8> %pal
|  9> nprocs 6
| 10> end
| 11>
| 12> % sym SymThresh 1e-2 end
| 13> * xyz -2 2
| 14> V -0.1718105090587509 1.0578048938362512 -0.30082648385581023
| 15> S -1.431096059779658 -0.146510910034055 -2.056635103271878
| 16> S -2.0147087985920926 0.3966679177650228 1.213662696014246
| 17> S 1.8613513101455885 0.3771157378734455 -1.5393169190317721
| 18> S 1.2838967079847634 0.8257807564787512 1.6770777588821781
| 19> O -0.37649029955500835 2.612249272396203 -0.5578375082006299
| 20> C -1.2519318138858748 0.7432580540317354 2.7600045114994614
| 21> C 0.07087844864129758 0.9117796213973413 2.945651348139444
| 22> C -0.15352090865228454 -0.49716624884852684 -3.2124020625546645
| 23> C 1.1598746772271846 -0.2907985394078353 -3.0045197431753388
| 24> S -2.2774072102958747 0.8105576007101367 4.233714780872867
| 25> S 0.6182880217923213 1.16246046432989 4.6362848498098215
| 26> S 2.2685592731718147 -0.7875347329326349 -4.327073356499043
| 27> S -0.6058003927877332 -1.2338553129956442 -4.787526756055537
| 28> C -0.9724885424399575 1.062426936953569 5.399694504430456
| 29> C 1.0355654654318847 -1.4403333593039138 -5.411511747519832
| 30> C -1.170575653108794 1.1794570646206533 6.748027685889734
| 31> C 1.3201283597588869 -2.0330300807697492 -6.610591396137842
| 32> S -2.7981537750113166 1.1295052361667217 7.472231396227761
| 33> S 0.18518456340531494 1.4272499375386476 7.877748340805214
| 34> S 0.04186758913199874 -2.6791725770540955 -7.670405663676634
| 35> S 2.995667682262081 -2.2364977494846316 -7.184204433226667
| 36> C 3.018868090743791 -4.091919788951985 -7.201117225340599
| 37> C 0.5138647580182194 -4.465853134141043 -7.65480645914993
| 38> C 2.080388103798403 -4.699491162235303 -8.084597262526277
| 39> H 3.046221286880085 -4.353986737848468 -6.132830382078351
| 40> H 3.959953609555341 -4.419726702982147 -7.666129652917774
| 41> H 1.8828332696559755 -5.840191637964264 -8.16677236110655
| 42> H 1.5943437906212463 -4.422402024323498 -9.209531428117064
| 43> H -0.2957153856348391 -4.930039075622699 -8.240275564000461
| 44> H 0.5094169060681275 -4.89311188901526 -6.635077837482203
| 45> C -0.29633055446638623 3.0924857544764737 8.527171288855566
| 46> C -2.832305150716149 2.842145453884226 8.175754119741372
| 47> C -1.6917117167764666 3.1280598570535427 9.154753920715313
| 48> H -2.818172855548682 3.550412738962013 7.344295839899959
| 49> H -3.7968948771633024 2.9288995146472834 8.682204002551826
| 50> H -1.7343922736624664 2.412346331628273 9.981822232955741
| 51> H -1.8483622943394007 4.129101380586212 9.580526862678035
| 52> H 0.46242987957162707 3.34347933477209 9.272658044868601
| 53> H -0.2205491992744612 3.810444030707485 7.707405140495151
| 54> *
| 55>
| 56> % eprnmr
| 57> gtensor true
| 58> Nuclei = all H {aiso,adip,aorb,fgrad,rho}
| 59> Nuclei = all V {aiso,adip,aorb,fgrad,rho}
| 60> end
| 61>
| 62>                          ****END OF INPUT****

CARTESIAN COORDINATES (ANGSTROEM)
---------------------------------
  V     -0.171876    1.055315   -0.297912
  S     -1.431162   -0.149000   -2.053720
  S     -2.014775    0.394179    1.216578
  S      1.861286    0.374626   -1.536402
  S      1.283831    0.823291    1.679993
  O     -0.376556    2.609760   -0.554923
  C     -1.251998    0.740769    2.762919
  C      0.070813    0.909290    2.948566
  C     -0.153587   -0.499656   -3.209487
  C      1.159809   -0.293288   -3.001605
  S     -2.277473    0.808068    4.236630
  S      0.618222    1.159971    4.639200
  S      2.268494   -0.790024   -4.324158
  S     -0.605866   -1.236345   -4.784612
  C     -0.972554    1.059938    5.402609
  C      1.035500   -1.442823   -5.408597
  C     -1.170641    1.176968    6.750943
  C      1.320063   -2.035519   -6.607677
  S     -2.798220    1.127016    7.475146
  S      0.185119    1.424761    7.880663
  S      0.041802   -2.681662   -7.667491
  S      2.995602   -2.238987   -7.181290
  C      3.018802   -4.094409   -7.198202
  C      0.513799   -4.468343   -7.651892
  C      2.080322   -4.701981   -8.081682
  H      3.046156   -4.356476   -6.129915
  H      3.959888   -4.422216   -7.663215
  H      1.882768   -5.842681   -8.163857
  H      1.594278   -4.424891   -9.206617
  H     -0.295781   -4.932528   -8.237361
  H      0.509351   -4.895601   -6.632163
  C     -0.296396    3.089996    8.530086
  C     -2.832371    2.839656    8.178669
  C     -1.691777    3.125570    9.157669
  H     -2.818239    3.547923    7.347211
  H     -3.796961    2.926410    8.685119
  H     -1.734458    2.409857    9.984737
  H     -1.848428    4.126612    9.583442
  H      0.462364    3.340990    9.275573
  H     -0.220615    3.807955    7.710320

 Total Charge           Charge          ....   -2
 Multiplicity           Mult            ....    2
 Number of Electrons    NEL             ....  321
 Basis Dimension        Dim             ....  681

ORBITAL ENERGIES
----------------
                 SPIN UP ORBITALS
  NO   OCC          E(Eh)            E(eV)
   0   1.0000    -196.675243     -5351.8054
   1   1.0000     -88.737346     -2414.6659
   2   1.0000     -88.733338     -2414.5569
   3   1.0000     -88.733332     -2414.5567
   4   1.0000     -88.733038     -2414.5487
   5   1.0000     -88.731562     -2414.5086
   6   1.0000     -88.731122     -2414.4966
   7   1.0000     -88.730420     -2414.4775
   8   1.0000     -88.730234     -2414.4724
   9   1.0000     -88.640461     -2412.0296
  10   1.0000     -88.639971     -2412.0162
  11   1.0000     -88.639957     -2412.0159
  12   1.0000     -88.639731     -2412.0097
  13   1.0000     -22.050636      -600.0283
  14   1.0000     -18.890546      -514.0379
  15   1.0000     -18.557084      -504.9639
  16   1.0000     -18.551912      -504.8232
  17   1.0000     -18.551812      -504.8205
  18   1.0000     -10.077184      -274.2141
  19   1.0000     -10.075961      -274.1808
  20   1.0000     -10.071458      -274.0583
  21   1.0000     -10.070842      -274.0415
  22   1.0000     -10.066710      -273.9291
  23   1.0000     -10.063631      -273.8453
  24   1.0000     -10.063548      -273.8431
  25   1.0000     -10.051430      -273.5133
  26   1.0000     -10.049813      -273.4693
  27   1.0000     -10.048426      -273.4316
  28   1.0000     -10.018856      -272.6269
  29   1.0000     -10.018405      -272.6147
  30   1.0000     -10.018062      -272.6053
  31   1.0000     -10.017471      -272.5892
  32   1.0000      -7.790712      -211.9961
  33   1.0000      -7.786783      -211.8892
  34   1.0000      -7.786773      -211.8889
  35   1.0000      -7.786528      -211.8822
  36   1.0000      -7.784862      -211.8369
  37   1.0000      -7.784347      -211.8229
  38   1.0000      -7.783667      -211.8044
  39   1.0000      -7.783533      -211.8007
  40   1.0000      -7.694730      -209.3842
  41   1.0000      -7.694296      -209.3724
  42   1.0000      -7.694287      -209.3722
  43   1.0000      -7.693993      -209.3642
  44   1.0000      -5.755780      -156.6227
  45   1.0000      -5.752385      -156.5303
  46   1.0000      -5.751772      -156.5137
  47   1.0000      -5.751771      -156.5136
  48   1.0000      -5.751469      -156.5054
  49   1.0000      -5.749803      -156.4601
  50   1.0000      -5.749289      -156.4461
  51   1.0000      -5.748615      -156.4278
  52   1.0000      -5.748478      -156.4240
  53   1.0000      -5.748353      -156.4206
  54   1.0000      -5.748351      -156.4206
  55   1.0000      -5.748004      -156.4111
  56   1.0000      -5.745374      -156.3396
  57   1.0000      -5.745301      -156.3376
  58   1.0000      -5.744869      -156.3258
  59   1.0000      -5.744178      -156.3070
  60   1.0000      -5.744037      -156.3032
  61   1.0000      -5.741578      -156.2363
  62   1.0000      -5.741565      -156.2359
  63   1.0000      -5.741471      -156.2334
  64   1.0000      -5.740691      -156.2121
  65   1.0000      -5.740167      -156.1979
  66   1.0000      -5.739494      -156.1796
  67   1.0000      -5.739360      -156.1759
  68   1.0000      -5.660048      -154.0177
  69   1.0000      -5.659601      -154.0056
  70   1.0000      -5.659593      -154.0053
  71   1.0000      -5.659332      -153.9983
  72   1.0000      -5.653399      -153.8368
  73   1.0000      -5.652977      -153.8253
  74   1.0000      -5.652934      -153.8241
  75   1.0000      -5.652657      -153.8166
  76   1.0000      -5.652055      -153.8002
  77   1.0000      -5.651609      -153.7881
  78   1.0000      -5.651608      -153.7881
  79   1.0000      -5.651280      -153.7791
  80   1.0000      -2.444278       -66.5122
  81   1.0000      -1.485580       -40.4247
  82   1.0000      -1.473917       -40.1073
  83   1.0000      -1.473103       -40.0852
  84   1.0000      -0.712138       -19.3782
  85   1.0000      -0.709668       -19.3111
  86   1.0000      -0.688685       -18.7401
  87   1.0000      -0.685800       -18.6616
  88   1.0000      -0.650134       -17.6910
  89   1.0000      -0.634449       -17.2642
  90   1.0000      -0.631510       -17.1843
  91   1.0000      -0.619191       -16.8491
  92   1.0000      -0.617414       -16.8007
  93   1.0000      -0.575799       -15.6683
  94   1.0000      -0.574604       -15.6358
  95   1.0000      -0.573856       -15.6154
  96   1.0000      -0.572944       -15.5906
  97   1.0000      -0.501119       -13.6361
  98   1.0000      -0.496675       -13.5152
  99   1.0000      -0.496048       -13.4981
 100   1.0000      -0.493862       -13.4387
 101   1.0000      -0.481140       -13.0925
 102   1.0000      -0.477917       -13.0048
 103   1.0000      -0.446684       -12.1549
 104   1.0000      -0.439032       -11.9467
 105   1.0000      -0.415871       -11.3164
 106   1.0000      -0.410946       -11.1824
 107   1.0000      -0.355512        -9.6740
 108   1.0000      -0.352133        -9.5820
 109   1.0000      -0.328637        -8.9427
 110   1.0000      -0.326828        -8.8935
 111   1.0000      -0.321460        -8.7474
 112   1.0000      -0.318240        -8.6598
 113   1.0000      -0.314706        -8.5636
 114   1.0000      -0.304112        -8.2753
 115   1.0000      -0.294892        -8.0244
 116   1.0000      -0.292604        -7.9622
 117   1.0000      -0.268706        -7.3119
 118   1.0000      -0.257399        -7.0042
 119   1.0000      -0.257107        -6.9962
 120   1.0000      -0.254058        -6.9133
 121   1.0000      -0.235766        -6.4155
 122   1.0000      -0.234567        -6.3829
 123   1.0000      -0.230745        -6.2789
 124   1.0000      -0.221942        -6.0393
 125   1.0000      -0.218682        -5.9506
 126   1.0000      -0.215580        -5.8662
 127   1.0000      -0.214020        -5.8238
 128   1.0000      -0.193717        -5.2713
 129   1.0000      -0.188119        -5.1190
 130   1.0000      -0.186253        -5.0682
 131   1.0000      -0.183700        -4.9987
 132   1.0000      -0.180101        -4.9008
 133   1.0000      -0.164973        -4.4891
 134   1.0000      -0.159529        -4.3410
 135   1.0000      -0.151347        -4.1184
 136   1.0000      -0.146974        -3.9994
 137   1.0000      -0.135991        -3.7005
 138   1.0000      -0.133705        -3.6383
 139   1.0000      -0.133165        -3.6236
 140   1.0000      -0.125294        -3.4094
 141   1.0000      -0.121479        -3.3056
 142   1.0000      -0.113826        -3.0974
 143   1.0000      -0.109920        -2.9911
 144   1.0000      -0.100329        -2.7301
 145   1.0000      -0.098573        -2.6823
 146   1.0000      -0.097426        -2.6511
 147   1.0000      -0.094947        -2.5836
 148   1.0000      -0.074885        -2.0377
 149   1.0000      -0.067889        -1.8473
 150   1.0000      -0.067454        -1.8355
 151   1.0000      -0.052672        -1.4333
 152   1.0000      -0.045956        -1.2505
 153   1.0000      -0.038112        -1.0371
 154   1.0000      -0.037486        -1.0200
 155   1.0000      -0.031774        -0.8646
 156   1.0000      -0.025382        -0.6907
 157   1.0000      -0.019466        -0.5297
 158   1.0000      -0.015767        -0.4290
 159   1.0000       0.019971         0.5434
 160   1.0000       0.040839         1.1113
 161   0.0000       0.132752         3.6124
 162   0.0000       0.136723         3.7204
 163   0.0000       0.152228         4.1423
 164   0.0000       0.161868         4.4046
 165   0.0000       0.167134         4.5479

                 SPIN DOWN ORBITALS
  NO   OCC          E(Eh)            E(eV)
   0   1.0000    -196.675390     -5351.8094
   1   1.0000     -88.737347     -2414.6660
   2   1.0000     -88.733339     -2414.5569
   3   1.0000     -88.733332     -2414.5567
   4   1.0000     -88.733038     -2414.5487
   5   1.0000     -88.731570     -2414.5088
   6   1.0000     -88.731130     -2414.4968
   7   1.0000     -88.730428     -2414.4777
   8   1.0000     -88.730243     -2414.4727
   9   1.0000     -88.640597     -2412.0333
  10   1.0000     -88.640110     -2412.0200
  11   1.0000     -88.640097     -2412.0197
  12   1.0000     -88.639872     -2412.0135
  13   1.0000     -22.035709      -599.6221
  14   1.0000     -18.894323      -514.1407
  15   1.0000     -18.551821      -504.8207
  16   1.0000     -18.535881      -504.3870
  17   1.0000     -18.535700      -504.3820
  18   1.0000     -10.077183      -274.2141
  19   1.0000     -10.075955      -274.1807
  20   1.0000     -10.071458      -274.0583
  21   1.0000     -10.070842      -274.0415
  22   1.0000     -10.066710      -273.9291
  23   1.0000     -10.063630      -273.8453
  24   1.0000     -10.063547      -273.8430
  25   1.0000     -10.051430      -273.5133
  26   1.0000     -10.049809      -273.4692
  27   1.0000     -10.048414      -273.4313
  28   1.0000     -10.018642      -272.6211
  29   1.0000     -10.018166      -272.6082
  30   1.0000     -10.017850      -272.5996
  31   1.0000     -10.017248      -272.5832
  32   1.0000      -7.790713      -211.9961
  33   1.0000      -7.786784      -211.8892
  34   1.0000      -7.786774      -211.8889
  35   1.0000      -7.786528      -211.8822
  36   1.0000      -7.784871      -211.8371
  37   1.0000      -7.784356      -211.8231
  38   1.0000      -7.783677      -211.8046
  39   1.0000      -7.783543      -211.8010
  40   1.0000      -7.694857      -209.3877
  41   1.0000      -7.694425      -209.3759
  42   1.0000      -7.694417      -209.3757
  43   1.0000      -7.694125      -209.3678
  44   1.0000      -5.755781      -156.6228
  45   1.0000      -5.752386      -156.5304
  46   1.0000      -5.751773      -156.5137
  47   1.0000      -5.751772      -156.5137
  48   1.0000      -5.751470      -156.5054
  49   1.0000      -5.749813      -156.4604
  50   1.0000      -5.749299      -156.4464
  51   1.0000      -5.748626      -156.4281
  52   1.0000      -5.748489      -156.4243
  53   1.0000      -5.748354      -156.4207
  54   1.0000      -5.748352      -156.4206
  55   1.0000      -5.748005      -156.4112
  56   1.0000      -5.745388      -156.3400
  57   1.0000      -5.745302      -156.3376
  58   1.0000      -5.744883      -156.3262
  59   1.0000      -5.744192      -156.3074
  60   1.0000      -5.744050      -156.3036
  61   1.0000      -5.741579      -156.2363
  62   1.0000      -5.741566      -156.2359
  63   1.0000      -5.741472      -156.2334
  64   1.0000      -5.740697      -156.2123
  65   1.0000      -5.740173      -156.1981
  66   1.0000      -5.739502      -156.1798
  67   1.0000      -5.739369      -156.1762
  68   1.0000      -5.660189      -154.0216
  69   1.0000      -5.659742      -154.0094
  70   1.0000      -5.659731      -154.0091
  71   1.0000      -5.659474      -154.0021
  72   1.0000      -5.653748      -153.8463
  73   1.0000      -5.653336      -153.8351
  74   1.0000      -5.653321      -153.8347
  75   1.0000      -5.653040      -153.8270
  76   1.0000      -5.652160      -153.8031
  77   1.0000      -5.651714      -153.7910
  78   1.0000      -5.651694      -153.7904
  79   1.0000      -5.651374      -153.7817
  80   1.0000      -2.399407       -65.2912
  81   1.0000      -1.466300       -39.9000
  82   1.0000      -1.411556       -38.4104
  83   1.0000      -1.411393       -38.4059
  84   1.0000      -0.712125       -19.3779
  85   1.0000      -0.709642       -19.3103
  86   1.0000      -0.688641       -18.7389
  87   1.0000      -0.685744       -18.6601
  88   1.0000      -0.658235       -17.9115
  89   1.0000      -0.634397       -17.2628
  90   1.0000      -0.631434       -17.1822
  91   1.0000      -0.619186       -16.8489
  92   1.0000      -0.617413       -16.8007
  93   1.0000      -0.575775       -15.6676
  94   1.0000      -0.574575       -15.6350
  95   1.0000      -0.573780       -15.6134
  96   1.0000      -0.572870       -15.5886
  97   1.0000      -0.501145       -13.6369
  98   1.0000      -0.496690       -13.5156
  99   1.0000      -0.496092       -13.4994
 100   1.0000      -0.493895       -13.4396
 101   1.0000      -0.481346       -13.0981
 102   1.0000      -0.478169       -13.0117
 103   1.0000      -0.446711       -12.1556
 104   1.0000      -0.439075       -11.9478
 105   1.0000      -0.415869       -11.3164
 106   1.0000      -0.411048       -11.1852
 107   1.0000      -0.355502        -9.6737
 108   1.0000      -0.352128        -9.5819
 109   1.0000      -0.328630        -8.9425
 110   1.0000      -0.326814        -8.8931
 111   1.0000      -0.321421        -8.7463
 112   1.0000      -0.318194        -8.6585
 113   1.0000      -0.314729        -8.5642
 114   1.0000      -0.304069        -8.2741
 115   1.0000      -0.294863        -8.0236
 116   1.0000      -0.292599        -7.9620
 117   1.0000      -0.268649        -7.3103
 118   1.0000      -0.257269        -7.0006
 119   1.0000      -0.257041        -6.9944
 120   1.0000      -0.254010        -6.9120
 121   1.0000      -0.235706        -6.4139
 122   1.0000      -0.234542        -6.3822
 123   1.0000      -0.230708        -6.2779
 124   1.0000      -0.221749        -6.0341
 125   1.0000      -0.218412        -5.9433
 126   1.0000      -0.215317        -5.8591
 127   1.0000      -0.213919        -5.8210
 128   1.0000      -0.191947        -5.2231
 129   1.0000      -0.187992        -5.1155
 130   1.0000      -0.185933        -5.0595
 131   1.0000      -0.183540        -4.9944
 132   1.0000      -0.179994        -4.8979
 133   1.0000      -0.164886        -4.4868
 134   1.0000      -0.158939        -4.3249
 135   1.0000      -0.151191        -4.1141
 136   1.0000      -0.146900        -3.9973
 137   1.0000      -0.135358        -3.6833
 138   1.0000      -0.133477        -3.6321
 139   1.0000      -0.132780        -3.6131
 140   1.0000      -0.124756        -3.3948
 141   1.0000      -0.121153        -3.2967
 142   1.0000      -0.115610        -3.1459
 143   1.0000      -0.111495        -3.0339
 144   1.0000      -0.100338        -2.7303
 145   1.0000      -0.098876        -2.6905
 146   1.0000      -0.097415        -2.6508
 147   1.0000      -0.095259        -2.5921
 148   1.0000      -0.071057        -1.9336
 149   1.0000      -0.067871        -1.8469
 150   1.0000      -0.067453        -1.8355
 151   1.0000      -0.050078        -1.3627
 152   1.0000      -0.045017        -1.2250
 153   1.0000      -0.038149        -1.0381
 154   1.0000      -0.036925        -1.0048
 155   1.0000      -0.031830        -0.8661
 156   1.0000      -0.026413        -0.7187
 157   1.0000      -0.015980        -0.4348
 158   1.0000       0.020271         0.5516
 159   1.0000       0.039733         1.0812
 160   0.0000       0.132746         3.6122
 161   0.0000       0.136732         3.7207
 162   0.0000       0.151977         4.1355
 163   0.0000       0.156047         4.2463
 164   0.0000       0.162514         4.4222

MULLIKEN ATOMIC CHARGES AND SPIN POPULATIONS
--------------------------------------------
   0 V :    0.471113    1.210421
   1 S :   -0.289568   -0.022365
   2 S :   -0.289619   -0.025252
   3 S :   -0.288475   -0.023281
   4 S :   -0.285532   -0.025720
   5 O :   -0.467494   -0.146564
   6 C :   -0.077327    0.009708
   7 C :   -0.084329    0.008070
   8 C :   -0.084453    0.007744
   9 C :   -0.085738    0.007365
  10 S :    0.099687   -0.000585
  11 S :    0.101054   -0.000626
  12 S :    0.097576   -0.000389
  13 S :    0.104011   -0.000340
  14 C :   -0.213691    0.001507
  15 C :   -0.213228    0.000969
  16 C :   -0.191602   -0.000065
  17 C :   -0.185518   -0.000387
  18 S :    0.009063   -0.000115
  19 S :    0.009240   -0.000114
  20 S :    0.008166   -0.000071
  21 S :    0.017314   -0.000071
  22 C :   -0.283594   -0.000005
  23 C :   -0.356117    0.000002
  24 C :   -0.142449   -0.000010
  25 H :    0.166613   -0.000001
  26 H :    0.113948   -0.000002
  27 H :    0.081484   -0.000001
  28 H :    0.072308   -0.000004
  29 H :    0.123775   -0.000006
  30 H :    0.135744   -0.000002
  31 C :   -0.300007    0.000196
  32 C :   -0.300659    0.000192
  33 C :   -0.157575   -0.000239
  34 H :    0.142140   -0.000018
  35 H :    0.113520    0.000019
  36 H :    0.092219    0.000023
  37 H :    0.082646    0.000015
  38 H :    0.113357    0.000020
  39 H :    0.141995   -0.000018
Sum of atomic charges         :   -2.0000000

LOEWDIN ATOMIC CHARGES AND SPIN POPULATIONS
-------------------------------------------
   0 V :   -0.155811    1.163805
   1 S :    0.080896   -0.014402
   2 S :    0.079463   -0.016107
   3 S :    0.081320   -0.015185
   4 S :    0.083261   -0.016328
   5 O :   -0.318846   -0.131484
   6 C :   -0.549905    0.009058
   7 C :   -0.552099    0.007955
   8 C :   -0.551896    0.008137
   9 C :   -0.552404    0.007662
  10 S :    0.471302   -0.000901
  11 S :    0.472247   -0.000949
  12 S :    0.470817   -0.000824
  13 S :    0.473833   -0.000827
  14 C :   -0.465067    0.000158
  15 C :   -0.464722   -0.000082
  16 C :   -0.622655    0.000480
  17 C :   -0.622449    0.000084
  18 S :    0.358811   -0.000090
  19 S :    0.360129   -0.000088
  20 S :    0.357150   -0.000072
  21 S :    0.369438   -0.000076
  22 C :   -0.290190   -0.000008
  23 C :   -0.316231   -0.000009
  24 C :   -0.212343   -0.000002
  25 H :    0.077505   -0.000001
  26 H :    0.064290   -0.000002
  27 H :    0.068181   -0.000002
  28 H :    0.095176   -0.000003
  29 H :    0.052563   -0.000003
  30 H :    0.053019   -0.000002
  31 C :   -0.284047    0.000043
  32 C :   -0.283737    0.000037
  33 C :   -0.176304    0.000006
  34 H :    0.062143   -0.000001
  35 H :    0.053560    0.000008
  36 H :    0.060240    0.000004
  37 H :    0.057817    0.000002
  38 H :    0.053583    0.000009
  39 H :    0.061960   -0.000001

  Mayer bond orders larger than 0.100000
B(  0-V ,  1-S ) :   0.7709 B(  0-V ,  2-S ) :   0.7719 B(  0-V ,  3-S ) :   0.7640
B(  0-V ,  4-S ) :   0.7790 B(  0-V ,  5-O ) :   2.1489 B(  1-S ,  8-C ) :   1.1053
B(  2-S ,  6-C ) :   1.1042 B(  3-S ,  9-C ) :   1.1067 B(  4-S ,  7-C ) :   1.1045
B(  6-C ,  7-C ) :   1.6846 B(  6-C , 10-S ) :   0.9350 B(  7-C , 11-S ) :   0.9390
B(  8-C ,  9-C ) :   1.6965 B(  8-C , 13-S ) :   0.9339 B(  9-C , 12-S ) :   0.9364
B( 10-S , 14-C ) :   1.2486 B( 11-S , 14-C ) :   1.2484 B( 12-S , 15-C ) :   1.2438
B( 13-S , 15-C ) :   1.2508 B( 14-C , 16-C ) :   1.4513 B( 15-C , 17-C ) :   1.4719
B( 16-C , 18-S ) :   1.0878 B( 16-C , 19-S ) :   1.0894 B( 17-C , 20-S ) :   1.0759
B( 17-C , 21-S ) :   1.0819 B( 18-S , 32-C ) :   0.9916 B( 19-S , 31-C ) :   0.9920
B( 20-S , 23-C ) :   0.9937 B( 21-S , 22-C ) :   0.9548 B( 22-C , 24-C ) :   0.9857
B( 22-C , 25-H ) :   0.9529 B( 22-C , 26-H ) :   0.9664 B( 23-C , 24-C ) :   0.8377
B( 23-C , 29-H ) :   0.9592 B( 23-C , 30-H ) :   0.9546 B( 24-C , 27-H ) :   0.9651
B( 24-C , 28-H ) :   0.9417 B( 31-C , 33-C ) :   0.9134 B( 31-C , 38-H ) :   0.9655
B( 31-C , 39-H ) :   0.9659 B( 32-C , 33-C ) :   0.9134 B( 32-C , 34-H ) :   0.9657
B( 32-C , 35-H ) :   0.9656 B( 33-C , 36-H ) :   0.9718 B( 33-C , 37-H ) :   0.9624

FINAL SINGLE POINT ENERGY     -6337.629179899852

DIPOLE MOMENT
-------------
                                X             Y             Z
Electronic contribution:     -1.31351      11.79349      -6.60388
Nuclear contribution   :      1.47999     -12.98809       7.52947
                        -----------------------------------------
Total Dipole Moment    :      0.16648      -1.19459       0.92559
                        -----------------------------------------
Magnitude (a.u.)       :      1.52036
Magnitude (Debye)      :      3.86444

Rotational constants in cm-1:     0.010758     0.000804     0.000783
Rotational constants in MHz :   322.518722    24.116059    23.486213

                             ****ORCA TERMINATED NORMALLY****
TOTAL RUN TIME: 0 days 1 hours 6 minutes 30 seconds 685 msec
