                         Program Version 5.0.4 -  RELEASE  -
|  1> ! nofrozencore ReducedPop printbasis
|  2> ! B3LYP TZVP
|  3>
|  4> %basis
|  5> newgto V "CP(PPP)" end
|  6> end
|  7>
|  8> %pal
|  9> nprocs 8
| 10> end
| 11>
| 12> % sym SymThresh 1e-2 end
| 13> * xyz -2 2
| 14> V 0.5197941124695972 0.7380506466020268 -0.6512053910052297
| 15> S -0.21908189480709328 2.186191971684118 1.213245210488234
| 16> S 2.1828620980199718 -0.15762320082242878 0.9485467780201139
| 17> S -1.8401983366942252 0.7967671044370509 -1.398383704430513
| 18> S 0.4786013096673689 -1.5415500921828633 -1.5929746780801894
| 19> O 1.3497856340120695 1.649173376318466 -1.653840004210198
| 20> C 2.681683829318651 -1.5951799637569462 0.06976439522593295
| 21> C 1.9936809074965436 -2.1535104475141176 -0.9505757358008368
| 22> C -1.8546238088287883 2.5776125709506803 0.7231675199318749
| 23> C -2.5119840591754308 2.011711456201115 -0.33373476721599504
| 24> S 4.1714132267327715 -2.4544781957289428 0.5862253215301032
| 25> S 2.659818129166546 -3.6757017337245306 -1.6260961016743305
| 26> S -4.202740003796716 2.5459026892246923 -0.5903531353378721
| 27> S -2.786350601036546 3.7708087045140117 1.682452816826265
| 28> C 4.0556358830829495 -3.795982458844617 -0.5542910373485682
| 29> C -4.289135170109597 3.6254031872160737 0.7890388195611441
| 30> C 4.968624498989556 -4.828624224629465 -0.6128053924308026
| 31> C -5.467055490884405 4.324699137384101 1.1450315268816282
| 32> S 6.39465424526892 -4.88294254280204 0.4492646692164124
| 33> S 4.7978251860740775 -6.1592124812072955 -1.7810433608117184
| 34> S -5.5061978333142605 5.402437382987496 2.5472034236506453
| 35> S -6.963946591850469 4.128034358144762 0.22200663262072595
| 36> C -8.002047120665797 3.403202674979396 1.5756841508698107
| 37> C -6.773983293194855 4.484437973111632 3.540181863370215
| 38> C -8.131361960538458 4.291552503202238 2.8309905080285542
| 39> H -7.641364850886433 2.3861519062962233 1.7702523123191407
| 40> H -8.983854643766836 3.189088748703059 1.1305809895176016
| 41> H -8.600132168560902 3.523253605767761 3.547841548421577
| 42> H -8.256988616009927 5.323251775311004 2.3405521824265514
| 43> H -6.888504883340741 5.040945370990766 4.480631501612079
| 44> H -6.313282863487248 3.557638103245429 3.901411639780211
| 45> C 6.349628691351335 -5.87326437460686 -2.7497898331763118
| 46> C 7.703269875388447 -4.783056414804311 -0.8577794829565328
| 47> C 7.625962300765209 -5.903739576035299 -1.901188766843345
| 48> H 7.643609559892536 -3.795798179992264 -1.3223021249630647
| 49> H 8.656347057425196 -4.822604316246888 -0.3226174533034777
| 50> H 7.6415882265640045 -6.857822621320733 -1.3620419858543382
| 51> H 8.461510250194538 -5.7359506796448825 -2.5960093529621844
| 52> H 6.372844173492662 -6.662911576226809 -3.5062334796984636
| 53> H 6.244320404330375 -4.926402102961388 -3.2849385951986916
| 54> *
| 55>
| 56> % eprnmr
| 57> gtensor true
| 58> Nuclei = all H {aiso,adip,aorb,fgrad,rho}
| 59> Nuclei = all V {aiso,adip,aorb,fgrad,rho}
| 60> end
| 61>
| 62>                          ****END OF INPUT****

CARTESIAN COORDINATES (ANGSTROEM)
---------------------------------
  V      0.520046    0.734612   -0.649528
  S     -0.218830    2.182754    1.214923
  S      2.183114   -0.161061    0.950224
  S     -1.839946    0.793329   -1.396706
  S      0.478853   -1.544988   -1.591297
  O      1.350038    1.645735   -1.652162
  C      2.681936   -1.598618    0.071442
  C      1.993933   -2.156949   -0.948898
  C     -1.854372    2.574174    0.724845
  C     -2.511732    2.008273   -0.332057
  S      4.171665   -2.457916    0.587903
  S      2.660070   -3.679140   -1.624419
  S     -4.202488    2.542465   -0.588676
  S     -2.786099    3.767371    1.684130
  C      4.055888   -3.799421   -0.552613
  C     -4.288883    3.621965    0.790716
  C      4.968876   -4.832062   -0.611128
  C     -5.466804    4.321261    1.146709
  S      6.394906   -4.886381    0.450942
  S      4.798077   -6.162651   -1.779366
  S     -5.505946    5.398999    2.548881
  S     -6.963695    4.124596    0.223684
  C     -8.001795    3.399765    1.577362
  C     -6.773731    4.481000    3.541859
  C     -8.131110    4.288114    2.832668
  H     -7.641113    2.382714    1.771930
  H     -8.983603    3.185651    1.132259
  H     -8.599880    3.519815    3.549519
  H     -8.256737    5.319814    2.342230
  H     -6.888253    5.037507    4.482309
  H     -6.313031    3.554200    3.903089
  C      6.349881   -5.876703   -2.748112
  C      7.703522   -4.786495   -0.856102
  C      7.626214   -5.907178   -1.899511
  H      7.643862   -3.799236   -1.320625
  H      8.656599   -4.826042   -0.320940
  H      7.641840   -6.861261   -1.360364
  H      8.461762   -5.739389   -2.594332
  H      6.373096   -6.666350   -3.504556
  H      6.244572   -4.929840   -3.283261

 Total Charge           Charge          ....   -2
 Multiplicity           Mult            ....    2
 Number of Electrons    NEL             ....  321
 Basis Dimension        Dim             ....  681

ORBITAL ENERGIES
----------------
                 SPIN UP ORBITALS
  NO   OCC          E(Eh)            E(eV)
   0   1.0000    -196.676224     -5351.8321
   1   1.0000     -88.733205     -2414.5533
   2   1.0000     -88.733194     -2414.5530
   3   1.0000     -88.732809     -2414.5425
   4   1.0000     -88.732751     -2414.5409
   5   1.0000     -88.732499     -2414.5341
   6   1.0000     -88.732462     -2414.5330
   7   1.0000     -88.731359     -2414.5030
   8   1.0000     -88.731190     -2414.4984
   9   1.0000     -88.641512     -2412.0582
  10   1.0000     -88.641004     -2412.0443
  11   1.0000     -88.640861     -2412.0405
  12   1.0000     -88.640653     -2412.0348
  13   1.0000     -22.051616      -600.0550
  14   1.0000     -18.891483      -514.0634
  15   1.0000     -18.558044      -504.9901
  16   1.0000     -18.552903      -504.8502
  17   1.0000     -18.552796      -504.8472
  18   1.0000     -10.078592      -274.2524
  19   1.0000     -10.076976      -274.2085
  20   1.0000     -10.064409      -273.8665
  21   1.0000     -10.062769      -273.8219
  22   1.0000     -10.062722      -273.8206
  23   1.0000     -10.060245      -273.7532
  24   1.0000     -10.060228      -273.7527
  25   1.0000     -10.052472      -273.5417
  26   1.0000     -10.048499      -273.4335
  27   1.0000     -10.047468      -273.4055
  28   1.0000     -10.021357      -272.6950
  29   1.0000     -10.020682      -272.6766
  30   1.0000     -10.019660      -272.6488
  31   1.0000     -10.018740      -272.6238
  32   1.0000      -7.786662      -211.8858
  33   1.0000      -7.786642      -211.8853
  34   1.0000      -7.786228      -211.8740
  35   1.0000      -7.786197      -211.8732
  36   1.0000      -7.785921      -211.8657
  37   1.0000      -7.785884      -211.8647
  38   1.0000      -7.784657      -211.8313
  39   1.0000      -7.784525      -211.8277
  40   1.0000      -7.695883      -209.4156
  41   1.0000      -7.695455      -209.4040
  42   1.0000      -7.695217      -209.3975
  43   1.0000      -7.694920      -209.3894
  44   1.0000      -5.751635      -156.5099
  45   1.0000      -5.751622      -156.5096
  46   1.0000      -5.751045      -156.4939
  47   1.0000      -5.751011      -156.4930
  48   1.0000      -5.750818      -156.4877
  49   1.0000      -5.750774      -156.4865
  50   1.0000      -5.749562      -156.4535
  51   1.0000      -5.749438      -156.4502
  52   1.0000      -5.748222      -156.4171
  53   1.0000      -5.748208      -156.4167
  54   1.0000      -5.747419      -156.3952
  55   1.0000      -5.747390      -156.3944
  56   1.0000      -5.746692      -156.3754
  57   1.0000      -5.746664      -156.3747
  58   1.0000      -5.745165      -156.3339
  59   1.0000      -5.745019      -156.3299
  60   1.0000      -5.742209      -156.2534
  61   1.0000      -5.742178      -156.2526
  62   1.0000      -5.741490      -156.2339
  63   1.0000      -5.741463      -156.2331
  64   1.0000      -5.740914      -156.2182
  65   1.0000      -5.740878      -156.2172
  66   1.0000      -5.740523      -156.2076
  67   1.0000      -5.740386      -156.2038
  68   1.0000      -5.661141      -154.0475
  69   1.0000      -5.660699      -154.0354
  70   1.0000      -5.660499      -154.0300
  71   1.0000      -5.660234      -154.0228
  72   1.0000      -5.654536      -153.8677
  73   1.0000      -5.654110      -153.8562
  74   1.0000      -5.653857      -153.8493
  75   1.0000      -5.653595      -153.8421
  76   1.0000      -5.653265      -153.8332
  77   1.0000      -5.652831      -153.8214
  78   1.0000      -5.652551      -153.8137
  79   1.0000      -5.652225      -153.8049
  80   1.0000      -2.445275       -66.5393
  81   1.0000      -1.486551       -40.4511
  82   1.0000      -1.474946       -40.1353
  83   1.0000      -1.474099       -40.1123
  84   1.0000      -0.709490       -19.3062
  85   1.0000      -0.708120       -19.2689
  86   1.0000      -0.686216       -18.6729
  87   1.0000      -0.685969       -18.6662
  88   1.0000      -0.651042       -17.7158
  89   1.0000      -0.630895       -17.1675
  90   1.0000      -0.627175       -17.0663
  91   1.0000      -0.616919       -16.7872
  92   1.0000      -0.614720       -16.7274
  93   1.0000      -0.578820       -15.7505
  94   1.0000      -0.575976       -15.6731
  95   1.0000      -0.574057       -15.6209
  96   1.0000      -0.572834       -15.5876
  97   1.0000      -0.496672       -13.5151
  98   1.0000      -0.495873       -13.4934
  99   1.0000      -0.494847       -13.4655
 100   1.0000      -0.487417       -13.2633
 101   1.0000      -0.482160       -13.1202
 102   1.0000      -0.479159       -13.0386
 103   1.0000      -0.445997       -12.1362
 104   1.0000      -0.441909       -12.0250
 105   1.0000      -0.414784       -11.2868
 106   1.0000      -0.409215       -11.1353
 107   1.0000      -0.359573        -9.7845
 108   1.0000      -0.355662        -9.6781
 109   1.0000      -0.326093        -8.8735
 110   1.0000      -0.320175        -8.7124
 111   1.0000      -0.315332        -8.5806
 112   1.0000      -0.314562        -8.5597
 113   1.0000      -0.310527        -8.4499
 114   1.0000      -0.307631        -8.3711
 115   1.0000      -0.291216        -7.9244
 116   1.0000      -0.285593        -7.7714
 117   1.0000      -0.257584        -7.0092
 118   1.0000      -0.257126        -6.9968
 119   1.0000      -0.254623        -6.9286
 120   1.0000      -0.253920        -6.9095
 121   1.0000      -0.230730        -6.2785
 122   1.0000      -0.230186        -6.2637
 123   1.0000      -0.228358        -6.2139
 124   1.0000      -0.222266        -6.0482
 125   1.0000      -0.219797        -5.9810
 126   1.0000      -0.214690        -5.8420
 127   1.0000      -0.213113        -5.7991
 128   1.0000      -0.204944        -5.5768
 129   1.0000      -0.193718        -5.2713
 130   1.0000      -0.187037        -5.0895
 131   1.0000      -0.185292        -5.0421
 132   1.0000      -0.183442        -4.9917
 133   1.0000      -0.179356        -4.8805
 134   1.0000      -0.160178        -4.3587
 135   1.0000      -0.152931        -4.1615
 136   1.0000      -0.148488        -4.0406
 137   1.0000      -0.136073        -3.7027
 138   1.0000      -0.135629        -3.6907
 139   1.0000      -0.131393        -3.5754
 140   1.0000      -0.124971        -3.4006
 141   1.0000      -0.123829        -3.3696
 142   1.0000      -0.114866        -3.1257
 143   1.0000      -0.110390        -3.0039
 144   1.0000      -0.102187        -2.7806
 145   1.0000      -0.099786        -2.7153
 146   1.0000      -0.097845        -2.6625
 147   1.0000      -0.095031        -2.5859
 148   1.0000      -0.075352        -2.0504
 149   1.0000      -0.068361        -1.8602
 150   1.0000      -0.067830        -1.8458
 151   1.0000      -0.053749        -1.4626
 152   1.0000      -0.046622        -1.2686
 153   1.0000      -0.038603        -1.0504
 154   1.0000      -0.035977        -0.9790
 155   1.0000      -0.029443        -0.8012
 156   1.0000      -0.026802        -0.7293
 157   1.0000      -0.020309        -0.5526
 158   1.0000      -0.017091        -0.4651
 159   1.0000       0.020548         0.5591
 160   1.0000       0.041178         1.1205
 161   0.0000       0.134261         3.6534
 162   0.0000       0.136120         3.7040
 163   0.0000       0.157030         4.2730
 164   0.0000       0.162456         4.4206
 165   0.0000       0.170047         4.6272

                 SPIN DOWN ORBITALS
  NO   OCC          E(Eh)            E(eV)
   0   1.0000    -196.676371     -5351.8361
   1   1.0000     -88.733206     -2414.5533
   2   1.0000     -88.733195     -2414.5530
   3   1.0000     -88.732817     -2414.5427
   4   1.0000     -88.732759     -2414.5411
   5   1.0000     -88.732499     -2414.5341
   6   1.0000     -88.732463     -2414.5331
   7   1.0000     -88.731368     -2414.5033
   8   1.0000     -88.731198     -2414.4987
   9   1.0000     -88.641647     -2412.0618
  10   1.0000     -88.641142     -2412.0481
  11   1.0000     -88.641001     -2412.0443
  12   1.0000     -88.640795     -2412.0387
  13   1.0000     -22.036678      -599.6485
  14   1.0000     -18.895276      -514.1666
  15   1.0000     -18.552771      -504.8466
  16   1.0000     -18.536862      -504.4136
  17   1.0000     -18.536678      -504.4087
  18   1.0000     -10.078592      -274.2524
  19   1.0000     -10.076970      -274.2083
  20   1.0000     -10.064409      -273.8665
  21   1.0000     -10.062768      -273.8218
  22   1.0000     -10.062721      -273.8206
  23   1.0000     -10.060245      -273.7532
  24   1.0000     -10.060228      -273.7527
  25   1.0000     -10.052472      -273.5417
  26   1.0000     -10.048487      -273.4332
  27   1.0000     -10.047464      -273.4054
  28   1.0000     -10.021146      -272.6893
  29   1.0000     -10.020473      -272.6709
  30   1.0000     -10.019423      -272.6424
  31   1.0000     -10.018518      -272.6177
  32   1.0000      -7.786663      -211.8859
  33   1.0000      -7.786643      -211.8853
  34   1.0000      -7.786237      -211.8743
  35   1.0000      -7.786206      -211.8734
  36   1.0000      -7.785921      -211.8657
  37   1.0000      -7.785884      -211.8647
  38   1.0000      -7.784667      -211.8316
  39   1.0000      -7.784534      -211.8279
  40   1.0000      -7.696010      -209.4191
  41   1.0000      -7.695585      -209.4075
  42   1.0000      -7.695347      -209.4010
  43   1.0000      -7.695052      -209.3930
  44   1.0000      -5.751636      -156.5100
  45   1.0000      -5.751623      -156.5096
  46   1.0000      -5.751056      -156.4942
  47   1.0000      -5.751022      -156.4933
  48   1.0000      -5.750819      -156.4877
  49   1.0000      -5.750774      -156.4865
  50   1.0000      -5.749573      -156.4538
  51   1.0000      -5.749449      -156.4505
  52   1.0000      -5.748223      -156.4171
  53   1.0000      -5.748209      -156.4167
  54   1.0000      -5.747419      -156.3952
  55   1.0000      -5.747390      -156.3944
  56   1.0000      -5.746706      -156.3758
  57   1.0000      -5.746678      -156.3751
  58   1.0000      -5.745179      -156.3343
  59   1.0000      -5.745032      -156.3303
  60   1.0000      -5.742214      -156.2536
  61   1.0000      -5.742184      -156.2528
  62   1.0000      -5.741490      -156.2339
  63   1.0000      -5.741464      -156.2332
  64   1.0000      -5.740914      -156.2182
  65   1.0000      -5.740879      -156.2173
  66   1.0000      -5.740531      -156.2078
  67   1.0000      -5.740395      -156.2041
  68   1.0000      -5.661282      -154.0513
  69   1.0000      -5.660839      -154.0393
  70   1.0000      -5.660637      -154.0338
  71   1.0000      -5.660376      -154.0267
  72   1.0000      -5.654881      -153.8771
  73   1.0000      -5.654467      -153.8659
  74   1.0000      -5.654244      -153.8598
  75   1.0000      -5.653979      -153.8526
  76   1.0000      -5.653371      -153.8360
  77   1.0000      -5.652938      -153.8243
  78   1.0000      -5.652638      -153.8161
  79   1.0000      -5.652319      -153.8074
  80   1.0000      -2.400375       -65.3175
  81   1.0000      -1.467234       -39.9255
  82   1.0000      -1.412548       -38.4374
  83   1.0000      -1.412373       -38.4326
  84   1.0000      -0.709462       -19.3054
  85   1.0000      -0.708101       -19.2684
  86   1.0000      -0.686162       -18.6714
  87   1.0000      -0.685931       -18.6651
  88   1.0000      -0.659185       -17.9373
  89   1.0000      -0.630823       -17.1656
  90   1.0000      -0.627125       -17.0649
  91   1.0000      -0.616918       -16.7872
  92   1.0000      -0.614721       -16.7274
  93   1.0000      -0.578798       -15.7499
  94   1.0000      -0.575946       -15.6723
  95   1.0000      -0.573976       -15.6187
  96   1.0000      -0.572766       -15.5858
  97   1.0000      -0.496733       -13.5168
  98   1.0000      -0.495928       -13.4949
  99   1.0000      -0.494866       -13.4660
 100   1.0000      -0.487453       -13.2643
 101   1.0000      -0.482329       -13.1248
 102   1.0000      -0.479396       -13.0450
 103   1.0000      -0.446021       -12.1369
 104   1.0000      -0.441953       -12.0262
 105   1.0000      -0.414785       -11.2869
 106   1.0000      -0.409309       -11.1379
 107   1.0000      -0.359568        -9.7843
 108   1.0000      -0.355651        -9.6778
 109   1.0000      -0.326085        -8.8732
 110   1.0000      -0.320092        -8.7102
 111   1.0000      -0.315360        -8.5814
 112   1.0000      -0.314557        -8.5595
 113   1.0000      -0.310488        -8.4488
 114   1.0000      -0.307591        -8.3700
 115   1.0000      -0.291211        -7.9242
 116   1.0000      -0.285590        -7.7713
 117   1.0000      -0.257397        -7.0041
 118   1.0000      -0.257056        -6.9948
 119   1.0000      -0.254580        -6.9275
 120   1.0000      -0.253873        -6.9082
 121   1.0000      -0.230691        -6.2774
 122   1.0000      -0.230159        -6.2630
 123   1.0000      -0.228339        -6.2134
 124   1.0000      -0.221995        -6.0408
 125   1.0000      -0.219669        -5.9775
 126   1.0000      -0.214422        -5.8347
 127   1.0000      -0.213038        -5.7971
 128   1.0000      -0.204786        -5.5725
 129   1.0000      -0.192078        -5.2267
 130   1.0000      -0.186687        -5.0800
 131   1.0000      -0.185033        -5.0350
 132   1.0000      -0.183364        -4.9896
 133   1.0000      -0.179231        -4.8771
 134   1.0000      -0.159557        -4.3418
 135   1.0000      -0.152778        -4.1573
 136   1.0000      -0.148418        -4.0387
 137   1.0000      -0.135832        -3.6962
 138   1.0000      -0.134946        -3.6721
 139   1.0000      -0.130800        -3.5592
 140   1.0000      -0.124750        -3.3946
 141   1.0000      -0.123481        -3.3601
 142   1.0000      -0.116659        -3.1745
 143   1.0000      -0.111951        -3.0464
 144   1.0000      -0.102252        -2.7824
 145   1.0000      -0.100069        -2.7230
 146   1.0000      -0.097826        -2.6620
 147   1.0000      -0.095369        -2.5951
 148   1.0000      -0.071472        -1.9448
 149   1.0000      -0.068347        -1.8598
 150   1.0000      -0.067838        -1.8460
 151   1.0000      -0.051160        -1.3921
 152   1.0000      -0.045694        -1.2434
 153   1.0000      -0.038045        -1.0353
 154   1.0000      -0.036039        -0.9807
 155   1.0000      -0.029330        -0.7981
 156   1.0000      -0.027845        -0.7577
 157   1.0000      -0.017316        -0.4712
 158   1.0000       0.020824         0.5667
 159   1.0000       0.040112         1.0915
 160   0.0000       0.134258         3.6533
 161   0.0000       0.136126         3.7042
 162   0.0000       0.154234         4.1969
 163   0.0000       0.157911         4.2970
 164   0.0000       0.163139         4.4392

MULLIKEN ATOMIC CHARGES AND SPIN POPULATIONS
--------------------------------------------
   0 V :    0.469426    1.210914
   1 S :   -0.285921   -0.022191
   2 S :   -0.288139   -0.025311
   3 S :   -0.283927   -0.023179
   4 S :   -0.284044   -0.025726
   5 O :   -0.466873   -0.146927
   6 C :   -0.079011    0.009636
   7 C :   -0.086033    0.008055
   8 C :   -0.091539    0.007522
   9 C :   -0.091823    0.007158
  10 S :    0.103528   -0.000592
  11 S :    0.104805   -0.000632
  12 S :    0.114705   -0.000352
  13 S :    0.113803   -0.000301
  14 C :   -0.211871    0.001505
  15 C :   -0.200895    0.000867
  16 C :   -0.195454   -0.000011
  17 C :   -0.216189   -0.000278
  18 S :    0.007939   -0.000112
  19 S :    0.008025   -0.000111
  20 S :    0.007865   -0.000055
  21 S :    0.007896   -0.000057
  22 C :   -0.315643    0.000001
  23 C :   -0.314634    0.000000
  24 C :   -0.163721   -0.000015
  25 H :    0.139505   -0.000001
  26 H :    0.114633   -0.000004
  27 H :    0.090684    0.000002
  28 H :    0.113299   -0.000000
  29 H :    0.114303   -0.000005
  30 H :    0.139134   -0.000001
  31 C :   -0.299283    0.000209
  32 C :   -0.300539    0.000204
  33 C :   -0.161299   -0.000257
  34 H :    0.140502   -0.000018
  35 H :    0.113557    0.000021
  36 H :    0.095210    0.000022
  37 H :    0.084298    0.000018
  38 H :    0.113429    0.000021
  39 H :    0.140293   -0.000019
Sum of atomic charges         :   -2.0000000

LOEWDIN ATOMIC CHARGES AND SPIN POPULATIONS
-------------------------------------------
   0 V :   -0.156018    1.164275
   1 S :    0.085199   -0.014265
   2 S :    0.080792   -0.016142
   3 S :    0.086588   -0.015099
   4 S :    0.084656   -0.016325
   5 O :   -0.318499   -0.131810
   6 C :   -0.550811    0.009009
   7 C :   -0.552995    0.007917
   8 C :   -0.556449    0.007973
   9 C :   -0.556392    0.007486
  10 S :    0.474797   -0.000911
  11 S :    0.475753   -0.000954
  12 S :    0.485461   -0.000813
  13 S :    0.484703   -0.000815
  14 C :   -0.467071    0.000173
  15 C :   -0.473603   -0.000099
  16 C :   -0.627192    0.000502
  17 C :   -0.641495    0.000100
  18 S :    0.358790   -0.000087
  19 S :    0.360107   -0.000084
  20 S :    0.359134   -0.000060
  21 S :    0.358845   -0.000062
  22 C :   -0.299687   -0.000008
  23 C :   -0.299458   -0.000009
  24 C :   -0.196879   -0.000001
  25 H :    0.058874   -0.000001
  26 H :    0.050823   -0.000002
  27 H :    0.087935   -0.000001
  28 H :    0.090052   -0.000001
  29 H :    0.050718   -0.000002
  30 H :    0.058678   -0.000001
  31 C :   -0.286395    0.000046
  32 C :   -0.286188    0.000039
  33 C :   -0.175108    0.000007
  34 H :    0.061228   -0.000001
  35 H :    0.052623    0.000009
  36 H :    0.063686    0.000005
  37 H :    0.061002    0.000002
  38 H :    0.052679    0.000009
  39 H :    0.061118   -0.000000

  Mayer bond orders larger than 0.100000
B(  0-V ,  1-S ) :   0.7706 B(  0-V ,  2-S ) :   0.7723 B(  0-V ,  3-S ) :   0.7639
B(  0-V ,  4-S ) :   0.7796 B(  0-V ,  5-O ) :   2.1491 B(  1-S ,  8-C ) :   1.1107
B(  2-S ,  6-C ) :   1.1057 B(  3-S ,  9-C ) :   1.1139 B(  4-S ,  7-C ) :   1.1061
B(  6-C ,  7-C ) :   1.6767 B(  6-C , 10-S ) :   0.9370 B(  7-C , 11-S ) :   0.9412
B(  8-C ,  9-C ) :   1.6645 B(  8-C , 13-S ) :   0.9421 B(  9-C , 12-S ) :   0.9438
B( 10-S , 14-C ) :   1.2499 B( 11-S , 14-C ) :   1.2498 B( 12-S , 15-C ) :   1.2520
B( 13-S , 15-C ) :   1.2520 B( 14-C , 16-C ) :   1.4355 B( 15-C , 17-C ) :   1.4051
B( 16-C , 18-S ) :   1.0880 B( 16-C , 19-S ) :   1.0898 B( 17-C , 20-S ) :   1.0928
B( 17-C , 21-S ) :   1.0931 B( 18-S , 32-C ) :   0.9885 B( 19-S , 31-C ) :   0.9884
B( 20-S , 23-C ) :   0.9818 B( 21-S , 22-C ) :   0.9812 B( 22-C , 24-C ) :   0.9362
B( 22-C , 25-H ) :   0.9610 B( 22-C , 26-H ) :   0.9643 B( 23-C , 24-C ) :   0.9362
B( 23-C , 29-H ) :   0.9644 B( 23-C , 30-H ) :   0.9610 B( 24-C , 27-H ) :   0.9423
B( 24-C , 28-H ) :   0.9469 B( 31-C , 33-C ) :   0.9140 B( 31-C , 38-H ) :   0.9662
B( 31-C , 39-H ) :   0.9650 B( 32-C , 33-C ) :   0.9134 B( 32-C , 34-H ) :   0.9649
B( 32-C , 35-H ) :   0.9662 B( 33-C , 36-H ) :   0.9717 B( 33-C , 37-H ) :   0.9624

FINAL SINGLE POINT ENERGY     -6337.665229788207

DIPOLE MOMENT
-------------
                                X             Y             Z
Electronic contribution:      3.72384      11.21849      -6.78373
Nuclear contribution   :     -3.91866     -12.58494       7.45967
                        -----------------------------------------
Total Dipole Moment    :     -0.19481      -1.36645       0.67594
                        -----------------------------------------
Magnitude (a.u.)       :      1.53689
Magnitude (Debye)      :      3.90647

Rotational constants in cm-1:     0.010752     0.000804     0.000783
Rotational constants in MHz :   322.328763    24.115141    23.486712

                             ****ORCA TERMINATED NORMALLY****
TOTAL RUN TIME: 0 days 1 hours 2 minutes 7 seconds 890 msec
