                         Program Version 5.0.4 -  RELEASE  -
|  1> ! nofrozencore ReducedPop printbasis
|  2> ! B3LYP TZVP
|  3>
|  4> %basis
|  5> newgto V "CP(PPP)" end
|  6> end
|  7>
|  8> %pal
|  9> nprocs 8
| 10> end
| 11>
| 12> % sym SymThresh 1e-2 end
| 13> * xyz -2 2
| 14> V -0.810598300236001 -0.6985675711344 -0.3064351670384635
| 15> S 0.15174124493596725 -0.09367284217922436 -2.5034789981598307
| 16> S 1.2491358533311827 -2.0318987001234405 0.02029335027168311
| 17> S -1.8651463151318393 1.5413311851387803 -0.3491904251490939
| 18> S -0.7195552103405856 -0.3109935244901664 2.1280073631098886
| 19> O -1.9609862116192407 -1.7613374059173657 -0.5735765511250487
| 20> C 1.1293029841263034 -2.323188319798715 1.750622877856692
| 21> C 0.342514118298227 -1.630736777161184 2.5954757083537388
| 22> C -0.7058453176335147 1.4014317143726502 -2.8512122898318846
| 23> C -1.5077816005705686 2.054495222331493 -1.9902837237971684
| 24> S 2.176680330108265 -3.582198546103905 2.4895612684960864
| 25> S 0.4655571690851296 -2.0536232082351695 4.335284626944388
| 26> S -2.2229812244249407 3.595366876361713 -2.573238702895673
| 27> S -0.47354275687013286 2.164185878484926 -4.461179560357022
| 28> C 1.6922976724787193 -3.3150907105769396 4.168925851656586
| 29> C -1.4466705627703036 3.6092222655876594 -4.160788667975116
| 30> C 2.201812551322612 -4.015719805610978 5.227157050230168
| 31> C -1.5919954936730158 4.6253496522354425 -5.064309592938931
| 32> S 3.3966851974161667 -5.319927040388457 5.0100245370119305
| 33> S 1.6792678342595129 -3.6991699277688372 6.901172167950606
| 34> S -0.7860609740934129 4.595754649139576 -6.653285220573839
| 35> S -2.5684065487539693 6.072459775597628 -4.7039528254884235
| 36> C -1.2151383634710518 7.334115576633403 -4.7736015095453
| 37> C 0.2980920575206191 6.080848321255252 -6.436200713302864
| 38> C -0.47127085053120543 7.363387079681375 -6.110885396006212
| 39> H -0.5194939302443307 7.133113762260585 -3.941569398897214
| 40> H -1.6978637834769752 8.287374198801068 -4.588781364252343
| 41> H 0.24758624659671313 8.195594757078863 -6.084388370899626
| 42> H -1.179389374252172 7.572168726247536 -6.912002376501172
| 43> H 0.8311126293802998 6.188433748241221 -7.37343193093682
| 44> H 1.0335976964440203 5.853374768039717 -5.645243394401663
| 45> C 0.9139754796558297 -5.352141829447245 7.2424732585565685
| 46> C 2.3530815139375423 -6.713959278690614 5.6463894598770485
| 47> C 1.8844390063676248 -6.523243077771071 7.089249643854136
| 48> H 1.7474237546811606 -6.841335051543167 5.155958503445102
| 49> H 3.1637348006224775 -7.783748376076857 5.587806792829199
| 50> H 2.8590588211956205 -6.365446407974754 7.83308870838546
| 51> H 1.3896748968684163 -7.422465911068291 7.410682294632454
| 52> H 0.5221225534796684 -5.2737596586780375 8.519659033364482
| 53> H 0.26303597617524954 -5.446317627169695 6.791423561606447
| 54> *
| 55>
| 56> % eprnmr
| 57> gtensor true
| 58> Nuclei = all H {aiso,adip,aorb,fgrad,rho}
| 59> Nuclei = all V {aiso,adip,aorb,fgrad,rho}
| 60> end
| 61>
| 62>                          ****END OF INPUT****

CARTESIAN COORDINATES (ANGSTROEM)
---------------------------------
  V     -0.807632   -0.698041   -0.304064
  S      0.154708   -0.093146   -2.501108
  S      1.252102   -2.031372    0.022665
  S     -1.862180    1.541858   -0.346819
  S     -0.716589   -0.310467    2.130379
  O     -1.958020   -1.760811   -0.571205
  C      1.132269   -2.322662    1.752994
  C      0.345480   -1.630210    2.597847
  C     -0.702879    1.401958   -2.848841
  C     -1.504815    2.055022   -1.987912
  S      2.179647   -3.581672    2.491933
  S      0.468523   -2.053097    4.337656
  S     -2.220015    3.595894   -2.570867
  S     -0.470576    2.164713   -4.458808
  C      1.695264   -3.314564    4.171297
  C     -1.443704    3.609749   -4.158417
  C      2.204779   -4.015193    5.229528
  C     -1.589029    4.625876   -5.061938
  S      3.399651   -5.319400    5.012396
  S      1.682234   -3.698643    6.903543
  S     -0.783095    4.596281   -6.650914
  S     -2.565440    6.072986   -4.701582
  C     -1.212172    7.334642   -4.771230
  C      0.301058    6.081375   -6.433829
  C     -0.468305    7.363914   -6.108514
  H     -0.516528    7.133640   -3.939198
  H     -1.694898    8.287901   -4.586410
  H      0.250553    8.196121   -6.082017
  H     -1.176423    7.572695   -6.909631
  H      0.834079    6.188960   -7.371061
  H      1.036564    5.853901   -5.642872
  C      0.916942   -5.351615    7.244845
  C      2.356048   -6.713433    5.648761
  C      1.887405   -6.522716    7.091621
  H      1.750390   -6.840808    5.158330
  H      3.166701   -7.783222    5.590178
  H      2.862025   -6.364920    7.835460
  H      1.392641   -7.421939    7.413054
  H      0.525089   -5.273233    8.522030
  H      0.266002   -5.445791    6.793795

 Total Charge           Charge          ....   -2
 Multiplicity           Mult            ....    2
 Number of Electrons    NEL             ....  321
 Basis Dimension        Dim             ....  681

ORBITAL ENERGIES
----------------
                 SPIN UP ORBITALS
  NO   OCC          E(Eh)            E(eV)
   0   1.0000    -196.675867     -5351.8224
   1   1.0000     -88.735433     -2414.6139
   2   1.0000     -88.735401     -2414.6130
   3   1.0000     -88.733593     -2414.5638
   4   1.0000     -88.733471     -2414.5605
   5   1.0000     -88.732717     -2414.5400
   6   1.0000     -88.732552     -2414.5355
   7   1.0000     -88.730530     -2414.4805
   8   1.0000     -88.730502     -2414.4797
   9   1.0000     -88.641122     -2412.0475
  10   1.0000     -88.640914     -2412.0419
  11   1.0000     -88.640565     -2412.0324
  12   1.0000     -88.640016     -2412.0175
  13   1.0000     -22.051264      -600.0454
  14   1.0000     -18.891172      -514.0549
  15   1.0000     -18.557712      -504.9810
  16   1.0000     -18.552543      -504.8403
  17   1.0000     -18.552437      -504.8375
  18   1.0000     -10.077930      -274.2344
  19   1.0000     -10.076264      -274.1891
  20   1.0000     -10.063727      -273.8479
  21   1.0000     -10.063691      -273.8469
  22   1.0000     -10.062684      -273.8196
  23   1.0000     -10.058901      -273.7166
  24   1.0000     -10.058797      -273.7138
  25   1.0000     -10.051117      -273.5048
  26   1.0000     -10.050381      -273.4848
  27   1.0000     -10.048845      -273.4430
  28   1.0000     -10.020151      -272.6622
  29   1.0000     -10.019212      -272.6366
  30   1.0000     -10.018491      -272.6170
  31   1.0000     -10.017696      -272.5954
  32   1.0000      -7.788677      -211.9407
  33   1.0000      -7.788668      -211.9404
  34   1.0000      -7.787051      -211.8964
  35   1.0000      -7.786947      -211.8936
  36   1.0000      -7.785916      -211.8655
  37   1.0000      -7.785789      -211.8621
  38   1.0000      -7.783809      -211.8082
  39   1.0000      -7.783785      -211.8076
  40   1.0000      -7.695432      -209.4033
  41   1.0000      -7.695144      -209.3955
  42   1.0000      -7.694831      -209.3870
  43   1.0000      -7.694393      -209.3751
  44   1.0000      -5.753705      -156.5663
  45   1.0000      -5.753696      -156.5660
  46   1.0000      -5.752046      -156.5211
  47   1.0000      -5.751933      -156.5181
  48   1.0000      -5.750837      -156.4882
  49   1.0000      -5.750703      -156.4846
  50   1.0000      -5.750323      -156.4742
  51   1.0000      -5.750308      -156.4738
  52   1.0000      -5.748760      -156.4317
  53   1.0000      -5.748735      -156.4310
  54   1.0000      -5.748612      -156.4277
  55   1.0000      -5.748520      -156.4252
  56   1.0000      -5.746411      -156.3678
  57   1.0000      -5.746283      -156.3643
  58   1.0000      -5.744327      -156.3111
  59   1.0000      -5.744305      -156.3105
  60   1.0000      -5.743367      -156.2849
  61   1.0000      -5.743365      -156.2849
  62   1.0000      -5.741852      -156.2437
  63   1.0000      -5.741791      -156.2421
  64   1.0000      -5.741740      -156.2407
  65   1.0000      -5.741665      -156.2387
  66   1.0000      -5.739612      -156.1828
  67   1.0000      -5.739602      -156.1825
  68   1.0000      -5.660754      -154.0369
  69   1.0000      -5.660494      -154.0299
  70   1.0000      -5.660153      -154.0206
  71   1.0000      -5.659678      -154.0077
  72   1.0000      -5.654064      -153.8549
  73   1.0000      -5.653798      -153.8477
  74   1.0000      -5.653503      -153.8396
  75   1.0000      -5.653059      -153.8275
  76   1.0000      -5.652753      -153.8192
  77   1.0000      -5.652441      -153.8107
  78   1.0000      -5.652157      -153.8030
  79   1.0000      -5.651698      -153.7905
  80   1.0000      -2.444897       -66.5290
  81   1.0000      -1.486194       -40.4414
  82   1.0000      -1.474542       -40.1243
  83   1.0000      -1.473723       -40.1021
  84   1.0000      -0.716439       -19.4953
  85   1.0000      -0.709890       -19.3171
  86   1.0000      -0.692723       -18.8500
  87   1.0000      -0.685893       -18.6641
  88   1.0000      -0.650739       -17.7075
  89   1.0000      -0.635439       -17.2912
  90   1.0000      -0.632040       -17.1987
  91   1.0000      -0.631716       -17.1899
  92   1.0000      -0.617540       -16.8041
  93   1.0000      -0.576969       -15.7001
  94   1.0000      -0.575008       -15.6468
  95   1.0000      -0.574969       -15.6457
  96   1.0000      -0.573372       -15.6022
  97   1.0000      -0.511709       -13.9243
  98   1.0000      -0.500621       -13.6226
  99   1.0000      -0.496458       -13.5093
 100   1.0000      -0.496397       -13.5076
 101   1.0000      -0.482659       -13.1338
 102   1.0000      -0.478597       -13.0233
 103   1.0000      -0.471439       -12.8285
 104   1.0000      -0.446507       -12.1501
 105   1.0000      -0.420331       -11.4378
 106   1.0000      -0.413009       -11.2386
 107   1.0000      -0.355701        -9.6791
 108   1.0000      -0.355578        -9.6758
 109   1.0000      -0.335669        -9.1340
 110   1.0000      -0.327309        -8.9065
 111   1.0000      -0.320833        -8.7303
 112   1.0000      -0.317941        -8.6516
 113   1.0000      -0.311628        -8.4798
 114   1.0000      -0.304420        -8.2837
 115   1.0000      -0.297298        -8.0899
 116   1.0000      -0.291003        -7.9186
 117   1.0000      -0.258052        -7.0219
 118   1.0000      -0.257669        -7.0115
 119   1.0000      -0.255514        -6.9529
 120   1.0000      -0.247178        -6.7260
 121   1.0000      -0.234711        -6.3868
 122   1.0000      -0.233228        -6.3465
 123   1.0000      -0.231687        -6.3045
 124   1.0000      -0.221712        -6.0331
 125   1.0000      -0.219704        -5.9785
 126   1.0000      -0.214785        -5.8446
 127   1.0000      -0.212322        -5.7776
 128   1.0000      -0.210129        -5.7179
 129   1.0000      -0.194721        -5.2986
 130   1.0000      -0.190041        -5.1713
 131   1.0000      -0.187510        -5.1024
 132   1.0000      -0.187153        -5.0927
 133   1.0000      -0.180911        -4.9228
 134   1.0000      -0.160620        -4.3707
 135   1.0000      -0.152420        -4.1476
 136   1.0000      -0.147727        -4.0199
 137   1.0000      -0.137173        -3.7327
 138   1.0000      -0.135001        -3.6736
 139   1.0000      -0.134288        -3.6542
 140   1.0000      -0.126126        -3.4321
 141   1.0000      -0.122141        -3.3236
 142   1.0000      -0.114464        -3.1147
 143   1.0000      -0.110782        -3.0145
 144   1.0000      -0.101182        -2.7533
 145   1.0000      -0.098928        -2.6920
 146   1.0000      -0.098790        -2.6882
 147   1.0000      -0.095966        -2.6114
 148   1.0000      -0.075490        -2.0542
 149   1.0000      -0.069793        -1.8992
 150   1.0000      -0.067662        -1.8412
 151   1.0000      -0.053362        -1.4520
 152   1.0000      -0.046568        -1.2672
 153   1.0000      -0.038814        -1.0562
 154   1.0000      -0.038002        -1.0341
 155   1.0000      -0.032497        -0.8843
 156   1.0000      -0.025893        -0.7046
 157   1.0000      -0.020083        -0.5465
 158   1.0000      -0.016482        -0.4485
 159   1.0000       0.019258         0.5240
 160   1.0000       0.040202         1.0940
 161   0.0000       0.123152         3.3511
 162   0.0000       0.137155         3.7322
 163   0.0000       0.150868         4.1053
 164   0.0000       0.162031         4.4091
 165   0.0000       0.166373         4.5272

                 SPIN DOWN ORBITALS
  NO   OCC          E(Eh)            E(eV)
   0   1.0000    -196.676014     -5351.8264
   1   1.0000     -88.735434     -2414.6139
   2   1.0000     -88.735401     -2414.6130
   3   1.0000     -88.733593     -2414.5638
   4   1.0000     -88.733472     -2414.5605
   5   1.0000     -88.732725     -2414.5402
   6   1.0000     -88.732561     -2414.5357
   7   1.0000     -88.730538     -2414.4807
   8   1.0000     -88.730510     -2414.4799
   9   1.0000     -88.641261     -2412.0513
  10   1.0000     -88.641055     -2412.0457
  11   1.0000     -88.640703     -2412.0361
  12   1.0000     -88.640156     -2412.0213
  13   1.0000     -22.036336      -599.6392
  14   1.0000     -18.894946      -514.1576
  15   1.0000     -18.552449      -504.8378
  16   1.0000     -18.536507      -504.4040
  17   1.0000     -18.536327      -504.3991
  18   1.0000     -10.077924      -274.2343
  19   1.0000     -10.076263      -274.1891
  20   1.0000     -10.063727      -273.8479
  21   1.0000     -10.063691      -273.8470
  22   1.0000     -10.062684      -273.8195
  23   1.0000     -10.058900      -273.7166
  24   1.0000     -10.058796      -273.7138
  25   1.0000     -10.051117      -273.5048
  26   1.0000     -10.050370      -273.4845
  27   1.0000     -10.048841      -273.4429
  28   1.0000     -10.019914      -272.6557
  29   1.0000     -10.018990      -272.6306
  30   1.0000     -10.018277      -272.6112
  31   1.0000     -10.017485      -272.5896
  32   1.0000      -7.788678      -211.9407
  33   1.0000      -7.788669      -211.9405
  34   1.0000      -7.787051      -211.8964
  35   1.0000      -7.786948      -211.8936
  36   1.0000      -7.785925      -211.8658
  37   1.0000      -7.785799      -211.8624
  38   1.0000      -7.783818      -211.8085
  39   1.0000      -7.783794      -211.8078
  40   1.0000      -7.695562      -209.4069
  41   1.0000      -7.695276      -209.3991
  42   1.0000      -7.694959      -209.3905
  43   1.0000      -7.694523      -209.3786
  44   1.0000      -5.753706      -156.5663
  45   1.0000      -5.753697      -156.5661
  46   1.0000      -5.752047      -156.5212
  47   1.0000      -5.751934      -156.5181
  48   1.0000      -5.750848      -156.4885
  49   1.0000      -5.750714      -156.4849
  50   1.0000      -5.750324      -156.4743
  51   1.0000      -5.750309      -156.4739
  52   1.0000      -5.748770      -156.4320
  53   1.0000      -5.748746      -156.4313
  54   1.0000      -5.748613      -156.4277
  55   1.0000      -5.748521      -156.4252
  56   1.0000      -5.746425      -156.3682
  57   1.0000      -5.746297      -156.3647
  58   1.0000      -5.744341      -156.3115
  59   1.0000      -5.744319      -156.3109
  60   1.0000      -5.743367      -156.2850
  61   1.0000      -5.743366      -156.2849
  62   1.0000      -5.741853      -156.2438
  63   1.0000      -5.741799      -156.2423
  64   1.0000      -5.741741      -156.2407
  65   1.0000      -5.741675      -156.2389
  66   1.0000      -5.739618      -156.1829
  67   1.0000      -5.739608      -156.1827
  68   1.0000      -5.660892      -154.0407
  69   1.0000      -5.660635      -154.0337
  70   1.0000      -5.660295      -154.0245
  71   1.0000      -5.659820      -154.0115
  72   1.0000      -5.654450      -153.8654
  73   1.0000      -5.654179      -153.8580
  74   1.0000      -5.653855      -153.8492
  75   1.0000      -5.653421      -153.8374
  76   1.0000      -5.652840      -153.8216
  77   1.0000      -5.652535      -153.8133
  78   1.0000      -5.652263      -153.8059
  79   1.0000      -5.651805      -153.7934
  80   1.0000      -2.400023       -65.3079
  81   1.0000      -1.466917       -39.9168
  82   1.0000      -1.412168       -38.4270
  83   1.0000      -1.412012       -38.4228
  84   1.0000      -0.716424       -19.4949
  85   1.0000      -0.709875       -19.3167
  86   1.0000      -0.692661       -18.8483
  87   1.0000      -0.685850       -18.6629
  88   1.0000      -0.658830       -17.9277
  89   1.0000      -0.635364       -17.2891
  90   1.0000      -0.632040       -17.1987
  91   1.0000      -0.631658       -17.1883
  92   1.0000      -0.617542       -16.8042
  93   1.0000      -0.576940       -15.6993
  94   1.0000      -0.574976       -15.6459
  95   1.0000      -0.574893       -15.6436
  96   1.0000      -0.573307       -15.6005
  97   1.0000      -0.511717       -13.9245
  98   1.0000      -0.500631       -13.6229
  99   1.0000      -0.496489       -13.5101
 100   1.0000      -0.496442       -13.5089
 101   1.0000      -0.482890       -13.1401
 102   1.0000      -0.478842       -13.0300
 103   1.0000      -0.471463       -12.8292
 104   1.0000      -0.446543       -12.1511
 105   1.0000      -0.420351       -11.4383
 106   1.0000      -0.413114       -11.2414
 107   1.0000      -0.355680        -9.6786
 108   1.0000      -0.355573        -9.6756
 109   1.0000      -0.335670        -9.1340
 110   1.0000      -0.327298        -8.9062
 111   1.0000      -0.320833        -8.7303
 112   1.0000      -0.317883        -8.6500
 113   1.0000      -0.311627        -8.4798
 114   1.0000      -0.304381        -8.2826
 115   1.0000      -0.297233        -8.0881
 116   1.0000      -0.291000        -7.9185
 117   1.0000      -0.257971        -7.0197
 118   1.0000      -0.257564        -7.0087
 119   1.0000      -0.255466        -6.9516
 120   1.0000      -0.247081        -6.7234
 121   1.0000      -0.234676        -6.3858
 122   1.0000      -0.233211        -6.3460
 123   1.0000      -0.231645        -6.3034
 124   1.0000      -0.221398        -6.0246
 125   1.0000      -0.219592        -5.9754
 126   1.0000      -0.214569        -5.8387
 127   1.0000      -0.212181        -5.7737
 128   1.0000      -0.210113        -5.7175
 129   1.0000      -0.193416        -5.2631
 130   1.0000      -0.189295        -5.1510
 131   1.0000      -0.187412        -5.0997
 132   1.0000      -0.186914        -5.0862
 133   1.0000      -0.180785        -4.9194
 134   1.0000      -0.160000        -4.3538
 135   1.0000      -0.152256        -4.1431
 136   1.0000      -0.147653        -4.0178
 137   1.0000      -0.136586        -3.7167
 138   1.0000      -0.134641        -3.6638
 139   1.0000      -0.134047        -3.6476
 140   1.0000      -0.125505        -3.4152
 141   1.0000      -0.121814        -3.3147
 142   1.0000      -0.116232        -3.1628
 143   1.0000      -0.112321        -3.0564
 144   1.0000      -0.101229        -2.7546
 145   1.0000      -0.099206        -2.6995
 146   1.0000      -0.098845        -2.6897
 147   1.0000      -0.096240        -2.6188
 148   1.0000      -0.071657        -1.9499
 149   1.0000      -0.069792        -1.8992
 150   1.0000      -0.067654        -1.8410
 151   1.0000      -0.050781        -1.3818
 152   1.0000      -0.045628        -1.2416
 153   1.0000      -0.038880        -1.0580
 154   1.0000      -0.037421        -1.0183
 155   1.0000      -0.032525        -0.8851
 156   1.0000      -0.026930        -0.7328
 157   1.0000      -0.016692        -0.4542
 158   1.0000       0.019529         0.5314
 159   1.0000       0.039112         1.0643
 160   0.0000       0.123139         3.3508
 161   0.0000       0.137144         3.7319
 162   0.0000       0.150736         4.1017
 163   0.0000       0.155477         4.2307
 164   0.0000       0.162713         4.4276

MULLIKEN ATOMIC CHARGES AND SPIN POPULATIONS
--------------------------------------------
   0 V :    0.470719    1.210475
   1 S :   -0.290826   -0.022605
   2 S :   -0.287741   -0.025052
   3 S :   -0.288939   -0.023534
   4 S :   -0.283585   -0.025546
   5 O :   -0.467253   -0.146508
   6 C :   -0.078135    0.009644
   7 C :   -0.085087    0.008015
   8 C :   -0.083804    0.007755
   9 C :   -0.084450    0.007398
  10 S :    0.103420   -0.000605
  11 S :    0.104561   -0.000639
  12 S :    0.100202   -0.000394
  13 S :    0.099342   -0.000349
  14 C :   -0.210009    0.001569
  15 C :   -0.212087    0.000997
  16 C :   -0.201186   -0.000099
  17 C :   -0.190130   -0.000403
  18 S :    0.012035   -0.000111
  19 S :    0.012193   -0.000110
  20 S :    0.008332   -0.000068
  21 S :    0.008456   -0.000070
  22 C :   -0.300594   -0.000001
  23 C :   -0.300030   -0.000002
  24 C :   -0.159139   -0.000011
  25 H :    0.141009   -0.000001
  26 H :    0.116301   -0.000004
  27 H :    0.082996   -0.000001
  28 H :    0.093078   -0.000001
  29 H :    0.116189   -0.000005
  30 H :    0.140439   -0.000001
  31 C :   -0.341761    0.000236
  32 C :   -0.344781    0.000235
  33 C :   -0.131398   -0.000293
  34 H :    0.235978   -0.000045
  35 H :    0.043881    0.000057
  36 H :    0.072862    0.000037
  37 H :    0.100708    0.000028
  38 H :    0.045677    0.000057
  39 H :    0.232556   -0.000044
Sum of atomic charges         :   -2.0000000

LOEWDIN ATOMIC CHARGES AND SPIN POPULATIONS
-------------------------------------------
   0 V :   -0.155879    1.163871
   1 S :    0.080209   -0.014599
   2 S :    0.080368   -0.015962
   3 S :    0.081517   -0.015382
   4 S :    0.084245   -0.016200
   5 O :   -0.318675   -0.131439
   6 C :   -0.549389    0.009014
   7 C :   -0.551569    0.007924
   8 C :   -0.552319    0.008131
   9 C :   -0.552330    0.007664
  10 S :    0.474695   -0.000919
  11 S :    0.475581   -0.000960
  12 S :    0.471395   -0.000823
  13 S :    0.470645   -0.000831
  14 C :   -0.465520    0.000212
  15 C :   -0.465001   -0.000079
  16 C :   -0.625601    0.000460
  17 C :   -0.621832    0.000085
  18 S :    0.365854   -0.000087
  19 S :    0.366924   -0.000084
  20 S :    0.359127   -0.000072
  21 S :    0.358718   -0.000075
  22 C :   -0.283504   -0.000007
  23 C :   -0.283655   -0.000008
  24 C :   -0.175637   -0.000002
  25 H :    0.064437   -0.000002
  26 H :    0.052103   -0.000002
  27 H :    0.058260   -0.000002
  28 H :    0.059468   -0.000001
  29 H :    0.051916   -0.000002
  30 H :    0.064396   -0.000002
  31 C :   -0.216511    0.000044
  32 C :   -0.212742    0.000037
  33 C :   -0.172182    0.000009
  34 H :   -0.045055    0.000003
  35 H :    0.068157    0.000033
  36 H :    0.076261    0.000012
  37 H :    0.055317    0.000004
  38 H :    0.068544    0.000033
  39 H :   -0.040741    0.000003

  Mayer bond orders larger than 0.100000
B(  0-V ,  1-S ) :   0.7733 B(  0-V ,  2-S ) :   0.7694 B(  0-V ,  3-S ) :   0.7665
B(  0-V ,  4-S ) :   0.7767 B(  0-V ,  5-O ) :   2.1491 B(  1-S ,  8-C ) :   1.1032
B(  2-S ,  6-C ) :   1.1069 B(  3-S ,  9-C ) :   1.1057 B(  4-S ,  7-C ) :   1.1073
B(  6-C ,  7-C ) :   1.6793 B(  6-C , 10-S ) :   0.9364 B(  7-C , 11-S ) :   0.9404
B(  8-C ,  9-C ) :   1.6987 B(  8-C , 13-S ) :   0.9336 B(  9-C , 12-S ) :   0.9356
B( 10-S , 14-C ) :   1.2528 B( 11-S , 14-C ) :   1.2524 B( 12-S , 15-C ) :   1.2462
B( 13-S , 15-C ) :   1.2463 B( 14-C , 16-C ) :   1.4307 B( 15-C , 17-C ) :   1.4545
B( 16-C , 18-S ) :   1.0892 B( 16-C , 19-S ) :   1.0908 B( 17-C , 20-S ) :   1.0880
B( 17-C , 21-S ) :   1.0888 B( 18-S , 32-C ) :   0.9909 B( 19-S , 31-C ) :   0.9912
B( 20-S , 23-C ) :   0.9914 B( 21-S , 22-C ) :   0.9907 B( 22-C , 24-C ) :   0.9136
B( 22-C , 25-H ) :   0.9653 B( 22-C , 26-H ) :   0.9658 B( 23-C , 24-C ) :   0.9142
B( 23-C , 29-H ) :   0.9659 B( 23-C , 30-H ) :   0.9650 B( 24-C , 27-H ) :   0.9623
B( 24-C , 28-H ) :   0.9719 B( 31-C , 33-C ) :   0.8932 B( 31-C , 38-H ) :   0.9407
B( 31-C , 39-H ) :   0.9675 B( 32-C , 33-C ) :   0.8925 B( 32-C , 34-H ) :   0.9669
B( 32-C , 35-H ) :   0.9396 B( 33-C , 36-H ) :   0.9628 B( 33-C , 37-H ) :   0.9708

FINAL SINGLE POINT ENERGY     -6337.448920220220

DIPOLE MOMENT
-------------
                                X             Y             Z
Electronic contribution:    -10.82312      -6.07908      -7.32605
Nuclear contribution   :     11.84871       7.02542       7.76939
                        -----------------------------------------
Total Dipole Moment    :      1.02559       0.94634       0.44335
                        -----------------------------------------
Magnitude (a.u.)       :      1.46422
Magnitude (Debye)      :      3.72175

Rotational constants in cm-1:     0.010761     0.000804     0.000783
Rotational constants in MHz :   322.598471    24.116499    23.485984

                             ****ORCA TERMINATED NORMALLY****
TOTAL RUN TIME: 0 days 1 hours 1 minutes 36 seconds 712 msec
