                         Program Version 5.0.4 -  RELEASE  -
|  1> ! nofrozencore ReducedPop printbasis
|  2> ! B3LYP TZVP
|  3>
|  4> %basis
|  5> newgto V "CP(PPP)" end
|  6> end
|  7>
|  8> %pal
|  9> nprocs 8
| 10> end
| 11>
| 12> % sym SymThresh 1e-2 end
| 13> * xyz -2 2
| 14> V -0.8585954810115045 0.5181387939194692 -0.48302667713108904
| 15> S -1.599315429364028 0.46876279635383433 1.8766056180185249
| 16> S 0.7495786498240591 2.2503270679678793 0.25205635077900307
| 17> S -1.463878778122233 -1.8821699630505755 -0.5393396438855144
| 18> S 0.8958188285706319 -0.16518731222637195 -2.0768049309816674
| 19> O -1.9691753797888623 1.2991339932020216 -1.3081905983511586
| 20> C 1.813581307272718 2.2649206249081986 -1.1482288835643508
| 21> C 1.8741359743261066 1.2946045462181082 -2.0796306919540166
| 22> C -2.332264579018908 -1.1267545429895758 1.9704239061968642
| 23> C -2.2752044523610384 -2.0649644825003777 1.007475683820435
| 24> S 2.9709365153506533 3.6256814838796214 -1.3401112157453892
| 25> S 3.11021156090127 1.4927987565043397 -3.3655417242901904
| 26> S -3.060413460414604 -3.6380563627318043 1.3741583285072163
| 27> S -3.1921369909454604 -1.5837375223214054 3.4802386773610685
| 28> C 3.782431356081961 3.0227905007712184 -2.790543950429784
| 29> C -3.5729625398901934 -3.2474806218496077 3.019830152522275
| 30> C 4.81299501045479 3.674145342270127 -3.410715174496698
| 31> C -4.205943360441911 -4.1355016750934 3.844884819253795
| 32> S 5.42406794009395 5.244585380409948 -2.830816793917299
| 33> S 5.597544077666356 3.015297629490553 -4.868851309919102
| 34> S -4.701605448753849 -3.6958749776872457 5.499110834669768
| 35> S -4.54821134704874 -5.8102665081445 3.339681603639097
| 36> C -3.5255453909520833 -6.71271398915988 4.5908225994233085
| 37> C -3.611476358657759 -4.888599807567182 6.405726356852767
| 38> C -3.8664641065806795 -6.354044912228825 6.03831069993349
| 39> H -2.195909604523888 -6.381538210299929 4.331291731935488
| 40> H -3.6136454712031507 -7.501942014386996 4.442820163653278
| 41> H -3.2537235539565588 -6.983457802768577 6.700083060802603
| 42> H -4.908773460747391 -6.6167941071655685 6.214895958125293
| 43> H -3.931289916422198 -4.702784388925417 7.715615767850518
| 44> H -2.8341012369965854 -4.676469341527319 6.3091461125323836
| 45> C 5.160462478421554 4.368548047844428 -6.05389392626489
| 46> C 5.005885499707774 6.2625961616470285 -4.320110325907125
| 47> C 5.644423775466465 5.751773420015701 -5.6137030829034575
| 48> H 3.9187195842286484 6.298849184842997 -4.411540998646571
| 49> H 5.3637276722299205 7.27063621145362 -4.092625307632176
| 50> H 6.732829301256159 5.735782830015039 -5.498591486928554
| 51> H 5.41112677117575 6.4664185023430445 -6.415415140761093
| 52> H 5.626687208890471 4.086767656127833 -7.000610036152764
| 53> H 4.076163168585874 4.36105937076296 -6.191225924234921
| 54> *
| 55>
| 56> % eprnmr
| 57> gtensor true
| 58> Nuclei = all H {aiso,adip,aorb,fgrad,rho}
| 59> Nuclei = all V {aiso,adip,aorb,fgrad,rho}
| 60> end
| 61>
| 62>                          ****END OF INPUT****

CARTESIAN COORDINATES (ANGSTROEM)
---------------------------------
  V     -0.854778    0.518022   -0.482694
  S     -1.595498    0.468646    1.876938
  S      0.753396    2.250210    0.252389
  S     -1.460061   -1.882287   -0.539007
  S      0.899636   -0.165304   -2.076472
  O     -1.965358    1.299017   -1.307858
  C      1.817399    2.264804   -1.147896
  C      1.877953    1.294488   -2.079298
  C     -2.328447   -1.126871    1.970757
  C     -2.271387   -2.065081    1.007808
  S      2.974754    3.625565   -1.339779
  S      3.114029    1.492682   -3.365209
  S     -3.056596   -3.638173    1.374491
  S     -3.188319   -1.583854    3.480571
  C      3.786249    3.022674   -2.790211
  C     -3.569145   -3.247597    3.020163
  C      4.816813    3.674029   -3.410382
  C     -4.202126   -4.135618    3.845218
  S      5.427885    5.244469   -2.830484
  S      5.601362    3.015181   -4.868519
  S     -4.697788   -3.695992    5.499444
  S     -4.544394   -5.810383    3.340014
  C     -3.521728   -6.712831    4.591155
  C     -3.607659   -4.888716    6.406059
  C     -3.862647   -6.354162    6.038643
  H     -2.192092   -6.381655    4.331624
  H     -3.609828   -7.502059    4.443153
  H     -3.249906   -6.983574    6.700416
  H     -4.904956   -6.616911    6.215229
  H     -3.927472   -4.702901    7.715948
  H     -2.830284   -4.676586    6.309479
  C      5.164280    4.368431   -6.053561
  C      5.009703    6.262480   -4.319778
  C      5.648241    5.751657   -5.613370
  H      3.922537    6.298733   -4.411208
  H      5.367545    7.270520   -4.092293
  H      6.736647    5.735666   -5.498259
  H      5.414944    6.466302   -6.415082
  H      5.630505    4.086651   -7.000277
  H      4.079981    4.360943   -6.190893

 Total Charge           Charge          ....   -2
 Multiplicity           Mult            ....    2
 Number of Electrons    NEL             ....  321
 Basis Dimension        Dim             ....  681

ORBITAL ENERGIES
----------------
                 SPIN UP ORBITALS
  NO   OCC          E(Eh)            E(eV)
   0   1.0000    -196.675161     -5351.8032
   1   1.0000     -88.736814     -2414.6515
   2   1.0000     -88.735048     -2414.6034
   3   1.0000     -88.733236     -2414.5541
   4   1.0000     -88.733215     -2414.5535
   5   1.0000     -88.731387     -2414.5038
   6   1.0000     -88.731230     -2414.4995
   7   1.0000     -88.730295     -2414.4741
   8   1.0000     -88.730121     -2414.4693
   9   1.0000     -88.640398     -2412.0279
  10   1.0000     -88.639861     -2412.0132
  11   1.0000     -88.639856     -2412.0131
  12   1.0000     -88.639619     -2412.0067
  13   1.0000     -22.050550      -600.0260
  14   1.0000     -18.890433      -514.0348
  15   1.0000     -18.556998      -504.9616
  16   1.0000     -18.551826      -504.8208
  17   1.0000     -18.551729      -504.8182
  18   1.0000     -10.077401      -274.2200
  19   1.0000     -10.075805      -274.1766
  20   1.0000     -10.063506      -273.8419
  21   1.0000     -10.063447      -273.8403
  22   1.0000     -10.061134      -273.7774
  23   1.0000     -10.060011      -273.7468
  24   1.0000     -10.053672      -273.5743
  25   1.0000     -10.051313      -273.5101
  26   1.0000     -10.050306      -273.4827
  27   1.0000     -10.048314      -273.4285
  28   1.0000     -10.018764      -272.6244
  29   1.0000     -10.018277      -272.6112
  30   1.0000     -10.017970      -272.6028
  31   1.0000     -10.017340      -272.5857
  32   1.0000      -7.790168      -211.9812
  33   1.0000      -7.788309      -211.9307
  34   1.0000      -7.786678      -211.8863
  35   1.0000      -7.786649      -211.8855
  36   1.0000      -7.784623      -211.8304
  37   1.0000      -7.784518      -211.8275
  38   1.0000      -7.783542      -211.8009
  39   1.0000      -7.783411      -211.7974
  40   1.0000      -7.694643      -209.3819
  41   1.0000      -7.694193      -209.3696
  42   1.0000      -7.694189      -209.3695
  43   1.0000      -7.693874      -209.3610
  44   1.0000      -5.755171      -156.6062
  45   1.0000      -5.753310      -156.5555
  46   1.0000      -5.751672      -156.5109
  47   1.0000      -5.751650      -156.5104
  48   1.0000      -5.751641      -156.5101
  49   1.0000      -5.749965      -156.4645
  50   1.0000      -5.749567      -156.4537
  51   1.0000      -5.749473      -156.4511
  52   1.0000      -5.748482      -156.4241
  53   1.0000      -5.748355      -156.4207
  54   1.0000      -5.748247      -156.4178
  55   1.0000      -5.748232      -156.4173
  56   1.0000      -5.745136      -156.3331
  57   1.0000      -5.745076      -156.3315
  58   1.0000      -5.745020      -156.3299
  59   1.0000      -5.744059      -156.3038
  60   1.0000      -5.743921      -156.3000
  61   1.0000      -5.743017      -156.2754
  62   1.0000      -5.741480      -156.2336
  63   1.0000      -5.741439      -156.2325
  64   1.0000      -5.740453      -156.2057
  65   1.0000      -5.740334      -156.2024
  66   1.0000      -5.739373      -156.1763
  67   1.0000      -5.739237      -156.1726
  68   1.0000      -5.659971      -154.0156
  69   1.0000      -5.659493      -154.0026
  70   1.0000      -5.659492      -154.0026
  71   1.0000      -5.659212      -153.9950
  72   1.0000      -5.653322      -153.8347
  73   1.0000      -5.652871      -153.8224
  74   1.0000      -5.652828      -153.8213
  75   1.0000      -5.652533      -153.8132
  76   1.0000      -5.651965      -153.7978
  77   1.0000      -5.651511      -153.7854
  78   1.0000      -5.651506      -153.7853
  79   1.0000      -5.651167      -153.7761
  80   1.0000      -2.444183       -66.5096
  81   1.0000      -1.485482       -40.4220
  82   1.0000      -1.473820       -40.1047
  83   1.0000      -1.473011       -40.0827
  84   1.0000      -0.713981       -19.4284
  85   1.0000      -0.709549       -19.3078
  86   1.0000      -0.690898       -18.8003
  87   1.0000      -0.685683       -18.6584
  88   1.0000      -0.650041       -17.6885
  89   1.0000      -0.635991       -17.3062
  90   1.0000      -0.631887       -17.1945
  91   1.0000      -0.631393       -17.1811
  92   1.0000      -0.617302       -16.7976
  93   1.0000      -0.576153       -15.6779
  94   1.0000      -0.574588       -15.6353
  95   1.0000      -0.574469       -15.6321
  96   1.0000      -0.573086       -15.5945
  97   1.0000      -0.513744       -13.9797
  98   1.0000      -0.502861       -13.6835
  99   1.0000      -0.496219       -13.5028
 100   1.0000      -0.495949       -13.4955
 101   1.0000      -0.482054       -13.1173
 102   1.0000      -0.477987       -13.0067
 103   1.0000      -0.467653       -12.7255
 104   1.0000      -0.446386       -12.1468
 105   1.0000      -0.418813       -11.3965
 106   1.0000      -0.412167       -11.2156
 107   1.0000      -0.355406        -9.6711
 108   1.0000      -0.354848        -9.6559
 109   1.0000      -0.335466        -9.1285
 110   1.0000      -0.326721        -8.8905
 111   1.0000      -0.319636        -8.6977
 112   1.0000      -0.315123        -8.5749
 113   1.0000      -0.305358        -8.3092
 114   1.0000      -0.303884        -8.2691
 115   1.0000      -0.292513        -7.9597
 116   1.0000      -0.290591        -7.9074
 117   1.0000      -0.266147        -7.2422
 118   1.0000      -0.257912        -7.0181
 119   1.0000      -0.256708        -6.9854
 120   1.0000      -0.255516        -6.9529
 121   1.0000      -0.234557        -6.3826
 122   1.0000      -0.233449        -6.3525
 123   1.0000      -0.230736        -6.2786
 124   1.0000      -0.222456        -6.0533
 125   1.0000      -0.218953        -5.9580
 126   1.0000      -0.217199        -5.9103
 127   1.0000      -0.214080        -5.8254
 128   1.0000      -0.205654        -5.5961
 129   1.0000      -0.193510        -5.2657
 130   1.0000      -0.189525        -5.1572
 131   1.0000      -0.186153        -5.0655
 132   1.0000      -0.183675        -4.9980
 133   1.0000      -0.178901        -4.8681
 134   1.0000      -0.159798        -4.3483
 135   1.0000      -0.151891        -4.1332
 136   1.0000      -0.147101        -4.0028
 137   1.0000      -0.136084        -3.7030
 138   1.0000      -0.135214        -3.6794
 139   1.0000      -0.133421        -3.6306
 140   1.0000      -0.125527        -3.4158
 141   1.0000      -0.121442        -3.3046
 142   1.0000      -0.113721        -3.0945
 143   1.0000      -0.110096        -2.9959
 144   1.0000      -0.100164        -2.7256
 145   1.0000      -0.098593        -2.6828
 146   1.0000      -0.098286        -2.6745
 147   1.0000      -0.095133        -2.5887
 148   1.0000      -0.074776        -2.0347
 149   1.0000      -0.069209        -1.8833
 150   1.0000      -0.067510        -1.8370
 151   1.0000      -0.052557        -1.4301
 152   1.0000      -0.045846        -1.2475
 153   1.0000      -0.038149        -1.0381
 154   1.0000      -0.037368        -1.0168
 155   1.0000      -0.031758        -0.8642
 156   1.0000      -0.025259        -0.6873
 157   1.0000      -0.019377        -0.5273
 158   1.0000      -0.015642        -0.4256
 159   1.0000       0.020071         0.5462
 160   1.0000       0.040951         1.1143
 161   0.0000       0.132452         3.6042
 162   0.0000       0.136841         3.7236
 163   0.0000       0.153355         4.1730
 164   0.0000       0.156976         4.2715
 165   0.0000       0.161974         4.4075

                 SPIN DOWN ORBITALS
  NO   OCC          E(Eh)            E(eV)
   0   1.0000    -196.675307     -5351.8072
   1   1.0000     -88.736814     -2414.6515
   2   1.0000     -88.735048     -2414.6034
   3   1.0000     -88.733237     -2414.5541
   4   1.0000     -88.733216     -2414.5536
   5   1.0000     -88.731396     -2414.5040
   6   1.0000     -88.731238     -2414.4997
   7   1.0000     -88.730304     -2414.4743
   8   1.0000     -88.730129     -2414.4696
   9   1.0000     -88.640534     -2412.0316
  10   1.0000     -88.640001     -2412.0171
  11   1.0000     -88.639995     -2412.0169
  12   1.0000     -88.639761     -2412.0105
  13   1.0000     -22.035624      -599.6198
  14   1.0000     -18.894204      -514.1374
  15   1.0000     -18.551736      -504.8184
  16   1.0000     -18.535796      -504.3847
  17   1.0000     -18.535615      -504.3797
  18   1.0000     -10.077401      -274.2200
  19   1.0000     -10.075799      -274.1764
  20   1.0000     -10.063505      -273.8419
  21   1.0000     -10.063446      -273.8403
  22   1.0000     -10.061134      -273.7774
  23   1.0000     -10.060011      -273.7468
  24   1.0000     -10.053672      -273.5743
  25   1.0000     -10.051313      -273.5101
  26   1.0000     -10.050302      -273.4826
  27   1.0000     -10.048303      -273.4282
  28   1.0000     -10.018550      -272.6186
  29   1.0000     -10.018039      -272.6047
  30   1.0000     -10.017757      -272.5970
  31   1.0000     -10.017117      -272.5796
  32   1.0000      -7.790168      -211.9813
  33   1.0000      -7.788309      -211.9307
  34   1.0000      -7.786679      -211.8863
  35   1.0000      -7.786650      -211.8855
  36   1.0000      -7.784633      -211.8306
  37   1.0000      -7.784527      -211.8277
  38   1.0000      -7.783551      -211.8012
  39   1.0000      -7.783421      -211.7977
  40   1.0000      -7.694770      -209.3853
  41   1.0000      -7.694323      -209.3732
  42   1.0000      -7.694319      -209.3731
  43   1.0000      -7.694006      -209.3646
  44   1.0000      -5.755172      -156.6062
  45   1.0000      -5.753311      -156.5555
  46   1.0000      -5.751673      -156.5110
  47   1.0000      -5.751651      -156.5104
  48   1.0000      -5.751643      -156.5102
  49   1.0000      -5.749966      -156.4645
  50   1.0000      -5.749577      -156.4540
  51   1.0000      -5.749484      -156.4514
  52   1.0000      -5.748492      -156.4244
  53   1.0000      -5.748365      -156.4210
  54   1.0000      -5.748248      -156.4178
  55   1.0000      -5.748233      -156.4174
  56   1.0000      -5.745150      -156.3335
  57   1.0000      -5.745077      -156.3315
  58   1.0000      -5.745034      -156.3303
  59   1.0000      -5.744072      -156.3042
  60   1.0000      -5.743934      -156.3004
  61   1.0000      -5.743018      -156.2755
  62   1.0000      -5.741481      -156.2336
  63   1.0000      -5.741440      -156.2325
  64   1.0000      -5.740459      -156.2058
  65   1.0000      -5.740340      -156.2026
  66   1.0000      -5.739381      -156.1765
  67   1.0000      -5.739246      -156.1728
  68   1.0000      -5.660113      -154.0195
  69   1.0000      -5.659634      -154.0065
  70   1.0000      -5.659632      -154.0064
  71   1.0000      -5.659354      -153.9988
  72   1.0000      -5.653670      -153.8442
  73   1.0000      -5.653231      -153.8322
  74   1.0000      -5.653215      -153.8318
  75   1.0000      -5.652917      -153.8237
  76   1.0000      -5.652070      -153.8006
  77   1.0000      -5.651612      -153.7882
  78   1.0000      -5.651599      -153.7878
  79   1.0000      -5.651262      -153.7787
  80   1.0000      -2.399314       -65.2887
  81   1.0000      -1.466209       -39.8976
  82   1.0000      -1.411464       -38.4079
  83   1.0000      -1.411294       -38.4033
  84   1.0000      -0.713972       -19.4282
  85   1.0000      -0.709523       -19.3071
  86   1.0000      -0.690853       -18.7991
  87   1.0000      -0.685627       -18.6569
  88   1.0000      -0.658125       -17.9085
  89   1.0000      -0.635949       -17.3051
  90   1.0000      -0.631874       -17.1942
  91   1.0000      -0.631317       -17.1790
  92   1.0000      -0.617301       -16.7976
  93   1.0000      -0.576131       -15.6773
  94   1.0000      -0.574525       -15.6336
  95   1.0000      -0.574433       -15.6311
  96   1.0000      -0.573005       -15.5923
  97   1.0000      -0.513752       -13.9799
  98   1.0000      -0.502875       -13.6839
  99   1.0000      -0.496239       -13.5033
 100   1.0000      -0.495994       -13.4967
 101   1.0000      -0.482281       -13.1235
 102   1.0000      -0.478237       -13.0135
 103   1.0000      -0.467686       -12.7264
 104   1.0000      -0.446418       -12.1477
 105   1.0000      -0.418828       -11.3969
 106   1.0000      -0.412274       -11.2186
 107   1.0000      -0.355396        -9.6708
 108   1.0000      -0.354842        -9.6557
 109   1.0000      -0.335460        -9.1283
 110   1.0000      -0.326706        -8.8901
 111   1.0000      -0.319561        -8.6957
 112   1.0000      -0.315147        -8.5756
 113   1.0000      -0.305317        -8.3081
 114   1.0000      -0.303850        -8.2682
 115   1.0000      -0.292507        -7.9595
 116   1.0000      -0.290587        -7.9073
 117   1.0000      -0.266068        -7.2401
 118   1.0000      -0.257820        -7.0156
 119   1.0000      -0.256622        -6.9830
 120   1.0000      -0.255466        -6.9516
 121   1.0000      -0.234509        -6.3813
 122   1.0000      -0.233399        -6.3511
 123   1.0000      -0.230696        -6.2776
 124   1.0000      -0.222373        -6.0511
 125   1.0000      -0.218544        -5.9469
 126   1.0000      -0.217098        -5.9075
 127   1.0000      -0.213927        -5.8213
 128   1.0000      -0.205564        -5.5937
 129   1.0000      -0.191775        -5.2185
 130   1.0000      -0.189433        -5.1547
 131   1.0000      -0.185842        -5.0570
 132   1.0000      -0.183444        -4.9918
 133   1.0000      -0.178790        -4.8651
 134   1.0000      -0.159177        -4.3314
 135   1.0000      -0.151723        -4.1286
 136   1.0000      -0.147024        -4.0007
 137   1.0000      -0.135242        -3.6801
 138   1.0000      -0.135106        -3.6764
 139   1.0000      -0.133199        -3.6245
 140   1.0000      -0.124884        -3.3983
 141   1.0000      -0.121110        -3.2956
 142   1.0000      -0.115497        -3.1428
 143   1.0000      -0.111646        -3.0380
 144   1.0000      -0.100172        -2.7258
 145   1.0000      -0.098787        -2.6881
 146   1.0000      -0.098393        -2.6774
 147   1.0000      -0.095465        -2.5977
 148   1.0000      -0.070933        -1.9302
 149   1.0000      -0.069197        -1.8830
 150   1.0000      -0.067514        -1.8372
 151   1.0000      -0.049959        -1.3595
 152   1.0000      -0.044909        -1.2220
 153   1.0000      -0.038187        -1.0391
 154   1.0000      -0.036804        -1.0015
 155   1.0000      -0.031819        -0.8658
 156   1.0000      -0.026293        -0.7155
 157   1.0000      -0.015859        -0.4316
 158   1.0000       0.020370         0.5543
 159   1.0000       0.039842         1.0842
 160   0.0000       0.132454         3.6042
 161   0.0000       0.136850         3.7239
 162   0.0000       0.152961         4.1623
 163   0.0000       0.155824         4.2402
 164   0.0000       0.157635         4.2895

MULLIKEN ATOMIC CHARGES AND SPIN POPULATIONS
--------------------------------------------
   0 V :    0.470952    1.210313
   1 S :   -0.289810   -0.022318
   2 S :   -0.289595   -0.025286
   3 S :   -0.288243   -0.023328
   4 S :   -0.285366   -0.025701
   5 O :   -0.467581   -0.146427
   6 C :   -0.077241    0.009719
   7 C :   -0.084368    0.008039
   8 C :   -0.084512    0.007697
   9 C :   -0.084460    0.007402
  10 S :    0.099769   -0.000585
  11 S :    0.101027   -0.000622
  12 S :    0.102390   -0.000392
  13 S :    0.101634   -0.000345
  14 C :   -0.213973    0.001499
  15 C :   -0.210208    0.000996
  16 C :   -0.191345   -0.000052
  17 C :   -0.190813   -0.000405
  18 S :    0.009068   -0.000114
  19 S :    0.009234   -0.000113
  20 S :    0.008624   -0.000069
  21 S :    0.015268   -0.000071
  22 C :   -0.354181   -0.000002
  23 C :   -0.301269   -0.000001
  24 C :   -0.157056   -0.000012
  25 H :    0.074074   -0.000004
  26 H :    0.209702   -0.000002
  27 H :    0.085424   -0.000000
  28 H :    0.095592   -0.000001
  29 H :    0.036980   -0.000005
  30 H :    0.222807   -0.000000
  31 C :   -0.300104    0.000194
  32 C :   -0.300979    0.000190
  33 C :   -0.157543   -0.000238
  34 H :    0.142366   -0.000018
  35 H :    0.113262    0.000019
  36 H :    0.092283    0.000023
  37 H :    0.082713    0.000015
  38 H :    0.113560    0.000020
  39 H :    0.141917   -0.000018
Sum of atomic charges         :   -2.0000000

LOEWDIN ATOMIC CHARGES AND SPIN POPULATIONS
-------------------------------------------
   0 V :   -0.155889    1.163724
   1 S :    0.080652   -0.014382
   2 S :    0.079464   -0.016140
   3 S :    0.081773   -0.015213
   4 S :    0.083371   -0.016326
   5 O :   -0.318874   -0.131358
   6 C :   -0.549898    0.009054
   7 C :   -0.552108    0.007951
   8 C :   -0.552127    0.008130
   9 C :   -0.551851    0.007662
  10 S :    0.471312   -0.000899
  11 S :    0.472237   -0.000947
  12 S :    0.473468   -0.000822
  13 S :    0.473053   -0.000832
  14 C :   -0.464996    0.000162
  15 C :   -0.463765   -0.000081
  16 C :   -0.622686    0.000475
  17 C :   -0.621619    0.000084
  18 S :    0.358798   -0.000090
  19 S :    0.360159   -0.000087
  20 S :    0.364718   -0.000073
  21 S :    0.368594   -0.000074
  22 C :   -0.224240   -0.000007
  23 C :   -0.214009   -0.000008
  24 C :   -0.164071   -0.000002
  25 H :    0.074250   -0.000003
  26 H :   -0.043651   -0.000002
  27 H :    0.060345   -0.000001
  28 H :    0.061953   -0.000001
  29 H :    0.064387   -0.000003
  30 H :   -0.033885   -0.000001
  31 C :   -0.284070    0.000043
  32 C :   -0.283774    0.000037
  33 C :   -0.176315    0.000006
  34 H :    0.061984   -0.000001
  35 H :    0.053645    0.000008
  36 H :    0.060252    0.000005
  37 H :    0.057807    0.000002
  38 H :    0.053484    0.000009
  39 H :    0.062121   -0.000001

  Mayer bond orders larger than 0.100000
B(  0-V ,  1-S ) :   0.7709 B(  0-V ,  2-S ) :   0.7718 B(  0-V ,  3-S ) :   0.7641
B(  0-V ,  4-S ) :   0.7792 B(  0-V ,  5-O ) :   2.1488 B(  1-S ,  8-C ) :   1.1046
B(  2-S ,  6-C ) :   1.1042 B(  3-S ,  9-C ) :   1.1074 B(  4-S ,  7-C ) :   1.1045
B(  6-C ,  7-C ) :   1.6845 B(  6-C , 10-S ) :   0.9349 B(  7-C , 11-S ) :   0.9389
B(  8-C ,  9-C ) :   1.6963 B(  8-C , 13-S ) :   0.9339 B(  9-C , 12-S ) :   0.9362
B( 10-S , 14-C ) :   1.2487 B( 11-S , 14-C ) :   1.2485 B( 12-S , 15-C ) :   1.2477
B( 13-S , 15-C ) :   1.2491 B( 14-C , 16-C ) :   1.4510 B( 15-C , 17-C ) :   1.4483
B( 16-C , 18-S ) :   1.0880 B( 16-C , 19-S ) :   1.0894 B( 17-C , 20-S ) :   1.0944
B( 17-C , 21-S ) :   1.0813 B( 18-S , 32-C ) :   0.9918 B( 19-S , 31-C ) :   0.9919
B( 20-S , 23-C ) :   0.9884 B( 21-S , 22-C ) :   0.9958 B( 22-C , 24-C ) :   0.9132
B( 22-C , 25-H ) :   0.9488 B( 22-C , 26-H ) :   0.9595 B( 23-C , 24-C ) :   0.9087
B( 23-C , 29-H ) :   0.9444 B( 23-C , 30-H ) :   0.9711 B( 24-C , 27-H ) :   0.9629
B( 24-C , 28-H ) :   0.9663 B( 31-C , 33-C ) :   0.9136 B( 31-C , 38-H ) :   0.9656
B( 31-C , 39-H ) :   0.9658 B( 32-C , 33-C ) :   0.9131 B( 32-C , 34-H ) :   0.9657
B( 32-C , 35-H ) :   0.9655 B( 33-C , 36-H ) :   0.9718 B( 33-C , 37-H ) :   0.9624

FINAL SINGLE POINT ENERGY     -6337.476266996406

DIPOLE MOMENT
-------------
                                X             Y             Z
Electronic contribution:    -12.40293       4.32209      -3.94379
Nuclear contribution   :     13.70875      -4.83758       4.16665
                        -----------------------------------------
Total Dipole Moment    :      1.30582      -0.51549       0.22286
                        -----------------------------------------
Magnitude (a.u.)       :      1.42147
Magnitude (Debye)      :      3.61308

Rotational constants in cm-1:     0.010761     0.000804     0.000783
Rotational constants in MHz :   322.603714    24.115782    23.486640

                             ****ORCA TERMINATED NORMALLY****
TOTAL RUN TIME: 0 days 1 hours 1 minutes 46 seconds 267 msec
