                         Program Version 5.0.4 -  RELEASE  -
|  1> ! nofrozencore ReducedPop printbasis
|  2> ! B3LYP TZVP
|  3>
|  4> %basis
|  5> newgto V "CP(PPP)" end
|  6> end
|  7>
|  8> %pal
|  9> nprocs 6
| 10> end
| 11>
| 12> % sym SymThresh 1e-2 end
| 13> * xyz -2 2
| 14> V 0.0008947184533936527 0.1214602324455286 1.1059032701674987
| 15> S -2.4444952267585434 0.19933294608497792 0.6084265544301803
| 16> S -0.3028568294424753 -2.304493389724105 0.6002454374328526
| 17> S 0.07081836131129256 2.419140870568644 0.2409998893828957
| 18> S 2.2448993475908723 -0.16066004668995718 0.16989611375677866
| 19> O 0.1395319766583845 0.19183444415749548 2.686934338104597
| 20> C 1.5643100210052365 -2.50125505610677 0.42610249065208805
| 21> C 2.6859864486237632 -1.7610866444962865 0.2253276931899696
| 22> C -2.268213382476972 2.0847555349820133 0.195998397647101
| 23> C -1.3983652915056701 3.119893499132587 -0.007398606860800042
| 24> S 1.9389177974061949 -4.534148544531612 0.4480429032462902
| 25> S 4.035477632669815 -2.5075748708826087 0.055020004958973905
| 26> S -1.9460367987766694 4.431993568893331 -0.3823617121956594
| 27> S -4.305395137906566 2.6854785821126357 -0.1056430088638387
| 28> C 3.5560611494699934 -4.27963506659901 0.1774178706873765
| 29> C -3.804925692972933 4.199302951980127 -0.5196872942091576
| 30> C 4.515036571897916 -5.2494329164233635 0.04996441915213615
| 31> C -4.584136734246036 5.254533731402185 -0.9236726797609137
| 32> S 4.032287291021326 -6.9748526958965 0.22964706226773715
| 33> S 6.273042405886587 -4.9858561902811545 -0.24619609440589046
| 34> S -6.3458962489657385 4.960853583641038 -1.038717684774564
| 35> S -4.03714987457943 6.889137168649295 -1.389444441155909
| 36> C -4.57919093715779 6.862479294922735 -3.1533538199481708
| 37> C -6.54946417156805 5.235016580674139 -2.8636869182763802
| 38> C -6.076897350540717 6.612351673075035 -3.3347352669223986
| 39> H -3.9891857039993073 6.109122605896912 -3.679858951459398
| 40> H -4.310236212032064 7.844882353802766 -3.5501004336976805
| 41> H -6.310915190008353 6.708836371342847 -4.404250084059623
| 42> H -6.63909742691816 7.389361856064115 -2.807296677478592
| 43> H -7.616989258381145 5.110700057886399 -3.0613036589327747
| 44> H -6.010676283602285 4.441298784759781 -3.386136596404566
| 45> C 6.933093655085858 -5.702482775101749 1.320808775773795
| 46> C 5.038822392147125 -7.388325248812993 1.7312180394297876
| 47> C 6.539008532678698 -7.160553353225683 1.5487204103971104
| 48> H 4.655796981218789 -6.80041620313692 2.5683930720331416
| 49> H 4.837479293409135 -8.443094436028941 1.934734229076687
| 50> H 6.898306466841472 -7.7666619327607815 0.7110807309881729
| 51> H 7.053311288924747 -7.515249923475095 2.4530328270364157
| 52> H 8.019439540268326 -5.617638941113621 1.232972582912826
| 53> H 6.608333113087626 -5.072380515726128 2.151774706971791
| 54> *
| 55>
| 56> % eprnmr
| 57> gtensor true
| 58> Nuclei = all H {aiso,adip,aorb,fgrad,rho}
| 59> Nuclei = all V {aiso,adip,aorb,fgrad,rho}
| 60> end
| 61>
| 62>                          ****END OF INPUT****

CARTESIAN COORDINATES (ANGSTROEM)
---------------------------------
  V      0.002227    0.119387    1.102966
  S     -2.443163    0.197260    0.605490
  S     -0.301525   -2.306566    0.597308
  S      0.072150    2.417068    0.238063
  S      2.246231   -0.162733    0.166959
  O      0.140864    0.189762    2.683997
  C      1.565642   -2.503328    0.423166
  C      2.687318   -1.763160    0.222391
  C     -2.266881    2.082683    0.193061
  C     -1.397033    3.117821   -0.010336
  S      1.940250   -4.536221    0.445106
  S      4.036810   -2.509648    0.052083
  S     -1.944705    4.429921   -0.385299
  S     -4.304063    2.683406   -0.108580
  C      3.557393   -4.281708    0.174481
  C     -3.803594    4.197230   -0.522624
  C      4.516369   -5.251506    0.047027
  C     -4.582805    5.252461   -0.926610
  S      4.033619   -6.976926    0.226710
  S      6.274374   -4.987929   -0.249133
  S     -6.344564    4.958781   -1.041655
  S     -4.035818    6.887064   -1.392381
  C     -4.577859    6.860406   -3.156291
  C     -6.548132    5.232944   -2.866624
  C     -6.075565    6.610279   -3.337672
  H     -3.987854    6.107050   -3.682796
  H     -4.308904    7.842809   -3.553037
  H     -6.309583    6.706763   -4.407187
  H     -6.637765    7.387289   -2.810234
  H     -7.615657    5.108627   -3.064241
  H     -6.009344    4.439226   -3.389074
  C      6.934426   -5.704556    1.317872
  C      5.040154   -7.390398    1.728281
  C      6.540341   -7.162626    1.545783
  H      4.657129   -6.802489    2.565456
  H      4.838811   -8.445167    1.931797
  H      6.899638   -7.768735    0.708144
  H      7.054643   -7.517323    2.450096
  H      8.020772   -5.619712    1.230036
  H      6.609665   -5.074453    2.148838

 Total Charge           Charge          ....   -2
 Multiplicity           Mult            ....    2
 Number of Electrons    NEL             ....  321
 Basis Dimension        Dim             ....  681

ORBITAL ENERGIES
----------------
                 SPIN UP ORBITALS
  NO   OCC          E(Eh)            E(eV)
   0   1.0000    -196.683396     -5352.0273
   1   1.0000     -88.732542     -2414.5352
   2   1.0000     -88.729863     -2414.4623
   3   1.0000     -88.729690     -2414.4576
   4   1.0000     -88.725988     -2414.3569
   5   1.0000     -88.725926     -2414.3552
   6   1.0000     -88.718677     -2414.1579
   7   1.0000     -88.716116     -2414.0882
   8   1.0000     -88.706723     -2413.8326
   9   1.0000     -88.657741     -2412.4998
  10   1.0000     -88.654868     -2412.4216
  11   1.0000     -88.649728     -2412.2817
  12   1.0000     -88.646178     -2412.1851
  13   1.0000     -22.058080      -600.2309
  14   1.0000     -18.898456      -514.2531
  15   1.0000     -18.564673      -505.1704
  16   1.0000     -18.559344      -505.0254
  17   1.0000     -18.559248      -505.0228
  18   1.0000     -10.073088      -274.1026
  19   1.0000     -10.070872      -274.0424
  20   1.0000     -10.061530      -273.7881
  21   1.0000     -10.061145      -273.7777
  22   1.0000     -10.058819      -273.7144
  23   1.0000     -10.058353      -273.7017
  24   1.0000     -10.049013      -273.4475
  25   1.0000     -10.046742      -273.3857
  26   1.0000     -10.046444      -273.3776
  27   1.0000     -10.042502      -273.2704
  28   1.0000     -10.037956      -273.1467
  29   1.0000     -10.035266      -273.0735
  30   1.0000     -10.019841      -272.6537
  31   1.0000     -10.019014      -272.6312
  32   1.0000      -7.785505      -211.8544
  33   1.0000      -7.785059      -211.8422
  34   1.0000      -7.783051      -211.7876
  35   1.0000      -7.782918      -211.7840
  36   1.0000      -7.781457      -211.7442
  37   1.0000      -7.779368      -211.6874
  38   1.0000      -7.770235      -211.4388
  39   1.0000      -7.761213      -211.1933
  40   1.0000      -7.708000      -209.7453
  41   1.0000      -7.707636      -209.7354
  42   1.0000      -7.705957      -209.6898
  43   1.0000      -7.703626      -209.6263
  44   1.0000      -5.750563      -156.4808
  45   1.0000      -5.749633      -156.4555
  46   1.0000      -5.748109      -156.4140
  47   1.0000      -5.747917      -156.4088
  48   1.0000      -5.747153      -156.3880
  49   1.0000      -5.745604      -156.3458
  50   1.0000      -5.744969      -156.3286
  51   1.0000      -5.744657      -156.3201
  52   1.0000      -5.744507      -156.3160
  53   1.0000      -5.744356      -156.3119
  54   1.0000      -5.741040      -156.2216
  55   1.0000      -5.740915      -156.2183
  56   1.0000      -5.740530      -156.2078
  57   1.0000      -5.740263      -156.2005
  58   1.0000      -5.737804      -156.1336
  59   1.0000      -5.737727      -156.1315
  60   1.0000      -5.736786      -156.1059
  61   1.0000      -5.734184      -156.0351
  62   1.0000      -5.734151      -156.0342
  63   1.0000      -5.730881      -155.9452
  64   1.0000      -5.726806      -155.8343
  65   1.0000      -5.724834      -155.7806
  66   1.0000      -5.721721      -155.6960
  67   1.0000      -5.718139      -155.5985
  68   1.0000      -5.674547      -154.4123
  69   1.0000      -5.673103      -154.3730
  70   1.0000      -5.672105      -154.3458
  71   1.0000      -5.668872      -154.2579
  72   1.0000      -5.666771      -154.2007
  73   1.0000      -5.665981      -154.1792
  74   1.0000      -5.664769      -154.1462
  75   1.0000      -5.664692      -154.1441
  76   1.0000      -5.664206      -154.1309
  77   1.0000      -5.662842      -154.0938
  78   1.0000      -5.661941      -154.0692
  79   1.0000      -5.660604      -154.0329
  80   1.0000      -2.452071       -66.7242
  81   1.0000      -1.493774       -40.6477
  82   1.0000      -1.481598       -40.3163
  83   1.0000      -1.481025       -40.3007
  84   1.0000      -0.728760       -19.8306
  85   1.0000      -0.719251       -19.5718
  86   1.0000      -0.694678       -18.9032
  87   1.0000      -0.693681       -18.8760
  88   1.0000      -0.657630       -17.8950
  89   1.0000      -0.649384       -17.6706
  90   1.0000      -0.647241       -17.6123
  91   1.0000      -0.614288       -16.7156
  92   1.0000      -0.611826       -16.6486
  93   1.0000      -0.590747       -16.0751
  94   1.0000      -0.589621       -16.0444
  95   1.0000      -0.565589       -15.3905
  96   1.0000      -0.561924       -15.2907
  97   1.0000      -0.504450       -13.7268
  98   1.0000      -0.500615       -13.6224
  99   1.0000      -0.490549       -13.3485
 100   1.0000      -0.488240       -13.2857
 101   1.0000      -0.479029       -13.0350
 102   1.0000      -0.473717       -12.8905
 103   1.0000      -0.443692       -12.0735
 104   1.0000      -0.439514       -11.9598
 105   1.0000      -0.419522       -11.4158
 106   1.0000      -0.413843       -11.2612
 107   1.0000      -0.361751        -9.8437
 108   1.0000      -0.360854        -9.8193
 109   1.0000      -0.337479        -9.1833
 110   1.0000      -0.335929        -9.1411
 111   1.0000      -0.317456        -8.6384
 112   1.0000      -0.314416        -8.5557
 113   1.0000      -0.292848        -7.9688
 114   1.0000      -0.289495        -7.8776
 115   1.0000      -0.287513        -7.8236
 116   1.0000      -0.280726        -7.6389
 117   1.0000      -0.255789        -6.9604
 118   1.0000      -0.253154        -6.8887
 119   1.0000      -0.252058        -6.8589
 120   1.0000      -0.248442        -6.7604
 121   1.0000      -0.235312        -6.4032
 122   1.0000      -0.233548        -6.3552
 123   1.0000      -0.229896        -6.2558
 124   1.0000      -0.227000        -6.1770
 125   1.0000      -0.224298        -6.1035
 126   1.0000      -0.221461        -6.0263
 127   1.0000      -0.219739        -5.9794
 128   1.0000      -0.214699        -5.8423
 129   1.0000      -0.198579        -5.4036
 130   1.0000      -0.195208        -5.3119
 131   1.0000      -0.193285        -5.2595
 132   1.0000      -0.183194        -4.9850
 133   1.0000      -0.181407        -4.9363
 134   1.0000      -0.172587        -4.6963
 135   1.0000      -0.151208        -4.1146
 136   1.0000      -0.148583        -4.0431
 137   1.0000      -0.148530        -4.0417
 138   1.0000      -0.146700        -3.9919
 139   1.0000      -0.134837        -3.6691
 140   1.0000      -0.121699        -3.3116
 141   1.0000      -0.120068        -3.2672
 142   1.0000      -0.118912        -3.2358
 143   1.0000      -0.109332        -2.9751
 144   1.0000      -0.099079        -2.6961
 145   1.0000      -0.095349        -2.5946
 146   1.0000      -0.085760        -2.3336
 147   1.0000      -0.077465        -2.1079
 148   1.0000      -0.073035        -1.9874
 149   1.0000      -0.064711        -1.7609
 150   1.0000      -0.060117        -1.6359
 151   1.0000      -0.056013        -1.5242
 152   1.0000      -0.044071        -1.1992
 153   1.0000      -0.037162        -1.0112
 154   1.0000      -0.035590        -0.9684
 155   1.0000      -0.030939        -0.8419
 156   1.0000      -0.028509        -0.7758
 157   1.0000      -0.020949        -0.5701
 158   1.0000      -0.018381        -0.5002
 159   1.0000       0.020236         0.5507
 160   1.0000       0.038461         1.0466
 161   0.0000       0.138296         3.7632
 162   0.0000       0.141126         3.8402
 163   0.0000       0.151336         4.1181
 164   0.0000       0.156030         4.2458
 165   0.0000       0.160910         4.3786

                 SPIN DOWN ORBITALS
  NO   OCC          E(Eh)            E(eV)
   0   1.0000    -196.683535     -5352.0311
   1   1.0000     -88.732543     -2414.5352
   2   1.0000     -88.729863     -2414.4623
   3   1.0000     -88.729690     -2414.4576
   4   1.0000     -88.725997     -2414.3571
   5   1.0000     -88.725925     -2414.3552
   6   1.0000     -88.718688     -2414.1582
   7   1.0000     -88.716119     -2414.0883
   8   1.0000     -88.706723     -2413.8326
   9   1.0000     -88.657923     -2412.5047
  10   1.0000     -88.655045     -2412.4264
  11   1.0000     -88.649814     -2412.2841
  12   1.0000     -88.646276     -2412.1878
  13   1.0000     -22.043144      -599.8244
  14   1.0000     -18.902228      -514.3558
  15   1.0000     -18.559376      -505.0263
  16   1.0000     -18.543379      -504.5910
  17   1.0000     -18.543065      -504.5824
  18   1.0000     -10.073073      -274.1023
  19   1.0000     -10.070844      -274.0416
  20   1.0000     -10.061528      -273.7881
  21   1.0000     -10.061144      -273.7776
  22   1.0000     -10.058819      -273.7144
  23   1.0000     -10.058354      -273.7017
  24   1.0000     -10.049012      -273.4475
  25   1.0000     -10.046742      -273.3857
  26   1.0000     -10.046429      -273.3772
  27   1.0000     -10.042498      -273.2703
  28   1.0000     -10.037741      -273.1408
  29   1.0000     -10.035090      -273.0687
  30   1.0000     -10.019649      -272.6485
  31   1.0000     -10.018772      -272.6246
  32   1.0000      -7.785506      -211.8544
  33   1.0000      -7.785070      -211.8425
  34   1.0000      -7.783052      -211.7876
  35   1.0000      -7.782918      -211.7840
  36   1.0000      -7.781469      -211.7445
  37   1.0000      -7.779367      -211.6873
  38   1.0000      -7.770238      -211.4389
  39   1.0000      -7.761214      -211.1934
  40   1.0000      -7.708173      -209.7500
  41   1.0000      -7.707714      -209.7375
  42   1.0000      -7.706124      -209.6943
  43   1.0000      -7.703716      -209.6288
  44   1.0000      -5.750565      -156.4808
  45   1.0000      -5.749650      -156.4559
  46   1.0000      -5.748110      -156.4140
  47   1.0000      -5.747918      -156.4088
  48   1.0000      -5.747154      -156.3880
  49   1.0000      -5.745625      -156.3464
  50   1.0000      -5.744987      -156.3290
  51   1.0000      -5.744658      -156.3201
  52   1.0000      -5.744508      -156.3160
  53   1.0000      -5.744355      -156.3118
  54   1.0000      -5.741057      -156.2221
  55   1.0000      -5.740914      -156.2182
  56   1.0000      -5.740533      -156.2079
  57   1.0000      -5.740264      -156.2005
  58   1.0000      -5.737804      -156.1336
  59   1.0000      -5.737726      -156.1315
  60   1.0000      -5.736791      -156.1060
  61   1.0000      -5.734184      -156.0351
  62   1.0000      -5.734156      -156.0343
  63   1.0000      -5.730882      -155.9452
  64   1.0000      -5.726812      -155.8345
  65   1.0000      -5.724837      -155.7807
  66   1.0000      -5.721715      -155.6958
  67   1.0000      -5.718139      -155.5985
  68   1.0000      -5.674709      -154.4167
  69   1.0000      -5.673202      -154.3757
  70   1.0000      -5.672249      -154.3497
  71   1.0000      -5.668979      -154.2607
  72   1.0000      -5.667272      -154.2143
  73   1.0000      -5.666190      -154.1849
  74   1.0000      -5.665263      -154.1596
  75   1.0000      -5.664822      -154.1476
  76   1.0000      -5.664283      -154.1330
  77   1.0000      -5.662973      -154.0973
  78   1.0000      -5.662218      -154.0768
  79   1.0000      -5.660649      -154.0341
  80   1.0000      -2.407197       -65.5032
  81   1.0000      -1.474171       -40.1142
  82   1.0000      -1.419714       -38.6324
  83   1.0000      -1.419204       -38.6185
  84   1.0000      -0.728649       -19.8276
  85   1.0000      -0.719149       -19.5690
  86   1.0000      -0.694665       -18.9028
  87   1.0000      -0.693647       -18.8751
  88   1.0000      -0.665703       -18.1147
  89   1.0000      -0.649357       -17.6699
  90   1.0000      -0.647191       -17.6110
  91   1.0000      -0.614287       -16.7156
  92   1.0000      -0.611827       -16.6487
  93   1.0000      -0.590721       -16.0743
  94   1.0000      -0.589603       -16.0439
  95   1.0000      -0.565602       -15.3908
  96   1.0000      -0.561920       -15.2906
  97   1.0000      -0.504489       -13.7278
  98   1.0000      -0.500635       -13.6230
  99   1.0000      -0.490583       -13.3495
 100   1.0000      -0.488252       -13.2860
 101   1.0000      -0.479213       -13.0401
 102   1.0000      -0.473918       -12.8960
 103   1.0000      -0.443733       -12.0746
 104   1.0000      -0.439574       -11.9614
 105   1.0000      -0.419510       -11.4155
 106   1.0000      -0.413975       -11.2648
 107   1.0000      -0.361692        -9.8421
 108   1.0000      -0.360830        -9.8187
 109   1.0000      -0.337421        -9.1817
 110   1.0000      -0.335900        -9.1403
 111   1.0000      -0.317441        -8.6380
 112   1.0000      -0.314404        -8.5554
 113   1.0000      -0.292841        -7.9686
 114   1.0000      -0.289492        -7.8775
 115   1.0000      -0.287483        -7.8228
 116   1.0000      -0.280701        -7.6383
 117   1.0000      -0.255430        -6.9506
 118   1.0000      -0.253024        -6.8851
 119   1.0000      -0.251992        -6.8570
 120   1.0000      -0.248359        -6.7582
 121   1.0000      -0.234957        -6.3935
 122   1.0000      -0.233493        -6.3537
 123   1.0000      -0.229587        -6.2474
 124   1.0000      -0.226819        -6.1720
 125   1.0000      -0.223846        -6.0912
 126   1.0000      -0.221415        -6.0250
 127   1.0000      -0.219653        -5.9771
 128   1.0000      -0.214342        -5.8325
 129   1.0000      -0.197990        -5.3876
 130   1.0000      -0.194995        -5.3061
 131   1.0000      -0.192868        -5.2482
 132   1.0000      -0.182778        -4.9737
 133   1.0000      -0.181110        -4.9282
 134   1.0000      -0.172058        -4.6819
 135   1.0000      -0.150710        -4.1010
 136   1.0000      -0.148506        -4.0411
 137   1.0000      -0.148399        -4.0382
 138   1.0000      -0.146424        -3.9844
 139   1.0000      -0.133599        -3.6354
 140   1.0000      -0.121946        -3.3183
 141   1.0000      -0.121145        -3.2965
 142   1.0000      -0.119474        -3.2511
 143   1.0000      -0.108755        -2.9594
 144   1.0000      -0.099054        -2.6954
 145   1.0000      -0.095252        -2.5919
 146   1.0000      -0.085701        -2.3320
 147   1.0000      -0.077453        -2.1076
 148   1.0000      -0.072269        -1.9665
 149   1.0000      -0.064685        -1.7602
 150   1.0000      -0.059813        -1.6276
 151   1.0000      -0.053405        -1.4532
 152   1.0000      -0.040066        -1.0903
 153   1.0000      -0.036769        -1.0005
 154   1.0000      -0.034926        -0.9504
 155   1.0000      -0.030794        -0.8379
 156   1.0000      -0.028563        -0.7772
 157   1.0000      -0.018668        -0.5080
 158   1.0000       0.020423         0.5557
 159   1.0000       0.037562         1.0221
 160   0.0000       0.138343         3.7645
 161   0.0000       0.140969         3.8360
 162   0.0000       0.146106         3.9757
 163   0.0000       0.153073         4.1653
 164   0.0000       0.157038         4.2732

MULLIKEN ATOMIC CHARGES AND SPIN POPULATIONS
--------------------------------------------
   0 V :    0.450750    1.206220
   1 S :   -0.272082   -0.034167
   2 S :   -0.276371   -0.034098
   3 S :   -0.248138   -0.010648
   4 S :   -0.256989   -0.014638
   5 O :   -0.457162   -0.146109
   6 C :   -0.109601    0.006749
   7 C :   -0.049365    0.008518
   8 C :   -0.134594    0.008480
   9 C :   -0.031940    0.005639
  10 S :    0.044622   -0.000338
  11 S :    0.141982    0.000080
  12 S :    0.148224    0.000195
  13 S :    0.021046    0.000264
  14 C :   -0.206704    0.002013
  15 C :   -0.211963    0.002555
  16 C :   -0.207326    0.000083
  17 C :   -0.207361   -0.000844
  18 S :   -0.001128   -0.000066
  19 S :    0.008994   -0.000125
  20 S :   -0.001232    0.000106
  21 S :    0.011778   -0.000036
  22 C :   -0.294209   -0.000019
  23 C :   -0.301930   -0.000021
  24 C :   -0.155344    0.000012
  25 H :    0.139941   -0.000000
  26 H :    0.110286   -0.000008
  27 H :    0.079775   -0.000007
  28 H :    0.089665   -0.000006
  29 H :    0.110999   -0.000003
  30 H :    0.140620   -0.000001
  31 C :   -0.294575    0.000205
  32 C :   -0.301187    0.000219
  33 C :   -0.155859   -0.000251
  34 H :    0.140911   -0.000020
  35 H :    0.112065    0.000030
  36 H :    0.091616    0.000024
  37 H :    0.080269    0.000014
  38 H :    0.111260    0.000011
  39 H :    0.140259   -0.000012
Sum of atomic charges         :   -2.0000000

LOEWDIN ATOMIC CHARGES AND SPIN POPULATIONS
-------------------------------------------
   0 V :   -0.157260    1.160517
   1 S :    0.032571   -0.024546
   2 S :    0.042779   -0.024427
   3 S :    0.175541   -0.004977
   4 S :    0.155213   -0.006761
   5 O :   -0.311700   -0.131268
   6 C :   -0.435055    0.006539
   7 C :   -0.663239    0.008463
   8 C :   -0.419081    0.008831
   9 C :   -0.692611    0.006185
  10 S :    0.389315   -0.000430
  11 S :    0.546144   -0.000221
  12 S :    0.568457   -0.000104
  13 S :    0.352205    0.000055
  14 C :   -0.477001    0.000526
  15 C :   -0.471839    0.000990
  16 C :   -0.616294    0.000632
  17 C :   -0.626727    0.000026
  18 S :    0.350436   -0.000041
  19 S :    0.352633   -0.000083
  20 S :    0.354472    0.000059
  21 S :    0.357352   -0.000043
  22 C :   -0.287229   -0.000013
  23 C :   -0.282957   -0.000022
  24 C :   -0.177053   -0.000002
  25 H :    0.061295   -0.000001
  26 H :    0.052523   -0.000005
  27 H :    0.056576   -0.000004
  28 H :    0.059413   -0.000003
  29 H :    0.052559    0.000002
  30 H :    0.061517   -0.000001
  31 C :   -0.287643    0.000049
  32 C :   -0.284095    0.000043
  33 C :   -0.177400    0.000008
  34 H :    0.061689    0.000002
  35 H :    0.053086    0.000015
  36 H :    0.059956    0.000004
  37 H :    0.057028    0.000001
  38 H :    0.053211    0.000006
  39 H :    0.061215   -0.000001

  Mayer bond orders larger than 0.100000
B(  0-V ,  1-S ) :   0.7674 B(  0-V ,  2-S ) :   0.7675 B(  0-V ,  3-S ) :   0.7587
B(  0-V ,  4-S ) :   0.7862 B(  0-V ,  5-O ) :   2.1593 B(  1-S ,  8-C ) :   1.0503
B(  2-S ,  6-C ) :   1.0877 B(  3-S ,  8-C ) :   0.1091 B(  3-S ,  9-C ) :   1.0450
B(  4-S ,  7-C ) :   1.0668 B(  6-C ,  7-C ) :   1.5717 B(  6-C , 10-S ) :   0.7440
B(  7-C , 11-S ) :   1.1428 B(  8-C ,  9-C ) :   1.5042 B(  8-C , 13-S ) :   0.6777
B(  9-C , 12-S ) :   1.2461 B( 10-S , 14-C ) :   1.4179 B( 11-S , 14-C ) :   1.1266
B( 12-S , 15-C ) :   1.0671 B( 13-S , 15-C ) :   1.4737 B( 14-C , 16-C ) :   1.4440
B( 15-C , 17-C ) :   1.4329 B( 16-C , 18-S ) :   1.0725 B( 16-C , 19-S ) :   1.0788
B( 17-C , 20-S ) :   1.0738 B( 17-C , 21-S ) :   1.0887 B( 18-S , 32-C ) :   0.9960
B( 19-S , 31-C ) :   0.9947 B( 20-S , 23-C ) :   0.9968 B( 21-S , 22-C ) :   0.9909
B( 22-C , 24-C ) :   0.9152 B( 22-C , 25-H ) :   0.9649 B( 22-C , 26-H ) :   0.9653
B( 23-C , 24-C ) :   0.9129 B( 23-C , 29-H ) :   0.9660 B( 23-C , 30-H ) :   0.9673
B( 24-C , 27-H ) :   0.9619 B( 24-C , 28-H ) :   0.9717 B( 31-C , 33-C ) :   0.9138
B( 31-C , 38-H ) :   0.9661 B( 31-C , 39-H ) :   0.9648 B( 32-C , 33-C ) :   0.9115
B( 32-C , 34-H ) :   0.9671 B( 32-C , 35-H ) :   0.9658 B( 33-C , 36-H ) :   0.9723
B( 33-C , 37-H ) :   0.9618

FINAL SINGLE POINT ENERGY     -6337.477212573182

DIPOLE MOMENT
-------------
                                X             Y             Z
Electronic contribution:     -2.43174       3.52984      13.00070
Nuclear contribution   :      3.02709      -3.96321     -14.29731
                        -----------------------------------------
Total Dipole Moment    :      0.59536      -0.43337      -1.29661
                        -----------------------------------------
Magnitude (a.u.)       :      1.49113
Magnitude (Debye)      :      3.79015

Rotational constants in cm-1:     0.010734     0.000804     0.000783
Rotational constants in MHz :   321.797453    24.114484    23.481190

                             ****ORCA TERMINATED NORMALLY****
TOTAL RUN TIME: 0 days 1 hours 7 minutes 8 seconds 861 msec
