                         Program Version 5.0.4 -  RELEASE  -
|  1> ! nofrozencore ReducedPop printbasis
|  2> ! B3LYP TZVP
|  3>
|  4> %basis
|  5> newgto V "CP(PPP)" end
|  6> end
|  7>
|  8> %pal
|  9> nprocs 8
| 10> end
| 11>
| 12> % sym SymThresh 1e-2 end
| 13> * xyz -2 2
| 14> V -0.5748027465198298 0.9231668783402389 0.23776659208938264
| 15> S 1.2542794442754517 1.0611078129565759 1.895874361898904
| 16> S 1.1538672702913533 1.5215867521494228 -1.429151434483677
| 17> S -1.5513117438430535 -0.8167926193749013 1.7009538073464288
| 18> S -1.583495205716614 -0.4197432386861505 -1.5676669136110386
| 19> O -1.462624741035965 2.228583079409404 0.4103074903296012
| 20> C 0.28065845881261753 1.1096581986710834 -2.902845212908875
| 21> C -0.813941579491912 0.328854512431129 -2.95970959402589
| 22> C 0.5999183051843334 0.043243459139386 3.2212000390879822
| 23> C -0.5058900351435884 -0.7019987208442855 3.145532911242451
| 24> S 0.9217445988080595 1.7028346684647728 -4.4710041997398795
| 25> S -1.4683612238377772 -0.0223725829472189 -4.58560941894018
| 26> S -0.9655251144360693 -1.6635688504849304 4.497108021523662
| 27> S 1.5322979922794033 0.02038882096524392 4.6834598889985335
| 28> C -0.2657538715312628 0.897288733228586 -5.532005178521816
| 29> C 0.5273599923326033 -1.3227028083408796 5.843366544220301
| 30> C -0.26739063910739025 0.9835125374425132 -6.898321420590166
| 31> C 0.8032212439399561 -1.873578447359574 7.082215795309137
| 32> S 0.9259063019855449 1.959928207496902 -7.756699750523701
| 33> S -1.4817972918050362 0.1436030803780151 -7.863933652175558
| 34> S 2.09709752771645 -1.2408958527860048 7.683036787306244
| 35> S -0.30725060733737564 -2.8810249134637385 7.494793917025409
| 36> C 0.8565545410282148 -4.34300922265867 7.6442396355307105
| 37> C 3.0182798830526214 -2.868246513727263 7.819829770782562
| 38> C 2.139554848326768 -3.989021812859936 8.46315329454111
| 39> H 1.142169801646143 -4.596126714245619 6.617899923106074
| 40> H 0.30575782982207056 -5.182973666941092 8.074065380352746
| 41> H 2.75378084840265 -4.896922562956301 8.5278131065594
| 42> H 1.8645913255901645 -3.70936554085661 9.485212121646224
| 43> H 3.9463877953833486 -2.6973750448436427 8.370437879135183
| 44> H 3.264996597213464 -3.1519040500615647 6.791306675579819
| 45> C -2.2905168057818663 1.6237289335033467 -8.630190684042208
| 46> C -0.23742969986409776 3.1763207697963627 -8.532244446031342
| 47> C -1.318447415118022 2.523497148005568 -9.400682783851094
| 48> H -0.6891244058401041 3.7667737056073003 -7.731815880560012
| 49> H 0.3883309740510618 3.838896913654621 -9.135284464239227
| 50> H -0.8424841539690692 1.9451903439535307 -10.198906542275745
| 51> H -1.900630366424013 3.323330565341929 -9.879320810797017
| 52> H -3.0566321312880302 1.2262456600947043 -9.30050226053924
| 53> H -2.788207076077545 2.183322967502149 -7.834876923636945
| 54> *
| 55>
| 56> % eprnmr
| 57> gtensor true
| 58> Nuclei = all H {aiso,adip,aorb,fgrad,rho}
| 59> Nuclei = all V {aiso,adip,aorb,fgrad,rho}
| 60> end
| 61>
| 62>                          ****END OF INPUT****

CARTESIAN COORDINATES (ANGSTROEM)
---------------------------------
  V     -0.573212    0.921090    0.234964
  S      1.255870    1.059031    1.893071
  S      1.155458    1.519510   -1.431954
  S     -1.549721   -0.818869    1.698151
  S     -1.581905   -0.421820   -1.570470
  O     -1.461034    2.226506    0.407505
  C      0.282249    1.107582   -2.905648
  C     -0.812351    0.326778   -2.962512
  C      0.601509    0.041167    3.218397
  C     -0.504300   -0.704075    3.142730
  S      0.923335    1.700758   -4.473807
  S     -1.466771   -0.024449   -4.588412
  S     -0.963935   -1.665646    4.494305
  S      1.533888    0.018312    4.680657
  C     -0.264164    0.895212   -5.534808
  C      0.528950   -1.324779    5.840564
  C     -0.265800    0.981436   -6.901124
  C      0.804812   -1.875655    7.079413
  S      0.927497    1.957852   -7.759503
  S     -1.480207    0.141526   -7.866737
  S      2.098688   -1.242973    7.680234
  S     -0.305660   -2.883102    7.491991
  C      0.858145   -4.345086    7.641437
  C      3.019870   -2.870323    7.817027
  C      2.141145   -3.991098    8.460350
  H      1.143760   -4.598203    6.615097
  H      0.307348   -5.185050    8.071263
  H      2.755371   -4.898999    8.525010
  H      1.866182   -3.711442    9.482409
  H      3.947978   -2.699452    8.367635
  H      3.266587   -3.153981    6.788504
  C     -2.288927    1.621652   -8.632994
  C     -0.235839    3.174244   -8.535047
  C     -1.316857    2.521420   -9.403486
  H     -0.687534    3.764697   -7.734619
  H      0.389921    3.836820   -9.138087
  H     -0.840894    1.943114  -10.201709
  H     -1.899040    3.321254   -9.882124
  H     -3.055042    1.224169   -9.303305
  H     -2.786617    2.181246   -7.837680

 Total Charge           Charge          ....   -2
 Multiplicity           Mult            ....    2
 Number of Electrons    NEL             ....  321
 Basis Dimension        Dim             ....  681

ORBITAL ENERGIES
----------------
                 SPIN UP ORBITALS
  NO   OCC          E(Eh)            E(eV)
   0   1.0000    -196.673625     -5351.7614
   1   1.0000     -88.733016     -2414.5481
   2   1.0000     -88.732702     -2414.5396
   3   1.0000     -88.732529     -2414.5349
   4   1.0000     -88.732444     -2414.5325
   5   1.0000     -88.729451     -2414.4511
   6   1.0000     -88.729325     -2414.4477
   7   1.0000     -88.726007     -2414.3574
   8   1.0000     -88.725817     -2414.3522
   9   1.0000     -88.639581     -2412.0056
  10   1.0000     -88.638784     -2411.9839
  11   1.0000     -88.638603     -2411.9790
  12   1.0000     -88.638442     -2411.9746
  13   1.0000     -22.048986      -599.9834
  14   1.0000     -18.888803      -513.9905
  15   1.0000     -18.555471      -504.9200
  16   1.0000     -18.550244      -504.7778
  17   1.0000     -18.550168      -504.7757
  18   1.0000     -10.092316      -274.6259
  19   1.0000     -10.076507      -274.1957
  20   1.0000     -10.067935      -273.9624
  21   1.0000     -10.067793      -273.9586
  22   1.0000     -10.063196      -273.8335
  23   1.0000     -10.063132      -273.8317
  24   1.0000     -10.060529      -273.7609
  25   1.0000     -10.051352      -273.5112
  26   1.0000     -10.047023      -273.3934
  27   1.0000     -10.042427      -273.2683
  28   1.0000     -10.017099      -272.5791
  29   1.0000     -10.016041      -272.5503
  30   1.0000     -10.013440      -272.4796
  31   1.0000     -10.012406      -272.4514
  32   1.0000      -7.792410      -212.0422
  33   1.0000      -7.792320      -212.0398
  34   1.0000      -7.786291      -211.8758
  35   1.0000      -7.786217      -211.8737
  36   1.0000      -7.782358      -211.7687
  37   1.0000      -7.782343      -211.7683
  38   1.0000      -7.776823      -211.6181
  39   1.0000      -7.776709      -211.6150
  40   1.0000      -7.693144      -209.3411
  41   1.0000      -7.692903      -209.3345
  42   1.0000      -7.692661      -209.3280
  43   1.0000      -7.692566      -209.3254
  44   1.0000      -5.757107      -156.6588
  45   1.0000      -5.757005      -156.6561
  46   1.0000      -5.753224      -156.5532
  47   1.0000      -5.753111      -156.5501
  48   1.0000      -5.751256      -156.4996
  49   1.0000      -5.751194      -156.4979
  50   1.0000      -5.747824      -156.4062
  51   1.0000      -5.747747      -156.4042
  52   1.0000      -5.747338      -156.3930
  53   1.0000      -5.747335      -156.3929
  54   1.0000      -5.746902      -156.3811
  55   1.0000      -5.746798      -156.3783
  56   1.0000      -5.742881      -156.2717
  57   1.0000      -5.742851      -156.2709
  58   1.0000      -5.742245      -156.2544
  59   1.0000      -5.742166      -156.2523
  60   1.0000      -5.741089      -156.2230
  61   1.0000      -5.741003      -156.2206
  62   1.0000      -5.738199      -156.1443
  63   1.0000      -5.738179      -156.1438
  64   1.0000      -5.737246      -156.1184
  65   1.0000      -5.737165      -156.1162
  66   1.0000      -5.732615      -155.9924
  67   1.0000      -5.732505      -155.9894
  68   1.0000      -5.658806      -153.9839
  69   1.0000      -5.658226      -153.9681
  70   1.0000      -5.658208      -153.9677
  71   1.0000      -5.658015      -153.9624
  72   1.0000      -5.651829      -153.7941
  73   1.0000      -5.651551      -153.7865
  74   1.0000      -5.651313      -153.7800
  75   1.0000      -5.651242      -153.7781
  76   1.0000      -5.650227      -153.7505
  77   1.0000      -5.650222      -153.7504
  78   1.0000      -5.649931      -153.7424
  79   1.0000      -5.649632      -153.7343
  80   1.0000      -2.442521       -66.4644
  81   1.0000      -1.483950       -40.3803
  82   1.0000      -1.472098       -40.0578
  83   1.0000      -1.471325       -40.0368
  84   1.0000      -0.753619       -20.5070
  85   1.0000      -0.709193       -19.2981
  86   1.0000      -0.683327       -18.5943
  87   1.0000      -0.665713       -18.1150
  88   1.0000      -0.651317       -17.7232
  89   1.0000      -0.648303       -17.6412
  90   1.0000      -0.641802       -17.4643
  91   1.0000      -0.632611       -17.2142
  92   1.0000      -0.617488       -16.8027
  93   1.0000      -0.572398       -15.5757
  94   1.0000      -0.571205       -15.5433
  95   1.0000      -0.566593       -15.4178
  96   1.0000      -0.542998       -14.7757
  97   1.0000      -0.525681       -14.3045
  98   1.0000      -0.496737       -13.5169
  99   1.0000      -0.496586       -13.5128
 100   1.0000      -0.494807       -13.4644
 101   1.0000      -0.476939       -12.9782
 102   1.0000      -0.461676       -12.5629
 103   1.0000      -0.452665       -12.3176
 104   1.0000      -0.446088       -12.1387
 105   1.0000      -0.416779       -11.3411
 106   1.0000      -0.410923       -11.1818
 107   1.0000      -0.356881        -9.7112
 108   1.0000      -0.354915        -9.6577
 109   1.0000      -0.328424        -8.9369
 110   1.0000      -0.326157        -8.8752
 111   1.0000      -0.315332        -8.5806
 112   1.0000      -0.307101        -8.3566
 113   1.0000      -0.303788        -8.2665
 114   1.0000      -0.303060        -8.2467
 115   1.0000      -0.291742        -7.9387
 116   1.0000      -0.289706        -7.8833
 117   1.0000      -0.273828        -7.4512
 118   1.0000      -0.272540        -7.4162
 119   1.0000      -0.257623        -7.0103
 120   1.0000      -0.257199        -6.9987
 121   1.0000      -0.244918        -6.6646
 122   1.0000      -0.240577        -6.5464
 123   1.0000      -0.234073        -6.3694
 124   1.0000      -0.231020        -6.2864
 125   1.0000      -0.223016        -6.0686
 126   1.0000      -0.218149        -5.9361
 127   1.0000      -0.213615        -5.8127
 128   1.0000      -0.210028        -5.7152
 129   1.0000      -0.188439        -5.1277
 130   1.0000      -0.185360        -5.0439
 131   1.0000      -0.183939        -5.0052
 132   1.0000      -0.182349        -4.9620
 133   1.0000      -0.180143        -4.9019
 134   1.0000      -0.158096        -4.3020
 135   1.0000      -0.151331        -4.1179
 136   1.0000      -0.140356        -3.8193
 137   1.0000      -0.134351        -3.6559
 138   1.0000      -0.125911        -3.4262
 139   1.0000      -0.124349        -3.3837
 140   1.0000      -0.122692        -3.3386
 141   1.0000      -0.112133        -3.0513
 142   1.0000      -0.110812        -3.0154
 143   1.0000      -0.109035        -2.9670
 144   1.0000      -0.097720        -2.6591
 145   1.0000      -0.094655        -2.5757
 146   1.0000      -0.093514        -2.5447
 147   1.0000      -0.079596        -2.1659
 148   1.0000      -0.078926        -2.1477
 149   1.0000      -0.073713        -2.0058
 150   1.0000      -0.067785        -1.8445
 151   1.0000      -0.049758        -1.3540
 152   1.0000      -0.045332        -1.2335
 153   1.0000      -0.037316        -1.0154
 154   1.0000      -0.033844        -0.9209
 155   1.0000      -0.030591        -0.8324
 156   1.0000      -0.020980        -0.5709
 157   1.0000      -0.017495        -0.4761
 158   1.0000      -0.010492        -0.2855
 159   1.0000       0.021479         0.5845
 160   1.0000       0.041677         1.1341
 161   0.0000       0.125079         3.4036
 162   0.0000       0.137027         3.7287
 163   0.0000       0.149331         4.0635
 164   0.0000       0.152182         4.1411
 165   0.0000       0.162923         4.4333

                 SPIN DOWN ORBITALS
  NO   OCC          E(Eh)            E(eV)
   0   1.0000    -196.673772     -5351.7654
   1   1.0000     -88.733017     -2414.5481
   2   1.0000     -88.732703     -2414.5396
   3   1.0000     -88.732530     -2414.5349
   4   1.0000     -88.732445     -2414.5326
   5   1.0000     -88.729459     -2414.4513
   6   1.0000     -88.729333     -2414.4479
   7   1.0000     -88.726012     -2414.3575
   8   1.0000     -88.725822     -2414.3524
   9   1.0000     -88.639717     -2412.0093
  10   1.0000     -88.638920     -2411.9876
  11   1.0000     -88.638741     -2411.9828
  12   1.0000     -88.638583     -2411.9785
  13   1.0000     -22.034123      -599.5790
  14   1.0000     -18.892586      -514.0934
  15   1.0000     -18.550227      -504.7773
  16   1.0000     -18.534322      -504.3445
  17   1.0000     -18.534088      -504.3382
  18   1.0000     -10.092299      -274.6254
  19   1.0000     -10.076500      -274.1955
  20   1.0000     -10.067935      -273.9624
  21   1.0000     -10.067793      -273.9586
  22   1.0000     -10.063195      -273.8335
  23   1.0000     -10.063131      -273.8317
  24   1.0000     -10.060529      -273.7609
  25   1.0000     -10.051352      -273.5112
  26   1.0000     -10.047011      -273.3931
  27   1.0000     -10.042418      -273.2681
  28   1.0000     -10.016854      -272.5724
  29   1.0000     -10.015812      -272.5441
  30   1.0000     -10.013218      -272.4735
  31   1.0000     -10.012193      -272.4456
  32   1.0000      -7.792411      -212.0423
  33   1.0000      -7.792321      -212.0398
  34   1.0000      -7.786292      -211.8758
  35   1.0000      -7.786218      -211.8738
  36   1.0000      -7.782367      -211.7690
  37   1.0000      -7.782352      -211.7686
  38   1.0000      -7.776829      -211.6183
  39   1.0000      -7.776715      -211.6152
  40   1.0000      -7.693269      -209.3445
  41   1.0000      -7.693031      -209.3380
  42   1.0000      -7.692791      -209.3315
  43   1.0000      -7.692691      -209.3288
  44   1.0000      -5.757108      -156.6589
  45   1.0000      -5.757005      -156.6561
  46   1.0000      -5.753225      -156.5532
  47   1.0000      -5.753112      -156.5501
  48   1.0000      -5.751258      -156.4997
  49   1.0000      -5.751195      -156.4980
  50   1.0000      -5.747825      -156.4063
  51   1.0000      -5.747748      -156.4042
  52   1.0000      -5.747348      -156.3933
  53   1.0000      -5.747345      -156.3932
  54   1.0000      -5.746904      -156.3812
  55   1.0000      -5.746800      -156.3784
  56   1.0000      -5.742894      -156.2721
  57   1.0000      -5.742864      -156.2713
  58   1.0000      -5.742247      -156.2545
  59   1.0000      -5.742168      -156.2523
  60   1.0000      -5.741089      -156.2230
  61   1.0000      -5.741004      -156.2207
  62   1.0000      -5.738207      -156.1446
  63   1.0000      -5.738188      -156.1440
  64   1.0000      -5.737257      -156.1187
  65   1.0000      -5.737175      -156.1165
  66   1.0000      -5.732621      -155.9925
  67   1.0000      -5.732510      -155.9895
  68   1.0000      -5.658955      -153.9880
  69   1.0000      -5.658364      -153.9719
  70   1.0000      -5.658355      -153.9717
  71   1.0000      -5.658157      -153.9663
  72   1.0000      -5.652173      -153.8035
  73   1.0000      -5.651935      -153.7970
  74   1.0000      -5.651695      -153.7904
  75   1.0000      -5.651590      -153.7876
  76   1.0000      -5.650329      -153.7533
  77   1.0000      -5.650304      -153.7526
  78   1.0000      -5.650022      -153.7449
  79   1.0000      -5.649733      -153.7370
  80   1.0000      -2.397820       -65.2480
  81   1.0000      -1.464736       -39.8575
  82   1.0000      -1.409955       -38.3668
  83   1.0000      -1.409863       -38.3643
  84   1.0000      -0.753615       -20.5069
  85   1.0000      -0.709171       -19.2975
  86   1.0000      -0.683257       -18.5924
  87   1.0000      -0.665590       -18.1116
  88   1.0000      -0.656498       -17.8642
  89   1.0000      -0.651173       -17.7193
  90   1.0000      -0.641806       -17.4644
  91   1.0000      -0.632538       -17.2122
  92   1.0000      -0.617487       -16.8027
  93   1.0000      -0.572357       -15.5746
  94   1.0000      -0.571113       -15.5408
  95   1.0000      -0.566508       -15.4155
  96   1.0000      -0.542957       -14.7746
  97   1.0000      -0.525682       -14.3045
  98   1.0000      -0.496762       -13.5176
  99   1.0000      -0.496594       -13.5130
 100   1.0000      -0.494828       -13.4649
 101   1.0000      -0.477165       -12.9843
 102   1.0000      -0.462005       -12.5718
 103   1.0000      -0.452687       -12.3183
 104   1.0000      -0.446118       -12.1395
 105   1.0000      -0.416775       -11.3410
 106   1.0000      -0.411029       -11.1847
 107   1.0000      -0.356871        -9.7110
 108   1.0000      -0.354904        -9.6574
 109   1.0000      -0.328403        -8.9363
 110   1.0000      -0.326141        -8.8747
 111   1.0000      -0.315281        -8.5792
 112   1.0000      -0.307094        -8.3565
 113   1.0000      -0.303746        -8.2653
 114   1.0000      -0.303021        -8.2456
 115   1.0000      -0.291733        -7.9385
 116   1.0000      -0.289700        -7.8831
 117   1.0000      -0.273670        -7.4470
 118   1.0000      -0.272411        -7.4127
 119   1.0000      -0.257566        -7.0087
 120   1.0000      -0.257102        -6.9961
 121   1.0000      -0.244878        -6.6635
 122   1.0000      -0.240551        -6.5457
 123   1.0000      -0.234044        -6.3686
 124   1.0000      -0.230983        -6.2854
 125   1.0000      -0.223008        -6.0684
 126   1.0000      -0.217662        -5.9229
 127   1.0000      -0.213204        -5.8016
 128   1.0000      -0.209502        -5.7009
 129   1.0000      -0.187826        -5.1110
 130   1.0000      -0.185362        -5.0440
 131   1.0000      -0.183063        -4.9814
 132   1.0000      -0.182118        -4.9557
 133   1.0000      -0.179982        -4.8976
 134   1.0000      -0.157473        -4.2851
 135   1.0000      -0.151056        -4.1104
 136   1.0000      -0.140100        -3.8123
 137   1.0000      -0.133832        -3.6418
 138   1.0000      -0.125186        -3.4065
 139   1.0000      -0.124044        -3.3754
 140   1.0000      -0.122420        -3.3312
 141   1.0000      -0.113941        -3.1005
 142   1.0000      -0.110730        -3.0131
 143   1.0000      -0.110600        -3.0096
 144   1.0000      -0.097815        -2.6617
 145   1.0000      -0.094851        -2.5810
 146   1.0000      -0.093691        -2.5495
 147   1.0000      -0.079400        -2.1606
 148   1.0000      -0.078955        -2.1485
 149   1.0000      -0.070138        -1.9085
 150   1.0000      -0.067788        -1.8446
 151   1.0000      -0.047178        -1.2838
 152   1.0000      -0.044381        -1.2077
 153   1.0000      -0.037356        -1.0165
 154   1.0000      -0.033140        -0.9018
 155   1.0000      -0.030636        -0.8336
 156   1.0000      -0.021857        -0.5947
 157   1.0000      -0.010754        -0.2926
 158   1.0000       0.021744         0.5917
 159   1.0000       0.040618         1.1053
 160   0.0000       0.124969         3.4006
 161   0.0000       0.137025         3.7287
 162   0.0000       0.145260         3.9527
 163   0.0000       0.153604         4.1798
 164   0.0000       0.160530         4.3682

MULLIKEN ATOMIC CHARGES AND SPIN POPULATIONS
--------------------------------------------
   0 V :    0.476747    1.207144
   1 S :   -0.287528   -0.022288
   2 S :   -0.289287   -0.025208
   3 S :   -0.285069   -0.022731
   4 S :   -0.284731   -0.025395
   5 O :   -0.467042   -0.146601
   6 C :   -0.077180    0.009994
   7 C :   -0.084119    0.008384
   8 C :   -0.078506    0.008355
   9 C :   -0.079530    0.007754
  10 S :    0.095603   -0.000584
  11 S :    0.098151   -0.000624
  12 S :    0.061246   -0.000220
  13 S :    0.057224   -0.000138
  14 C :   -0.221573    0.001712
  15 C :   -0.318994    0.001431
  16 C :   -0.184966   -0.000189
  17 C :   -0.084862   -0.000574
  18 S :    0.012733   -0.000109
  19 S :    0.013201   -0.000109
  20 S :    0.050157   -0.000090
  21 S :    0.052131   -0.000092
  22 C :   -0.317218    0.000001
  23 C :   -0.317103   -0.000001
  24 C :   -0.174901   -0.000016
  25 H :    0.141524   -0.000007
  26 H :    0.122857    0.000007
  27 H :    0.096144    0.000001
  28 H :    0.086307   -0.000003
  29 H :    0.122776    0.000006
  30 H :    0.141390   -0.000006
  31 C :   -0.301413    0.000201
  32 C :   -0.302090    0.000196
  33 C :   -0.158786   -0.000245
  34 H :    0.142231   -0.000018
  35 H :    0.113794    0.000021
  36 H :    0.091787    0.000024
  37 H :    0.083103    0.000016
  38 H :    0.113668    0.000022
  39 H :    0.142123   -0.000018
Sum of atomic charges         :   -2.0000000

LOEWDIN ATOMIC CHARGES AND SPIN POPULATIONS
-------------------------------------------
   0 V :   -0.159587    1.160512
   1 S :    0.067854   -0.014498
   2 S :    0.078369   -0.015976
   3 S :    0.071670   -0.014907
   4 S :    0.083536   -0.015946
   5 O :   -0.317646   -0.131522
   6 C :   -0.550648    0.009299
   7 C :   -0.555518    0.008249
   8 C :   -0.575605    0.008488
   9 C :   -0.582132    0.007922
  10 S :    0.464781   -0.000876
  11 S :    0.467634   -0.000928
  12 S :    0.401713   -0.000410
  13 S :    0.395013   -0.000369
  14 C :   -0.456389    0.000221
  15 C :   -0.372970    0.000256
  16 C :   -0.632769    0.000488
  17 C :   -0.758806    0.000256
  18 S :    0.365897   -0.000087
  19 S :    0.367433   -0.000084
  20 S :    0.468941   -0.000090
  21 S :    0.471329   -0.000092
  22 C :   -0.268024   -0.000006
  23 C :   -0.268207   -0.000009
  24 C :   -0.166404   -0.000008
  25 H :    0.063640   -0.000003
  26 H :    0.053137    0.000004
  27 H :    0.059796   -0.000000
  28 H :    0.059636   -0.000001
  29 H :    0.053160    0.000003
  30 H :    0.063533   -0.000003
  31 C :   -0.282989    0.000046
  32 C :   -0.282715    0.000040
  33 C :   -0.175689    0.000007
  34 H :    0.062148   -0.000001
  35 H :    0.053415    0.000009
  36 H :    0.060136    0.000005
  37 H :    0.057799    0.000002
  38 H :    0.053483    0.000009
  39 H :    0.062050   -0.000000

  Mayer bond orders larger than 0.100000
B(  0-V ,  1-S ) :   0.7687 B(  0-V ,  2-S ) :   0.7693 B(  0-V ,  3-S ) :   0.7626
B(  0-V ,  4-S ) :   0.7770 B(  0-V ,  5-O ) :   2.1488 B(  1-S ,  8-C ) :   1.0597
B(  2-S ,  6-C ) :   1.1025 B(  3-S ,  9-C ) :   1.0622 B(  4-S ,  7-C ) :   1.1029
B(  6-C ,  7-C ) :   1.6840 B(  6-C , 10-S ) :   0.9366 B(  7-C , 11-S ) :   0.9444
B(  8-C ,  9-C ) :   1.6779 B(  8-C , 13-S ) :   1.0019 B(  9-C , 12-S ) :   1.0137
B( 10-S , 14-C ) :   1.2401 B( 11-S , 14-C ) :   1.2376 B( 12-S , 15-C ) :   1.0761
B( 13-S , 15-C ) :   1.0783 B( 14-C , 16-C ) :   1.4447 B( 15-C , 17-C ) :   1.2599
B( 16-C , 18-S ) :   1.0970 B( 16-C , 19-S ) :   1.0991 B( 17-C , 20-S ) :   1.2046
B( 17-C , 21-S ) :   1.2128 B( 18-S , 32-C ) :   0.9894 B( 19-S , 31-C ) :   0.9896
B( 20-S , 23-C ) :   0.9544 B( 21-S , 22-C ) :   0.9523 B( 22-C , 24-C ) :   0.9304
B( 22-C , 25-H ) :   0.9655 B( 22-C , 26-H ) :   0.9596 B( 23-C , 24-C ) :   0.9304
B( 23-C , 29-H ) :   0.9596 B( 23-C , 30-H ) :   0.9657 B( 24-C , 27-H ) :   0.9668
B( 24-C , 28-H ) :   0.9624 B( 31-C , 33-C ) :   0.9149 B( 31-C , 38-H ) :   0.9652
B( 31-C , 39-H ) :   0.9658 B( 32-C , 33-C ) :   0.9140 B( 32-C , 34-H ) :   0.9658
B( 32-C , 35-H ) :   0.9652 B( 33-C , 36-H ) :   0.9713 B( 33-C , 37-H ) :   0.9626

FINAL SINGLE POINT ENERGY     -6337.575413427629

DIPOLE MOMENT
-------------
                                X             Y             Z
Electronic contribution:     -6.01219      10.38294       6.57724
Nuclear contribution   :      6.74834     -11.68940      -6.94886
                        -----------------------------------------
Total Dipole Moment    :      0.73615      -1.30646      -0.37162
                        -----------------------------------------
Magnitude (a.u.)       :      1.54494
Magnitude (Debye)      :      3.92694

Rotational constants in cm-1:     0.010766     0.000804     0.000783
Rotational constants in MHz :   322.757992    24.107300    23.480073

                             ****ORCA TERMINATED NORMALLY****
TOTAL RUN TIME: 0 days 1 hours 2 minutes 11 seconds 291 msec
