                         Program Version 5.0.4 -  RELEASE  -
|  1> ! nofrozencore ReducedPop printbasis
|  2> ! B3LYP TZVP
|  3>
|  4> %basis
|  5> newgto V "CP(PPP)" end
|  6> end
|  7>
|  8> %pal
|  9> nprocs 6
| 10> end
| 11>
| 12> % sym SymThresh 1e-2 end
| 13> * xyz -2 2
| 14> V 0.7372182414122674 0.7695114940823169 -0.32326225624128263
| 15> S -1.1093359657385888 1.1779984162374908 -1.9189661930734467
| 16> S -0.745567080641552 1.807462027242365 1.3675801358569646
| 17> S 1.2570059594756853 -1.218197790531934 -1.7070145020633907
| 18> S 1.5453597147751208 -0.6487140934704158 1.5293066759368488
| 19> O 1.862411799426952 1.8514139841435528 -0.6198809284039658
| 20> C 0.10863420389900996 1.3225233238777467 2.8293535170615534
| 21> C 1.0284805293312513 0.33642797813681363 2.892820627306727
| 22> C -0.7500059665945223 -0.0075861573186242195 -3.1668469083010238
| 23> C 0.1926344622840536 -0.9640861877448593 -3.0807069405495415
| 24> S -0.35689018164643593 2.114200157227267 4.381121993655343
| 25> S 1.6689315676464622 -0.09502851032875927 4.520659405403909
| 26> S 0.32233323837172184 -2.089173847042818 -4.474557089813373
| 27> S -1.7355477103765455 0.009414485841612901 -4.6689186287692
| 28> C 0.9490401862904301 1.3349510874472783 5.372918805685058
| 29> C -1.0084977202966214 -1.415240421004573 -5.422678532611842
| 30> C 0.620164845933867 1.1302214565604338 6.819764260972972
| 31> C -1.418525174168398 -1.9296381233860065 -6.6216512065198545
| 32> S -0.07155988531228608 2.5568983343422835 7.636771019874679
| 33> S 1.8935009565512164 0.321066921033171 7.770632661388897
| 34> S -2.7680791144014343 -1.2164976946248636 -7.540688412525608
| 35> S -0.6654395860056765 -3.3817796585547675 -7.32929306944652
| 36> C -2.143064503807709 -4.497243973914537 -7.295273512078748
| 37> C -3.93129424028612 -2.656031479422473 -7.48097698547563
| 38> C -3.346092663575377 -3.9447866661289432 -8.063193545289442
| 39> H -2.4004037968076424 -4.686827540352604 -6.250779371890342
| 40> H -1.8075926497241699 -5.437265841310827 -7.740547934069889
| 41> H -4.134803756726187 -4.7101453332623375 -8.060813756716877
| 42> H -3.0614499133880484 -3.7742808159223977 -9.106228374679688
| 43> H -4.807128215292684 -2.3442150059608102 -8.05546591695137
| 44> H -4.23790085220036 -2.8016972157547753 -6.44280270602914
| 45> C 3.074668215805932 1.62616946186542 8.411366404329685
| 46> C 1.3417625878711639 3.6010952572421013 8.286429306893453
| 47> C 2.296683950278285 2.7390575814089626 9.110042983485052
| 48> H 1.8199769712025622 4.2188597474368645 7.498459966648305
| 49> H 0.7990384483002956 4.2725970594562686 8.988096736632206
| 50> H 1.6564535481462899 2.2250429712291213 9.855420742755859
| 51> H 2.997538940695823 3.390189453836351 9.679604458037216
| 52> H 3.6190008383051198 1.049382818412744 9.191492340767354
| 53> H 3.8012175176419243 1.9635934272427384 7.643874994385131
| 54> *
| 55>
| 56> % eprnmr
| 57> gtensor true
| 58> Nuclei = all H {aiso,adip,aorb,fgrad,rho}
| 59> Nuclei = all V {aiso,adip,aorb,fgrad,rho}
| 60> end
| 61>
| 62>                          ****END OF INPUT****

CARTESIAN COORDINATES (ANGSTROEM)
---------------------------------
  V      0.735389    0.767976   -0.320263
  S     -1.111165    1.176463   -1.915967
  S     -0.747396    1.805927    1.370580
  S      1.255177   -1.219733   -1.704015
  S      1.543531   -0.650250    1.532306
  O      1.860583    1.849878   -0.616882
  C      0.106805    1.320988    2.832353
  C      1.026652    0.334892    2.895820
  C     -0.751835   -0.009122   -3.163848
  C      0.190806   -0.965622   -3.077708
  S     -0.358719    2.112665    4.384121
  S      1.667103   -0.096564    4.523659
  S      0.320504   -2.090709   -4.471558
  S     -1.737376    0.007879   -4.665919
  C      0.947211    1.333416    5.375918
  C     -1.010326   -1.416776   -5.419679
  C      0.618336    1.128686    6.822764
  C     -1.420354   -1.931174   -6.618652
  S     -0.073389    2.555363    7.639770
  S      1.891672    0.319531    7.773632
  S     -2.769908   -1.218033   -7.537689
  S     -0.667268   -3.383315   -7.326294
  C     -2.144893   -4.498779   -7.292274
  C     -3.933123   -2.657567   -7.477978
  C     -3.347921   -3.946322   -8.060194
  H     -2.402233   -4.688363   -6.247780
  H     -1.809421   -5.438801   -7.737549
  H     -4.136633   -4.711681   -8.057814
  H     -3.063279   -3.775816   -9.103229
  H     -4.808957   -2.345751   -8.052467
  H     -4.239730   -2.803233   -6.439803
  C      3.072839    1.624634    8.414366
  C      1.339934    3.599560    8.289429
  C      2.294855    2.737522    9.113042
  H      1.818148    4.217324    7.501459
  H      0.797210    4.271062    8.991096
  H      1.654625    2.223507    9.858420
  H      2.995710    3.388654    9.682604
  H      3.617172    1.047847    9.194492
  H      3.799389    1.962058    7.646874

 Total Charge           Charge          ....   -2
 Multiplicity           Mult            ....    2
 Number of Electrons    NEL             ....  321
 Basis Dimension        Dim             ....  681

ORBITAL ENERGIES
----------------
                 SPIN UP ORBITALS
  NO   OCC          E(Eh)            E(eV)
   0   1.0000    -196.680842     -5351.9578
   1   1.0000     -88.741709     -2414.7847
   2   1.0000     -88.741479     -2414.7784
   3   1.0000     -88.735581     -2414.6179
   4   1.0000     -88.735494     -2414.6155
   5   1.0000     -88.733391     -2414.5583
   6   1.0000     -88.733316     -2414.5563
   7   1.0000     -88.719108     -2414.1697
   8   1.0000     -88.719102     -2414.1695
   9   1.0000     -88.647925     -2412.2327
  10   1.0000     -88.647785     -2412.2289
  11   1.0000     -88.644712     -2412.1452
  12   1.0000     -88.644213     -2412.1317
  13   1.0000     -22.056156      -600.1785
  14   1.0000     -18.896183      -514.1913
  15   1.0000     -18.562607      -505.1142
  16   1.0000     -18.557429      -504.9733
  17   1.0000     -18.557335      -504.9707
  18   1.0000     -10.087593      -274.4974
  19   1.0000     -10.078962      -274.2625
  20   1.0000     -10.065494      -273.8960
  21   1.0000     -10.065462      -273.8951
  22   1.0000     -10.059745      -273.7396
  23   1.0000     -10.059744      -273.7395
  24   1.0000     -10.053169      -273.5606
  25   1.0000     -10.051278      -273.5092
  26   1.0000     -10.047552      -273.4078
  27   1.0000     -10.045774      -273.3594
  28   1.0000     -10.031469      -272.9701
  29   1.0000     -10.030507      -272.9440
  30   1.0000     -10.021942      -272.7109
  31   1.0000     -10.021148      -272.6893
  32   1.0000      -7.793451      -212.0706
  33   1.0000      -7.793207      -212.0639
  34   1.0000      -7.789052      -211.9509
  35   1.0000      -7.788957      -211.9483
  36   1.0000      -7.786640      -211.8852
  37   1.0000      -7.786602      -211.8842
  38   1.0000      -7.772536      -211.5014
  39   1.0000      -7.772516      -211.5009
  40   1.0000      -7.702225      -209.5882
  41   1.0000      -7.702015      -209.5825
  42   1.0000      -7.698960      -209.4994
  43   1.0000      -7.698521      -209.4874
  44   1.0000      -5.758215      -156.6890
  45   1.0000      -5.758004      -156.6833
  46   1.0000      -5.754056      -156.5758
  47   1.0000      -5.754047      -156.5756
  48   1.0000      -5.753950      -156.5729
  49   1.0000      -5.753825      -156.5695
  50   1.0000      -5.751589      -156.5087
  51   1.0000      -5.751547      -156.5075
  52   1.0000      -5.750615      -156.4822
  53   1.0000      -5.750526      -156.4798
  54   1.0000      -5.749667      -156.4564
  55   1.0000      -5.749379      -156.4485
  56   1.0000      -5.747173      -156.3885
  57   1.0000      -5.747134      -156.3875
  58   1.0000      -5.743843      -156.2979
  59   1.0000      -5.743751      -156.2954
  60   1.0000      -5.742440      -156.2597
  61   1.0000      -5.742400      -156.2586
  62   1.0000      -5.737920      -156.1367
  63   1.0000      -5.737910      -156.1365
  64   1.0000      -5.733576      -156.0185
  65   1.0000      -5.733568      -156.0183
  66   1.0000      -5.727461      -155.8521
  67   1.0000      -5.727429      -155.8513
  68   1.0000      -5.667521      -154.2211
  69   1.0000      -5.667335      -154.2160
  70   1.0000      -5.664239      -154.1318
  71   1.0000      -5.663802      -154.1199
  72   1.0000      -5.660819      -154.0387
  73   1.0000      -5.660625      -154.0334
  74   1.0000      -5.659604      -154.0057
  75   1.0000      -5.659386      -153.9997
  76   1.0000      -5.657648      -153.9524
  77   1.0000      -5.657217      -153.9407
  78   1.0000      -5.656294      -153.9156
  79   1.0000      -5.655845      -153.9034
  80   1.0000      -2.449844       -66.6636
  81   1.0000      -1.491137       -40.5759
  82   1.0000      -1.479471       -40.2584
  83   1.0000      -1.478707       -40.2377
  84   1.0000      -0.712288       -19.3823
  85   1.0000      -0.696286       -18.9469
  86   1.0000      -0.688299       -18.7296
  87   1.0000      -0.677851       -18.4453
  88   1.0000      -0.655544       -17.8383
  89   1.0000      -0.634176       -17.2568
  90   1.0000      -0.621183       -16.9032
  91   1.0000      -0.619465       -16.8565
  92   1.0000      -0.602304       -16.3895
  93   1.0000      -0.578037       -15.7292
  94   1.0000      -0.577830       -15.7235
  95   1.0000      -0.576335       -15.6829
  96   1.0000      -0.568523       -15.4703
  97   1.0000      -0.499052       -13.5799
  98   1.0000      -0.498781       -13.5725
  99   1.0000      -0.491860       -13.3842
 100   1.0000      -0.482377       -13.1261
 101   1.0000      -0.477327       -12.9887
 102   1.0000      -0.476987       -12.9795
 103   1.0000      -0.449170       -12.2225
 104   1.0000      -0.440343       -11.9823
 105   1.0000      -0.417861       -11.3706
 106   1.0000      -0.410710       -11.1760
 107   1.0000      -0.357586        -9.7304
 108   1.0000      -0.346785        -9.4365
 109   1.0000      -0.328838        -8.9481
 110   1.0000      -0.320854        -8.7309
 111   1.0000      -0.316963        -8.6250
 112   1.0000      -0.310538        -8.4502
 113   1.0000      -0.306514        -8.3407
 114   1.0000      -0.294501        -8.0138
 115   1.0000      -0.291587        -7.9345
 116   1.0000      -0.287825        -7.8321
 117   1.0000      -0.259826        -7.0702
 118   1.0000      -0.259535        -7.0623
 119   1.0000      -0.252853        -6.8805
 120   1.0000      -0.245732        -6.6867
 121   1.0000      -0.236654        -6.4397
 122   1.0000      -0.232948        -6.3388
 123   1.0000      -0.223454        -6.0805
 124   1.0000      -0.222521        -6.0551
 125   1.0000      -0.221822        -6.0361
 126   1.0000      -0.215350        -5.8600
 127   1.0000      -0.213183        -5.8010
 128   1.0000      -0.207448        -5.6450
 129   1.0000      -0.195684        -5.3248
 130   1.0000      -0.190105        -5.1730
 131   1.0000      -0.186447        -5.0735
 132   1.0000      -0.178500        -4.8572
 133   1.0000      -0.174278        -4.7423
 134   1.0000      -0.164072        -4.4646
 135   1.0000      -0.152540        -4.1508
 136   1.0000      -0.140078        -3.8117
 137   1.0000      -0.138467        -3.7679
 138   1.0000      -0.133631        -3.6363
 139   1.0000      -0.129714        -3.5297
 140   1.0000      -0.127272        -3.4633
 141   1.0000      -0.126414        -3.4399
 142   1.0000      -0.119131        -3.2417
 143   1.0000      -0.112902        -3.0722
 144   1.0000      -0.102815        -2.7977
 145   1.0000      -0.101421        -2.7598
 146   1.0000      -0.099164        -2.6984
 147   1.0000      -0.081297        -2.2122
 148   1.0000      -0.078345        -2.1319
 149   1.0000      -0.069792        -1.8991
 150   1.0000      -0.060645        -1.6502
 151   1.0000      -0.057492        -1.5644
 152   1.0000      -0.051034        -1.3887
 153   1.0000      -0.043149        -1.1741
 154   1.0000      -0.041280        -1.1233
 155   1.0000      -0.035093        -0.9549
 156   1.0000      -0.030451        -0.8286
 157   1.0000      -0.025151        -0.6844
 158   1.0000      -0.020501        -0.5579
 159   1.0000       0.013356         0.3634
 160   1.0000       0.034418         0.9366
 161   0.0000       0.093940         2.5562
 162   0.0000       0.134750         3.6667
 163   0.0000       0.159996         4.3537
 164   0.0000       0.160454         4.3662
 165   0.0000       0.165209         4.4956

                 SPIN DOWN ORBITALS
  NO   OCC          E(Eh)            E(eV)
   0   1.0000    -196.680989     -5351.9618
   1   1.0000     -88.741719     -2414.7849
   2   1.0000     -88.741489     -2414.7787
   3   1.0000     -88.735581     -2414.6179
   4   1.0000     -88.735495     -2414.6156
   5   1.0000     -88.733399     -2414.5586
   6   1.0000     -88.733324     -2414.5565
   7   1.0000     -88.719108     -2414.1697
   8   1.0000     -88.719102     -2414.1695
   9   1.0000     -88.648066     -2412.2365
  10   1.0000     -88.647928     -2412.2328
  11   1.0000     -88.644852     -2412.1490
  12   1.0000     -88.644356     -2412.1355
  13   1.0000     -22.041208      -599.7718
  14   1.0000     -18.899988      -514.2948
  15   1.0000     -18.557330      -504.9706
  16   1.0000     -18.541367      -504.5362
  17   1.0000     -18.541214      -504.5321
  18   1.0000     -10.087570      -274.4967
  19   1.0000     -10.078962      -274.2625
  20   1.0000     -10.065494      -273.8960
  21   1.0000     -10.065462      -273.8951
  22   1.0000     -10.059741      -273.7395
  23   1.0000     -10.059739      -273.7394
  24   1.0000     -10.053169      -273.5606
  25   1.0000     -10.051274      -273.5091
  26   1.0000     -10.047519      -273.4069
  27   1.0000     -10.045774      -273.3594
  28   1.0000     -10.031235      -272.9638
  29   1.0000     -10.030289      -272.9380
  30   1.0000     -10.021731      -272.7052
  31   1.0000     -10.020939      -272.6836
  32   1.0000      -7.793462      -212.0709
  33   1.0000      -7.793218      -212.0642
  34   1.0000      -7.789053      -211.9509
  35   1.0000      -7.788958      -211.9483
  36   1.0000      -7.786649      -211.8855
  37   1.0000      -7.786611      -211.8845
  38   1.0000      -7.772535      -211.5014
  39   1.0000      -7.772515      -211.5009
  40   1.0000      -7.702356      -209.5918
  41   1.0000      -7.702149      -209.5861
  42   1.0000      -7.699091      -209.5029
  43   1.0000      -7.698655      -209.4910
  44   1.0000      -5.758223      -156.6892
  45   1.0000      -5.758012      -156.6835
  46   1.0000      -5.754071      -156.5762
  47   1.0000      -5.754048      -156.5756
  48   1.0000      -5.753951      -156.5730
  49   1.0000      -5.753840      -156.5699
  50   1.0000      -5.751600      -156.5090
  51   1.0000      -5.751558      -156.5078
  52   1.0000      -5.750616      -156.4822
  53   1.0000      -5.750527      -156.4798
  54   1.0000      -5.749683      -156.4568
  55   1.0000      -5.749394      -156.4490
  56   1.0000      -5.747187      -156.3889
  57   1.0000      -5.747148      -156.3878
  58   1.0000      -5.743844      -156.2979
  59   1.0000      -5.743752      -156.2954
  60   1.0000      -5.742446      -156.2599
  61   1.0000      -5.742406      -156.2588
  62   1.0000      -5.737921      -156.1368
  63   1.0000      -5.737911      -156.1365
  64   1.0000      -5.733576      -156.0185
  65   1.0000      -5.733567      -156.0183
  66   1.0000      -5.727461      -155.8521
  67   1.0000      -5.727429      -155.8513
  68   1.0000      -5.667660      -154.2249
  69   1.0000      -5.667477      -154.2199
  70   1.0000      -5.664383      -154.1357
  71   1.0000      -5.663946      -154.1238
  72   1.0000      -5.661207      -154.0493
  73   1.0000      -5.661009      -154.0439
  74   1.0000      -5.659693      -154.0081
  75   1.0000      -5.659483      -154.0024
  76   1.0000      -5.658006      -153.9622
  77   1.0000      -5.657586      -153.9507
  78   1.0000      -5.656404      -153.9186
  79   1.0000      -5.655956      -153.9064
  80   1.0000      -2.404915       -65.4411
  81   1.0000      -1.471811       -40.0500
  82   1.0000      -1.417075       -38.5606
  83   1.0000      -1.416890       -38.5555
  84   1.0000      -0.712273       -19.3819
  85   1.0000      -0.696220       -18.9451
  86   1.0000      -0.688258       -18.7285
  87   1.0000      -0.677797       -18.4438
  88   1.0000      -0.663716       -18.0606
  89   1.0000      -0.634120       -17.2553
  90   1.0000      -0.621103       -16.9011
  91   1.0000      -0.619467       -16.8566
  92   1.0000      -0.602295       -16.3893
  93   1.0000      -0.578016       -15.7286
  94   1.0000      -0.577809       -15.7230
  95   1.0000      -0.576279       -15.6813
  96   1.0000      -0.568445       -15.4682
  97   1.0000      -0.499085       -13.5808
  98   1.0000      -0.498844       -13.5742
  99   1.0000      -0.492034       -13.3889
 100   1.0000      -0.482590       -13.1319
 101   1.0000      -0.477431       -12.9916
 102   1.0000      -0.477011       -12.9801
 103   1.0000      -0.449206       -12.2235
 104   1.0000      -0.440397       -11.9838
 105   1.0000      -0.417911       -11.3719
 106   1.0000      -0.410750       -11.1771
 107   1.0000      -0.357581        -9.7303
 108   1.0000      -0.346754        -9.4357
 109   1.0000      -0.328828        -8.9479
 110   1.0000      -0.320802        -8.7295
 111   1.0000      -0.316949        -8.6246
 112   1.0000      -0.310505        -8.4493
 113   1.0000      -0.306477        -8.3397
 114   1.0000      -0.294497        -8.0137
 115   1.0000      -0.291546        -7.9334
 116   1.0000      -0.287816        -7.8319
 117   1.0000      -0.259713        -7.0671
 118   1.0000      -0.259468        -7.0605
 119   1.0000      -0.252798        -6.8790
 120   1.0000      -0.245482        -6.6799
 121   1.0000      -0.236629        -6.4390
 122   1.0000      -0.232909        -6.3378
 123   1.0000      -0.223173        -6.0728
 124   1.0000      -0.222396        -6.0517
 125   1.0000      -0.221791        -6.0352
 126   1.0000      -0.215114        -5.8535
 127   1.0000      -0.213072        -5.7980
 128   1.0000      -0.207093        -5.6353
 129   1.0000      -0.194081        -5.2812
 130   1.0000      -0.190036        -5.1711
 131   1.0000      -0.186224        -5.0674
 132   1.0000      -0.178349        -4.8531
 133   1.0000      -0.174020        -4.7353
 134   1.0000      -0.163659        -4.4534
 135   1.0000      -0.152396        -4.1469
 136   1.0000      -0.139824        -3.8048
 137   1.0000      -0.137731        -3.7479
 138   1.0000      -0.132766        -3.6127
 139   1.0000      -0.129712        -3.5297
 140   1.0000      -0.127425        -3.4674
 141   1.0000      -0.126106        -3.4315
 142   1.0000      -0.120936        -3.2908
 143   1.0000      -0.114584        -3.1180
 144   1.0000      -0.102817        -2.7978
 145   1.0000      -0.101774        -2.7694
 146   1.0000      -0.099233        -2.7003
 147   1.0000      -0.079815        -2.1719
 148   1.0000      -0.076080        -2.0702
 149   1.0000      -0.069782        -1.8989
 150   1.0000      -0.059487        -1.6187
 151   1.0000      -0.056218        -1.5298
 152   1.0000      -0.050109        -1.3635
 153   1.0000      -0.042439        -1.1548
 154   1.0000      -0.041290        -1.1235
 155   1.0000      -0.035109        -0.9554
 156   1.0000      -0.031525        -0.8578
 157   1.0000      -0.020686        -0.5629
 158   1.0000       0.013441         0.3657
 159   1.0000       0.033313         0.9065
 160   0.0000       0.094089         2.5603
 161   0.0000       0.134737         3.6664
 162   0.0000       0.150742         4.1019
 163   0.0000       0.160222         4.3599
 164   0.0000       0.161324         4.3899

MULLIKEN ATOMIC CHARGES AND SPIN POPULATIONS
--------------------------------------------
   0 V :    0.472847    1.212071
   1 S :   -0.289291   -0.023220
   2 S :   -0.265430   -0.024787
   3 S :   -0.287652   -0.024245
   4 S :   -0.262193   -0.025229
   5 O :   -0.464458   -0.147470
   6 C :   -0.097460    0.008781
   7 C :   -0.103237    0.007133
   8 C :   -0.083672    0.007674
   9 C :   -0.084000    0.007357
  10 S :    0.130896   -0.000733
  11 S :    0.132281   -0.000787
  12 S :    0.101528   -0.000406
  13 S :    0.100521   -0.000356
  14 C :   -0.175255    0.001754
  15 C :   -0.213192    0.000982
  16 C :   -0.195667    0.001636
  17 C :   -0.188153   -0.000408
  18 S :   -0.044210   -0.000036
  19 S :   -0.043642   -0.000028
  20 S :    0.009003   -0.000068
  21 S :    0.009113   -0.000071
  22 C :   -0.300993   -0.000002
  23 C :   -0.299974   -0.000003
  24 C :   -0.159365   -0.000009
  25 H :    0.143511   -0.000001
  26 H :    0.114596   -0.000004
  27 H :    0.084375   -0.000001
  28 H :    0.092944   -0.000001
  29 H :    0.114293   -0.000005
  30 H :    0.142930   -0.000001
  31 C :   -0.240913    0.000191
  32 C :   -0.241905    0.000185
  33 C :   -0.250952    0.000101
  34 H :    0.130633   -0.000010
  35 H :    0.099441    0.000010
  36 H :    0.107383   -0.000011
  37 H :    0.075134    0.000016
  38 H :    0.099668    0.000011
  39 H :    0.130521   -0.000009
Sum of atomic charges         :   -2.0000000

LOEWDIN ATOMIC CHARGES AND SPIN POPULATIONS
-------------------------------------------
   0 V :   -0.153689    1.165028
   1 S :    0.081808   -0.015085
   2 S :    0.087913   -0.016233
   3 S :    0.082935   -0.015945
   4 S :    0.091000   -0.016409
   5 O :   -0.316479   -0.132354
   6 C :   -0.538316    0.008720
   7 C :   -0.540749    0.007642
   8 C :   -0.551945    0.008011
   9 C :   -0.551971    0.007529
  10 S :    0.493778   -0.001248
  11 S :    0.495365   -0.001279
  12 S :    0.472141   -0.000836
  13 S :    0.471333   -0.000839
  14 C :   -0.456693    0.001407
  15 C :   -0.464804   -0.000095
  16 C :   -0.652377    0.001592
  17 C :   -0.621212    0.000079
  18 S :    0.331426    0.000032
  19 S :    0.332136    0.000039
  20 S :    0.359719   -0.000073
  21 S :    0.359313   -0.000075
  22 C :   -0.282888   -0.000008
  23 C :   -0.282973   -0.000009
  24 C :   -0.175983   -0.000002
  25 H :    0.062596   -0.000001
  26 H :    0.054023   -0.000002
  27 H :    0.058347   -0.000002
  28 H :    0.060466   -0.000001
  29 H :    0.053961   -0.000003
  30 H :    0.062409   -0.000002
  31 C :   -0.290732    0.000195
  32 C :   -0.290909    0.000184
  33 C :   -0.190011    0.000011
  34 H :    0.058398    0.000003
  35 H :    0.057804    0.000005
  36 H :    0.064587    0.000007
  37 H :    0.054111    0.000008
  38 H :    0.057832    0.000005
  39 H :    0.058329    0.000004

  Mayer bond orders larger than 0.100000
B(  0-V ,  1-S ) :   0.7782 B(  0-V ,  2-S ) :   0.7619 B(  0-V ,  3-S ) :   0.7711
B(  0-V ,  4-S ) :   0.7688 B(  0-V ,  5-O ) :   2.1518 B(  1-S ,  8-C ) :   1.1028
B(  2-S ,  6-C ) :   1.1322 B(  3-S ,  9-C ) :   1.1054 B(  4-S ,  7-C ) :   1.1311
B(  6-C ,  7-C ) :   1.6049 B(  6-C , 10-S ) :   0.9919 B(  7-C , 11-S ) :   0.9931
B(  8-C ,  9-C ) :   1.6981 B(  8-C , 13-S ) :   0.9343 B(  9-C , 12-S ) :   0.9361
B( 10-S , 14-C ) :   1.1513 B( 11-S , 14-C ) :   1.1556 B( 12-S , 15-C ) :   1.2446
B( 13-S , 15-C ) :   1.2447 B( 14-C , 16-C ) :   1.2766 B( 15-C , 17-C ) :   1.4562
B( 16-C , 18-S ) :   1.0571 B( 16-C , 19-S ) :   1.0635 B( 17-C , 20-S ) :   1.0876
B( 17-C , 21-S ) :   1.0880 B( 18-S , 32-C ) :   0.9578 B( 19-S , 31-C ) :   0.9556
B( 20-S , 23-C ) :   0.9912 B( 21-S , 22-C ) :   0.9907 B( 22-C , 24-C ) :   0.9129
B( 22-C , 25-H ) :   0.9655 B( 22-C , 26-H ) :   0.9656 B( 23-C , 24-C ) :   0.9137
B( 23-C , 29-H ) :   0.9657 B( 23-C , 30-H ) :   0.9654 B( 24-C , 27-H ) :   0.9624
B( 24-C , 28-H ) :   0.9721 B( 31-C , 33-C ) :   0.9118 B( 31-C , 38-H ) :   0.9714
B( 31-C , 39-H ) :   0.9540 B( 32-C , 33-C ) :   0.9114 B( 32-C , 34-H ) :   0.9537
B( 32-C , 35-H ) :   0.9715 B( 33-C , 36-H ) :   0.9851 B( 33-C , 37-H ) :   0.9438

FINAL SINGLE POINT ENERGY     -6337.659101060367

DIPOLE MOMENT
-------------
                                X             Y             Z
Electronic contribution:      7.76807       8.56722      -8.59593
Nuclear contribution   :     -8.77058      -9.74557       8.27206
                        -----------------------------------------
Total Dipole Moment    :     -1.00251      -1.17835      -0.32387
                        -----------------------------------------
Magnitude (a.u.)       :      1.58064
Magnitude (Debye)      :      4.01767

Rotational constants in cm-1:     0.010707     0.000804     0.000783
Rotational constants in MHz :   320.972847    24.109415    23.480086

                             ****ORCA TERMINATED NORMALLY****
TOTAL RUN TIME: 0 days 1 hours 7 minutes 6 seconds 145 msec
