                         Program Version 5.0.4 -  RELEASE  -
|  1> ! nofrozencore ReducedPop printbasis
|  2> ! B3LYP TZVP
|  3>
|  4> %basis
|  5> newgto V "CP(PPP)" end
|  6> end
|  7>
|  8> %pal
|  9> nprocs 8
| 10> end
| 11>
| 12> % sym SymThresh 1e-2 end
| 13> * xyz -2 2
| 14> V -0.9906528914504434 0.3703098360499475 -0.34705367680452126
| 15> S -1.0545580038731313 -1.9723065505957986 -1.1389079569350724
| 16> S -1.293801298822403 -0.5822699936849349 1.917397681103638
| 17> S 0.5357652701143497 0.787189464974591 -2.25159509646302
| 18> S 0.36647537368054006 2.1017671943902054 0.7688717071194857
| 19> O -2.38831830674028 1.0296024222122508 -0.715977142139963
| 20> C -0.8718200861257837 0.8282201158802737 2.8794773195612944
| 21> C -0.20321234986032183 1.9023951862547246 2.4192571879959552
| 22> C -0.21825768553134095 -1.8342646213120768 -2.679455617792421
| 23> C 0.41836793457852356 -0.7341056747148984 -3.121161341545144
| 24> S -1.2836795597396247 0.8362239248983864 4.62826935406532
| 25> S 0.19283091426710625 3.175961292624189 3.6200523659789505
| 26> S 1.2449684894145872 -0.8704470880178052 -4.7098021561660195
| 27> S -0.15340295852698152 -3.2771896409664145 -3.7478738290869122
| 28> C -0.5318234932649475 2.3864448346428704 5.025256467020149
| 29> C 0.8672409093043508 -2.5711132400161296 -5.006888770829618
| 30> C -0.5206937108227939 2.9253342929237998 6.282403454799412
| 31> C 1.3093757285211756 -3.2637401747094996 -6.0999177575295915
| 32> S -1.3130908649403845 2.1228080059345973 7.662211207594586
| 33> S 0.25815601099631746 4.491164365236529 6.625161053335762
| 34> S 0.9042018614307087 -4.980142905962314 -6.354968858167952
| 35> S 2.3552523649431656 -2.5106296503216163 -7.331313665840493
| 36> C 3.8516331623550073 -3.576289543503212 -7.100159144826315
| 37> C 2.6174655382904564 -5.677796145293029 -6.275494092377944
| 38> C 3.5789534028114733 -5.069096951297423 -7.298993802124807
| 39> H 4.253289067311699 -3.383104218204144 -6.102127664732368
| 40> H 4.577843172646619 -3.221684796610437 -7.83491645807292
| 41> H 4.536381328810255 -5.6041268577719645 -7.228633811657817
| 42> H 3.1873604377573677 -5.234201632487066 -8.307644717793059
| 43> H 2.5025318946046955 -6.750475443967839 -6.454036566463614
| 44> H 2.99242989142893 -5.539136175095509 -5.2597540124922135
| 45> C -1.2616255126348013 5.417771790072172 7.138255461553134
| 46> C -2.57689983340813 3.4124449165025856 8.069928351665263
| 47> C -1.982144216490563 4.795796754628015 8.338250153172332
| 48> H -3.434842130212136 3.482704493804148 6.989964417057224
| 49> H -3.005262218120081 3.13172346161901 8.709606052247311
| 50> H -1.3034028318918778 4.714422609573175 9.195905851339525
| 51> H -2.7996730543813375 5.468242361362855 8.631587780445022
| 52> H -0.7924402789140983 6.657512546272744 7.4984309122319415
| 53> H -1.7439850267207588 5.514781035147626 6.509702776177716
| 54> *
| 55>
| 56> % eprnmr
| 57> gtensor true
| 58> Nuclei = all H {aiso,adip,aorb,fgrad,rho}
| 59> Nuclei = all V {aiso,adip,aorb,fgrad,rho}
| 60> end
| 61>
| 62>                          ****END OF INPUT****

CARTESIAN COORDINATES (ANGSTROEM)
---------------------------------
  V     -0.988236    0.370110   -0.344084
  S     -1.052141   -1.972507   -1.135939
  S     -1.291384   -0.582470    1.920367
  S      0.538182    0.786989   -2.248626
  S      0.368892    2.101567    0.771841
  O     -2.385901    1.029402   -0.713008
  C     -0.869403    0.828020    2.882447
  C     -0.200795    1.902195    2.422226
  C     -0.215841   -1.834465   -2.676486
  C      0.420785   -0.734306   -3.118192
  S     -1.281263    0.836024    4.631239
  S      0.195248    3.175761    3.623022
  S      1.247385   -0.870647   -4.706833
  S     -0.150986   -3.277390   -3.744905
  C     -0.529407    2.386245    5.028226
  C      0.869658   -2.571314   -5.003920
  C     -0.518277    2.925134    6.285373
  C      1.311793   -3.263940   -6.096949
  S     -1.310674    2.122608    7.665180
  S      0.260573    4.490964    6.628130
  S      0.906619   -4.980343   -6.352000
  S      2.357669   -2.510830   -7.328344
  C      3.854050   -3.576490   -7.097190
  C      2.619883   -5.677996   -6.272525
  C      3.581370   -5.069297   -7.296025
  H      4.255706   -3.383305   -6.099158
  H      4.580260   -3.221885   -7.831947
  H      4.538798   -5.604327   -7.225665
  H      3.189777   -5.234402   -8.304675
  H      2.504949   -6.750676   -6.451067
  H      2.994847   -5.539336   -5.256785
  C     -1.259209    5.417572    7.141225
  C     -2.574483    3.412245    8.072898
  C     -1.979727    4.795596    8.341219
  H     -3.432425    3.482504    6.992934
  H     -3.002845    3.131523    8.712575
  H     -1.300986    4.714222    9.198875
  H     -2.797256    5.468042    8.634557
  H     -0.790023    6.657312    7.501400
  H     -1.741568    5.514581    6.512672

 Total Charge           Charge          ....   -2
 Multiplicity           Mult            ....    2
 Number of Electrons    NEL             ....  321
 Basis Dimension        Dim             ....  681

ORBITAL ENERGIES
----------------
                 SPIN UP ORBITALS
  NO   OCC          E(Eh)            E(eV)
   0   1.0000    -196.675200     -5351.8043
   1   1.0000     -88.736822     -2414.6517
   2   1.0000     -88.735114     -2414.6052
   3   1.0000     -88.733273     -2414.5551
   4   1.0000     -88.733180     -2414.5526
   5   1.0000     -88.731520     -2414.5074
   6   1.0000     -88.731444     -2414.5053
   7   1.0000     -88.730190     -2414.4712
   8   1.0000     -88.730143     -2414.4699
   9   1.0000     -88.640326     -2412.0259
  10   1.0000     -88.640072     -2412.0190
  11   1.0000     -88.640061     -2412.0187
  12   1.0000     -88.639508     -2412.0036
  13   1.0000     -22.050589      -600.0270
  14   1.0000     -18.890453      -514.0354
  15   1.0000     -18.557035      -504.9626
  16   1.0000     -18.551866      -504.8220
  17   1.0000     -18.551766      -504.8192
  18   1.0000     -10.077386      -274.2196
  19   1.0000     -10.075935      -274.1801
  20   1.0000     -10.063340      -273.8374
  21   1.0000     -10.063300      -273.8363
  22   1.0000     -10.061563      -273.7891
  23   1.0000     -10.060094      -273.7491
  24   1.0000     -10.054399      -273.5941
  25   1.0000     -10.051195      -273.5069
  26   1.0000     -10.050200      -273.4798
  27   1.0000     -10.048518      -273.4341
  28   1.0000     -10.019128      -272.6343
  29   1.0000     -10.018154      -272.6078
  30   1.0000     -10.018032      -272.6045
  31   1.0000     -10.017238      -272.5829
  32   1.0000      -7.790146      -211.9806
  33   1.0000      -7.788370      -211.9323
  34   1.0000      -7.786733      -211.8878
  35   1.0000      -7.786644      -211.8853
  36   1.0000      -7.784765      -211.8342
  37   1.0000      -7.784685      -211.8321
  38   1.0000      -7.783464      -211.7988
  39   1.0000      -7.783430      -211.7979
  40   1.0000      -7.694628      -209.3815
  41   1.0000      -7.694318      -209.3730
  42   1.0000      -7.694309      -209.3728
  43   1.0000      -7.693867      -209.3608
  44   1.0000      -5.755152      -156.6057
  45   1.0000      -5.753372      -156.5572
  46   1.0000      -5.751728      -156.5125
  47   1.0000      -5.751645      -156.5102
  48   1.0000      -5.751630      -156.5098
  49   1.0000      -5.750042      -156.4666
  50   1.0000      -5.749717      -156.4578
  51   1.0000      -5.749625      -156.4553
  52   1.0000      -5.748408      -156.4221
  53   1.0000      -5.748376      -156.4213
  54   1.0000      -5.748293      -156.4190
  55   1.0000      -5.748216      -156.4169
  56   1.0000      -5.745257      -156.3364
  57   1.0000      -5.745180      -156.3343
  58   1.0000      -5.745045      -156.3306
  59   1.0000      -5.743984      -156.3018
  60   1.0000      -5.743951      -156.3009
  61   1.0000      -5.743058      -156.2766
  62   1.0000      -5.741536      -156.2351
  63   1.0000      -5.741437      -156.2324
  64   1.0000      -5.740601      -156.2097
  65   1.0000      -5.740539      -156.2080
  66   1.0000      -5.739272      -156.1735
  67   1.0000      -5.739249      -156.1729
  68   1.0000      -5.659950      -154.0151
  69   1.0000      -5.659651      -154.0069
  70   1.0000      -5.659637      -154.0065
  71   1.0000      -5.659154      -153.9934
  72   1.0000      -5.653270      -153.8333
  73   1.0000      -5.652993      -153.8258
  74   1.0000      -5.652980      -153.8254
  75   1.0000      -5.652541      -153.8135
  76   1.0000      -5.651947      -153.7973
  77   1.0000      -5.651649      -153.7892
  78   1.0000      -5.651600      -153.7878
  79   1.0000      -5.651181      -153.7764
  80   1.0000      -2.444223       -66.5107
  81   1.0000      -1.485517       -40.4230
  82   1.0000      -1.473870       -40.1060
  83   1.0000      -1.473043       -40.0835
  84   1.0000      -0.714114       -19.4320
  85   1.0000      -0.709607       -19.3094
  86   1.0000      -0.691068       -18.8049
  87   1.0000      -0.685581       -18.6556
  88   1.0000      -0.650061       -17.6890
  89   1.0000      -0.635690       -17.2980
  90   1.0000      -0.632466       -17.2103
  91   1.0000      -0.631335       -17.1795
  92   1.0000      -0.617235       -16.7958
  93   1.0000      -0.576107       -15.6767
  94   1.0000      -0.574782       -15.6406
  95   1.0000      -0.574601       -15.6357
  96   1.0000      -0.572979       -15.5916
  97   1.0000      -0.513731       -13.9793
  98   1.0000      -0.503036       -13.6883
  99   1.0000      -0.496084       -13.4991
 100   1.0000      -0.495983       -13.4964
 101   1.0000      -0.481977       -13.1153
 102   1.0000      -0.478099       -13.0097
 103   1.0000      -0.467995       -12.7348
 104   1.0000      -0.446269       -12.1436
 105   1.0000      -0.418773       -11.3954
 106   1.0000      -0.412357       -11.2208
 107   1.0000      -0.355250        -9.6668
 108   1.0000      -0.354932        -9.6582
 109   1.0000      -0.335394        -9.1265
 110   1.0000      -0.326537        -8.8855
 111   1.0000      -0.319790        -8.7019
 112   1.0000      -0.315181        -8.5765
 113   1.0000      -0.305327        -8.3084
 114   1.0000      -0.303847        -8.2681
 115   1.0000      -0.292295        -7.9537
 116   1.0000      -0.291552        -7.9335
 117   1.0000      -0.265821        -7.2333
 118   1.0000      -0.257941        -7.0189
 119   1.0000      -0.256800        -6.9879
 120   1.0000      -0.255400        -6.9498
 121   1.0000      -0.234573        -6.3831
 122   1.0000      -0.233380        -6.3506
 123   1.0000      -0.230635        -6.2759
 124   1.0000      -0.222782        -6.0622
 125   1.0000      -0.219825        -5.9818
 126   1.0000      -0.217210        -5.9106
 127   1.0000      -0.212115        -5.7719
 128   1.0000      -0.206359        -5.6153
 129   1.0000      -0.193813        -5.2739
 130   1.0000      -0.188359        -5.1255
 131   1.0000      -0.187279        -5.0961
 132   1.0000      -0.183939        -5.0052
 133   1.0000      -0.179073        -4.8728
 134   1.0000      -0.159845        -4.3496
 135   1.0000      -0.151959        -4.1350
 136   1.0000      -0.147186        -4.0051
 137   1.0000      -0.136795        -3.7224
 138   1.0000      -0.134566        -3.6617
 139   1.0000      -0.133482        -3.6322
 140   1.0000      -0.125538        -3.4160
 141   1.0000      -0.121485        -3.3058
 142   1.0000      -0.113764        -3.0957
 143   1.0000      -0.110165        -2.9978
 144   1.0000      -0.100274        -2.7286
 145   1.0000      -0.098430        -2.6784
 146   1.0000      -0.098200        -2.6722
 147   1.0000      -0.095460        -2.5976
 148   1.0000      -0.074829        -2.0362
 149   1.0000      -0.069423        -1.8891
 150   1.0000      -0.067387        -1.8337
 151   1.0000      -0.052679        -1.4335
 152   1.0000      -0.045909        -1.2493
 153   1.0000      -0.038136        -1.0377
 154   1.0000      -0.037374        -1.0170
 155   1.0000      -0.031896        -0.8679
 156   1.0000      -0.025238        -0.6868
 157   1.0000      -0.019409        -0.5281
 158   1.0000      -0.015784        -0.4295
 159   1.0000       0.019992         0.5440
 160   1.0000       0.040904         1.1130
 161   0.0000       0.131633         3.5819
 162   0.0000       0.137280         3.7356
 163   0.0000       0.151858         4.1323
 164   0.0000       0.157412         4.2834
 165   0.0000       0.162228         4.4145

                 SPIN DOWN ORBITALS
  NO   OCC          E(Eh)            E(eV)
   0   1.0000    -196.675347     -5351.8083
   1   1.0000     -88.736823     -2414.6517
   2   1.0000     -88.735115     -2414.6052
   3   1.0000     -88.733274     -2414.5551
   4   1.0000     -88.733180     -2414.5526
   5   1.0000     -88.731529     -2414.5076
   6   1.0000     -88.731452     -2414.5056
   7   1.0000     -88.730199     -2414.4715
   8   1.0000     -88.730151     -2414.4702
   9   1.0000     -88.640465     -2412.0297
  10   1.0000     -88.640213     -2412.0228
  11   1.0000     -88.640198     -2412.0224
  12   1.0000     -88.639647     -2412.0074
  13   1.0000     -22.035661      -599.6208
  14   1.0000     -18.894228      -514.1381
  15   1.0000     -18.551772      -504.8194
  16   1.0000     -18.535836      -504.3857
  17   1.0000     -18.535651      -504.3807
  18   1.0000     -10.077380      -274.2195
  19   1.0000     -10.075935      -274.1801
  20   1.0000     -10.063340      -273.8374
  21   1.0000     -10.063301      -273.8363
  22   1.0000     -10.061562      -273.7890
  23   1.0000     -10.060093      -273.7491
  24   1.0000     -10.054399      -273.5941
  25   1.0000     -10.051195      -273.5069
  26   1.0000     -10.050188      -273.4795
  27   1.0000     -10.048514      -273.4340
  28   1.0000     -10.018890      -272.6279
  29   1.0000     -10.017932      -272.6018
  30   1.0000     -10.017818      -272.5987
  31   1.0000     -10.017026      -272.5771
  32   1.0000      -7.790146      -211.9807
  33   1.0000      -7.788371      -211.9323
  34   1.0000      -7.786733      -211.8878
  35   1.0000      -7.786644      -211.8854
  36   1.0000      -7.784774      -211.8345
  37   1.0000      -7.784695      -211.8323
  38   1.0000      -7.783473      -211.7991
  39   1.0000      -7.783439      -211.7982
  40   1.0000      -7.694758      -209.3850
  41   1.0000      -7.694446      -209.3765
  42   1.0000      -7.694440      -209.3764
  43   1.0000      -7.693997      -209.3643
  44   1.0000      -5.755154      -156.6057
  45   1.0000      -5.753373      -156.5572
  46   1.0000      -5.751729      -156.5125
  47   1.0000      -5.751647      -156.5103
  48   1.0000      -5.751631      -156.5098
  49   1.0000      -5.750044      -156.4666
  50   1.0000      -5.749728      -156.4580
  51   1.0000      -5.749636      -156.4555
  52   1.0000      -5.748419      -156.4224
  53   1.0000      -5.748387      -156.4216
  54   1.0000      -5.748294      -156.4190
  55   1.0000      -5.748217      -156.4169
  56   1.0000      -5.745271      -156.3368
  57   1.0000      -5.745194      -156.3347
  58   1.0000      -5.745046      -156.3306
  59   1.0000      -5.743998      -156.3021
  60   1.0000      -5.743965      -156.3012
  61   1.0000      -5.743059      -156.2766
  62   1.0000      -5.741536      -156.2351
  63   1.0000      -5.741438      -156.2325
  64   1.0000      -5.740610      -156.2099
  65   1.0000      -5.740548      -156.2083
  66   1.0000      -5.739278      -156.1737
  67   1.0000      -5.739255      -156.1731
  68   1.0000      -5.660088      -154.0188
  69   1.0000      -5.659793      -154.0108
  70   1.0000      -5.659779      -154.0104
  71   1.0000      -5.659296      -153.9973
  72   1.0000      -5.653657      -153.8438
  73   1.0000      -5.653361      -153.8358
  74   1.0000      -5.653344      -153.8353
  75   1.0000      -5.652902      -153.8233
  76   1.0000      -5.652034      -153.7997
  77   1.0000      -5.651755      -153.7921
  78   1.0000      -5.651693      -153.7904
  79   1.0000      -5.651287      -153.7793
  80   1.0000      -2.399349       -65.2896
  81   1.0000      -1.466238       -39.8984
  82   1.0000      -1.411495       -38.4087
  83   1.0000      -1.411338       -38.4045
  84   1.0000      -0.714097       -19.4316
  85   1.0000      -0.709591       -19.3090
  86   1.0000      -0.691008       -18.8033
  87   1.0000      -0.685538       -18.6544
  88   1.0000      -0.658155       -17.9093
  89   1.0000      -0.635631       -17.2964
  90   1.0000      -0.632451       -17.2099
  91   1.0000      -0.631277       -17.1779
  92   1.0000      -0.617237       -16.7959
  93   1.0000      -0.576077       -15.6759
  94   1.0000      -0.574700       -15.6384
  95   1.0000      -0.574577       -15.6350
  96   1.0000      -0.572914       -15.5898
  97   1.0000      -0.513737       -13.9795
  98   1.0000      -0.503043       -13.6885
  99   1.0000      -0.496111       -13.4999
 100   1.0000      -0.496029       -13.4976
 101   1.0000      -0.482208       -13.1216
 102   1.0000      -0.478345       -13.0164
 103   1.0000      -0.468024       -12.7356
 104   1.0000      -0.446305       -12.1446
 105   1.0000      -0.418784       -11.3957
 106   1.0000      -0.412467       -11.2238
 107   1.0000      -0.355245        -9.6667
 108   1.0000      -0.354919        -9.6578
 109   1.0000      -0.335385        -9.1263
 110   1.0000      -0.326527        -8.8853
 111   1.0000      -0.319716        -8.6999
 112   1.0000      -0.315206        -8.5772
 113   1.0000      -0.305280        -8.3071
 114   1.0000      -0.303818        -8.2673
 115   1.0000      -0.292289        -7.9536
 116   1.0000      -0.291547        -7.9334
 117   1.0000      -0.265739        -7.2311
 118   1.0000      -0.257843        -7.0163
 119   1.0000      -0.256721        -6.9857
 120   1.0000      -0.255354        -6.9485
 121   1.0000      -0.234518        -6.3816
 122   1.0000      -0.233350        -6.3498
 123   1.0000      -0.230594        -6.2748
 124   1.0000      -0.222605        -6.0574
 125   1.0000      -0.219596        -5.9755
 126   1.0000      -0.217011        -5.9052
 127   1.0000      -0.211949        -5.7674
 128   1.0000      -0.206290        -5.6134
 129   1.0000      -0.192269        -5.2319
 130   1.0000      -0.187883        -5.1126
 131   1.0000      -0.187129        -5.0920
 132   1.0000      -0.183735        -4.9997
 133   1.0000      -0.178958        -4.8697
 134   1.0000      -0.159224        -4.3327
 135   1.0000      -0.151788        -4.1304
 136   1.0000      -0.147108        -4.0030
 137   1.0000      -0.136230        -3.7070
 138   1.0000      -0.134196        -3.6517
 139   1.0000      -0.133253        -3.6260
 140   1.0000      -0.124891        -3.3985
 141   1.0000      -0.121158        -3.2969
 142   1.0000      -0.115536        -3.1439
 143   1.0000      -0.111707        -3.0397
 144   1.0000      -0.100286        -2.7289
 145   1.0000      -0.098734        -2.6867
 146   1.0000      -0.098235        -2.6731
 147   1.0000      -0.095765        -2.6059
 148   1.0000      -0.071000        -1.9320
 149   1.0000      -0.069417        -1.8889
 150   1.0000      -0.067380        -1.8335
 151   1.0000      -0.050092        -1.3631
 152   1.0000      -0.044971        -1.2237
 153   1.0000      -0.038196        -1.0394
 154   1.0000      -0.036798        -1.0013
 155   1.0000      -0.031932        -0.8689
 156   1.0000      -0.026276        -0.7150
 157   1.0000      -0.015993        -0.4352
 158   1.0000       0.020273         0.5517
 159   1.0000       0.039807         1.0832
 160   0.0000       0.131631         3.5819
 161   0.0000       0.137269         3.7353
 162   0.0000       0.151683         4.1275
 163   0.0000       0.155918         4.2427
 164   0.0000       0.157774         4.2933

MULLIKEN ATOMIC CHARGES AND SPIN POPULATIONS
--------------------------------------------
   0 V :    0.470911    1.210466
   1 S :   -0.291065   -0.022540
   2 S :   -0.288745   -0.025058
   3 S :   -0.288923   -0.023474
   4 S :   -0.284264   -0.025579
   5 O :   -0.467328   -0.146561
   6 C :   -0.077509    0.009653
   7 C :   -0.084911    0.008023
   8 C :   -0.084032    0.007762
   9 C :   -0.084540    0.007397
  10 S :    0.102038   -0.000595
  11 S :    0.103482   -0.000628
  12 S :    0.100152   -0.000392
  13 S :    0.099195   -0.000347
  14 C :   -0.211365    0.001519
  15 C :   -0.211956    0.001002
  16 C :   -0.192659   -0.000059
  17 C :   -0.190634   -0.000406
  18 S :    0.015594   -0.000112
  19 S :    0.010116   -0.000112
  20 S :    0.008335   -0.000068
  21 S :    0.008367   -0.000070
  22 C :   -0.300925   -0.000001
  23 C :   -0.300016   -0.000002
  24 C :   -0.158134   -0.000012
  25 H :    0.143129   -0.000001
  26 H :    0.114065   -0.000004
  27 H :    0.083596   -0.000001
  28 H :    0.092161   -0.000001
  29 H :    0.113242   -0.000005
  30 H :    0.143020   -0.000001
  31 C :   -0.305459    0.000216
  32 C :   -0.350023    0.000175
  33 C :   -0.156758   -0.000236
  34 H :    0.075281   -0.000015
  35 H :    0.204913    0.000015
  36 H :    0.094801    0.000025
  37 H :    0.085519    0.000016
  38 H :    0.033560    0.000046
  39 H :    0.227768   -0.000035
Sum of atomic charges         :   -2.0000000

LOEWDIN ATOMIC CHARGES AND SPIN POPULATIONS
-------------------------------------------
   0 V :   -0.155953    1.163853
   1 S :    0.079990   -0.014536
   2 S :    0.079783   -0.015972
   3 S :    0.081434   -0.015330
   4 S :    0.083959   -0.016230
   5 O :   -0.318625   -0.131476
   6 C :   -0.549480    0.009030
   7 C :   -0.551865    0.007934
   8 C :   -0.552338    0.008136
   9 C :   -0.552331    0.007669
  10 S :    0.473454   -0.000910
  11 S :    0.474767   -0.000952
  12 S :    0.471392   -0.000823
  13 S :    0.470598   -0.000828
  14 C :   -0.463743    0.000182
  15 C :   -0.465100   -0.000079
  16 C :   -0.622358    0.000470
  17 C :   -0.622111    0.000085
  18 S :    0.368130   -0.000087
  19 S :    0.366453   -0.000086
  20 S :    0.359058   -0.000072
  21 S :    0.358646   -0.000075
  22 C :   -0.283297   -0.000007
  23 C :   -0.283412   -0.000008
  24 C :   -0.176073   -0.000002
  25 H :    0.062691   -0.000001
  26 H :    0.053516   -0.000002
  27 H :    0.058032   -0.000002
  28 H :    0.060188   -0.000001
  29 H :    0.053680   -0.000002
  30 H :    0.062279   -0.000002
  31 C :   -0.209038    0.000044
  32 C :   -0.229514    0.000039
  33 C :   -0.164994    0.000006
  34 H :    0.074413   -0.000006
  35 H :   -0.037513    0.000005
  36 H :    0.063165    0.000005
  37 H :    0.059887    0.000002
  38 H :    0.063524    0.000027
  39 H :   -0.041294    0.000003

  Mayer bond orders larger than 0.100000
B(  0-V ,  1-S ) :   0.7725 B(  0-V ,  2-S ) :   0.7701 B(  0-V ,  3-S ) :   0.7659
B(  0-V ,  4-S ) :   0.7773 B(  0-V ,  5-O ) :   2.1491 B(  1-S ,  8-C ) :   1.1034
B(  2-S ,  6-C ) :   1.1054 B(  3-S ,  9-C ) :   1.1061 B(  4-S ,  7-C ) :   1.1059
B(  6-C ,  7-C ) :   1.6825 B(  6-C , 10-S ) :   0.9359 B(  7-C , 11-S ) :   0.9391
B(  8-C ,  9-C ) :   1.6985 B(  8-C , 13-S ) :   0.9337 B(  9-C , 12-S ) :   0.9355
B( 10-S , 14-C ) :   1.2499 B( 11-S , 14-C ) :   1.2512 B( 12-S , 15-C ) :   1.2464
B( 13-S , 15-C ) :   1.2464 B( 14-C , 16-C ) :   1.4448 B( 15-C , 17-C ) :   1.4540
B( 16-C , 18-S ) :   1.0809 B( 16-C , 19-S ) :   1.0958 B( 17-C , 20-S ) :   1.0882
B( 17-C , 21-S ) :   1.0888 B( 18-S , 32-C ) :   0.9965 B( 19-S , 31-C ) :   0.9890
B( 20-S , 23-C ) :   0.9913 B( 21-S , 22-C ) :   0.9907 B( 22-C , 24-C ) :   0.9129
B( 22-C , 25-H ) :   0.9657 B( 22-C , 26-H ) :   0.9656 B( 23-C , 24-C ) :   0.9138
B( 23-C , 29-H ) :   0.9656 B( 23-C , 30-H ) :   0.9655 B( 24-C , 27-H ) :   0.9625
B( 24-C , 28-H ) :   0.9719 B( 31-C , 33-C ) :   0.9067 B( 31-C , 38-H ) :   0.9422
B( 31-C , 39-H ) :   0.9711 B( 32-C , 33-C ) :   0.9140 B( 32-C , 34-H ) :   0.9495
B( 32-C , 35-H ) :   0.9600 B( 33-C , 36-H ) :   0.9660 B( 33-C , 37-H ) :   0.9632

FINAL SINGLE POINT ENERGY     -6337.474421120688

DIPOLE MOMENT
-------------
                                X             Y             Z
Electronic contribution:    -11.59916       1.90674      -6.84897
Nuclear contribution   :     12.95392      -2.39470       7.57741
                        -----------------------------------------
Total Dipole Moment    :      1.35476      -0.48797       0.72844
                        -----------------------------------------
Magnitude (a.u.)       :      1.61373
Magnitude (Debye)      :      4.10178

Rotational constants in cm-1:     0.010760     0.000804     0.000783
Rotational constants in MHz :   322.580841    24.115876    23.486662

                             ****ORCA TERMINATED NORMALLY****
TOTAL RUN TIME: 0 days 1 hours 1 minutes 54 seconds 735 msec
