                         Program Version 5.0.4 -  RELEASE  -
|  1> ! nofrozencore ReducedPop printbasis
|  2> ! B3LYP TZVP
|  3>
|  4> %basis
|  5> newgto V "CP(PPP)" end
|  6> end
|  7>
|  8> %pal
|  9> nprocs 6
| 10> end
| 11>
| 12> % sym SymThresh 1e-2 end
| 13> * xyz -2 2
| 14> V -0.19743764277314318 -0.13541411647695917 -1.0875681955835914
| 15> S 0.2879911709581101 -2.4610394669388906 -0.39674667735888697
| 16> S -2.347121166492994 -0.4098374237668084 0.10851369156356631
| 17> S 2.250580962365198 0.20579256711100563 -0.9320959089488594
| 18> S -0.3140834808879281 2.2174930353471534 -0.35613160394324844
| 19> O -0.5678380348886519 -0.16996403207429628 -2.6300688001763075
| 20> C -2.8898273105671337 1.205046395365995 0.2106525769169456
| 21> C -1.9717227636153314 2.389300513180753 0.004873658001002281
| 22> C 1.7779924068677206 -2.810150077727247 -0.42266754450901495
| 23> C 3.040558078936459 -1.090489840522544 -0.7629445984528285
| 24> S -4.540239023321745 1.6503460598749844 0.6405782732605978
| 25> S -2.7459760857206623 3.950092039718288 0.2548051781390008
| 26> S 4.5780735872878875 -1.7179254994926916 -0.6908182563263638
| 27> S 2.8640659077194823 -4.0557077825023296 -0.23524232181733792
| 28> C -4.401568949417671 3.4319306041276625 0.6823119948345946
| 29> C 4.668411639111179 -3.5486218164803796 -0.29815580174929884
| 30> C -5.375613144476391 4.245570720572513 0.9767271607992906
| 31> C 5.5029317046255075 -4.133729095762335 -0.16547651005602274
| 32> S -7.042896388287602 3.6792244822796794 1.3451495734331118
| 33> S -5.170773032730826 6.032351769499821 1.0062081936388885
| 34> S 5.515353148258188 -5.964159202169895 0.236015149638037
| 35> S 7.281790158020936 -3.545089085897788 -0.2164434145263443
| 36> C 7.79429617652147 -3.8690109198825446 1.5325859110527549
| 37> C 6.2899299710749705 -5.9387517999492765 1.9171033354916105
| 38> C 7.709492654847742 -5.351464248291203 1.9266282078431178
| 39> H 7.141939353914701 -3.2774487749995704 2.1784227554963445
| 40> H 8.834219212780727 -3.542421393719572 1.6116167941426875
| 41> H 8.112696056532096 -5.45566452144171 2.9447151017610804
| 42> H 8.349354928232232 -5.939479188974707 1.2612921031289617
| 43> H 6.337746969570248 -6.979752527034879 2.2461700789391172
| 44> H 5.641845683744373 -5.346904979614668 2.5668606180741187
| 45> C -6.342416993034061 6.482125016346333 -0.3542885076654907
| 46> C -7.931881138881716 4.475605755452385 -0.07048187567041268
| 47> C -7.775716795288194 5.998632388695998 -0.11530412673644738
| 48> H -7.56538066926469 4.024703549939398 -0.9952209624030035
| 49> H -8.984494913574128 4.212059602666385 0.058449722971992316
| 50> H -8.152503075577016 6.428515487097965 0.8180688992523247
| 51> H -8.405619789545588 6.382506059984739 -0.9301307897310196
| 52> H -6.320714864559539 7.573156265832142 -0.4113658720414629
| 53> H -5.948712768875265 6.071631217747456 -1.2866520321147181
| 54> *
| 55>
| 56> % eprnmr
| 57> gtensor true
| 58> Nuclei = all H {aiso,adip,aorb,fgrad,rho}
| 59> Nuclei = all V {aiso,adip,aorb,fgrad,rho}
| 60> end
| 61>
| 62>                          ****END OF INPUT****

CARTESIAN COORDINATES (ANGSTROEM)
---------------------------------
  V     -0.198709   -0.133831   -1.084316
  S      0.286720   -2.459456   -0.393495
  S     -2.348392   -0.408254    0.111766
  S      2.249310    0.207376   -0.928844
  S     -0.315355    2.219077   -0.352880
  O     -0.569109   -0.168380   -2.626817
  C     -2.891099    1.206630    0.213904
  C     -1.972994    2.390884    0.008125
  C      1.776721   -2.808567   -0.419416
  C      3.039287   -1.088906   -0.759693
  S     -4.541510    1.651930    0.643830
  S     -2.747247    3.951676    0.258057
  S      4.576802   -1.716342   -0.687566
  S      2.862795   -4.054124   -0.231990
  C     -4.402840    3.433514    0.685564
  C      4.667140   -3.547038   -0.294904
  C     -5.376884    4.247154    0.979979
  C      5.501660   -4.132146   -0.162225
  S     -7.044168    3.680808    1.348401
  S     -5.172044    6.033935    1.009460
  S      5.514082   -5.962576    0.239267
  S      7.280519   -3.543506   -0.213192
  C      7.793025   -3.867427    1.535838
  C      6.288659   -5.937168    1.920355
  C      7.708221   -5.349881    1.929880
  H      7.140668   -3.275865    2.181675
  H      8.832948   -3.540838    1.614869
  H      8.111425   -5.454081    2.947967
  H      8.348084   -5.937896    1.264544
  H      6.336476   -6.978169    2.249422
  H      5.640574   -5.345321    2.570112
  C     -6.343688    6.483709   -0.351037
  C     -7.933152    4.477189   -0.067230
  C     -7.776988    6.000216   -0.112052
  H     -7.566652    4.026287   -0.991969
  H     -8.985766    4.213643    0.061702
  H     -8.153774    6.430099    0.821321
  H     -8.406891    6.384090   -0.926879
  H     -6.321986    7.574740   -0.408114
  H     -5.949984    6.073215   -1.283400

 Total Charge           Charge          ....   -2
 Multiplicity           Mult            ....    2
 Number of Electrons    NEL             ....  321
 Basis Dimension        Dim             ....  681

ORBITAL ENERGIES
----------------
                 SPIN UP ORBITALS
  NO   OCC          E(Eh)            E(eV)
   0   1.0000    -196.673197     -5351.7498
   1   1.0000     -88.737540     -2414.6712
   2   1.0000     -88.737537     -2414.6711
   3   1.0000     -88.733413     -2414.5589
   4   1.0000     -88.733219     -2414.5536
   5   1.0000     -88.710096     -2413.9244
   6   1.0000     -88.709491     -2413.9080
   7   1.0000     -88.706807     -2413.8349
   8   1.0000     -88.706631     -2413.8301
   9   1.0000     -88.672956     -2412.9138
  10   1.0000     -88.672700     -2412.9068
  11   1.0000     -88.651079     -2412.3185
  12   1.0000     -88.651054     -2412.3178
  13   1.0000     -22.047444      -599.9415
  14   1.0000     -18.897019      -514.2140
  15   1.0000     -18.553596      -504.8690
  16   1.0000     -18.548791      -504.7383
  17   1.0000     -18.548319      -504.7254
  18   1.0000     -10.074178      -274.1323
  19   1.0000     -10.068064      -273.9660
  20   1.0000     -10.068015      -273.9646
  21   1.0000     -10.054767      -273.6041
  22   1.0000     -10.053002      -273.5561
  23   1.0000     -10.052872      -273.5526
  24   1.0000     -10.049426      -273.4588
  25   1.0000     -10.037402      -273.1316
  26   1.0000     -10.031794      -272.9790
  27   1.0000     -10.031312      -272.9659
  28   1.0000     -10.020292      -272.6660
  29   1.0000     -10.018990      -272.6306
  30   1.0000     -10.001504      -272.1548
  31   1.0000      -9.990584      -271.8576
  32   1.0000      -7.790821      -211.9990
  33   1.0000      -7.790805      -211.9986
  34   1.0000      -7.786676      -211.8862
  35   1.0000      -7.786557      -211.8830
  36   1.0000      -7.763491      -211.2553
  37   1.0000      -7.762866      -211.2383
  38   1.0000      -7.760875      -211.1842
  39   1.0000      -7.760679      -211.1788
  40   1.0000      -7.731505      -210.3849
  41   1.0000      -7.731053      -210.3726
  42   1.0000      -7.706151      -209.6950
  43   1.0000      -7.706049      -209.6923
  44   1.0000      -5.755830      -156.6241
  45   1.0000      -5.755820      -156.6238
  46   1.0000      -5.752464      -156.5325
  47   1.0000      -5.752456      -156.5323
  48   1.0000      -5.751572      -156.5082
  49   1.0000      -5.751448      -156.5049
  50   1.0000      -5.747190      -156.3890
  51   1.0000      -5.747059      -156.3854
  52   1.0000      -5.745539      -156.3441
  53   1.0000      -5.745518      -156.3435
  54   1.0000      -5.742549      -156.2627
  55   1.0000      -5.742429      -156.2594
  56   1.0000      -5.727993      -155.8666
  57   1.0000      -5.727367      -155.8496
  58   1.0000      -5.726116      -155.8155
  59   1.0000      -5.725858      -155.8085
  60   1.0000      -5.724039      -155.7590
  61   1.0000      -5.723464      -155.7434
  62   1.0000      -5.722784      -155.7249
  63   1.0000      -5.722600      -155.7199
  64   1.0000      -5.719498      -155.6355
  65   1.0000      -5.718803      -155.6165
  66   1.0000      -5.715305      -155.5214
  67   1.0000      -5.715119      -155.5163
  68   1.0000      -5.694892      -154.9659
  69   1.0000      -5.694464      -154.9542
  70   1.0000      -5.690226      -154.8389
  71   1.0000      -5.689778      -154.8267
  72   1.0000      -5.689382      -154.8160
  73   1.0000      -5.688973      -154.8048
  74   1.0000      -5.670956      -154.3145
  75   1.0000      -5.670881      -154.3125
  76   1.0000      -5.664636      -154.1426
  77   1.0000      -5.664566      -154.1407
  78   1.0000      -5.663937      -154.1236
  79   1.0000      -5.663790      -154.1196
  80   1.0000      -2.448079       -66.6156
  81   1.0000      -1.489020       -40.5183
  82   1.0000      -1.480592       -40.2889
  83   1.0000      -1.477754       -40.2117
  84   1.0000      -0.714349       -19.4384
  85   1.0000      -0.705084       -19.1863
  86   1.0000      -0.685889       -18.6640
  87   1.0000      -0.665574       -18.1112
  88   1.0000      -0.656673       -17.8690
  89   1.0000      -0.636346       -17.3159
  90   1.0000      -0.635036       -17.2802
  91   1.0000      -0.620890       -16.8953
  92   1.0000      -0.614554       -16.7229
  93   1.0000      -0.597988       -16.2721
  94   1.0000      -0.586244       -15.9525
  95   1.0000      -0.573776       -15.6132
  96   1.0000      -0.565609       -15.3910
  97   1.0000      -0.532409       -14.4876
  98   1.0000      -0.528436       -14.3795
  99   1.0000      -0.510700       -13.8969
 100   1.0000      -0.506407       -13.7800
 101   1.0000      -0.489734       -13.3263
 102   1.0000      -0.471036       -12.8175
 103   1.0000      -0.450900       -12.2696
 104   1.0000      -0.431860       -11.7515
 105   1.0000      -0.397077       -10.8050
 106   1.0000      -0.357170        -9.7191
 107   1.0000      -0.355904        -9.6846
 108   1.0000      -0.337153        -9.1744
 109   1.0000      -0.333795        -9.0830
 110   1.0000      -0.329641        -8.9700
 111   1.0000      -0.329145        -8.9565
 112   1.0000      -0.309749        -8.4287
 113   1.0000      -0.305047        -8.3007
 114   1.0000      -0.297446        -8.0939
 115   1.0000      -0.283582        -7.7167
 116   1.0000      -0.265857        -7.2343
 117   1.0000      -0.261740        -7.1223
 118   1.0000      -0.261357        -7.1119
 119   1.0000      -0.249778        -6.7968
 120   1.0000      -0.244102        -6.6424
 121   1.0000      -0.239393        -6.5142
 122   1.0000      -0.235179        -6.3995
 123   1.0000      -0.231193        -6.2911
 124   1.0000      -0.224819        -6.1176
 125   1.0000      -0.222441        -6.0529
 126   1.0000      -0.219542        -5.9741
 127   1.0000      -0.209935        -5.7126
 128   1.0000      -0.208503        -5.6736
 129   1.0000      -0.198701        -5.4069
 130   1.0000      -0.187351        -5.0981
 131   1.0000      -0.186925        -5.0865
 132   1.0000      -0.173583        -4.7234
 133   1.0000      -0.165260        -4.4970
 134   1.0000      -0.160430        -4.3655
 135   1.0000      -0.157678        -4.2906
 136   1.0000      -0.152873        -4.1599
 137   1.0000      -0.142029        -3.8648
 138   1.0000      -0.140606        -3.8261
 139   1.0000      -0.136788        -3.7222
 140   1.0000      -0.134051        -3.6477
 141   1.0000      -0.130732        -3.5574
 142   1.0000      -0.120172        -3.2700
 143   1.0000      -0.115067        -3.1311
 144   1.0000      -0.108957        -2.9649
 145   1.0000      -0.108313        -2.9473
 146   1.0000      -0.099043        -2.6951
 147   1.0000      -0.080830        -2.1995
 148   1.0000      -0.074962        -2.0398
 149   1.0000      -0.071094        -1.9346
 150   1.0000      -0.064986        -1.7684
 151   1.0000      -0.056303        -1.5321
 152   1.0000      -0.052446        -1.4271
 153   1.0000      -0.047134        -1.2826
 154   1.0000      -0.041539        -1.1303
 155   1.0000      -0.041313        -1.1242
 156   1.0000      -0.032484        -0.8839
 157   1.0000      -0.024859        -0.6764
 158   1.0000      -0.004859        -0.1322
 159   1.0000       0.039192         1.0665
 160   1.0000       0.069174         1.8823
 161   0.0000       0.136627         3.7178
 162   0.0000       0.138846         3.7782
 163   0.0000       0.146337         3.9820
 164   0.0000       0.158718         4.3189
 165   0.0000       0.161079         4.3832

                 SPIN DOWN ORBITALS
  NO   OCC          E(Eh)            E(eV)
   0   1.0000    -196.673379     -5351.7547
   1   1.0000     -88.737541     -2414.6712
   2   1.0000     -88.737537     -2414.6712
   3   1.0000     -88.733415     -2414.5590
   4   1.0000     -88.733220     -2414.5537
   5   1.0000     -88.709827     -2413.9171
   6   1.0000     -88.709233     -2413.9009
   7   1.0000     -88.705953     -2413.8117
   8   1.0000     -88.705811     -2413.8078
   9   1.0000     -88.673594     -2412.9312
  10   1.0000     -88.673301     -2412.9232
  11   1.0000     -88.651361     -2412.3262
  12   1.0000     -88.651327     -2412.3253
  13   1.0000     -22.030059      -599.4684
  14   1.0000     -18.901734      -514.3423
  15   1.0000     -18.547377      -504.6998
  16   1.0000     -18.530232      -504.2332
  17   1.0000     -18.529567      -504.2152
  18   1.0000     -10.074186      -274.1325
  19   1.0000     -10.068068      -273.9660
  20   1.0000     -10.068020      -273.9648
  21   1.0000     -10.054767      -273.6041
  22   1.0000     -10.053092      -273.5585
  23   1.0000     -10.052996      -273.5559
  24   1.0000     -10.049433      -273.4590
  25   1.0000     -10.037408      -273.1318
  26   1.0000     -10.031616      -272.9741
  27   1.0000     -10.031044      -272.9586
  28   1.0000     -10.022916      -272.7374
  29   1.0000     -10.022001      -272.7125
  30   1.0000     -10.000162      -272.1182
  31   1.0000      -9.987925      -271.7852
  32   1.0000      -7.790821      -211.9990
  33   1.0000      -7.790806      -211.9986
  34   1.0000      -7.786679      -211.8863
  35   1.0000      -7.786559      -211.8831
  36   1.0000      -7.763094      -211.2445
  37   1.0000      -7.762471      -211.2276
  38   1.0000      -7.759981      -211.1598
  39   1.0000      -7.759810      -211.1552
  40   1.0000      -7.732084      -210.4007
  41   1.0000      -7.731594      -210.3874
  42   1.0000      -7.706419      -209.7023
  43   1.0000      -7.706308      -209.6993
  44   1.0000      -5.755832      -156.6241
  45   1.0000      -5.755821      -156.6239
  46   1.0000      -5.752465      -156.5325
  47   1.0000      -5.752456      -156.5323
  48   1.0000      -5.751578      -156.5084
  49   1.0000      -5.751455      -156.5050
  50   1.0000      -5.747197      -156.3892
  51   1.0000      -5.747068      -156.3857
  52   1.0000      -5.745539      -156.3441
  53   1.0000      -5.745519      -156.3435
  54   1.0000      -5.742541      -156.2625
  55   1.0000      -5.742413      -156.2590
  56   1.0000      -5.727390      -155.8502
  57   1.0000      -5.726763      -155.8332
  58   1.0000      -5.724709      -155.7772
  59   1.0000      -5.724546      -155.7728
  60   1.0000      -5.723467      -155.7435
  61   1.0000      -5.722876      -155.7274
  62   1.0000      -5.721271      -155.6837
  63   1.0000      -5.721136      -155.6800
  64   1.0000      -5.719802      -155.6437
  65   1.0000      -5.719184      -155.6269
  66   1.0000      -5.714700      -155.5049
  67   1.0000      -5.714534      -155.5004
  68   1.0000      -5.695302      -154.9770
  69   1.0000      -5.694844      -154.9646
  70   1.0000      -5.692023      -154.8878
  71   1.0000      -5.691492      -154.8734
  72   1.0000      -5.690014      -154.8332
  73   1.0000      -5.689563      -154.8209
  74   1.0000      -5.671173      -154.3205
  75   1.0000      -5.671093      -154.3183
  76   1.0000      -5.665249      -154.1593
  77   1.0000      -5.665135      -154.1562
  78   1.0000      -5.664327      -154.1342
  79   1.0000      -5.664190      -154.1304
  80   1.0000      -2.395401       -65.1822
  81   1.0000      -1.465932       -39.8900
  82   1.0000      -1.406772       -38.2802
  83   1.0000      -1.406367       -38.2692
  84   1.0000      -0.714358       -19.4387
  85   1.0000      -0.697995       -18.9934
  86   1.0000      -0.685878       -18.6637
  87   1.0000      -0.666820       -18.1451
  88   1.0000      -0.664059       -18.0700
  89   1.0000      -0.637021       -17.3342
  90   1.0000      -0.635046       -17.2805
  91   1.0000      -0.620898       -16.8955
  92   1.0000      -0.616133       -16.7658
  93   1.0000      -0.595897       -16.2152
  94   1.0000      -0.586252       -15.9527
  95   1.0000      -0.573864       -15.6156
  96   1.0000      -0.564836       -15.3700
  97   1.0000      -0.531196       -14.4546
  98   1.0000      -0.523913       -14.2564
  99   1.0000      -0.510867       -13.9014
 100   1.0000      -0.506821       -13.7913
 101   1.0000      -0.489969       -13.3327
 102   1.0000      -0.467247       -12.7144
 103   1.0000      -0.450973       -12.2716
 104   1.0000      -0.430979       -11.7275
 105   1.0000      -0.397428       -10.8146
 106   1.0000      -0.358420        -9.7531
 107   1.0000      -0.356504        -9.7010
 108   1.0000      -0.333511        -9.0753
 109   1.0000      -0.332604        -9.0506
 110   1.0000      -0.329635        -8.9698
 111   1.0000      -0.328150        -8.9294
 112   1.0000      -0.309724        -8.4280
 113   1.0000      -0.304839        -8.2951
 114   1.0000      -0.297444        -8.0939
 115   1.0000      -0.283111        -7.7038
 116   1.0000      -0.266084        -7.2405
 117   1.0000      -0.261801        -7.1240
 118   1.0000      -0.261390        -7.1128
 119   1.0000      -0.248410        -6.7596
 120   1.0000      -0.242781        -6.6064
 121   1.0000      -0.239412        -6.5147
 122   1.0000      -0.235094        -6.3972
 123   1.0000      -0.231042        -6.2870
 124   1.0000      -0.224198        -6.1007
 125   1.0000      -0.222114        -6.0440
 126   1.0000      -0.219517        -5.9734
 127   1.0000      -0.210213        -5.7202
 128   1.0000      -0.208816        -5.6822
 129   1.0000      -0.198042        -5.3890
 130   1.0000      -0.187428        -5.1002
 131   1.0000      -0.186706        -5.0805
 132   1.0000      -0.176391        -4.7998
 133   1.0000      -0.172083        -4.6826
 134   1.0000      -0.159333        -4.3357
 135   1.0000      -0.156847        -4.2680
 136   1.0000      -0.149824        -4.0769
 137   1.0000      -0.145714        -3.9651
 138   1.0000      -0.144945        -3.9442
 139   1.0000      -0.140507        -3.8234
 140   1.0000      -0.135851        -3.6967
 141   1.0000      -0.132054        -3.5934
 142   1.0000      -0.121914        -3.3175
 143   1.0000      -0.119582        -3.2540
 144   1.0000      -0.109145        -2.9700
 145   1.0000      -0.104241        -2.8365
 146   1.0000      -0.099627        -2.7110
 147   1.0000      -0.079685        -2.1683
 148   1.0000      -0.071226        -1.9381
 149   1.0000      -0.068040        -1.8515
 150   1.0000      -0.062084        -1.6894
 151   1.0000      -0.057228        -1.5573
 152   1.0000      -0.055826        -1.5191
 153   1.0000      -0.050173        -1.3653
 154   1.0000      -0.042987        -1.1697
 155   1.0000      -0.040678        -1.1069
 156   1.0000      -0.033919        -0.9230
 157   1.0000      -0.003685        -0.1003
 158   1.0000       0.036628         0.9967
 159   1.0000       0.082879         2.2552
 160   0.0000       0.123757         3.3676
 161   0.0000       0.137867         3.7515
 162   0.0000       0.145595         3.9618
 163   0.0000       0.152485         4.1493
 164   0.0000       0.161671         4.3993

MULLIKEN ATOMIC CHARGES AND SPIN POPULATIONS
--------------------------------------------
   0 V :    0.391427    1.415661
   1 S :   -0.079981   -0.124864
   2 S :   -0.263122   -0.040030
   3 S :   -0.075031   -0.130448
   4 S :   -0.261513   -0.042955
   5 O :   -0.474258   -0.177017
   6 C :   -0.110140    0.005019
   7 C :   -0.114404    0.011511
   8 C :   -0.218296   -0.186502
   9 C :   -0.216628   -0.163321
  10 S :    0.106691    0.000644
  11 S :    0.108143    0.000833
  12 S :    0.110122    0.030362
  13 S :    0.106958    0.027301
  14 C :   -0.254428    0.001234
  15 C :   -0.523352    0.142269
  16 C :   -0.140651   -0.001664
  17 C :    0.181163   -0.008008
  18 S :    0.007803   -0.000187
  19 S :    0.007906   -0.000287
  20 S :   -0.066259    0.118464
  21 S :   -0.063852    0.129044
  22 C :   -0.312111   -0.009297
  23 C :   -0.309399   -0.005680
  24 C :   -0.146592    0.003490
  25 H :    0.139628    0.003396
  26 H :    0.117867    0.000305
  27 H :    0.071260   -0.001580
  28 H :    0.091296   -0.001866
  29 H :    0.118160    0.001707
  30 H :    0.139154    0.002830
  31 C :   -0.303745   -0.000019
  32 C :   -0.304795   -0.000056
  33 C :   -0.156304    0.000063
  34 H :    0.144324    0.000013
  35 H :    0.116098   -0.000109
  36 H :    0.093553   -0.000075
  37 H :    0.083181   -0.000048
  38 H :    0.116060   -0.000131
  39 H :    0.144067   -0.000001
Sum of atomic charges         :   -2.0000000

LOEWDIN ATOMIC CHARGES AND SPIN POPULATIONS
-------------------------------------------
   0 V :   -0.206355    1.356443
   1 S :    0.321311   -0.108869
   2 S :    0.115240   -0.031386
   3 S :    0.325522   -0.112869
   4 S :    0.116913   -0.033572
   5 O :   -0.330272   -0.164534
   6 C :   -0.595788    0.005017
   7 C :   -0.597790    0.010522
   8 C :   -0.713321   -0.177123
   9 C :   -0.710668   -0.157307
  10 S :    0.474524   -0.000185
  11 S :    0.475811    0.000263
  12 S :    0.448437    0.022730
  13 S :    0.445807    0.019832
  14 C :   -0.461532   -0.000637
  15 C :   -0.486764    0.150976
  16 C :   -0.601951   -0.000679
  17 C :   -0.505272    0.006563
  18 S :    0.356281   -0.000184
  19 S :    0.357681   -0.000251
  20 S :    0.285042    0.101414
  21 S :    0.286028    0.109151
  22 C :   -0.285383   -0.002150
  23 C :   -0.285029   -0.000499
  24 C :   -0.180836   -0.000414
  25 H :    0.059756    0.001899
  26 H :    0.055491    0.002506
  27 H :    0.052720   -0.000695
  28 H :    0.058982   -0.000660
  29 H :    0.055947    0.003378
  30 H :    0.059633    0.001755
  31 C :   -0.283378   -0.000162
  32 C :   -0.283169   -0.000121
  33 C :   -0.177050   -0.000003
  34 H :    0.062744   -0.000003
  35 H :    0.054848   -0.000043
  36 H :    0.060364   -0.000028
  37 H :    0.057921   -0.000021
  38 H :    0.054932   -0.000047
  39 H :    0.062624   -0.000008

  Mayer bond orders larger than 0.100000
B(  0-V ,  1-S ) :   0.6939 B(  0-V ,  2-S ) :   0.7684 B(  0-V ,  3-S ) :   0.6832
B(  0-V ,  4-S ) :   0.7710 B(  0-V ,  5-O ) :   2.1235 B(  1-S ,  8-C ) :   1.4608
B(  2-S ,  6-C ) :   1.1419 B(  3-S ,  9-C ) :   1.4718 B(  4-S ,  7-C ) :   1.1436
B(  6-C ,  7-C ) :   1.4827 B(  6-C , 10-S ) :   0.9626 B(  7-C , 11-S ) :   0.9667
B(  8-C ,  9-C ) :   0.5395 B(  8-C , 13-S ) :   1.2833 B(  9-C , 12-S ) :   1.2920
B( 10-S , 14-C ) :   1.2504 B( 11-S , 14-C ) :   1.2505 B( 12-S , 15-C ) :   1.0831
B( 12-S , 17-C ) :  -0.2228 B( 13-S , 15-C ) :   1.0856 B( 13-S , 17-C ) :  -0.2214
B( 14-C , 16-C ) :   1.4937 B( 15-C , 17-C ) :   1.9919 B( 15-C , 20-S ) :  -0.1014
B( 16-C , 18-S ) :   1.0807 B( 16-C , 19-S ) :   1.0824 B( 17-C , 20-S ) :   0.9244
B( 17-C , 21-S ) :   0.9214 B( 18-S , 32-C ) :   0.9940 B( 19-S , 31-C ) :   0.9943
B( 20-S , 23-C ) :   1.0343 B( 21-S , 22-C ) :   1.0343 B( 22-C , 24-C ) :   0.8994
B( 22-C , 25-H ) :   0.9680 B( 22-C , 26-H ) :   0.9666 B( 23-C , 24-C ) :   0.9000
B( 23-C , 29-H ) :   0.9671 B( 23-C , 30-H ) :   0.9680 B( 24-C , 27-H ) :   0.9595
B( 24-C , 28-H ) :   0.9712 B( 31-C , 33-C ) :   0.9109 B( 31-C , 38-H ) :   0.9655
B( 31-C , 39-H ) :   0.9663 B( 32-C , 33-C ) :   0.9101 B( 32-C , 34-H ) :   0.9663
B( 32-C , 35-H ) :   0.9654 B( 33-C , 36-H ) :   0.9716 B( 33-C , 37-H ) :   0.9623

FINAL SINGLE POINT ENERGY     -6337.289779079328

DIPOLE MOMENT
-------------
                                X             Y             Z
Electronic contribution:     -1.47192      -2.99469     -13.14182
Nuclear contribution   :     -0.02170       4.53995      14.42805
                        -----------------------------------------
Total Dipole Moment    :     -1.49362       1.54526       1.28623
                        -----------------------------------------
Magnitude (a.u.)       :      2.50462
Magnitude (Debye)      :      6.36625

Rotational constants in cm-1:     0.010648     0.000805     0.000783
Rotational constants in MHz :   319.213997    24.122301    23.474377

                             ****ORCA TERMINATED NORMALLY****
TOTAL RUN TIME: 0 days 1 hours 28 minutes 8 seconds 378 msec
