                         Program Version 5.0.4 -  RELEASE  -
|  1> ! nofrozencore ReducedPop printbasis
|  2> ! B3LYP TZVP
|  3>
|  4> %basis
|  5> newgto V "CP(PPP)" end
|  6> end
|  7>
|  8> %pal
|  9> nprocs 6
| 10> end
| 11>
| 12> % sym SymThresh 1e-2 end
| 13> * xyz -2 2
| 14> V 0.4666825273205252 0.605665315774699 -0.8083747097270311
| 15> S -1.6341728596379381 1.7920596706936276 -0.5529326243180186
| 16> S 1.1903466239238578 1.6017507335233707 1.2621463382811113
| 17> S -0.8628936340416612 -1.1782942177448728 -1.9588797109969192
| 18> S 1.8329871528988395 -1.4213114431628238 -0.05713999051642537
| 19> O 1.1601672190178114 1.6023432649321039 -1.8658186737572342
| 20> C 2.559950729661081 0.5905829592149054 1.6677646536932795
| 21> C 2.843993334958171 -0.6147346039863082 1.138803098583903
| 22> C -2.7150812966704496 0.8269112735278725 -1.5462131095553502
| 23> C -2.412580402082899 -0.35207658455820734 -2.121312152622133
| 24> S 3.649033211928298 1.2115732332608775 2.9464645359522037
| 25> S 4.338090377324078 -1.4020606898858874 1.7556737858024618
| 26> S -3.74898026537551 -1.141620479439729 -3.034955731678433
| 27> S -4.4044448581011615 1.4131533472555418 -1.7384918000533383
| 28> C 4.749721048388491 -0.16296246137397727 2.948741854388118
| 29> C -5.015862640878118 0.04863597232734327 -2.687542812032763
| 30> C 5.83581596495888 -0.3122347401251799 3.75844027672225
| 31> C -6.305998732523401 -0.08976726623802708 -3.1337441964701607
| 32> S 6.346702464064909 0.9017838805035179 4.954184208196284
| 33> S 6.832370533953985 -1.7796217575829474 3.569189681625751
| 34> S -7.600973208969699 1.1053270258478916 -2.8403907414687026
| 35> S -6.829451739341025 -1.5266594196396936 -4.055810363214887
| 36> C -8.107499641371088 -2.2006852619770965 -2.8902787691197687
| 37> C -8.66418774640532 0.041666936415864116 -1.7542159767963637
| 38> C -9.192443343818265 -1.202261734103111 -2.4728657412566246
| 39> H -7.589111945064962 -2.5934720836125407 -2.0088895415613917
| 40> H -8.55584808970439 -3.045163271185894 -3.4256137605642527
| 41> H -9.887951884468187 -1.7237952694291532 -1.7991664541475052
| 42> H -9.7647779797154 -0.89135815592554 -3.3542002734536087
| 43> H -9.495054232405398 0.6769104873995487 -1.4299172547860488
| 44> H -8.074290980801658 -0.22865141720494292 -0.8726225279175314
| 45> C 8.481619727590706 -1.0130893637073821 3.1845467656257043
| 46> C 7.933846552956184 1.33309565466871 4.10060993886235
| 47> C 8.895685428886837 0.13944031764871928 4.1069553602942195
| 48> H 7.690798968613585 1.653512903734119 3.0735699575093447
| 49> H 8.369008437156683 2.1910429769199147 4.640675978239071
| 50> H 8.999985542746996 -0.22313052506453837 5.137925513818538
| 51> H 9.888134513388772 0.4795654734632381 3.7773607830945624
| 52> H 9.202742020653947 -1.8418581361314907 3.271591568071624
| 53> H 8.473732397641452 -0.6743617782090952 2.1336846524963113
| 54> *
| 55>
| 56> % eprnmr
| 57> gtensor true
| 58> Nuclei = all H {aiso,adip,aorb,fgrad,rho}
| 59> Nuclei = all V {aiso,adip,aorb,fgrad,rho}
| 60> end
| 61>
| 62>                          ****END OF INPUT****

CARTESIAN COORDINATES (ANGSTROEM)
---------------------------------
  V      0.467253    0.604107   -0.804919
  S     -1.633602    1.790501   -0.549477
  S      1.190917    1.600192    1.265602
  S     -0.862323   -1.179852   -1.955424
  S      1.833558   -1.422870   -0.053684
  O      1.160738    1.600785   -1.862363
  C      2.560521    0.589025    1.671221
  C      2.844564   -0.616293    1.142259
  C     -2.714511    0.825353   -1.542757
  C     -2.412010   -0.353635   -2.117856
  S      3.649604    1.210015    2.949921
  S      4.338661   -1.403619    1.759130
  S     -3.748410   -1.143179   -3.031500
  S     -4.403874    1.411595   -1.735036
  C      4.750292   -0.164521    2.952198
  C     -5.015292    0.047078   -2.684087
  C      5.836387   -0.313793    3.761896
  C     -6.305428   -0.091326   -3.130288
  S      6.347273    0.900226    4.957640
  S      6.832941   -1.781180    3.572646
  S     -7.600403    1.103769   -2.836935
  S     -6.828881   -1.528218   -4.052354
  C     -8.106929   -2.202244   -2.886823
  C     -8.663617    0.040109   -1.750760
  C     -9.191873   -1.203820   -2.469410
  H     -7.588541   -2.595030   -2.005433
  H     -8.555277   -3.046722   -3.422158
  H     -9.887381   -1.725354   -1.795710
  H     -9.764207   -0.892916   -3.350744
  H     -9.494484    0.675352   -1.426461
  H     -8.073720   -0.230210   -0.869166
  C      8.482190   -1.014648    3.188003
  C      7.934417    1.331537    4.104066
  C      8.896256    0.137882    4.110411
  H      7.691370    1.651955    3.077026
  H      8.369579    2.189485    4.644132
  H      9.000556   -0.224689    5.141382
  H      9.888705    0.478007    3.780817
  H      9.203313   -1.843416    3.275048
  H      8.474303   -0.675920    2.137141

 Total Charge           Charge          ....   -2
 Multiplicity           Mult            ....    2
 Number of Electrons    NEL             ....  321
 Basis Dimension        Dim             ....  681

ORBITAL ENERGIES
----------------
                 SPIN UP ORBITALS
  NO   OCC          E(Eh)            E(eV)
   0   1.0000    -196.676994     -5351.8531
   1   1.0000     -88.735815     -2414.6243
   2   1.0000     -88.733574     -2414.5633
   3   1.0000     -88.732787     -2414.5419
   4   1.0000     -88.731763     -2414.5140
   5   1.0000     -88.731314     -2414.5018
   6   1.0000     -88.730431     -2414.4778
   7   1.0000     -88.729927     -2414.4641
   8   1.0000     -88.728114     -2414.4147
   9   1.0000     -88.640838     -2412.0398
  10   1.0000     -88.639910     -2412.0146
  11   1.0000     -88.639248     -2411.9966
  12   1.0000     -88.638632     -2411.9798
  13   1.0000     -22.052195      -600.0707
  14   1.0000     -18.887036      -513.9424
  15   1.0000     -18.558598      -505.0051
  16   1.0000     -18.553532      -504.8673
  17   1.0000     -18.553374      -504.8630
  18   1.0000     -10.077828      -274.2316
  19   1.0000     -10.073599      -274.1166
  20   1.0000     -10.067099      -273.9397
  21   1.0000     -10.065903      -273.9071
  22   1.0000     -10.063822      -273.8505
  23   1.0000     -10.063271      -273.8355
  24   1.0000     -10.052580      -273.5446
  25   1.0000     -10.051366      -273.5116
  26   1.0000     -10.049610      -273.4638
  27   1.0000     -10.047630      -273.4099
  28   1.0000     -10.019033      -272.6317
  29   1.0000     -10.018132      -272.6072
  30   1.0000     -10.016921      -272.5743
  31   1.0000     -10.015915      -272.5469
  32   1.0000      -7.789197      -211.9548
  33   1.0000      -7.786835      -211.8905
  34   1.0000      -7.786214      -211.8737
  35   1.0000      -7.785133      -211.8442
  36   1.0000      -7.784427      -211.8250
  37   1.0000      -7.783896      -211.8106
  38   1.0000      -7.783017      -211.7867
  39   1.0000      -7.781403      -211.7427
  40   1.0000      -7.695428      -209.4033
  41   1.0000      -7.694243      -209.3710
  42   1.0000      -7.693821      -209.3595
  43   1.0000      -7.692309      -209.3184
  44   1.0000      -5.754112      -156.5774
  45   1.0000      -5.751803      -156.5145
  46   1.0000      -5.751268      -156.5000
  47   1.0000      -5.750915      -156.4903
  48   1.0000      -5.750174      -156.4702
  49   1.0000      -5.749403      -156.4492
  50   1.0000      -5.748830      -156.4336
  51   1.0000      -5.748503      -156.4247
  52   1.0000      -5.747983      -156.4106
  53   1.0000      -5.747694      -156.4027
  54   1.0000      -5.746669      -156.3748
  55   1.0000      -5.746335      -156.3657
  56   1.0000      -5.744935      -156.3276
  57   1.0000      -5.744383      -156.3126
  58   1.0000      -5.743962      -156.3012
  59   1.0000      -5.743543      -156.2898
  60   1.0000      -5.741968      -156.2469
  61   1.0000      -5.741609      -156.2371
  62   1.0000      -5.741017      -156.2210
  63   1.0000      -5.740262      -156.2005
  64   1.0000      -5.739915      -156.1910
  65   1.0000      -5.739734      -156.1861
  66   1.0000      -5.738834      -156.1616
  67   1.0000      -5.737161      -156.1161
  68   1.0000      -5.660718      -154.0360
  69   1.0000      -5.659433      -154.0010
  70   1.0000      -5.659234      -153.9956
  71   1.0000      -5.657685      -153.9534
  72   1.0000      -5.654137      -153.8569
  73   1.0000      -5.652874      -153.8225
  74   1.0000      -5.652649      -153.8164
  75   1.0000      -5.652476      -153.8117
  76   1.0000      -5.651552      -153.7866
  77   1.0000      -5.651128      -153.7750
  78   1.0000      -5.651019      -153.7720
  79   1.0000      -5.649640      -153.7345
  80   1.0000      -2.445051       -66.5332
  81   1.0000      -1.484009       -40.3819
  82   1.0000      -1.475309       -40.1452
  83   1.0000      -1.474232       -40.1159
  84   1.0000      -0.710624       -19.3371
  85   1.0000      -0.707442       -19.2505
  86   1.0000      -0.685114       -18.6429
  87   1.0000      -0.684386       -18.6231
  88   1.0000      -0.645923       -17.5765
  89   1.0000      -0.631446       -17.1825
  90   1.0000      -0.630282       -17.1508
  91   1.0000      -0.616973       -16.7887
  92   1.0000      -0.614853       -16.7310
  93   1.0000      -0.574885       -15.6434
  94   1.0000      -0.573542       -15.6069
  95   1.0000      -0.573113       -15.5952
  96   1.0000      -0.571777       -15.5588
  97   1.0000      -0.497634       -13.5413
  98   1.0000      -0.496057       -13.4984
  99   1.0000      -0.494620       -13.4593
 100   1.0000      -0.493638       -13.4326
 101   1.0000      -0.479499       -13.0478
 102   1.0000      -0.476913       -12.9775
 103   1.0000      -0.446471       -12.1491
 104   1.0000      -0.444127       -12.0853
 105   1.0000      -0.416225       -11.3261
 106   1.0000      -0.410883       -11.1807
 107   1.0000      -0.354557        -9.6480
 108   1.0000      -0.353806        -9.6275
 109   1.0000      -0.326561        -8.8862
 110   1.0000      -0.325576        -8.8594
 111   1.0000      -0.318619        -8.6701
 112   1.0000      -0.314059        -8.5460
 113   1.0000      -0.304876        -8.2961
 114   1.0000      -0.304139        -8.2761
 115   1.0000      -0.290786        -7.9127
 116   1.0000      -0.289613        -7.8808
 117   1.0000      -0.257583        -7.0092
 118   1.0000      -0.256946        -6.9918
 119   1.0000      -0.255374        -6.9491
 120   1.0000      -0.254901        -6.9362
 121   1.0000      -0.235109        -6.3976
 122   1.0000      -0.233753        -6.3607
 123   1.0000      -0.230991        -6.2856
 124   1.0000      -0.228741        -6.2244
 125   1.0000      -0.219279        -5.9669
 126   1.0000      -0.217652        -5.9226
 127   1.0000      -0.214387        -5.8338
 128   1.0000      -0.211637        -5.7589
 129   1.0000      -0.192949        -5.2504
 130   1.0000      -0.187007        -5.0887
 131   1.0000      -0.186060        -5.0629
 132   1.0000      -0.184247        -5.0136
 133   1.0000      -0.179310        -4.8793
 134   1.0000      -0.159693        -4.3455
 135   1.0000      -0.151742        -4.1291
 136   1.0000      -0.146712        -3.9922
 137   1.0000      -0.136097        -3.7034
 138   1.0000      -0.133692        -3.6379
 139   1.0000      -0.131638        -3.5821
 140   1.0000      -0.122239        -3.3263
 141   1.0000      -0.120231        -3.2717
 142   1.0000      -0.108295        -2.9468
 143   1.0000      -0.105456        -2.8696
 144   1.0000      -0.099452        -2.7062
 145   1.0000      -0.098156        -2.6710
 146   1.0000      -0.095556        -2.6002
 147   1.0000      -0.092964        -2.5297
 148   1.0000      -0.074842        -2.0366
 149   1.0000      -0.069787        -1.8990
 150   1.0000      -0.065089        -1.7712
 151   1.0000      -0.054251        -1.4763
 152   1.0000      -0.042810        -1.1649
 153   1.0000      -0.037159        -1.0112
 154   1.0000      -0.036722        -0.9993
 155   1.0000      -0.030188        -0.8215
 156   1.0000      -0.027870        -0.7584
 157   1.0000      -0.016544        -0.4502
 158   1.0000      -0.014700        -0.4000
 159   1.0000       0.020864         0.5677
 160   1.0000       0.041658         1.1336
 161   0.0000       0.136394         3.7115
 162   0.0000       0.136686         3.7194
 163   0.0000       0.160810         4.3759
 164   0.0000       0.162548         4.4232
 165   0.0000       0.168138         4.5753

                 SPIN DOWN ORBITALS
  NO   OCC          E(Eh)            E(eV)
   0   1.0000    -196.677137     -5351.8570
   1   1.0000     -88.735816     -2414.6243
   2   1.0000     -88.733575     -2414.5633
   3   1.0000     -88.732788     -2414.5419
   4   1.0000     -88.731764     -2414.5140
   5   1.0000     -88.731322     -2414.5020
   6   1.0000     -88.730436     -2414.4779
   7   1.0000     -88.729935     -2414.4643
   8   1.0000     -88.728123     -2414.4150
   9   1.0000     -88.640987     -2412.0439
  10   1.0000     -88.640052     -2412.0184
  11   1.0000     -88.639408     -2412.0009
  12   1.0000     -88.638769     -2411.9835
  13   1.0000     -22.037072      -599.6592
  14   1.0000     -18.891102      -514.0530
  15   1.0000     -18.553133      -504.8564
  16   1.0000     -18.537403      -504.4284
  17   1.0000     -18.537072      -504.4194
  18   1.0000     -10.077828      -274.2317
  19   1.0000     -10.073597      -274.1165
  20   1.0000     -10.067098      -273.9397
  21   1.0000     -10.065903      -273.9071
  22   1.0000     -10.063822      -273.8505
  23   1.0000     -10.063271      -273.8355
  24   1.0000     -10.052580      -273.5446
  25   1.0000     -10.051366      -273.5116
  26   1.0000     -10.049607      -273.4637
  27   1.0000     -10.047621      -273.4097
  28   1.0000     -10.018794      -272.6253
  29   1.0000     -10.017927      -272.6017
  30   1.0000     -10.016642      -272.5667
  31   1.0000     -10.015751      -272.5424
  32   1.0000      -7.789197      -211.9548
  33   1.0000      -7.786835      -211.8906
  34   1.0000      -7.786215      -211.8737
  35   1.0000      -7.785133      -211.8442
  36   1.0000      -7.784436      -211.8253
  37   1.0000      -7.783902      -211.8107
  38   1.0000      -7.783027      -211.7869
  39   1.0000      -7.781412      -211.7430
  40   1.0000      -7.695567      -209.4070
  41   1.0000      -7.694392      -209.3750
  42   1.0000      -7.693953      -209.3631
  43   1.0000      -7.692439      -209.3219
  44   1.0000      -5.754113      -156.5774
  45   1.0000      -5.751804      -156.5145
  46   1.0000      -5.751269      -156.5000
  47   1.0000      -5.750916      -156.4904
  48   1.0000      -5.750174      -156.4702
  49   1.0000      -5.749413      -156.4495
  50   1.0000      -5.748837      -156.4338
  51   1.0000      -5.748504      -156.4248
  52   1.0000      -5.747994      -156.4109
  53   1.0000      -5.747695      -156.4027
  54   1.0000      -5.746670      -156.3748
  55   1.0000      -5.746347      -156.3660
  56   1.0000      -5.744949      -156.3280
  57   1.0000      -5.744392      -156.3128
  58   1.0000      -5.743963      -156.3012
  59   1.0000      -5.743559      -156.2902
  60   1.0000      -5.741982      -156.2473
  61   1.0000      -5.741610      -156.2371
  62   1.0000      -5.741018      -156.2210
  63   1.0000      -5.740266      -156.2006
  64   1.0000      -5.739915      -156.1910
  65   1.0000      -5.739735      -156.1861
  66   1.0000      -5.738840      -156.1618
  67   1.0000      -5.737170      -156.1163
  68   1.0000      -5.660879      -154.0404
  69   1.0000      -5.659601      -154.0056
  70   1.0000      -5.659370      -153.9993
  71   1.0000      -5.657805      -153.9567
  72   1.0000      -5.654523      -153.8674
  73   1.0000      -5.653270      -153.8333
  74   1.0000      -5.652837      -153.8215
  75   1.0000      -5.652752      -153.8192
  76   1.0000      -5.651685      -153.7902
  77   1.0000      -5.651417      -153.7829
  78   1.0000      -5.651252      -153.7784
  79   1.0000      -5.649721      -153.7367
  80   1.0000      -2.399544       -65.2949
  81   1.0000      -1.463886       -39.8344
  82   1.0000      -1.412292       -38.4304
  83   1.0000      -1.412076       -38.4245
  84   1.0000      -0.710600       -19.3364
  85   1.0000      -0.707426       -19.2500
  86   1.0000      -0.685063       -18.6415
  87   1.0000      -0.684342       -18.6219
  88   1.0000      -0.654942       -17.8219
  89   1.0000      -0.631380       -17.1807
  90   1.0000      -0.630227       -17.1493
  91   1.0000      -0.616973       -16.7887
  92   1.0000      -0.614855       -16.7311
  93   1.0000      -0.574864       -15.6428
  94   1.0000      -0.573468       -15.6049
  95   1.0000      -0.573096       -15.5947
  96   1.0000      -0.571702       -15.5568
  97   1.0000      -0.497652       -13.5418
  98   1.0000      -0.496091       -13.4993
  99   1.0000      -0.494672       -13.4607
 100   1.0000      -0.493691       -13.4340
 101   1.0000      -0.479704       -13.0534
 102   1.0000      -0.477181       -12.9848
 103   1.0000      -0.446502       -12.1499
 104   1.0000      -0.444181       -12.0868
 105   1.0000      -0.416241       -11.3265
 106   1.0000      -0.411016       -11.1843
 107   1.0000      -0.354553        -9.6479
 108   1.0000      -0.353798        -9.6273
 109   1.0000      -0.326544        -8.8857
 110   1.0000      -0.325567        -8.8591
 111   1.0000      -0.318547        -8.6681
 112   1.0000      -0.314088        -8.5468
 113   1.0000      -0.304828        -8.2948
 114   1.0000      -0.304119        -8.2755
 115   1.0000      -0.290780        -7.9125
 116   1.0000      -0.289609        -7.8807
 117   1.0000      -0.257412        -7.0045
 118   1.0000      -0.256878        -6.9900
 119   1.0000      -0.255337        -6.9481
 120   1.0000      -0.254878        -6.9356
 121   1.0000      -0.235075        -6.3967
 122   1.0000      -0.233730        -6.3601
 123   1.0000      -0.230947        -6.2844
 124   1.0000      -0.228708        -6.2235
 125   1.0000      -0.218824        -5.9545
 126   1.0000      -0.217603        -5.9213
 127   1.0000      -0.214199        -5.8287
 128   1.0000      -0.211487        -5.7549
 129   1.0000      -0.191223        -5.2034
 130   1.0000      -0.186915        -5.0862
 131   1.0000      -0.185762        -5.0549
 132   1.0000      -0.184020        -5.0074
 133   1.0000      -0.179181        -4.8758
 134   1.0000      -0.159092        -4.3291
 135   1.0000      -0.151558        -4.1241
 136   1.0000      -0.146626        -3.9899
 137   1.0000      -0.135840        -3.6964
 138   1.0000      -0.133192        -3.6243
 139   1.0000      -0.131387        -3.5752
 140   1.0000      -0.121800        -3.3144
 141   1.0000      -0.120030        -3.2662
 142   1.0000      -0.110082        -2.9955
 143   1.0000      -0.107011        -2.9119
 144   1.0000      -0.099440        -2.7059
 145   1.0000      -0.098383        -2.6771
 146   1.0000      -0.096063        -2.6140
 147   1.0000      -0.093622        -2.5476
 148   1.0000      -0.071034        -1.9329
 149   1.0000      -0.069596        -1.8938
 150   1.0000      -0.065084        -1.7710
 151   1.0000      -0.051533        -1.4023
 152   1.0000      -0.041984        -1.1424
 153   1.0000      -0.037128        -1.0103
 154   1.0000      -0.036404        -0.9906
 155   1.0000      -0.030411        -0.8275
 156   1.0000      -0.025457        -0.6927
 157   1.0000      -0.015213        -0.4140
 158   1.0000       0.021236         0.5779
 159   1.0000       0.040752         1.1089
 160   0.0000       0.136407         3.7118
 161   0.0000       0.136674         3.7191
 162   0.0000       0.154977         4.2171
 163   0.0000       0.161370         4.3911
 164   0.0000       0.163329         4.4444

MULLIKEN ATOMIC CHARGES AND SPIN POPULATIONS
--------------------------------------------
   0 V :    0.458955    1.226188
   1 S :   -0.259734   -0.024692
   2 S :   -0.267228   -0.027785
   3 S :   -0.297756   -0.023439
   4 S :   -0.314241   -0.025388
   5 O :   -0.471258   -0.157911
   6 C :   -0.093851    0.013787
   7 C :   -0.071715    0.003355
   8 C :   -0.087611    0.009307
   9 C :   -0.079655    0.006665
  10 S :    0.102505   -0.000034
  11 S :    0.095896   -0.000673
  12 S :    0.098573   -0.000436
  13 S :    0.099564   -0.000240
  14 C :   -0.228181    0.001206
  15 C :   -0.199394    0.000913
  16 C :   -0.167009   -0.000151
  17 C :   -0.206633   -0.000444
  18 S :    0.008540   -0.000082
  19 S :    0.008025   -0.000102
  20 S :    0.007659   -0.000066
  21 S :    0.008023   -0.000067
  22 C :   -0.295366   -0.000020
  23 C :   -0.307163   -0.000008
  24 C :   -0.157198    0.000006
  25 H :    0.138696    0.000002
  26 H :    0.110666   -0.000005
  27 H :    0.083387   -0.000002
  28 H :    0.091545   -0.000002
  29 H :    0.115384   -0.000005
  30 H :    0.148228   -0.000002
  31 C :   -0.288656    0.000139
  32 C :   -0.310296    0.000123
  33 C :   -0.163278   -0.000160
  34 H :    0.152589   -0.000012
  35 H :    0.117221    0.000010
  36 H :    0.095753    0.000015
  37 H :    0.083743    0.000008
  38 H :    0.109054    0.000014
  39 H :    0.132219   -0.000011
Sum of atomic charges         :   -2.0000000

LOEWDIN ATOMIC CHARGES AND SPIN POPULATIONS
-------------------------------------------
   0 V :   -0.149656    1.178263
   1 S :    0.112735   -0.015423
   2 S :    0.112572   -0.017133
   3 S :    0.065670   -0.016062
   4 S :    0.043817   -0.017366
   5 O :   -0.336542   -0.142272
   6 C :   -0.552703    0.012240
   7 C :   -0.554881    0.004283
   8 C :   -0.548880    0.009470
   9 C :   -0.550300    0.007086
  10 S :    0.475861   -0.000472
  11 S :    0.465893   -0.000980
  12 S :    0.468348   -0.000837
  13 S :    0.470720   -0.000786
  14 C :   -0.467640    0.000034
  15 C :   -0.462326   -0.000143
  16 C :   -0.621604    0.000335
  17 C :   -0.620494    0.000031
  18 S :    0.360204   -0.000070
  19 S :    0.362341   -0.000084
  20 S :    0.353353   -0.000069
  21 S :    0.355161   -0.000078
  22 C :   -0.284740   -0.000011
  23 C :   -0.283081   -0.000010
  24 C :   -0.176179   -0.000003
  25 H :    0.061027   -0.000001
  26 H :    0.054328   -0.000003
  27 H :    0.058243   -0.000002
  28 H :    0.060035   -0.000001
  29 H :    0.053590   -0.000003
  30 H :    0.065236   -0.000002
  31 C :   -0.285090    0.000046
  32 C :   -0.282909    0.000009
  33 C :   -0.178654    0.000004
  34 H :    0.068757   -0.000001
  35 H :    0.054153    0.000004
  36 H :    0.060958    0.000003
  37 H :    0.057531    0.000000
  38 H :    0.055344    0.000005
  39 H :    0.059803   -0.000000

  Mayer bond orders larger than 0.100000
B(  0-V ,  1-S ) :   0.8225 B(  0-V ,  2-S ) :   0.8263 B(  0-V ,  3-S ) :   0.7429
B(  0-V ,  4-S ) :   0.7158 B(  0-V ,  5-O ) :   2.1435 B(  1-S ,  8-C ) :   1.0987
B(  2-S ,  6-C ) :   1.0916 B(  3-S ,  9-C ) :   1.1109 B(  4-S ,  7-C ) :   1.1188
B(  6-C ,  7-C ) :   1.6793 B(  6-C , 10-S ) :   0.9444 B(  7-C , 11-S ) :   0.9310
B(  8-C ,  9-C ) :   1.7015 B(  8-C , 13-S ) :   0.9345 B(  9-C , 12-S ) :   0.9283
B( 10-S , 14-C ) :   1.2469 B( 11-S , 14-C ) :   1.2487 B( 12-S , 15-C ) :   1.2441
B( 13-S , 15-C ) :   1.2413 B( 14-C , 16-C ) :   1.4552 B( 15-C , 17-C ) :   1.4571
B( 16-C , 18-S ) :   1.0912 B( 16-C , 19-S ) :   1.0714 B( 17-C , 20-S ) :   1.0944
B( 17-C , 21-S ) :   1.0853 B( 18-S , 32-C ) :   0.9758 B( 19-S , 31-C ) :   0.9953
B( 20-S , 23-C ) :   0.9856 B( 21-S , 22-C ) :   0.9953 B( 22-C , 24-C ) :   0.9161
B( 22-C , 25-H ) :   0.9637 B( 22-C , 26-H ) :   0.9659 B( 23-C , 24-C ) :   0.9088
B( 23-C , 29-H ) :   0.9647 B( 23-C , 30-H ) :   0.9670 B( 24-C , 27-H ) :   0.9629
B( 24-C , 28-H ) :   0.9727 B( 31-C , 33-C ) :   0.9209 B( 31-C , 38-H ) :   0.9658
B( 31-C , 39-H ) :   0.9622 B( 32-C , 33-C ) :   0.9028 B( 32-C , 34-H ) :   0.9691
B( 32-C , 35-H ) :   0.9620 B( 33-C , 36-H ) :   0.9718 B( 33-C , 37-H ) :   0.9608

FINAL SINGLE POINT ENERGY     -6337.696374168047

DIPOLE MOMENT
-------------
                                X             Y             Z
Electronic contribution:      2.60149       7.84275     -10.91692
Nuclear contribution   :     -2.80789      -8.61034      12.30359
                        -----------------------------------------
Total Dipole Moment    :     -0.20640      -0.76759       1.38667
                        -----------------------------------------
Magnitude (a.u.)       :      1.59833
Magnitude (Debye)      :      4.06263

Rotational constants in cm-1:     0.010730     0.000805     0.000783
Rotational constants in MHz :   321.674290    24.119451    23.486092

                             ****ORCA TERMINATED NORMALLY****
TOTAL RUN TIME: 0 days 1 hours 6 minutes 42 seconds 422 msec
