                         Program Version 5.0.4 -  RELEASE  -
|  1> ! nofrozencore ReducedPop printbasis
|  2> ! B3LYP TZVP
|  3>
|  4> %basis
|  5> newgto V "CP(PPP)" end
|  6> end
|  7>
|  8> %pal
|  9> nprocs 6
| 10> end
| 11>
| 12> % sym SymThresh 1e-2 end
| 13> * xyz -2 2
| 14> V 0.4402333180914153 -0.8607116121353775 -0.5542522729033617
| 15> S -1.4056292164537898 -0.26425197246684456 -2.0466523651416444
| 16> S 1.5308798722816979 1.2335434596097248 -1.384895877032582
| 17> S -1.287120429543149 -1.8780706156083602 0.863926126384713
| 18> S 1.5486789322232013 -0.39545691010242695 1.6269122988809956
| 19> O 1.2645528968150814 -2.036564564695353 -1.2338663133394205
| 20> C 2.7765191577696484 1.3668551183660569 -0.13872912929386066
| 21> C 2.783312814183119 0.7287075954117855 1.049307092742262
| 22> C -2.75268804796507 -1.1308710517712934 -1.3343150372842771
| 23> C -2.7046704542425064 -1.779297078068854 -0.15796251918817075
| 24> S 4.152955441757988 2.4942343399739366 -0.4304368068294123
| 25> S 4.157642428912624 1.1270100783300843 2.146491006605189
| 26> S -4.208143265849561 -2.588770660543902 0.38183856654099985
| 27> S -4.314572401022035 -1.166747467456458 -2.2113041390719843
| 28> C 4.931439193892718 2.381383263512166 1.1595617713808488
| 29> C -5.216418725315295 -2.0216058577559486 -0.953344595327313
| 30> C 6.054577801177173 3.0864228639065705 1.5369506075708383
| 31> C -6.551781105894772 -2.2754833537615697 -1.035034030060506
| 32> S 6.9570333404932985 4.112864694722242 0.35917675765421947
| 33> S 6.909339633351819 2.7147397382187384 3.081243364938872
| 34> S -7.512400945669171 -1.8149267733329562 -2.4553482019734347
| 35> S -7.405755727130976 -3.2423470382161548 0.18704540528622524
| 36> C -8.60552805690834 -1.939046640374736 0.724742641180175
| 37> C -8.704386585405597 -0.6963739286653895 -1.5862183121081526
| 38> C -9.453466552987953 -1.3371578494440586 -0.40686671182122675
| 39> H -8.036409701608012 -1.1626675753376656 1.2472502332976616
| 40> H -9.264983753665502 -2.4261848809116677 1.4522460481818937
| 41> H -10.09228754858641 -0.5553459479067442 0.04029719876437172
| 42> H -10.125582162407289 -2.116603573527165 -0.7964224809190953
| 43> H -9.428037268175993 -0.3871083121338574 -2.3491597609378188
| 44> H -8.148918377170258 0.1909531218761847 -1.2640798196208154
| 45> C 8.493494513363775 2.008682500286642 2.423620230246207
| 46> C 8.527686460577488 3.1356427417167616 0.21416762485579083
| 47> C 9.241249779208538 3.029710399252306 1.5638256265011106
| 48> H 8.29411233672789 2.1313656214626975 -0.17605815849929995
| 49> H 9.125631218390135 3.6707243789143105 -0.5391690606410517
| 50> H 9.254182010807845 4.018666842737935 2.067854793811018
| 51> H 10.296209068491615 2.707497095020304 1.4161498751292665
| 52> H 9.06254061314095 1.711137580381193 3.317294781812293
| 53> H 8.268845749999949 1.1032086429904007 1.8364769709498323
| 54> *
| 55>
| 56> % eprnmr
| 57> gtensor true
| 58> Nuclei = all H {aiso,adip,aorb,fgrad,rho}
| 59> Nuclei = all V {aiso,adip,aorb,fgrad,rho}
| 60> end
| 61>
| 62>                          ****END OF INPUT****

CARTESIAN COORDINATES (ANGSTROEM)
---------------------------------
  V      0.440937   -0.857401   -0.552451
  S     -1.404926   -0.260942   -2.044851
  S      1.531583    1.236854   -1.383094
  S     -1.286417   -1.874760    0.865728
  S      1.549382   -0.392147    1.628714
  O      1.265256   -2.033254   -1.232065
  C      2.777223    1.370165   -0.136928
  C      2.784016    0.732018    1.051109
  C     -2.751985   -1.127561   -1.332513
  C     -2.703967   -1.775987   -0.156161
  S      4.153659    2.497545   -0.428635
  S      4.158346    1.130320    2.148293
  S     -4.207440   -2.585460    0.383640
  S     -4.313869   -1.163437   -2.209503
  C      4.932143    2.384694    1.161363
  C     -5.215715   -2.018296   -0.951543
  C      6.055281    3.089733    1.538752
  C     -6.551078   -2.272173   -1.033232
  S      6.957737    4.116175    0.360978
  S      6.910043    2.718050    3.083045
  S     -7.511698   -1.811617   -2.453547
  S     -7.405052   -3.239037    0.188847
  C     -8.604825   -1.935736    0.726544
  C     -8.703683   -0.693064   -1.584417
  C     -9.452763   -1.333848   -0.405065
  H     -8.035706   -1.159357    1.249052
  H     -9.264280   -2.422875    1.454048
  H    -10.091584   -0.552036    0.042099
  H    -10.124879   -2.113293   -0.794621
  H     -9.427334   -0.383798   -2.347358
  H     -8.148215    0.194263   -1.262278
  C      8.494198    2.011993    2.425422
  C      8.528390    3.138953    0.215969
  C      9.241953    3.033021    1.565627
  H      8.294816    2.134676   -0.174257
  H      9.126335    3.674035   -0.537367
  H      9.254885    4.021977    2.069656
  H     10.296912    2.710807    1.417951
  H      9.063244    1.714448    3.319096
  H      8.269549    1.106519    1.838279

 Total Charge           Charge          ....   -2
 Multiplicity           Mult            ....    2
 Number of Electrons    NEL             ....  321
 Basis Dimension        Dim             ....  681

ORBITAL ENERGIES
----------------
                 SPIN UP ORBITALS
  NO   OCC          E(Eh)            E(eV)
   0   1.0000    -196.675175     -5351.8036
   1   1.0000     -88.734086     -2414.5772
   2   1.0000     -88.734078     -2414.5770
   3   1.0000     -88.732782     -2414.5417
   4   1.0000     -88.732646     -2414.5380
   5   1.0000     -88.731369     -2414.5033
   6   1.0000     -88.731214     -2414.4991
   7   1.0000     -88.729611     -2414.4555
   8   1.0000     -88.729597     -2414.4551
   9   1.0000     -88.640483     -2412.0302
  10   1.0000     -88.640469     -2412.0298
  11   1.0000     -88.640100     -2412.0198
  12   1.0000     -88.639915     -2412.0147
  13   1.0000     -22.050538      -600.0257
  14   1.0000     -18.890651      -514.0408
  15   1.0000     -18.557011      -504.9619
  16   1.0000     -18.551801      -504.8202
  17   1.0000     -18.551705      -504.8176
  18   1.0000     -10.077342      -274.2184
  19   1.0000     -10.076074      -274.1839
  20   1.0000     -10.065494      -273.8960
  21   1.0000     -10.065470      -273.8954
  22   1.0000     -10.064331      -273.8644
  23   1.0000     -10.064230      -273.8616
  24   1.0000     -10.055008      -273.6107
  25   1.0000     -10.051318      -273.5103
  26   1.0000     -10.050976      -273.5010
  27   1.0000     -10.048499      -273.4336
  28   1.0000     -10.019953      -272.6568
  29   1.0000     -10.019094      -272.6334
  30   1.0000     -10.017537      -272.5911
  31   1.0000     -10.016734      -272.5692
  32   1.0000      -7.787713      -211.9144
  33   1.0000      -7.787696      -211.9140
  34   1.0000      -7.785743      -211.8608
  35   1.0000      -7.785642      -211.8581
  36   1.0000      -7.784690      -211.8322
  37   1.0000      -7.784603      -211.8298
  38   1.0000      -7.782603      -211.7754
  39   1.0000      -7.782582      -211.7748
  40   1.0000      -7.695071      -209.3935
  41   1.0000      -7.694528      -209.3788
  42   1.0000      -7.694352      -209.3740
  43   1.0000      -7.693988      -209.3640
  44   1.0000      -5.752640      -156.5373
  45   1.0000      -5.752627      -156.5369
  46   1.0000      -5.750875      -156.4893
  47   1.0000      -5.750766      -156.4863
  48   1.0000      -5.749638      -156.4556
  49   1.0000      -5.749538      -156.4529
  50   1.0000      -5.749303      -156.4465
  51   1.0000      -5.749295      -156.4463
  52   1.0000      -5.747563      -156.3991
  53   1.0000      -5.747538      -156.3985
  54   1.0000      -5.747337      -156.3930
  55   1.0000      -5.747228      -156.3900
  56   1.0000      -5.745252      -156.3362
  57   1.0000      -5.745159      -156.3337
  58   1.0000      -5.743069      -156.2769
  59   1.0000      -5.743064      -156.2767
  60   1.0000      -5.742510      -156.2616
  61   1.0000      -5.742492      -156.2612
  62   1.0000      -5.740468      -156.2061
  63   1.0000      -5.740457      -156.2058
  64   1.0000      -5.740378      -156.2036
  65   1.0000      -5.740375      -156.2036
  66   1.0000      -5.738499      -156.1525
  67   1.0000      -5.738471      -156.1517
  68   1.0000      -5.660303      -154.0247
  69   1.0000      -5.659775      -154.0103
  70   1.0000      -5.659763      -154.0100
  71   1.0000      -5.659407      -154.0003
  72   1.0000      -5.653673      -153.8443
  73   1.0000      -5.653149      -153.8300
  74   1.0000      -5.653032      -153.8268
  75   1.0000      -5.652683      -153.8173
  76   1.0000      -5.652469      -153.8115
  77   1.0000      -5.651917      -153.7965
  78   1.0000      -5.651617      -153.7883
  79   1.0000      -5.651221      -153.7775
  80   1.0000      -2.444225       -66.5107
  81   1.0000      -1.485594       -40.4251
  82   1.0000      -1.473865       -40.1059
  83   1.0000      -1.473009       -40.0826
  84   1.0000      -0.711563       -19.3626
  85   1.0000      -0.705465       -19.1967
  86   1.0000      -0.685740       -18.6599
  87   1.0000      -0.684005       -18.6127
  88   1.0000      -0.650213       -17.6932
  89   1.0000      -0.633192       -17.2300
  90   1.0000      -0.626527       -17.0487
  91   1.0000      -0.618822       -16.8390
  92   1.0000      -0.612070       -16.6553
  93   1.0000      -0.577333       -15.7100
  94   1.0000      -0.575258       -15.6536
  95   1.0000      -0.570229       -15.5167
  96   1.0000      -0.568979       -15.4827
  97   1.0000      -0.498447       -13.5634
  98   1.0000      -0.498097       -13.5539
  99   1.0000      -0.492316       -13.3966
 100   1.0000      -0.489883       -13.3304
 101   1.0000      -0.480633       -13.0787
 102   1.0000      -0.475258       -12.9324
 103   1.0000      -0.447448       -12.1757
 104   1.0000      -0.444678       -12.1003
 105   1.0000      -0.417077       -11.3493
 106   1.0000      -0.411714       -11.2033
 107   1.0000      -0.354973        -9.6593
 108   1.0000      -0.354714        -9.6523
 109   1.0000      -0.329522        -8.9668
 110   1.0000      -0.323224        -8.7954
 111   1.0000      -0.319563        -8.6957
 112   1.0000      -0.312658        -8.5079
 113   1.0000      -0.306631        -8.3438
 114   1.0000      -0.298227        -8.1152
 115   1.0000      -0.293176        -7.9777
 116   1.0000      -0.285947        -7.7810
 117   1.0000      -0.260072        -7.0769
 118   1.0000      -0.259410        -7.0589
 119   1.0000      -0.251877        -6.8539
 120   1.0000      -0.249333        -6.7847
 121   1.0000      -0.235377        -6.4049
 122   1.0000      -0.234312        -6.3760
 123   1.0000      -0.231647        -6.3034
 124   1.0000      -0.229229        -6.2376
 125   1.0000      -0.221905        -6.0383
 126   1.0000      -0.215029        -5.8512
 127   1.0000      -0.214318        -5.8319
 128   1.0000      -0.211576        -5.7573
 129   1.0000      -0.193471        -5.2646
 130   1.0000      -0.188526        -5.1301
 131   1.0000      -0.186555        -5.0764
 132   1.0000      -0.184247        -5.0136
 133   1.0000      -0.176070        -4.7911
 134   1.0000      -0.159456        -4.3390
 135   1.0000      -0.152467        -4.1488
 136   1.0000      -0.143741        -3.9114
 137   1.0000      -0.135765        -3.6943
 138   1.0000      -0.134725        -3.6661
 139   1.0000      -0.133003        -3.6192
 140   1.0000      -0.125539        -3.4161
 141   1.0000      -0.119767        -3.2590
 142   1.0000      -0.113848        -3.0980
 143   1.0000      -0.109952        -2.9920
 144   1.0000      -0.100526        -2.7354
 145   1.0000      -0.099317        -2.7026
 146   1.0000      -0.096006        -2.6125
 147   1.0000      -0.091881        -2.5002
 148   1.0000      -0.074391        -2.0243
 149   1.0000      -0.067904        -1.8478
 150   1.0000      -0.066943        -1.8216
 151   1.0000      -0.052168        -1.4196
 152   1.0000      -0.045301        -1.2327
 153   1.0000      -0.038462        -1.0466
 154   1.0000      -0.037643        -1.0243
 155   1.0000      -0.032042        -0.8719
 156   1.0000      -0.025550        -0.6952
 157   1.0000      -0.019405        -0.5280
 158   1.0000      -0.016209        -0.4411
 159   1.0000       0.019682         0.5356
 160   1.0000       0.040822         1.1108
 161   0.0000       0.135379         3.6838
 162   0.0000       0.136194         3.7060
 163   0.0000       0.159798         4.3483
 164   0.0000       0.164301         4.4709
 165   0.0000       0.168084         4.5738

                 SPIN DOWN ORBITALS
  NO   OCC          E(Eh)            E(eV)
   0   1.0000    -196.675321     -5351.8076
   1   1.0000     -88.734087     -2414.5773
   2   1.0000     -88.734079     -2414.5770
   3   1.0000     -88.732782     -2414.5418
   4   1.0000     -88.732646     -2414.5381
   5   1.0000     -88.731378     -2414.5035
   6   1.0000     -88.731223     -2414.4993
   7   1.0000     -88.729618     -2414.4557
   8   1.0000     -88.729604     -2414.4553
   9   1.0000     -88.640618     -2412.0338
  10   1.0000     -88.640606     -2412.0335
  11   1.0000     -88.640240     -2412.0235
  12   1.0000     -88.640052     -2412.0184
  13   1.0000     -22.035610      -599.6194
  14   1.0000     -18.894435      -514.1437
  15   1.0000     -18.551744      -504.8186
  16   1.0000     -18.535786      -504.3844
  17   1.0000     -18.535576      -504.3787
  18   1.0000     -10.077332      -274.2181
  19   1.0000     -10.076072      -274.1839
  20   1.0000     -10.065494      -273.8960
  21   1.0000     -10.065470      -273.8954
  22   1.0000     -10.064331      -273.8644
  23   1.0000     -10.064229      -273.8616
  24   1.0000     -10.055008      -273.6107
  25   1.0000     -10.051318      -273.5103
  26   1.0000     -10.050965      -273.5006
  27   1.0000     -10.048495      -273.4335
  28   1.0000     -10.019728      -272.6506
  29   1.0000     -10.018879      -272.6275
  30   1.0000     -10.017317      -272.5850
  31   1.0000     -10.016515      -272.5632
  32   1.0000      -7.787713      -211.9145
  33   1.0000      -7.787697      -211.9140
  34   1.0000      -7.785743      -211.8608
  35   1.0000      -7.785642      -211.8581
  36   1.0000      -7.784700      -211.8324
  37   1.0000      -7.784613      -211.8301
  38   1.0000      -7.782611      -211.7756
  39   1.0000      -7.782590      -211.7750
  40   1.0000      -7.695197      -209.3969
  41   1.0000      -7.694656      -209.3822
  42   1.0000      -7.694480      -209.3774
  43   1.0000      -7.694118      -209.3676
  44   1.0000      -5.752641      -156.5373
  45   1.0000      -5.752628      -156.5370
  46   1.0000      -5.750876      -156.4893
  47   1.0000      -5.750767      -156.4863
  48   1.0000      -5.749650      -156.4559
  49   1.0000      -5.749550      -156.4532
  50   1.0000      -5.749304      -156.4465
  51   1.0000      -5.749296      -156.4463
  52   1.0000      -5.747572      -156.3994
  53   1.0000      -5.747547      -156.3987
  54   1.0000      -5.747337      -156.3930
  55   1.0000      -5.747229      -156.3901
  56   1.0000      -5.745267      -156.3367
  57   1.0000      -5.745174      -156.3341
  58   1.0000      -5.743081      -156.2772
  59   1.0000      -5.743076      -156.2770
  60   1.0000      -5.742511      -156.2617
  61   1.0000      -5.742493      -156.2612
  62   1.0000      -5.740469      -156.2061
  63   1.0000      -5.740463      -156.2059
  64   1.0000      -5.740385      -156.2038
  65   1.0000      -5.740376      -156.2036
  66   1.0000      -5.738507      -156.1527
  67   1.0000      -5.738480      -156.1520
  68   1.0000      -5.660448      -154.0286
  69   1.0000      -5.659908      -154.0139
  70   1.0000      -5.659906      -154.0139
  71   1.0000      -5.659542      -154.0040
  72   1.0000      -5.654012      -153.8535
  73   1.0000      -5.653502      -153.8396
  74   1.0000      -5.653425      -153.8375
  75   1.0000      -5.653073      -153.8279
  76   1.0000      -5.652574      -153.8143
  77   1.0000      -5.652022      -153.7993
  78   1.0000      -5.651693      -153.7904
  79   1.0000      -5.651305      -153.7798
  80   1.0000      -2.399356       -65.2898
  81   1.0000      -1.466313       -39.9004
  82   1.0000      -1.411452       -38.4076
  83   1.0000      -1.411359       -38.4050
  84   1.0000      -0.711544       -19.3621
  85   1.0000      -0.705440       -19.1960
  86   1.0000      -0.685695       -18.6587
  87   1.0000      -0.683946       -18.6111
  88   1.0000      -0.658330       -17.9141
  89   1.0000      -0.633133       -17.2284
  90   1.0000      -0.626451       -17.0466
  91   1.0000      -0.618824       -16.8391
  92   1.0000      -0.612070       -16.6553
  93   1.0000      -0.577308       -15.7093
  94   1.0000      -0.575187       -15.6516
  95   1.0000      -0.570198       -15.5159
  96   1.0000      -0.568900       -15.4806
  97   1.0000      -0.498467       -13.5640
  98   1.0000      -0.498135       -13.5549
  99   1.0000      -0.492338       -13.3972
 100   1.0000      -0.489965       -13.3326
 101   1.0000      -0.480815       -13.0836
 102   1.0000      -0.475478       -12.9384
 103   1.0000      -0.447471       -12.1763
 104   1.0000      -0.444716       -12.1013
 105   1.0000      -0.417081       -11.3494
 106   1.0000      -0.411818       -11.2061
 107   1.0000      -0.354962        -9.6590
 108   1.0000      -0.354709        -9.6521
 109   1.0000      -0.329505        -8.9663
 110   1.0000      -0.323210        -8.7950
 111   1.0000      -0.319491        -8.6938
 112   1.0000      -0.312665        -8.5080
 113   1.0000      -0.306596        -8.3429
 114   1.0000      -0.298183        -8.1140
 115   1.0000      -0.293171        -7.9776
 116   1.0000      -0.285941        -7.7808
 117   1.0000      -0.260006        -7.0751
 118   1.0000      -0.259288        -7.0556
 119   1.0000      -0.251804        -6.8519
 120   1.0000      -0.249283        -6.7833
 121   1.0000      -0.235355        -6.4043
 122   1.0000      -0.234258        -6.3745
 123   1.0000      -0.231616        -6.3026
 124   1.0000      -0.229184        -6.2364
 125   1.0000      -0.221672        -6.0320
 126   1.0000      -0.214579        -5.8390
 127   1.0000      -0.214266        -5.8305
 128   1.0000      -0.211478        -5.7546
 129   1.0000      -0.191735        -5.2174
 130   1.0000      -0.188461        -5.1283
 131   1.0000      -0.186363        -5.0712
 132   1.0000      -0.183926        -5.0049
 133   1.0000      -0.175919        -4.7870
 134   1.0000      -0.158843        -4.3223
 135   1.0000      -0.152320        -4.1448
 136   1.0000      -0.143651        -3.9089
 137   1.0000      -0.134843        -3.6693
 138   1.0000      -0.134633        -3.6635
 139   1.0000      -0.132749        -3.6123
 140   1.0000      -0.124954        -3.4002
 141   1.0000      -0.119484        -3.2513
 142   1.0000      -0.115669        -3.1475
 143   1.0000      -0.111584        -3.0364
 144   1.0000      -0.100650        -2.7388
 145   1.0000      -0.099333        -2.7030
 146   1.0000      -0.096152        -2.6164
 147   1.0000      -0.092074        -2.5055
 148   1.0000      -0.070750        -1.9252
 149   1.0000      -0.067899        -1.8476
 150   1.0000      -0.066935        -1.8214
 151   1.0000      -0.049570        -1.3489
 152   1.0000      -0.044405        -1.2083
 153   1.0000      -0.038478        -1.0470
 154   1.0000      -0.037159        -1.0112
 155   1.0000      -0.031961        -0.8697
 156   1.0000      -0.026500        -0.7211
 157   1.0000      -0.016426        -0.4470
 158   1.0000       0.020032         0.5451
 159   1.0000       0.039553         1.0763
 160   0.0000       0.135374         3.6837
 161   0.0000       0.136217         3.7067
 162   0.0000       0.155435         4.2296
 163   0.0000       0.160601         4.3702
 164   0.0000       0.164998         4.4898

MULLIKEN ATOMIC CHARGES AND SPIN POPULATIONS
--------------------------------------------
   0 V :    0.471366    1.209821
   1 S :   -0.282756   -0.021533
   2 S :   -0.294774   -0.025618
   3 S :   -0.281741   -0.022767
   4 S :   -0.288805   -0.026021
   5 O :   -0.467284   -0.146698
   6 C :   -0.079991    0.009447
   7 C :   -0.082600    0.008053
   8 C :   -0.084300    0.007850
   9 C :   -0.085669    0.007272
  10 S :    0.102307   -0.000541
  11 S :    0.102859   -0.000568
  12 S :    0.099231   -0.000474
  13 S :    0.097969   -0.000406
  14 C :   -0.243175    0.001862
  15 C :   -0.200454    0.001026
  16 C :   -0.149559   -0.000151
  17 C :   -0.204132   -0.000356
  18 S :   -0.004825   -0.000077
  19 S :   -0.005089   -0.000079
  20 S :    0.014555   -0.000084
  21 S :    0.014444   -0.000086
  22 C :   -0.291983    0.000014
  23 C :   -0.291446    0.000013
  24 C :   -0.154502   -0.000029
  25 H :    0.141720   -0.000002
  26 H :    0.109723   -0.000002
  27 H :    0.083706    0.000001
  28 H :    0.085228    0.000001
  29 H :    0.109351   -0.000003
  30 H :    0.141026   -0.000002
  31 C :   -0.314980    0.000146
  32 C :   -0.316384    0.000141
  33 C :   -0.171548   -0.000174
  34 H :    0.145813   -0.000013
  35 H :    0.119907    0.000012
  36 H :    0.111308    0.000015
  37 H :    0.080497    0.000011
  38 H :    0.119687    0.000013
  39 H :    0.145299   -0.000014
Sum of atomic charges         :   -2.0000000

LOEWDIN ATOMIC CHARGES AND SPIN POPULATIONS
-------------------------------------------
   0 V :   -0.153994    1.163280
   1 S :    0.093027   -0.013575
   2 S :    0.066197   -0.016516
   3 S :    0.092848   -0.014669
   4 S :    0.071644   -0.016637
   5 O :   -0.318533   -0.131644
   6 C :   -0.545341    0.008657
   7 C :   -0.546689    0.007695
   8 C :   -0.556056    0.008493
   9 C :   -0.555990    0.007768
  10 S :    0.468395   -0.000800
  11 S :    0.468345   -0.000831
  12 S :    0.473130   -0.000905
  13 S :    0.471832   -0.000898
  14 C :   -0.465379    0.000358
  15 C :   -0.463034   -0.000059
  16 C :   -0.612677    0.000417
  17 C :   -0.621952    0.000102
  18 S :    0.351639   -0.000065
  19 S :    0.352974   -0.000066
  20 S :    0.360555   -0.000083
  21 S :    0.359813   -0.000085
  22 C :   -0.283716   -0.000003
  23 C :   -0.283907   -0.000005
  24 C :   -0.173037   -0.000001
  25 H :    0.062080   -0.000001
  26 H :    0.053880   -0.000001
  27 H :    0.060343   -0.000001
  28 H :    0.060065   -0.000000
  29 H :    0.053805   -0.000002
  30 H :    0.061879   -0.000001
  31 C :   -0.287327    0.000031
  32 C :   -0.287147    0.000026
  33 C :   -0.187109    0.000007
  34 H :    0.064816   -0.000001
  35 H :    0.054757    0.000006
  36 H :    0.064159    0.000004
  37 H :    0.056364    0.000001
  38 H :    0.054775    0.000007
  39 H :    0.064564   -0.000001

  Mayer bond orders larger than 0.100000
B(  0-V ,  1-S ) :   0.7933 B(  0-V ,  2-S ) :   0.7488 B(  0-V ,  3-S ) :   0.7828
B(  0-V ,  4-S ) :   0.7588 B(  0-V ,  5-O ) :   2.1488 B(  1-S ,  8-C ) :   1.1006
B(  2-S ,  6-C ) :   1.1038 B(  3-S ,  9-C ) :   1.1063 B(  4-S ,  7-C ) :   1.1015
B(  6-C ,  7-C ) :   1.6865 B(  6-C , 10-S ) :   0.9349 B(  7-C , 11-S ) :   0.9367
B(  8-C ,  9-C ) :   1.6895 B(  8-C , 13-S ) :   0.9365 B(  9-C , 12-S ) :   0.9393
B( 10-S , 14-C ) :   1.2466 B( 11-S , 14-C ) :   1.2473 B( 12-S , 15-C ) :   1.2420
B( 13-S , 15-C ) :   1.2420 B( 14-C , 16-C ) :   1.4503 B( 15-C , 17-C ) :   1.4648
B( 16-C , 18-S ) :   1.0647 B( 16-C , 19-S ) :   1.0654 B( 17-C , 20-S ) :   1.0942
B( 17-C , 21-S ) :   1.0953 B( 18-S , 32-C ) :   0.9830 B( 19-S , 31-C ) :   0.9827
B( 20-S , 23-C ) :   0.9935 B( 21-S , 22-C ) :   0.9928 B( 22-C , 24-C ) :   0.9188
B( 22-C , 25-H ) :   0.9645 B( 22-C , 26-H ) :   0.9644 B( 23-C , 24-C ) :   0.9192
B( 23-C , 29-H ) :   0.9645 B( 23-C , 30-H ) :   0.9644 B( 24-C , 27-H ) :   0.9655
B( 24-C , 28-H ) :   0.9730 B( 31-C , 33-C ) :   0.8936 B( 31-C , 38-H ) :   0.9637
B( 31-C , 39-H ) :   0.9709 B( 32-C , 33-C ) :   0.8930 B( 32-C , 34-H ) :   0.9709
B( 32-C , 35-H ) :   0.9637 B( 33-C , 36-H ) :   0.9719 B( 33-C , 37-H ) :   0.9523

FINAL SINGLE POINT ENERGY     -6337.698546541989

DIPOLE MOMENT
-------------
                                X             Y             Z
Electronic contribution:      2.09090     -11.30268      -7.69301
Nuclear contribution   :     -2.73248      12.29697       8.41842
                        -----------------------------------------
Total Dipole Moment    :     -0.64158       0.99429       0.72540
                        -----------------------------------------
Magnitude (a.u.)       :      1.38797
Magnitude (Debye)      :      3.52793

Rotational constants in cm-1:     0.010741     0.000804     0.000783
Rotational constants in MHz :   322.011237    24.105827    23.477757

                             ****ORCA TERMINATED NORMALLY****
TOTAL RUN TIME: 0 days 1 hours 6 minutes 17 seconds 69 msec
