                         Program Version 5.0.4 -  RELEASE  -
|  1> ! nofrozencore ReducedPop printbasis
|  2> ! B3LYP TZVP
|  3>
|  4> %basis
|  5> newgto V "CP(PPP)" end
|  6> end
|  7>
|  8> %pal
|  9> nprocs 8
| 10> end
| 11>
| 12> % sym SymThresh 1e-2 end
| 13> * xyz -2 2
| 14> V -0.5415589239379651 -0.9468354699871478 -0.19688806753932578
| 15> S -2.0827133354230845 1.1260491717874774 -1.018158089656801
| 16> S 0.58209231781514 -0.6013206569653912 -2.174642419979043
| 17> S -1.2154188080802608 0.010596354506528152 2.173443848348498
| 18> S 1.3510859707228313 -1.5191840355420543 0.8155467883396411
| 19> O -1.7320723854857183 -2.056071108503657 -0.3204972500277626
| 20> C 1.9762699967680524 -1.5842444137783704 -1.827640147630389
| 21> C 2.2935077624573816 -1.9648096198037999 -0.5819961419942423
| 22> C -2.728909532352192 1.711922518469635 0.5261188976789575
| 23> C -2.3906472584156293 1.2765226103354788 1.7598560913316552
| 24> S 3.066297783524158 -2.082319093725373 -3.12269041165348
| 25> S 3.774559222075936 -2.892778717416722 -0.35540940107763996
| 26> S -3.2125189726808197 2.125022538480058 3.1531573013650207
| 27> S -3.9603160057645024 3.0660342152563484 0.48986911782218145
| 28> C 4.253458251812239 -2.8842171669031433 -2.0789102496879424
| 29> C -4.126314648505505 3.305370821894139 2.2129432298081553
| 30> C 5.384940106056712 -3.475771985611605 -2.574641306093821
| 31> C -4.918650176266179 4.283230848928769 2.7435714429122524
| 32> S 5.826197764033765 -3.5766978161687524 -4.3014137329709
| 33> S 6.545451277206139 -4.333471775646715 -1.558964362765819
| 34> S -5.849889894859268 5.393823455930842 1.6718154689736846
| 35> S -5.033652997882724 4.416754170074621 4.51833004632693
| 36> C -4.351691416989535 6.123471539914971 4.679033007242094
| 37> C -5.034854121672045 6.949644403395594 2.2473696663478187
| 38> C -5.039774901534098 7.158003198991001 3.773069948694775
| 39> H -3.2711134559665127 6.081273294060341 4.4937420146733285
| 40> H -4.50967583240116 6.413192082929501 5.7272330846945865
| 41> H -4.5514294642599955 8.126058142576355 3.9619974813720553
| 42> H -6.081575621971033 7.258871061436954 4.10117639062584
| 43> H -5.591138722802663 7.773219496232824 1.7824279157036134
| 44> H -4.015623879375061 6.95738282899526 1.8479829185638312
| 45> C 6.372813145194964 -6.063595807498441 -2.207229847871897
| 46> C 5.735530505179239 -5.420467559599914 -4.52700089829639
| 47> C 6.75188123145995 -6.182380944683375 -3.679553938228486
| 48> H 4.716754313049053 -5.739388226467539 -4.278140357994343
| 49> H 5.892402663884247 -5.581241811427951 -5.600360696499847
| 50> H 7.759597767247981 -5.786970911487294 -3.847061365097399
| 51> H 6.753655617720544 -7.241679683530257 -3.9751789938273054
| 52> H 7.022340248388784 -6.667345135736913 -1.5641436749446291
| 53> H 5.338499304069513 -6.38630160200433 -2.0509758228560964
| 54> *
| 55>
| 56> % eprnmr
| 57> gtensor true
| 58> Nuclei = all H {aiso,adip,aorb,fgrad,rho}
| 59> Nuclei = all V {aiso,adip,aorb,fgrad,rho}
| 60> end
| 61>
| 62>                          ****END OF INPUT****

CARTESIAN COORDINATES (ANGSTROEM)
---------------------------------
  V     -0.537953   -0.945661   -0.197453
  S     -2.079108    1.127224   -1.018723
  S      0.585698   -0.600146   -2.175208
  S     -1.211813    0.011771    2.172879
  S      1.354691   -1.518009    0.814982
  O     -1.728467   -2.054896   -0.321062
  C      1.979875   -1.583070   -1.828205
  C      2.297113   -1.963635   -0.582561
  C     -2.725304    1.713097    0.525554
  C     -2.387042    1.277697    1.759291
  S      3.069903   -2.081144   -3.123256
  S      3.778165   -2.891604   -0.355975
  S     -3.208913    2.126197    3.152592
  S     -3.956711    3.067209    0.489304
  C      4.257064   -2.883043   -2.079475
  C     -4.122709    3.306545    2.212378
  C      5.388546   -3.474597   -2.575206
  C     -4.915045    4.284405    2.743006
  S      5.829803   -3.575523   -4.301979
  S      6.549057   -4.332297   -1.559529
  S     -5.846284    5.394998    1.671250
  S     -5.030048    4.417929    4.517765
  C     -4.348086    6.124646    4.678468
  C     -5.031249    6.950819    2.246805
  C     -5.036169    7.159178    3.772505
  H     -3.267508    6.082448    4.493177
  H     -4.506070    6.414367    5.726668
  H     -4.547824    8.127233    3.961432
  H     -6.077970    7.260046    4.100611
  H     -5.587533    7.774394    1.781863
  H     -4.012018    6.958557    1.847418
  C      6.376419   -6.062421   -2.207795
  C      5.739136   -5.419293   -4.527566
  C      6.755487   -6.181206   -3.680119
  H      4.720360   -5.738214   -4.278705
  H      5.896008   -5.580067   -5.600926
  H      7.763203   -5.785796   -3.847626
  H      6.757261   -7.240505   -3.975744
  H      7.025946   -6.666171   -1.564709
  H      5.342105   -6.385127   -2.051541

 Total Charge           Charge          ....   -2
 Multiplicity           Mult            ....    2
 Number of Electrons    NEL             ....  321
 Basis Dimension        Dim             ....  681

ORBITAL ENERGIES
----------------
                 SPIN UP ORBITALS
  NO   OCC          E(Eh)            E(eV)
   0   1.0000    -196.672225     -5351.7233
   1   1.0000     -88.743155     -2414.8240
   2   1.0000     -88.741739     -2414.7855
   3   1.0000     -88.739645     -2414.7285
   4   1.0000     -88.737012     -2414.6569
   5   1.0000     -88.729915     -2414.4637
   6   1.0000     -88.727353     -2414.3940
   7   1.0000     -88.719315     -2414.1753
   8   1.0000     -88.717459     -2414.1248
   9   1.0000     -88.651951     -2412.3422
  10   1.0000     -88.650328     -2412.2981
  11   1.0000     -88.629019     -2411.7182
  12   1.0000     -88.626474     -2411.6490
  13   1.0000     -22.047843      -599.9523
  14   1.0000     -18.880350      -513.7604
  15   1.0000     -18.553890      -504.8770
  16   1.0000     -18.549319      -504.7526
  17   1.0000     -18.549116      -504.7471
  18   1.0000     -10.087972      -274.5077
  19   1.0000     -10.070320      -274.0273
  20   1.0000     -10.069059      -273.9930
  21   1.0000     -10.064266      -273.8626
  22   1.0000     -10.059868      -273.7429
  23   1.0000     -10.059215      -273.7252
  24   1.0000     -10.057342      -273.6742
  25   1.0000     -10.055992      -273.6375
  26   1.0000     -10.048230      -273.4262
  27   1.0000     -10.040423      -273.2138
  28   1.0000     -10.027399      -272.8594
  29   1.0000     -10.025865      -272.8176
  30   1.0000     -10.010132      -272.3895
  31   1.0000     -10.009285      -272.3665
  32   1.0000      -7.796377      -212.1502
  33   1.0000      -7.795404      -212.1237
  34   1.0000      -7.793049      -212.0596
  35   1.0000      -7.790949      -212.0025
  36   1.0000      -7.782847      -211.7820
  37   1.0000      -7.780766      -211.7254
  38   1.0000      -7.772238      -211.4933
  39   1.0000      -7.770881      -211.4564
  40   1.0000      -7.708986      -209.7722
  41   1.0000      -7.706413      -209.7022
  42   1.0000      -7.682124      -209.0412
  43   1.0000      -7.679426      -208.9678
  44   1.0000      -5.761399      -156.7756
  45   1.0000      -5.760288      -156.7454
  46   1.0000      -5.758065      -156.6849
  47   1.0000      -5.756870      -156.6524
  48   1.0000      -5.755954      -156.6275
  49   1.0000      -5.755892      -156.6258
  50   1.0000      -5.754673      -156.5926
  51   1.0000      -5.752434      -156.5317
  52   1.0000      -5.752148      -156.5239
  53   1.0000      -5.751235      -156.4991
  54   1.0000      -5.747821      -156.4062
  55   1.0000      -5.747751      -156.4043
  56   1.0000      -5.745746      -156.3497
  57   1.0000      -5.745698      -156.3484
  58   1.0000      -5.744537      -156.3168
  59   1.0000      -5.742322      -156.2565
  60   1.0000      -5.737661      -156.1297
  61   1.0000      -5.737234      -156.1181
  62   1.0000      -5.735737      -156.0773
  63   1.0000      -5.735606      -156.0738
  64   1.0000      -5.732779      -155.9968
  65   1.0000      -5.731400      -155.9593
  66   1.0000      -5.728048      -155.8681
  67   1.0000      -5.726753      -155.8329
  68   1.0000      -5.674007      -154.3976
  69   1.0000      -5.671566      -154.3312
  70   1.0000      -5.667098      -154.2096
  71   1.0000      -5.666458      -154.1922
  72   1.0000      -5.664635      -154.1425
  73   1.0000      -5.663870      -154.1217
  74   1.0000      -5.647574      -153.6783
  75   1.0000      -5.644906      -153.6057
  76   1.0000      -5.641198      -153.5048
  77   1.0000      -5.639169      -153.4496
  78   1.0000      -5.638521      -153.4320
  79   1.0000      -5.636436      -153.3752
  80   1.0000      -2.442483       -66.4633
  81   1.0000      -1.479387       -40.2562
  82   1.0000      -1.474019       -40.1101
  83   1.0000      -1.473038       -40.0834
  84   1.0000      -0.720129       -19.5957
  85   1.0000      -0.700105       -19.0508
  86   1.0000      -0.698759       -19.0142
  87   1.0000      -0.673249       -18.3200
  88   1.0000      -0.644696       -17.5431
  89   1.0000      -0.637634       -17.3509
  90   1.0000      -0.619357       -16.8536
  91   1.0000      -0.618200       -16.8221
  92   1.0000      -0.614082       -16.7100
  93   1.0000      -0.592625       -16.1261
  94   1.0000      -0.588069       -16.0022
  95   1.0000      -0.560056       -15.2399
  96   1.0000      -0.557254       -15.1637
  97   1.0000      -0.509261       -13.8577
  98   1.0000      -0.504775       -13.7356
  99   1.0000      -0.490467       -13.3463
 100   1.0000      -0.489958       -13.3324
 101   1.0000      -0.484949       -13.1961
 102   1.0000      -0.463729       -12.6187
 103   1.0000      -0.458569       -12.4783
 104   1.0000      -0.433502       -11.7962
 105   1.0000      -0.426835       -11.6148
 106   1.0000      -0.401197       -10.9171
 107   1.0000      -0.366480        -9.9724
 108   1.0000      -0.344179        -9.3656
 109   1.0000      -0.338311        -9.2059
 110   1.0000      -0.330614        -8.9965
 111   1.0000      -0.314364        -8.5543
 112   1.0000      -0.312220        -8.4959
 113   1.0000      -0.304548        -8.2872
 114   1.0000      -0.296719        -8.0741
 115   1.0000      -0.295355        -8.0370
 116   1.0000      -0.287613        -7.8263
 117   1.0000      -0.265560        -7.2262
 118   1.0000      -0.261206        -7.1078
 119   1.0000      -0.252375        -6.8675
 120   1.0000      -0.247685        -6.7398
 121   1.0000      -0.245937        -6.6923
 122   1.0000      -0.236267        -6.4292
 123   1.0000      -0.234199        -6.3729
 124   1.0000      -0.225958        -6.1486
 125   1.0000      -0.223807        -6.0901
 126   1.0000      -0.222569        -6.0564
 127   1.0000      -0.209328        -5.6961
 128   1.0000      -0.203122        -5.5272
 129   1.0000      -0.198419        -5.3993
 130   1.0000      -0.195931        -5.3315
 131   1.0000      -0.190026        -5.1709
 132   1.0000      -0.176590        -4.8053
 133   1.0000      -0.174942        -4.7604
 134   1.0000      -0.155287        -4.2256
 135   1.0000      -0.153969        -4.1897
 136   1.0000      -0.147976        -4.0266
 137   1.0000      -0.147158        -4.0044
 138   1.0000      -0.139519        -3.7965
 139   1.0000      -0.121507        -3.3064
 140   1.0000      -0.117226        -3.1899
 141   1.0000      -0.115851        -3.1525
 142   1.0000      -0.111341        -3.0297
 143   1.0000      -0.106837        -2.9072
 144   1.0000      -0.100613        -2.7378
 145   1.0000      -0.098302        -2.6749
 146   1.0000      -0.085698        -2.3320
 147   1.0000      -0.085049        -2.3143
 148   1.0000      -0.074003        -2.0137
 149   1.0000      -0.069939        -1.9031
 150   1.0000      -0.067162        -1.8276
 151   1.0000      -0.064043        -1.7427
 152   1.0000      -0.047754        -1.2995
 153   1.0000      -0.040035        -1.0894
 154   1.0000      -0.034439        -0.9371
 155   1.0000      -0.021850        -0.5946
 156   1.0000      -0.017255        -0.4695
 157   1.0000      -0.014815        -0.4031
 158   1.0000      -0.007984        -0.2173
 159   1.0000       0.012390         0.3371
 160   1.0000       0.048355         1.3158
 161   0.0000       0.126538         3.4433
 162   0.0000       0.144769         3.9394
 163   0.0000       0.154045         4.1918
 164   0.0000       0.156900         4.2695
 165   0.0000       0.164735         4.4827

                 SPIN DOWN ORBITALS
  NO   OCC          E(Eh)            E(eV)
   0   1.0000    -196.672346     -5351.7266
   1   1.0000     -88.743154     -2414.8240
   2   1.0000     -88.741742     -2414.7856
   3   1.0000     -88.739646     -2414.7285
   4   1.0000     -88.737013     -2414.6569
   5   1.0000     -88.729916     -2414.4638
   6   1.0000     -88.727353     -2414.3940
   7   1.0000     -88.719327     -2414.1756
   8   1.0000     -88.717471     -2414.1251
   9   1.0000     -88.652110     -2412.3466
  10   1.0000     -88.650488     -2412.3024
  11   1.0000     -88.629174     -2411.7224
  12   1.0000     -88.626632     -2411.6533
  13   1.0000     -22.032796      -599.5429
  14   1.0000     -18.884616      -513.8765
  15   1.0000     -18.548308      -504.7251
  16   1.0000     -18.533300      -504.3167
  17   1.0000     -18.532983      -504.3081
  18   1.0000     -10.087926      -274.5064
  19   1.0000     -10.070318      -274.0273
  20   1.0000     -10.069057      -273.9930
  21   1.0000     -10.064280      -273.8630
  22   1.0000     -10.059868      -273.7429
  23   1.0000     -10.059215      -273.7252
  24   1.0000     -10.057309      -273.6733
  25   1.0000     -10.055992      -273.6375
  26   1.0000     -10.048230      -273.4262
  27   1.0000     -10.040425      -273.2139
  28   1.0000     -10.026953      -272.8473
  29   1.0000     -10.025311      -272.8026
  30   1.0000     -10.010048      -272.3873
  31   1.0000     -10.009189      -272.3639
  32   1.0000      -7.796375      -212.1502
  33   1.0000      -7.795406      -212.1238
  34   1.0000      -7.793049      -212.0596
  35   1.0000      -7.790949      -212.0025
  36   1.0000      -7.782847      -211.7820
  37   1.0000      -7.780767      -211.7254
  38   1.0000      -7.772252      -211.4937
  39   1.0000      -7.770894      -211.4568
  40   1.0000      -7.709124      -209.7759
  41   1.0000      -7.706554      -209.7060
  42   1.0000      -7.682274      -209.0453
  43   1.0000      -7.679579      -208.9720
  44   1.0000      -5.761396      -156.7756
  45   1.0000      -5.760290      -156.7455
  46   1.0000      -5.758066      -156.6850
  47   1.0000      -5.756865      -156.6523
  48   1.0000      -5.755955      -156.6275
  49   1.0000      -5.755896      -156.6259
  50   1.0000      -5.754673      -156.5926
  51   1.0000      -5.752434      -156.5317
  52   1.0000      -5.752150      -156.5240
  53   1.0000      -5.751240      -156.4992
  54   1.0000      -5.747822      -156.4062
  55   1.0000      -5.747751      -156.4043
  56   1.0000      -5.745747      -156.3497
  57   1.0000      -5.745698      -156.3484
  58   1.0000      -5.744538      -156.3168
  59   1.0000      -5.742323      -156.2566
  60   1.0000      -5.737662      -156.1297
  61   1.0000      -5.737250      -156.1185
  62   1.0000      -5.735754      -156.0778
  63   1.0000      -5.735607      -156.0738
  64   1.0000      -5.732798      -155.9974
  65   1.0000      -5.731419      -155.9598
  66   1.0000      -5.728057      -155.8683
  67   1.0000      -5.726762      -155.8331
  68   1.0000      -5.674212      -154.4032
  69   1.0000      -5.671748      -154.3361
  70   1.0000      -5.667468      -154.2197
  71   1.0000      -5.666590      -154.1958
  72   1.0000      -5.665023      -154.1531
  73   1.0000      -5.664010      -154.1256
  74   1.0000      -5.647707      -153.6819
  75   1.0000      -5.645035      -153.6092
  76   1.0000      -5.641626      -153.5164
  77   1.0000      -5.639276      -153.4525
  78   1.0000      -5.638969      -153.4441
  79   1.0000      -5.636542      -153.3781
  80   1.0000      -2.397080       -65.2279
  81   1.0000      -1.458727       -39.6940
  82   1.0000      -1.412521       -38.4366
  83   1.0000      -1.410357       -38.3778
  84   1.0000      -0.719975       -19.5915
  85   1.0000      -0.700123       -19.0513
  86   1.0000      -0.698573       -19.0091
  87   1.0000      -0.673266       -18.3205
  88   1.0000      -0.647903       -17.6303
  89   1.0000      -0.643922       -17.5220
  90   1.0000      -0.619349       -16.8533
  91   1.0000      -0.618217       -16.8225
  92   1.0000      -0.614086       -16.7101
  93   1.0000      -0.592315       -16.1177
  94   1.0000      -0.587715       -15.9925
  95   1.0000      -0.560135       -15.2420
  96   1.0000      -0.557356       -15.1664
  97   1.0000      -0.509066       -13.8524
  98   1.0000      -0.504628       -13.7316
  99   1.0000      -0.490486       -13.3468
 100   1.0000      -0.489970       -13.3328
 101   1.0000      -0.485077       -13.1996
 102   1.0000      -0.464271       -12.6335
 103   1.0000      -0.458493       -12.4762
 104   1.0000      -0.433625       -11.7995
 105   1.0000      -0.426688       -11.6108
 106   1.0000      -0.401467       -10.9245
 107   1.0000      -0.366421        -9.9708
 108   1.0000      -0.344189        -9.3659
 109   1.0000      -0.338244        -9.2041
 110   1.0000      -0.330239        -8.9863
 111   1.0000      -0.314371        -8.5545
 112   1.0000      -0.312043        -8.4911
 113   1.0000      -0.304691        -8.2911
 114   1.0000      -0.296745        -8.0748
 115   1.0000      -0.295333        -8.0364
 116   1.0000      -0.287622        -7.8266
 117   1.0000      -0.265273        -7.2185
 118   1.0000      -0.261034        -7.1031
 119   1.0000      -0.252387        -6.8678
 120   1.0000      -0.247644        -6.7387
 121   1.0000      -0.245904        -6.6914
 122   1.0000      -0.236192        -6.4271
 123   1.0000      -0.233314        -6.3488
 124   1.0000      -0.225803        -6.1444
 125   1.0000      -0.223805        -6.0900
 126   1.0000      -0.222552        -6.0559
 127   1.0000      -0.209285        -5.6949
 128   1.0000      -0.201602        -5.4859
 129   1.0000      -0.198026        -5.3886
 130   1.0000      -0.194688        -5.2977
 131   1.0000      -0.189574        -5.1586
 132   1.0000      -0.176572        -4.8048
 133   1.0000      -0.174918        -4.7598
 134   1.0000      -0.154997        -4.2177
 135   1.0000      -0.153435        -4.1752
 136   1.0000      -0.147652        -4.0178
 137   1.0000      -0.146662        -3.9909
 138   1.0000      -0.139290        -3.7903
 139   1.0000      -0.121447        -3.3047
 140   1.0000      -0.116591        -3.1726
 141   1.0000      -0.115687        -3.1480
 142   1.0000      -0.111378        -3.0308
 143   1.0000      -0.107126        -2.9151
 144   1.0000      -0.100499        -2.7347
 145   1.0000      -0.099432        -2.7057
 146   1.0000      -0.085698        -2.3320
 147   1.0000      -0.085100        -2.3157
 148   1.0000      -0.074237        -2.0201
 149   1.0000      -0.069640        -1.8950
 150   1.0000      -0.065659        -1.7867
 151   1.0000      -0.064040        -1.7426
 152   1.0000      -0.048272        -1.3136
 153   1.0000      -0.036206        -0.9852
 154   1.0000      -0.034730        -0.9450
 155   1.0000      -0.021992        -0.5984
 156   1.0000      -0.016465        -0.4480
 157   1.0000      -0.008466        -0.2304
 158   1.0000       0.011739         0.3194
 159   1.0000       0.047667         1.2971
 160   0.0000       0.126574         3.4443
 161   0.0000       0.144757         3.9390
 162   0.0000       0.153058         4.1649
 163   0.0000       0.158687         4.3181
 164   0.0000       0.165178         4.4947

MULLIKEN ATOMIC CHARGES AND SPIN POPULATIONS
--------------------------------------------
   0 V :    0.458797    1.231354
   1 S :   -0.348948   -0.025965
   2 S :   -0.229929   -0.029973
   3 S :   -0.341879   -0.025283
   4 S :   -0.225002   -0.028073
   5 O :   -0.480748   -0.165473
   6 C :   -0.074587    0.016474
   7 C :   -0.077702    0.018257
   8 C :   -0.080617    0.002726
   9 C :   -0.087850    0.003562
  10 S :    0.115989   -0.000255
  11 S :    0.114667    0.000484
  12 S :    0.085353   -0.000725
  13 S :    0.086312   -0.000845
  14 C :   -0.172453    0.004956
  15 C :   -0.244711   -0.000501
  16 C :   -0.225851   -0.000741
  17 C :   -0.160389    0.000043
  18 S :    0.012363   -0.000063
  19 S :    0.011049   -0.000044
  20 S :    0.005686   -0.000093
  21 S :    0.004886   -0.000092
  22 C :   -0.276996   -0.000013
  23 C :   -0.280045   -0.000011
  24 C :   -0.161673    0.000006
  25 H :    0.136574   -0.000001
  26 H :    0.102988   -0.000003
  27 H :    0.079503   -0.000002
  28 H :    0.082987    0.000001
  29 H :    0.104188   -0.000001
  30 H :    0.139688   -0.000000
  31 C :   -0.316874    0.000266
  32 C :   -0.324151    0.000265
  33 C :   -0.157680   -0.000279
  34 H :    0.147269   -0.000023
  35 H :    0.123498    0.000024
  36 H :    0.103512    0.000022
  37 H :    0.086808    0.000019
  38 H :    0.121550    0.000022
  39 H :    0.144418   -0.000023
Sum of atomic charges         :   -2.0000000

LOEWDIN ATOMIC CHARGES AND SPIN POPULATIONS
-------------------------------------------
   0 V :   -0.177214    1.177361
   1 S :   -0.001850   -0.020658
   2 S :    0.165060   -0.016210
   3 S :    0.014206   -0.019488
   4 S :    0.191702   -0.012876
   5 O :   -0.352926   -0.150076
   6 C :   -0.559611    0.016205
   7 C :   -0.565738    0.020140
   8 C :   -0.536592    0.002647
   9 C :   -0.539826    0.003759
  10 S :    0.492750   -0.000204
  11 S :    0.487312    0.000144
  12 S :    0.450932   -0.001314
  13 S :    0.455780   -0.001344
  14 C :   -0.449294    0.001549
  15 C :   -0.480484   -0.000592
  16 C :   -0.623468    0.001129
  17 C :   -0.617686   -0.000084
  18 S :    0.353947   -0.000041
  19 S :    0.362930   -0.000020
  20 S :    0.354466   -0.000098
  21 S :    0.362675   -0.000096
  22 C :   -0.286061   -0.000006
  23 C :   -0.284370   -0.000002
  24 C :   -0.173680   -0.000005
  25 H :    0.060152   -0.000002
  26 H :    0.053035   -0.000003
  27 H :    0.058506   -0.000001
  28 H :    0.059522   -0.000000
  29 H :    0.052506   -0.000002
  30 H :    0.061026   -0.000002
  31 C :   -0.284323    0.000072
  32 C :   -0.283156    0.000073
  33 C :   -0.179447    0.000010
  34 H :    0.065210   -0.000001
  35 H :    0.055308    0.000016
  36 H :    0.061873    0.000005
  37 H :    0.057979    0.000003
  38 H :    0.055273    0.000016
  39 H :    0.063576   -0.000001

  Mayer bond orders larger than 0.100000
B(  0-V ,  1-S ) :   0.6239 B(  0-V ,  2-S ) :   0.8859 B(  0-V ,  3-S ) :   0.6583
B(  0-V ,  4-S ) :   0.9435 B(  0-V ,  5-O ) :   2.1151 B(  1-S ,  8-C ) :   1.1192
B(  2-S ,  6-C ) :   1.0974 B(  3-S ,  9-C ) :   1.0934 B(  4-S ,  7-C ) :   1.0591
B(  6-C ,  7-C ) :   1.6425 B(  6-C , 10-S ) :   0.9651 B(  7-C , 11-S ) :   0.9650
B(  8-C ,  9-C ) :   1.7311 B(  8-C , 13-S ) :   0.9060 B(  9-C , 12-S ) :   0.9078
B( 10-S , 14-C ) :   1.2339 B( 11-S , 14-C ) :   1.2279 B( 12-S , 15-C ) :   1.2572
B( 13-S , 15-C ) :   1.2624 B( 14-C , 16-C ) :   1.4545 B( 15-C , 17-C ) :   1.4367
B( 16-C , 18-S ) :   1.1101 B( 16-C , 19-S ) :   1.1182 B( 17-C , 20-S ) :   1.0626
B( 17-C , 21-S ) :   1.0640 B( 18-S , 32-C ) :   0.9815 B( 19-S , 31-C ) :   0.9791
B( 20-S , 23-C ) :   1.0024 B( 21-S , 22-C ) :   0.9999 B( 22-C , 24-C ) :   0.9275
B( 22-C , 25-H ) :   0.9636 B( 22-C , 26-H ) :   0.9633 B( 23-C , 24-C ) :   0.9254
B( 23-C , 29-H ) :   0.9629 B( 23-C , 30-H ) :   0.9660 B( 24-C , 27-H ) :   0.9623
B( 24-C , 28-H ) :   0.9704 B( 31-C , 33-C ) :   0.8997 B( 31-C , 38-H ) :   0.9655
B( 31-C , 39-H ) :   0.9675 B( 32-C , 33-C ) :   0.8969 B( 32-C , 34-H ) :   0.9691
B( 32-C , 35-H ) :   0.9650 B( 33-C , 36-H ) :   0.9736 B( 33-C , 37-H ) :   0.9604

FINAL SINGLE POINT ENERGY     -6337.670390732560

DIPOLE MOMENT
-------------
                                X             Y             Z
Electronic contribution:     -8.88518      -9.11888      -1.84951
Nuclear contribution   :     11.38475       9.20709       1.45528
                        -----------------------------------------
Total Dipole Moment    :      2.49956       0.08822      -0.39423
                        -----------------------------------------
Magnitude (a.u.)       :      2.53200
Magnitude (Debye)      :      6.43583

Rotational constants in cm-1:     0.010786     0.000804     0.000783
Rotational constants in MHz :   323.344855    24.113087    23.483096

                             ****ORCA TERMINATED NORMALLY****
TOTAL RUN TIME: 0 days 1 hours 2 minutes 2 seconds 973 msec
