                         Program Version 5.0.4 -  RELEASE  -
|  1> ! nofrozencore ReducedPop printbasis
|  2> ! B3LYP TZVP
|  3>
|  4> %basis
|  5> newgto V "CP(PPP)" end
|  6> end
|  7>
|  8> %pal
|  9> nprocs 6
| 10> end
| 11>
| 12> % sym SymThresh 1e-2 end
| 13> * xyz -2 2
| 14> V -0.1336830401328201 -0.04558131102902326 1.1344199739755654
| 15> S 0.2735630534807744 -2.2920723105032805 0.8129609409144004
| 16> S 2.006927320307411 0.43450794903590917 1.0259011342874724
| 17> S -2.4693288779486955 -0.5702047536449187 -0.278471416474608
| 18> S -0.545222977615765 2.2703105497609952 -0.10387570422252944
| 19> O -0.9206133945062595 0.2673615826322469 2.5285976104263885
| 20> C 2.0282433548432306 2.194951553143088 0.7886929221534998
| 21> C 1.0089403109913218 2.9283293638494987 0.3013320128073497
| 22> C -1.2221787260601973 -2.9820053968130917 0.12603639445996928
| 23> C -2.293756659868281 -2.3009198699245483 -0.32952001183737706
| 24> S 3.5870581700246786 3.0352187384402396 1.0654244201919936
| 25> S 1.3369327703556353 4.674041101766227 0.08288084964061529
| 26> S -3.620475372169519 -3.3082979036040268 -1.0282912372923283
| 27> S -1.2636965816384573 -4.780444310507241 -0.06075976020545713
| 28> C 3.003917990724683 4.670391107717055 0.5430926054146272
| 29> C -2.867430718319742 -4.849865582890692 -0.8946004575354682
| 30> C 3.675590133109026 5.8656515860935965 0.4913488438108484
| 31> C -3.5530807606154533 -5.925275127236954 -1.3972153800615024
| 32> S 5.308051122082525 5.891871577859835 1.0711823716664244
| 33> S 3.019072036763604 7.474326415049497 -0.08307385382538325
| 34> S -2.762246615690485 -7.462933663618615 -1.2815183869830018
| 35> S -5.2138154857107875 -5.8843799311809635 -2.180369584156116
| 36> C -4.514224429271345 -6.543635752123062 -3.7878419258285647
| 37> C -2.4901358469911132 -7.980412867648168 -3.0298016965503543
| 38> C -3.814722202485676 -7.919718345818844 -3.775764832205557
| 39> H -3.8147548790291257 -5.775680027711883 -4.136906615689983
| 40> H -5.354552588872713 -6.584216807254025 -4.496796524338536
| 41> H -3.6492422011255288 -8.193280960768709 -4.828875817542163
| 42> H -4.4924627166474425 -8.666908773085671 -3.3501491078865877
| 43> H -2.127895724343244 -9.020302948863023 -2.9640502301102822
| 44> H -1.7128474837217773 -7.365580456763083 -3.509018927961447
| 45> C 3.248969776217303 8.306446951191795 1.5755706202227275
| 46> C 5.2574794313820865 7.028899529066501 2.5272237506819626
| 47> C 4.681601733762828 8.379978446397384 2.129662654806432
| 48> H 4.688284894703003 6.573781248621749 3.347456213698207
| 49> H 6.306864771762306 7.124273153392043 2.8398523507173743
| 50> H 5.33863649187543 8.850595792553474 1.3915291963005108
| 51> H 4.656748239027482 9.035793719322307 3.0119397520309095
| 52> H 2.8477031024449837 9.32122844831609 1.4555492197648396
| 53> H 2.6034744855374163 7.768493291030127 2.278688283785344
| 54> *
| 55>
| 56> % eprnmr
| 57> gtensor true
| 58> Nuclei = all H {aiso,adip,aorb,fgrad,rho}
| 59> Nuclei = all V {aiso,adip,aorb,fgrad,rho}
| 60> end
| 61>
| 62>                          ****END OF INPUT****

CARTESIAN COORDINATES (ANGSTROEM)
---------------------------------
  V     -0.131476   -0.043877    1.131789
  S      0.275770   -2.290368    0.810330
  S      2.009134    0.436213    1.023270
  S     -2.467122   -0.568500   -0.281103
  S     -0.543016    2.272015   -0.106507
  O     -0.918406    0.269066    2.525966
  C      2.030450    2.196656    0.786062
  C      1.011147    2.930034    0.298701
  C     -1.219972   -2.980301    0.123405
  C     -2.291550   -2.299215   -0.332151
  S      3.589265    3.036923    1.062793
  S      1.339140    4.675746    0.080250
  S     -3.618268   -3.306593   -1.030922
  S     -1.261490   -4.778740   -0.063391
  C      3.006125    4.672096    0.540461
  C     -2.865224   -4.848161   -0.897232
  C      3.677797    5.867356    0.488718
  C     -3.550874   -5.923571   -1.399847
  S      5.310258    5.893576    1.068551
  S      3.021279    7.476031   -0.085705
  S     -2.760040   -7.461229   -1.284150
  S     -5.211608   -5.882675   -2.183001
  C     -4.512017   -6.541931   -3.790473
  C     -2.487929   -7.978708   -3.032433
  C     -3.812515   -7.918014   -3.778396
  H     -3.812548   -5.773975   -4.139538
  H     -5.352346   -6.582512   -4.499428
  H     -3.647035   -8.191576   -4.831507
  H     -4.490256   -8.665204   -3.352780
  H     -2.125689   -9.018598   -2.966681
  H     -1.710640   -7.363876   -3.511650
  C      3.251177    8.308152    1.572939
  C      5.259686    7.030604    2.524593
  C      4.683809    8.381683    2.127032
  H      4.690492    6.575486    3.344825
  H      6.309072    7.125978    2.837221
  H      5.340843    8.852300    1.388898
  H      4.658955    9.037498    3.009309
  H      2.849910    9.322933    1.452918
  H      2.605681    7.770198    2.276057

 Total Charge           Charge          ....   -2
 Multiplicity           Mult            ....    2
 Number of Electrons    NEL             ....  321
 Basis Dimension        Dim             ....  681

ORBITAL ENERGIES
----------------
                 SPIN UP ORBITALS
  NO   OCC          E(Eh)            E(eV)
   0   1.0000    -196.674638     -5351.7890
   1   1.0000     -88.741572     -2414.7809
   2   1.0000     -88.739235     -2414.7174
   3   1.0000     -88.738247     -2414.6905
   4   1.0000     -88.732380     -2414.5308
   5   1.0000     -88.729633     -2414.4561
   6   1.0000     -88.727961     -2414.4106
   7   1.0000     -88.724625     -2414.3198
   8   1.0000     -88.722954     -2414.2743
   9   1.0000     -88.651712     -2412.3357
  10   1.0000     -88.646614     -2412.1970
  11   1.0000     -88.635496     -2411.8945
  12   1.0000     -88.627624     -2411.6803
  13   1.0000     -22.050084      -600.0133
  14   1.0000     -18.881591      -513.7942
  15   1.0000     -18.556093      -504.9369
  16   1.0000     -18.551716      -504.8179
  17   1.0000     -18.551333      -504.8074
  18   1.0000     -10.079475      -274.2765
  19   1.0000     -10.073502      -274.1139
  20   1.0000     -10.068274      -273.9717
  21   1.0000     -10.065448      -273.8948
  22   1.0000     -10.063948      -273.8539
  23   1.0000     -10.061352      -273.7833
  24   1.0000     -10.052961      -273.5550
  25   1.0000     -10.051167      -273.5062
  26   1.0000     -10.050405      -273.4854
  27   1.0000     -10.046713      -273.3850
  28   1.0000     -10.023157      -272.7440
  29   1.0000     -10.020013      -272.6584
  30   1.0000     -10.017753      -272.5969
  31   1.0000     -10.015707      -272.5412
  32   1.0000      -7.793718      -212.0779
  33   1.0000      -7.791196      -212.0092
  34   1.0000      -7.790242      -211.9833
  35   1.0000      -7.784230      -211.8197
  36   1.0000      -7.784227      -211.8196
  37   1.0000      -7.782674      -211.7773
  38   1.0000      -7.779360      -211.6872
  39   1.0000      -7.777600      -211.6393
  40   1.0000      -7.708280      -209.7530
  41   1.0000      -7.701542      -209.5696
  42   1.0000      -7.689493      -209.2418
  43   1.0000      -7.681308      -209.0190
  44   1.0000      -5.758712      -156.7025
  45   1.0000      -5.756141      -156.6326
  46   1.0000      -5.755671      -156.6198
  47   1.0000      -5.755541      -156.6162
  48   1.0000      -5.753231      -156.5534
  49   1.0000      -5.750816      -156.4877
  50   1.0000      -5.749538      -156.4529
  51   1.0000      -5.748873      -156.4348
  52   1.0000      -5.748387      -156.4216
  53   1.0000      -5.747694      -156.4027
  54   1.0000      -5.745905      -156.3540
  55   1.0000      -5.745885      -156.3535
  56   1.0000      -5.744842      -156.3251
  57   1.0000      -5.744639      -156.3196
  58   1.0000      -5.744385      -156.3127
  59   1.0000      -5.743888      -156.2991
  60   1.0000      -5.742231      -156.2541
  61   1.0000      -5.740529      -156.2077
  62   1.0000      -5.740175      -156.1981
  63   1.0000      -5.739870      -156.1898
  64   1.0000      -5.738000      -156.1389
  65   1.0000      -5.737529      -156.1261
  66   1.0000      -5.734257      -156.0371
  67   1.0000      -5.733569      -156.0184
  68   1.0000      -5.673291      -154.3781
  69   1.0000      -5.666757      -154.2003
  70   1.0000      -5.666512      -154.1936
  71   1.0000      -5.665812      -154.1746
  72   1.0000      -5.659963      -154.0154
  73   1.0000      -5.659096      -153.9918
  74   1.0000      -5.654797      -153.8749
  75   1.0000      -5.648237      -153.6964
  76   1.0000      -5.646738      -153.6555
  77   1.0000      -5.646621      -153.6524
  78   1.0000      -5.640218      -153.4781
  79   1.0000      -5.638464      -153.4304
  80   1.0000      -2.444153       -66.5088
  81   1.0000      -1.481224       -40.3061
  82   1.0000      -1.475437       -40.1487
  83   1.0000      -1.474640       -40.1270
  84   1.0000      -0.712597       -19.3908
  85   1.0000      -0.708025       -19.2663
  86   1.0000      -0.688496       -18.7349
  87   1.0000      -0.682215       -18.5640
  88   1.0000      -0.639550       -17.4030
  89   1.0000      -0.635343       -17.2886
  90   1.0000      -0.628541       -17.1035
  91   1.0000      -0.616593       -16.7783
  92   1.0000      -0.614085       -16.7101
  93   1.0000      -0.582952       -15.8629
  94   1.0000      -0.575104       -15.6494
  95   1.0000      -0.573372       -15.6022
  96   1.0000      -0.564948       -15.3730
  97   1.0000      -0.502691       -13.6789
  98   1.0000      -0.499207       -13.5841
  99   1.0000      -0.498210       -13.5570
 100   1.0000      -0.491372       -13.3709
 101   1.0000      -0.480512       -13.0754
 102   1.0000      -0.473240       -12.8775
 103   1.0000      -0.447935       -12.1889
 104   1.0000      -0.440910       -11.9978
 105   1.0000      -0.418069       -11.3762
 106   1.0000      -0.410104       -11.1595
 107   1.0000      -0.357194        -9.7197
 108   1.0000      -0.351260        -9.5583
 109   1.0000      -0.329747        -8.9729
 110   1.0000      -0.324884        -8.8405
 111   1.0000      -0.322195        -8.7674
 112   1.0000      -0.313849        -8.5403
 113   1.0000      -0.306151        -8.3308
 114   1.0000      -0.301840        -8.2135
 115   1.0000      -0.291445        -7.9306
 116   1.0000      -0.287022        -7.8103
 117   1.0000      -0.260414        -7.0862
 118   1.0000      -0.257704        -7.0125
 119   1.0000      -0.255663        -6.9570
 120   1.0000      -0.253152        -6.8886
 121   1.0000      -0.238661        -6.4943
 122   1.0000      -0.234829        -6.3900
 123   1.0000      -0.229738        -6.2515
 124   1.0000      -0.224172        -6.1000
 125   1.0000      -0.221894        -6.0380
 126   1.0000      -0.217189        -5.9100
 127   1.0000      -0.216065        -5.8794
 128   1.0000      -0.208447        -5.6721
 129   1.0000      -0.196198        -5.3388
 130   1.0000      -0.191979        -5.2240
 131   1.0000      -0.187121        -5.0918
 132   1.0000      -0.180227        -4.9042
 133   1.0000      -0.176709        -4.8085
 134   1.0000      -0.162809        -4.4303
 135   1.0000      -0.153116        -4.1665
 136   1.0000      -0.147269        -4.0074
 137   1.0000      -0.137292        -3.7359
 138   1.0000      -0.134821        -3.6687
 139   1.0000      -0.129622        -3.5272
 140   1.0000      -0.121081        -3.2948
 141   1.0000      -0.116857        -3.1798
 142   1.0000      -0.105352        -2.8668
 143   1.0000      -0.102828        -2.7981
 144   1.0000      -0.098975        -2.6932
 145   1.0000      -0.097194        -2.6448
 146   1.0000      -0.092973        -2.5299
 147   1.0000      -0.091856        -2.4995
 148   1.0000      -0.079907        -2.1744
 149   1.0000      -0.068521        -1.8646
 150   1.0000      -0.066452        -1.8083
 151   1.0000      -0.062143        -1.6910
 152   1.0000      -0.044692        -1.2161
 153   1.0000      -0.042173        -1.1476
 154   1.0000      -0.033684        -0.9166
 155   1.0000      -0.028550        -0.7769
 156   1.0000      -0.021266        -0.5787
 157   1.0000      -0.013513        -0.3677
 158   1.0000      -0.008887        -0.2418
 159   1.0000       0.020442         0.5563
 160   1.0000       0.041181         1.1206
 161   0.0000       0.132709         3.6112
 162   0.0000       0.137145         3.7319
 163   0.0000       0.153127         4.1668
 164   0.0000       0.158303         4.3076
 165   0.0000       0.159288         4.3345

                 SPIN DOWN ORBITALS
  NO   OCC          E(Eh)            E(eV)
   0   1.0000    -196.674747     -5351.7919
   1   1.0000     -88.741573     -2414.7810
   2   1.0000     -88.739236     -2414.7174
   3   1.0000     -88.738246     -2414.6904
   4   1.0000     -88.732386     -2414.5310
   5   1.0000     -88.729643     -2414.4563
   6   1.0000     -88.727962     -2414.4106
   7   1.0000     -88.724626     -2414.3198
   8   1.0000     -88.722962     -2414.2745
   9   1.0000     -88.651836     -2412.3391
  10   1.0000     -88.646737     -2412.2003
  11   1.0000     -88.635645     -2411.8985
  12   1.0000     -88.627786     -2411.6847
  13   1.0000     -22.035359      -599.6126
  14   1.0000     -18.885639      -513.9044
  15   1.0000     -18.550623      -504.7881
  16   1.0000     -18.536087      -504.3926
  17   1.0000     -18.535495      -504.3765
  18   1.0000     -10.079464      -274.2762
  19   1.0000     -10.073510      -274.1141
  20   1.0000     -10.068272      -273.9716
  21   1.0000     -10.065447      -273.8947
  22   1.0000     -10.063948      -273.8540
  23   1.0000     -10.061354      -273.7834
  24   1.0000     -10.052961      -273.5550
  25   1.0000     -10.051158      -273.5059
  26   1.0000     -10.050405      -273.4854
  27   1.0000     -10.046715      -273.3850
  28   1.0000     -10.023123      -272.7430
  29   1.0000     -10.019278      -272.6384
  30   1.0000     -10.017736      -272.5965
  31   1.0000     -10.015235      -272.5284
  32   1.0000      -7.793719      -212.0779
  33   1.0000      -7.791197      -212.0092
  34   1.0000      -7.790243      -211.9833
  35   1.0000      -7.784238      -211.8199
  36   1.0000      -7.784238      -211.8199
  37   1.0000      -7.782675      -211.7773
  38   1.0000      -7.779361      -211.6872
  39   1.0000      -7.777609      -211.6395
  40   1.0000      -7.708388      -209.7559
  41   1.0000      -7.701654      -209.5727
  42   1.0000      -7.689631      -209.2455
  43   1.0000      -7.681462      -209.0232
  44   1.0000      -5.758713      -156.7025
  45   1.0000      -5.756142      -156.6326
  46   1.0000      -5.755672      -156.6198
  47   1.0000      -5.755540      -156.6162
  48   1.0000      -5.753232      -156.5534
  49   1.0000      -5.750812      -156.4875
  50   1.0000      -5.749546      -156.4531
  51   1.0000      -5.748888      -156.4352
  52   1.0000      -5.748387      -156.4216
  53   1.0000      -5.747695      -156.4027
  54   1.0000      -5.745901      -156.3539
  55   1.0000      -5.745885      -156.3535
  56   1.0000      -5.744853      -156.3254
  57   1.0000      -5.744648      -156.3198
  58   1.0000      -5.744385      -156.3127
  59   1.0000      -5.743888      -156.2991
  60   1.0000      -5.742246      -156.2544
  61   1.0000      -5.740530      -156.2078
  62   1.0000      -5.740190      -156.1985
  63   1.0000      -5.739872      -156.1898
  64   1.0000      -5.738007      -156.1391
  65   1.0000      -5.737529      -156.1261
  66   1.0000      -5.734258      -156.0371
  67   1.0000      -5.733578      -156.0186
  68   1.0000      -5.673504      -154.3839
  69   1.0000      -5.666936      -154.2052
  70   1.0000      -5.666798      -154.2014
  71   1.0000      -5.665860      -154.1759
  72   1.0000      -5.660178      -154.0213
  73   1.0000      -5.659240      -153.9957
  74   1.0000      -5.654910      -153.8779
  75   1.0000      -5.648658      -153.7078
  76   1.0000      -5.646863      -153.6590
  77   1.0000      -5.646741      -153.6556
  78   1.0000      -5.640682      -153.4908
  79   1.0000      -5.638586      -153.4337
  80   1.0000      -2.399746       -65.3004
  81   1.0000      -1.460747       -39.7490
  82   1.0000      -1.415370       -38.5142
  83   1.0000      -1.413564       -38.4650
  84   1.0000      -0.712544       -19.3893
  85   1.0000      -0.708021       -19.2662
  86   1.0000      -0.688397       -18.7322
  87   1.0000      -0.682179       -18.5630
  88   1.0000      -0.648600       -17.6493
  89   1.0000      -0.635310       -17.2877
  90   1.0000      -0.628482       -17.1019
  91   1.0000      -0.616589       -16.7782
  92   1.0000      -0.614087       -16.7102
  93   1.0000      -0.582587       -15.8530
  94   1.0000      -0.574918       -15.6443
  95   1.0000      -0.573383       -15.6025
  96   1.0000      -0.565056       -15.3760
  97   1.0000      -0.502609       -13.6767
  98   1.0000      -0.499020       -13.5790
  99   1.0000      -0.498253       -13.5581
 100   1.0000      -0.491293       -13.3688
 101   1.0000      -0.480614       -13.0782
 102   1.0000      -0.473463       -12.8836
 103   1.0000      -0.447966       -12.1898
 104   1.0000      -0.441011       -12.0005
 105   1.0000      -0.417946       -11.3729
 106   1.0000      -0.410163       -11.1611
 107   1.0000      -0.357169        -9.7191
 108   1.0000      -0.351257        -9.5582
 109   1.0000      -0.329731        -8.9724
 110   1.0000      -0.324882        -8.8405
 111   1.0000      -0.321860        -8.7583
 112   1.0000      -0.313769        -8.5381
 113   1.0000      -0.306118        -8.3299
 114   1.0000      -0.301855        -8.2139
 115   1.0000      -0.291416        -7.9298
 116   1.0000      -0.287006        -7.8098
 117   1.0000      -0.260118        -7.0782
 118   1.0000      -0.257682        -7.0119
 119   1.0000      -0.255549        -6.9538
 120   1.0000      -0.253169        -6.8891
 121   1.0000      -0.238653        -6.4941
 122   1.0000      -0.234828        -6.3900
 123   1.0000      -0.229450        -6.2437
 124   1.0000      -0.223833        -6.0908
 125   1.0000      -0.221444        -6.0258
 126   1.0000      -0.216992        -5.9046
 127   1.0000      -0.215991        -5.8774
 128   1.0000      -0.208142        -5.6638
 129   1.0000      -0.193920        -5.2768
 130   1.0000      -0.191765        -5.2182
 131   1.0000      -0.187024        -5.0892
 132   1.0000      -0.180007        -4.8982
 133   1.0000      -0.176430        -4.8009
 134   1.0000      -0.161749        -4.4014
 135   1.0000      -0.152971        -4.1626
 136   1.0000      -0.147265        -4.0073
 137   1.0000      -0.136751        -3.7212
 138   1.0000      -0.134472        -3.6592
 139   1.0000      -0.129311        -3.5187
 140   1.0000      -0.120750        -3.2858
 141   1.0000      -0.116074        -3.1585
 142   1.0000      -0.105679        -2.8757
 143   1.0000      -0.103008        -2.8030
 144   1.0000      -0.099870        -2.7176
 145   1.0000      -0.097082        -2.6417
 146   1.0000      -0.094157        -2.5621
 147   1.0000      -0.091877        -2.5001
 148   1.0000      -0.073719        -2.0060
 149   1.0000      -0.068518        -1.8645
 150   1.0000      -0.066421        -1.8074
 151   1.0000      -0.060171        -1.6373
 152   1.0000      -0.044990        -1.2242
 153   1.0000      -0.038542        -1.0488
 154   1.0000      -0.031477        -0.8565
 155   1.0000      -0.028685        -0.7806
 156   1.0000      -0.021423        -0.5830
 157   1.0000      -0.013907        -0.3784
 158   1.0000       0.020674         0.5626
 159   1.0000       0.040318         1.0971
 160   0.0000       0.132721         3.6115
 161   0.0000       0.137187         3.7330
 162   0.0000       0.148931         4.0526
 163   0.0000       0.158572         4.3150
 164   0.0000       0.159275         4.3341

MULLIKEN ATOMIC CHARGES AND SPIN POPULATIONS
--------------------------------------------
   0 V :    0.481722    1.197634
   1 S :   -0.278054   -0.011813
   2 S :   -0.252859   -0.013621
   3 S :   -0.320750   -0.028706
   4 S :   -0.286543   -0.029495
   5 O :   -0.484912   -0.156057
   6 C :   -0.067329    0.023893
   7 C :   -0.102738    0.001543
   8 C :   -0.083720    0.014968
   9 C :   -0.095872   -0.000347
  10 S :    0.095974    0.001820
  11 S :    0.116694   -0.000844
  12 S :    0.108538   -0.000476
  13 S :    0.088639    0.000986
  14 C :   -0.198846    0.001459
  15 C :   -0.207424   -0.000224
  16 C :   -0.197371   -0.000219
  17 C :   -0.186353   -0.000158
  18 S :    0.001817   -0.000084
  19 S :    0.011402   -0.000101
  20 S :    0.000654   -0.000076
  21 S :    0.007293   -0.000104
  22 C :   -0.324170   -0.000023
  23 C :   -0.277181   -0.000068
  24 C :   -0.153430    0.000035
  25 H :    0.153803    0.000004
  26 H :    0.113074   -0.000002
  27 H :    0.081553   -0.000007
  28 H :    0.091475   -0.000006
  29 H :    0.106749   -0.000022
  30 H :    0.132661    0.000003
  31 C :   -0.326537    0.000129
  32 C :   -0.284754    0.000122
  33 C :   -0.153936   -0.000151
  34 H :    0.134242   -0.000014
  35 H :    0.110204    0.000001
  36 H :    0.094096    0.000010
  37 H :    0.083435    0.000004
  38 H :    0.117266    0.000016
  39 H :    0.151489   -0.000009
Sum of atomic charges         :   -2.0000000

LOEWDIN ATOMIC CHARGES AND SPIN POPULATIONS
-------------------------------------------
   0 V :   -0.167210    1.149690
   1 S :    0.127501   -0.003914
   2 S :    0.179641   -0.000477
   3 S :    0.011742   -0.023262
   4 S :    0.050002   -0.022119
   5 O :   -0.353928   -0.141846
   6 C :   -0.561519    0.026363
   7 C :   -0.543768    0.000482
   8 C :   -0.554887    0.017756
   9 C :   -0.541180   -0.000628
  10 S :    0.459099    0.000332
  11 S :    0.494386   -0.000851
  12 S :    0.485455   -0.000783
  13 S :    0.449243   -0.000449
  14 C :   -0.462528    0.000310
  15 C :   -0.469935   -0.000434
  16 C :   -0.624929    0.000314
  17 C :   -0.623634   -0.000158
  18 S :    0.378880   -0.000061
  19 S :    0.337259   -0.000071
  20 S :    0.382907   -0.000078
  21 S :    0.331357   -0.000091
  22 C :   -0.279808    0.000008
  23 C :   -0.288600   -0.000060
  24 C :   -0.177319   -0.000004
  25 H :    0.067185    0.000000
  26 H :    0.052421   -0.000002
  27 H :    0.057552   -0.000003
  28 H :    0.060604   -0.000003
  29 H :    0.056304   -0.000010
  30 H :    0.058862   -0.000003
  31 C :   -0.281001    0.000048
  32 C :   -0.287235   -0.000009
  33 C :   -0.177131    0.000004
  34 H :    0.059256   -0.000003
  35 H :    0.055958    0.000004
  36 H :    0.060772    0.000000
  37 H :    0.057974   -0.000001
  38 H :    0.053809    0.000005
  39 H :    0.066443    0.000001

  Mayer bond orders larger than 0.100000
B(  0-V ,  1-S ) :   0.9145 B(  0-V ,  2-S ) :   0.9893 B(  0-V ,  3-S ) :   0.5685
B(  0-V ,  4-S ) :   0.6441 B(  0-V ,  5-O ) :   2.1095 B(  1-S ,  8-C ) :   1.0049
B(  2-S ,  6-C ) :   0.9810 B(  3-S ,  9-C ) :   1.2270 B(  4-S ,  7-C ) :   1.2299
B(  6-C ,  7-C ) :   1.6670 B(  6-C , 10-S ) :   0.9293 B(  7-C , 11-S ) :   0.9551
B(  8-C ,  9-C ) :   1.6969 B(  8-C , 13-S ) :   0.9138 B(  9-C , 12-S ) :   0.9387
B( 10-S , 14-C ) :   1.2247 B( 11-S , 14-C ) :   1.2541 B( 12-S , 15-C ) :   1.2576
B( 13-S , 15-C ) :   1.2300 B( 14-C , 16-C ) :   1.4285 B( 15-C , 17-C ) :   1.4204
B( 16-C , 18-S ) :   1.1063 B( 16-C , 19-S ) :   1.0789 B( 17-C , 20-S ) :   1.0998
B( 17-C , 21-S ) :   1.0680 B( 18-S , 32-C ) :   0.9742 B( 19-S , 31-C ) :   0.9976
B( 20-S , 23-C ) :   0.9747 B( 21-S , 22-C ) :   0.9997 B( 22-C , 24-C ) :   0.9056
B( 22-C , 25-H ) :   0.9730 B( 22-C , 26-H ) :   0.9625 B( 23-C , 24-C ) :   0.9207
B( 23-C , 29-H ) :   0.9680 B( 23-C , 30-H ) :   0.9555 B( 24-C , 27-H ) :   0.9624
B( 24-C , 28-H ) :   0.9717 B( 31-C , 33-C ) :   0.9045 B( 31-C , 38-H ) :   0.9642
B( 31-C , 39-H ) :   0.9712 B( 32-C , 33-C ) :   0.9155 B( 32-C , 34-H ) :   0.9581
B( 32-C , 35-H ) :   0.9679 B( 33-C , 36-H ) :   0.9721 B( 33-C , 37-H ) :   0.9629

FINAL SINGLE POINT ENERGY     -6337.653133680524

DIPOLE MOMENT
-------------
                                X             Y             Z
Electronic contribution:     -4.32633      -2.74596      12.36439
Nuclear contribution   :      5.59123       3.11895     -13.60329
                        -----------------------------------------
Total Dipole Moment    :      1.26490       0.37299      -1.23889
                        -----------------------------------------
Magnitude (a.u.)       :      1.80941
Magnitude (Debye)      :      4.59914

Rotational constants in cm-1:     0.010690     0.000804     0.000783
Rotational constants in MHz :   320.483724    24.114635    23.473827

                             ****ORCA TERMINATED NORMALLY****
TOTAL RUN TIME: 0 days 1 hours 7 minutes 10 seconds 404 msec
