                         Program Version 5.0.4 -  RELEASE  -
|  1> ! nofrozencore ReducedPop printbasis
|  2> ! B3LYP TZVP
|  3>
|  4> %basis
|  5> newgto V "CP(PPP)" end
|  6> end
|  7>
|  8> %pal
|  9> nprocs 6
| 10> end
| 11>
| 12> % sym SymThresh 1e-2 end
| 13> * xyz -2 2
| 14> V -1.0338805736281202 -0.04370867986245018 -0.4103549116180659
| 15> S 0.11004397032472711 -1.7214391477580233 -1.8231819095513482
| 16> S -0.8686152279515651 -1.7280954952893752 1.3953088663769821
| 17> S 0.1193496848591444 1.6521034727328436 -1.7980367584159955
| 18> S -0.7599852468233655 1.6315147278116644 1.3789172157868863
| 19> O -2.563808756916624 -0.03422429123521892 -0.8372057275724312
| 20> C -1.2412994426758974 -0.7020908521051233 2.788841621001954
| 21> C -1.1939387116574531 0.6472015788640559 2.781906877626678
| 22> C 0.7987698963417923 -0.6987971100305638 -3.0760889098153603
| 23> C 0.8046989632813196 0.6467828573353002 -3.063846361759211
| 24> S -1.639282118153401 -1.4739651451237927 4.349164321119368
| 25> S -1.51935399823701 1.4651348126730943 4.333707169193552
| 26> S 1.6250521345476465 1.4568412583556678 -4.441727887529335
| 27> S 1.6073424622050598 -1.4878618099067848 -4.473820188057906
| 28> C -1.7756022429345657 0.00884524205039757 5.269934715625499
| 29> C 2.1618014040162308 -0.00961041501990877 -5.2669413536118475
| 30> C -2.0429660178434843 0.029928060210242236 6.622860705719153
| 31> C 2.9172606894035242 -0.0007764751630165417 -6.407426782826409
| 32> S -2.4039940882240782 -1.449078818109289 7.5598160693255405
| 33> S -2.217263681840217 1.5521466087060218 7.543224395932801
| 34> S 3.441268353631524 -1.5065858521293198 -7.203778924944875
| 35> S 3.4731693691049483 1.5178364643922606 -7.157756037345317
| 36> C 5.292829085024694 1.2795270606758644 -6.9552548661457285
| 37> C 5.266176876515287 -1.3131111577232062 -7.000628263186992
| 38> C 5.819520888931769 -0.011132726866862574 -7.617262111085144
| 39> H 5.511762360417001 1.2778853750156407 -5.884947862005706
| 40> H 5.758872851680807 2.1644001517455767 -7.396546063859569
| 41> H 6.913599480255049 -0.024461377115004516 -7.516532478560094
| 42> H 5.590717230636807 0.01049124317519215 -8.68731568231766
| 43> H 5.711170367902165 -2.1909403425762797 -7.476262621817134
| 44> H 5.489626134681971 -1.3551763437605315 -5.932127743434941
| 45> C -3.9299797766898146 1.6095653442994997 8.006600071869714
| 46> C -4.112868621296454 -1.2833854748047626 8.013852465090505
| 47> C -4.333088216460737 0.1861139502033875 8.90702328429834
| 48> H -4.614669689616084 -1.1020127553491095 7.035282842912533
| 49> H -4.51307210667684 -2.2545082882010523 8.414715258666641
| 50> H -3.7631575048627464 0.15080255521712718 9.840399530966067
| 51> H -5.3977082390513775 0.25470294549093614 9.161716127987654
| 52> H -4.201240500399313 2.628368985385364 8.400023933414465
| 53> H -4.454037471564992 1.4861184356223578 7.029752011003965
| 54> *
| 55>
| 56> % eprnmr
| 57> gtensor true
| 58> Nuclei = all H {aiso,adip,aorb,fgrad,rho}
| 59> Nuclei = all V {aiso,adip,aorb,fgrad,rho}
| 60> end
| 61>
| 62>                          ****END OF INPUT****

CARTESIAN COORDINATES (ANGSTROEM)
---------------------------------
  V     -1.031763   -0.043742   -0.407159
  S      0.112162   -1.721473   -1.819986
  S     -0.866498   -1.728129    1.398505
  S      0.121467    1.652070   -1.794841
  S     -0.757868    1.631481    1.382113
  O     -2.561691   -0.034258   -0.834010
  C     -1.239182   -0.702124    2.792038
  C     -1.191821    0.647168    2.785103
  C      0.800888   -0.698831   -3.072893
  C      0.806817    0.646749   -3.060650
  S     -1.637165   -1.473999    4.352360
  S     -1.517236    1.465101    4.336903
  S      1.627170    1.456808   -4.438532
  S      1.609460   -1.487895   -4.470624
  C     -1.773485    0.008812    5.273131
  C      2.163919   -0.009644   -5.263745
  C     -2.040848    0.029895    6.626057
  C      2.919378   -0.000810   -6.404231
  S     -2.401876   -1.449112    7.563012
  S     -2.215146    1.552113    7.546420
  S      3.443386   -1.506619   -7.200583
  S      3.475287    1.517803   -7.154560
  C      5.294947    1.279494   -6.952059
  C      5.268294   -1.313145   -6.997432
  C      5.821639   -0.011166   -7.614066
  H      5.513880    1.277852   -5.881752
  H      5.760990    2.164367   -7.393350
  H      6.915717   -0.024495   -7.513337
  H      5.592835    0.010458   -8.684120
  H      5.713288   -2.190974   -7.473067
  H      5.491744   -1.355210   -5.928932
  C     -3.927862    1.609532    8.009796
  C     -4.110751   -1.283419    8.017048
  C     -4.330971    0.186081    8.910219
  H     -4.612552   -1.102046    7.038479
  H     -4.510954   -2.254542    8.417911
  H     -3.761040    0.150769    9.843595
  H     -5.395591    0.254670    9.164912
  H     -4.199123    2.628336    8.403220
  H     -4.451920    1.486085    7.032948

 Total Charge           Charge          ....   -2
 Multiplicity           Mult            ....    2
 Number of Electrons    NEL             ....  321
 Basis Dimension        Dim             ....  681

ORBITAL ENERGIES
----------------
                 SPIN UP ORBITALS
  NO   OCC          E(Eh)            E(eV)
   0   1.0000    -196.675897     -5351.8232
   1   1.0000     -88.734945     -2414.6006
   2   1.0000     -88.734758     -2414.5955
   3   1.0000     -88.733205     -2414.5533
   4   1.0000     -88.733118     -2414.5509
   5   1.0000     -88.730794     -2414.4877
   6   1.0000     -88.730730     -2414.4859
   7   1.0000     -88.727921     -2414.4095
   8   1.0000     -88.727850     -2414.4075
   9   1.0000     -88.641609     -2412.0608
  10   1.0000     -88.641419     -2412.0556
  11   1.0000     -88.640666     -2412.0351
  12   1.0000     -88.640168     -2412.0216
  13   1.0000     -22.051301      -600.0464
  14   1.0000     -18.891253      -514.0571
  15   1.0000     -18.557753      -504.9821
  16   1.0000     -18.552576      -504.8412
  17   1.0000     -18.552474      -504.8385
  18   1.0000     -10.079819      -274.2858
  19   1.0000     -10.078341      -274.2456
  20   1.0000     -10.078298      -274.2444
  21   1.0000     -10.076533      -274.1964
  22   1.0000     -10.069187      -273.9965
  23   1.0000     -10.064372      -273.8655
  24   1.0000     -10.064333      -273.8644
  25   1.0000     -10.052783      -273.5501
  26   1.0000     -10.049833      -273.4699
  27   1.0000     -10.048857      -273.4433
  28   1.0000     -10.021270      -272.6926
  29   1.0000     -10.020367      -272.6681
  30   1.0000     -10.018667      -272.6218
  31   1.0000     -10.017872      -272.6002
  32   1.0000      -7.788547      -211.9371
  33   1.0000      -7.788410      -211.9334
  34   1.0000      -7.786740      -211.8880
  35   1.0000      -7.786651      -211.8856
  36   1.0000      -7.784057      -211.8150
  37   1.0000      -7.784023      -211.8140
  38   1.0000      -7.782607      -211.7755
  39   1.0000      -7.782554      -211.7741
  40   1.0000      -7.695702      -209.4107
  41   1.0000      -7.695391      -209.4022
  42   1.0000      -7.694947      -209.3901
  43   1.0000      -7.694527      -209.3787
  44   1.0000      -5.753408      -156.5582
  45   1.0000      -5.753268      -156.5544
  46   1.0000      -5.751739      -156.5128
  47   1.0000      -5.751648      -156.5103
  48   1.0000      -5.749005      -156.4384
  49   1.0000      -5.748974      -156.4375
  50   1.0000      -5.748972      -156.4375
  51   1.0000      -5.748830      -156.4336
  52   1.0000      -5.748281      -156.4187
  53   1.0000      -5.748198      -156.4164
  54   1.0000      -5.747611      -156.4004
  55   1.0000      -5.747556      -156.3989
  56   1.0000      -5.744578      -156.3179
  57   1.0000      -5.744540      -156.3169
  58   1.0000      -5.744471      -156.3150
  59   1.0000      -5.744328      -156.3111
  60   1.0000      -5.743840      -156.2978
  61   1.0000      -5.743776      -156.2961
  62   1.0000      -5.741544      -156.2353
  63   1.0000      -5.741453      -156.2329
  64   1.0000      -5.739870      -156.1898
  65   1.0000      -5.739838      -156.1889
  66   1.0000      -5.737434      -156.1235
  67   1.0000      -5.737390      -156.1223
  68   1.0000      -5.661095      -154.0462
  69   1.0000      -5.660822      -154.0388
  70   1.0000      -5.660265      -154.0236
  71   1.0000      -5.659832      -154.0119
  72   1.0000      -5.654320      -153.8619
  73   1.0000      -5.654038      -153.8542
  74   1.0000      -5.653616      -153.8427
  75   1.0000      -5.653200      -153.8314
  76   1.0000      -5.652993      -153.8258
  77   1.0000      -5.652667      -153.8169
  78   1.0000      -5.652272      -153.8062
  79   1.0000      -5.651838      -153.7943
  80   1.0000      -2.444942       -66.5303
  81   1.0000      -1.486290       -40.4440
  82   1.0000      -1.474586       -40.1255
  83   1.0000      -1.473731       -40.1023
  84   1.0000      -0.711197       -19.3527
  85   1.0000      -0.709551       -19.3079
  86   1.0000      -0.684837       -18.6354
  87   1.0000      -0.676836       -18.4176
  88   1.0000      -0.650845       -17.7104
  89   1.0000      -0.630415       -17.1545
  90   1.0000      -0.625238       -17.0136
  91   1.0000      -0.617956       -16.8154
  92   1.0000      -0.612645       -16.6709
  93   1.0000      -0.581289       -15.8177
  94   1.0000      -0.575215       -15.6524
  95   1.0000      -0.573391       -15.6028
  96   1.0000      -0.564611       -15.3638
  97   1.0000      -0.501599       -13.6492
  98   1.0000      -0.496803       -13.5187
  99   1.0000      -0.495462       -13.4822
 100   1.0000      -0.486926       -13.2499
 101   1.0000      -0.478921       -13.0321
 102   1.0000      -0.469088       -12.7645
 103   1.0000      -0.452704       -12.3187
 104   1.0000      -0.446991       -12.1632
 105   1.0000      -0.416857       -11.3433
 106   1.0000      -0.411646       -11.2014
 107   1.0000      -0.354652        -9.6506
 108   1.0000      -0.345132        -9.3915
 109   1.0000      -0.325745        -8.8640
 110   1.0000      -0.323145        -8.7932
 111   1.0000      -0.317105        -8.6289
 112   1.0000      -0.316494        -8.6122
 113   1.0000      -0.303452        -8.2573
 114   1.0000      -0.291449        -7.9307
 115   1.0000      -0.289176        -7.8689
 116   1.0000      -0.281537        -7.6610
 117   1.0000      -0.262967        -7.1557
 118   1.0000      -0.257441        -7.0053
 119   1.0000      -0.256931        -6.9915
 120   1.0000      -0.252205        -6.8629
 121   1.0000      -0.236853        -6.4451
 122   1.0000      -0.234382        -6.3779
 123   1.0000      -0.232411        -6.3242
 124   1.0000      -0.229236        -6.2378
 125   1.0000      -0.223115        -6.0713
 126   1.0000      -0.220202        -5.9920
 127   1.0000      -0.216353        -5.8873
 128   1.0000      -0.212619        -5.7857
 129   1.0000      -0.193088        -5.2542
 130   1.0000      -0.187786        -5.1099
 131   1.0000      -0.184635        -5.0242
 132   1.0000      -0.183949        -5.0055
 133   1.0000      -0.178181        -4.8486
 134   1.0000      -0.160055        -4.3553
 135   1.0000      -0.149884        -4.0786
 136   1.0000      -0.139914        -3.8073
 137   1.0000      -0.136532        -3.7152
 138   1.0000      -0.135482        -3.6866
 139   1.0000      -0.134957        -3.6724
 140   1.0000      -0.126066        -3.4304
 141   1.0000      -0.122818        -3.3421
 142   1.0000      -0.114770        -3.1231
 143   1.0000      -0.110175        -2.9980
 144   1.0000      -0.103538        -2.8174
 145   1.0000      -0.099279        -2.7015
 146   1.0000      -0.096734        -2.6323
 147   1.0000      -0.089728        -2.4416
 148   1.0000      -0.075682        -2.0594
 149   1.0000      -0.067258        -1.8302
 150   1.0000      -0.059688        -1.6242
 151   1.0000      -0.053344        -1.4516
 152   1.0000      -0.046716        -1.2712
 153   1.0000      -0.038611        -1.0506
 154   1.0000      -0.038027        -1.0348
 155   1.0000      -0.032482        -0.8839
 156   1.0000      -0.025905        -0.7049
 157   1.0000      -0.020088        -0.5466
 158   1.0000      -0.016366        -0.4453
 159   1.0000       0.018637         0.5071
 160   1.0000       0.039638         1.0786
 161   0.0000       0.135352         3.6831
 162   0.0000       0.137066         3.7297
 163   0.0000       0.162466         4.4209
 164   0.0000       0.163005         4.4356
 165   0.0000       0.170721         4.6456

                 SPIN DOWN ORBITALS
  NO   OCC          E(Eh)            E(eV)
   0   1.0000    -196.676044     -5351.8272
   1   1.0000     -88.734954     -2414.6008
   2   1.0000     -88.734766     -2414.5957
   3   1.0000     -88.733205     -2414.5533
   4   1.0000     -88.733119     -2414.5509
   5   1.0000     -88.730802     -2414.4879
   6   1.0000     -88.730738     -2414.4861
   7   1.0000     -88.727922     -2414.4095
   8   1.0000     -88.727851     -2414.4076
   9   1.0000     -88.641750     -2412.0646
  10   1.0000     -88.641561     -2412.0595
  11   1.0000     -88.640803     -2412.0389
  12   1.0000     -88.640308     -2412.0254
  13   1.0000     -22.036382      -599.6404
  14   1.0000     -18.895029      -514.1599
  15   1.0000     -18.552494      -504.8390
  16   1.0000     -18.536555      -504.4053
  17   1.0000     -18.536367      -504.4002
  18   1.0000     -10.079811      -274.2856
  19   1.0000     -10.078340      -274.2456
  20   1.0000     -10.078297      -274.2444
  21   1.0000     -10.076532      -274.1964
  22   1.0000     -10.069187      -273.9965
  23   1.0000     -10.064373      -273.8655
  24   1.0000     -10.064334      -273.8644
  25   1.0000     -10.052783      -273.5501
  26   1.0000     -10.049821      -273.4695
  27   1.0000     -10.048852      -273.4432
  28   1.0000     -10.021028      -272.6860
  29   1.0000     -10.020140      -272.6619
  30   1.0000     -10.018452      -272.6159
  31   1.0000     -10.017660      -272.5944
  32   1.0000      -7.788556      -211.9374
  33   1.0000      -7.788419      -211.9337
  34   1.0000      -7.786741      -211.8880
  35   1.0000      -7.786652      -211.8856
  36   1.0000      -7.784066      -211.8152
  37   1.0000      -7.784032      -211.8143
  38   1.0000      -7.782608      -211.7755
  39   1.0000      -7.782554      -211.7741
  40   1.0000      -7.695832      -209.4142
  41   1.0000      -7.695523      -209.4058
  42   1.0000      -7.695074      -209.3936
  43   1.0000      -7.694657      -209.3823
  44   1.0000      -5.753418      -156.5585
  45   1.0000      -5.753279      -156.5547
  46   1.0000      -5.751739      -156.5128
  47   1.0000      -5.751649      -156.5103
  48   1.0000      -5.749016      -156.4387
  49   1.0000      -5.748987      -156.4379
  50   1.0000      -5.748983      -156.4378
  51   1.0000      -5.748843      -156.4340
  52   1.0000      -5.748282      -156.4187
  53   1.0000      -5.748199      -156.4164
  54   1.0000      -5.747612      -156.4005
  55   1.0000      -5.747557      -156.3990
  56   1.0000      -5.744592      -156.3183
  57   1.0000      -5.744554      -156.3173
  58   1.0000      -5.744479      -156.3152
  59   1.0000      -5.744338      -156.3114
  60   1.0000      -5.743841      -156.2979
  61   1.0000      -5.743777      -156.2961
  62   1.0000      -5.741544      -156.2354
  63   1.0000      -5.741453      -156.2329
  64   1.0000      -5.739876      -156.1900
  65   1.0000      -5.739844      -156.1891
  66   1.0000      -5.737435      -156.1235
  67   1.0000      -5.737390      -156.1223
  68   1.0000      -5.661235      -154.0500
  69   1.0000      -5.660965      -154.0427
  70   1.0000      -5.660408      -154.0275
  71   1.0000      -5.659974      -154.0157
  72   1.0000      -5.654708      -153.8724
  73   1.0000      -5.654421      -153.8646
  74   1.0000      -5.653968      -153.8523
  75   1.0000      -5.653561      -153.8412
  76   1.0000      -5.653079      -153.8281
  77   1.0000      -5.652761      -153.8194
  78   1.0000      -5.652378      -153.8090
  79   1.0000      -5.651945      -153.7972
  80   1.0000      -2.400093       -65.3098
  81   1.0000      -1.467026       -39.9198
  82   1.0000      -1.412235       -38.4289
  83   1.0000      -1.412061       -38.4241
  84   1.0000      -0.711145       -19.3512
  85   1.0000      -0.709534       -19.3074
  86   1.0000      -0.684795       -18.6342
  87   1.0000      -0.676784       -18.4162
  88   1.0000      -0.658945       -17.9308
  89   1.0000      -0.630356       -17.1529
  90   1.0000      -0.625237       -17.0136
  91   1.0000      -0.617958       -16.8155
  92   1.0000      -0.612546       -16.6682
  93   1.0000      -0.581255       -15.8168
  94   1.0000      -0.575193       -15.6518
  95   1.0000      -0.573328       -15.6010
  96   1.0000      -0.564551       -15.3622
  97   1.0000      -0.501607       -13.6494
  98   1.0000      -0.496830       -13.5194
  99   1.0000      -0.495518       -13.4837
 100   1.0000      -0.487115       -13.2551
 101   1.0000      -0.479131       -13.0378
 102   1.0000      -0.469162       -12.7665
 103   1.0000      -0.452737       -12.3196
 104   1.0000      -0.447034       -12.1644
 105   1.0000      -0.416853       -11.3431
 106   1.0000      -0.411752       -11.2043
 107   1.0000      -0.354647        -9.6504
 108   1.0000      -0.345109        -9.3909
 109   1.0000      -0.325733        -8.8637
 110   1.0000      -0.323082        -8.7915
 111   1.0000      -0.317081        -8.6282
 112   1.0000      -0.316506        -8.6126
 113   1.0000      -0.303416        -8.2564
 114   1.0000      -0.291443        -7.9306
 115   1.0000      -0.289144        -7.8680
 116   1.0000      -0.281525        -7.6607
 117   1.0000      -0.262864        -7.1529
 118   1.0000      -0.257372        -7.0034
 119   1.0000      -0.256866        -6.9897
 120   1.0000      -0.252144        -6.8612
 121   1.0000      -0.236847        -6.4449
 122   1.0000      -0.234340        -6.3767
 123   1.0000      -0.232372        -6.3232
 124   1.0000      -0.229214        -6.2372
 125   1.0000      -0.222741        -6.0611
 126   1.0000      -0.220084        -5.9888
 127   1.0000      -0.216198        -5.8831
 128   1.0000      -0.212458        -5.7813
 129   1.0000      -0.191072        -5.1993
 130   1.0000      -0.187708        -5.1078
 131   1.0000      -0.184385        -5.0174
 132   1.0000      -0.183855        -5.0029
 133   1.0000      -0.178036        -4.8446
 134   1.0000      -0.159438        -4.3385
 135   1.0000      -0.149734        -4.0745
 136   1.0000      -0.139826        -3.8049
 137   1.0000      -0.135745        -3.6938
 138   1.0000      -0.135261        -3.6806
 139   1.0000      -0.134727        -3.6661
 140   1.0000      -0.125506        -3.4152
 141   1.0000      -0.122473        -3.3327
 142   1.0000      -0.116502        -3.1702
 143   1.0000      -0.111860        -3.0439
 144   1.0000      -0.103684        -2.8214
 145   1.0000      -0.099502        -2.7076
 146   1.0000      -0.096776        -2.6334
 147   1.0000      -0.089863        -2.4453
 148   1.0000      -0.071872        -1.9557
 149   1.0000      -0.067248        -1.8299
 150   1.0000      -0.059677        -1.6239
 151   1.0000      -0.050772        -1.3816
 152   1.0000      -0.045788        -1.2460
 153   1.0000      -0.038667        -1.0522
 154   1.0000      -0.037449        -1.0190
 155   1.0000      -0.032479        -0.8838
 156   1.0000      -0.026946        -0.7332
 157   1.0000      -0.016579        -0.4511
 158   1.0000       0.018896         0.5142
 159   1.0000       0.038566         1.0494
 160   0.0000       0.135317         3.6822
 161   0.0000       0.137057         3.7295
 162   0.0000       0.154761         4.2113
 163   0.0000       0.162709         4.4275
 164   0.0000       0.164242         4.4692

MULLIKEN ATOMIC CHARGES AND SPIN POPULATIONS
--------------------------------------------
   0 V :    0.473640    1.210090
   1 S :   -0.290896   -0.022546
   2 S :   -0.290445   -0.025313
   3 S :   -0.289072   -0.023476
   4 S :   -0.286054   -0.025761
   5 O :   -0.467289   -0.146471
   6 C :   -0.082013    0.009930
   7 C :   -0.088296    0.008305
   8 C :   -0.083871    0.007758
   9 C :   -0.084497    0.007409
  10 S :    0.119581   -0.000584
  11 S :    0.120394   -0.000619
  12 S :    0.100875   -0.000395
  13 S :    0.099972   -0.000349
  14 C :   -0.193629    0.001422
  15 C :   -0.210772    0.001003
  16 C :   -0.236863    0.000130
  17 C :   -0.192820   -0.000403
  18 S :    0.014439   -0.000094
  19 S :    0.014660   -0.000092
  20 S :    0.008439   -0.000068
  21 S :    0.008515   -0.000071
  22 C :   -0.302630   -0.000000
  23 C :   -0.301925   -0.000001
  24 C :   -0.158857   -0.000012
  25 H :    0.143569   -0.000001
  26 H :    0.115346   -0.000004
  27 H :    0.083270   -0.000000
  28 H :    0.092709   -0.000001
  29 H :    0.115015   -0.000005
  30 H :    0.143124   -0.000001
  31 C :   -0.323107    0.000175
  32 C :   -0.323803    0.000170
  33 C :   -0.176494   -0.000195
  34 H :    0.142126   -0.000020
  35 H :    0.131916    0.000036
  36 H :    0.101077    0.000013
  37 H :    0.080787    0.000024
  38 H :    0.132052    0.000038
  39 H :    0.141824   -0.000021
Sum of atomic charges         :   -2.0000000

LOEWDIN ATOMIC CHARGES AND SPIN POPULATIONS
-------------------------------------------
   0 V :   -0.156643    1.163468
   1 S :    0.080373   -0.014548
   2 S :    0.075102   -0.016162
   3 S :    0.081637   -0.015333
   4 S :    0.079423   -0.016364
   5 O :   -0.318411   -0.131400
   6 C :   -0.548989    0.009267
   7 C :   -0.551137    0.008154
   8 C :   -0.552177    0.008139
   9 C :   -0.552205    0.007677
  10 S :    0.493530   -0.000890
  11 S :    0.494215   -0.000933
  12 S :    0.472051   -0.000825
  13 S :    0.471265   -0.000832
  14 C :   -0.467641    0.000267
  15 C :   -0.465260   -0.000078
  16 C :   -0.628426    0.000494
  17 C :   -0.622183    0.000087
  18 S :    0.370141   -0.000067
  19 S :    0.371264   -0.000064
  20 S :    0.359909   -0.000072
  21 S :    0.359508   -0.000074
  22 C :   -0.285125   -0.000007
  23 C :   -0.285234   -0.000008
  24 C :   -0.174898   -0.000002
  25 H :    0.062391   -0.000002
  26 H :    0.053976   -0.000002
  27 H :    0.057317   -0.000001
  28 H :    0.059857   -0.000001
  29 H :    0.053919   -0.000002
  30 H :    0.062215   -0.000002
  31 C :   -0.319179    0.000045
  32 C :   -0.318457    0.000040
  33 C :   -0.171177    0.000003
  34 H :    0.062368   -0.000002
  35 H :    0.065318    0.000014
  36 H :    0.055430    0.000003
  37 H :    0.047782    0.000004
  38 H :    0.065710    0.000014
  39 H :    0.062444   -0.000002

  Mayer bond orders larger than 0.100000
B(  0-V ,  1-S ) :   0.7726 B(  0-V ,  2-S ) :   0.7693 B(  0-V ,  3-S ) :   0.7659
B(  0-V ,  4-S ) :   0.7763 B(  0-V ,  5-O ) :   2.1492 B(  1-S ,  8-C ) :   1.1040
B(  2-S ,  6-C ) :   1.0974 B(  3-S ,  9-C ) :   1.1066 B(  4-S ,  7-C ) :   1.0985
B(  6-C ,  7-C ) :   1.6783 B(  6-C , 10-S ) :   0.9469 B(  7-C , 11-S ) :   0.9499
B(  8-C ,  9-C ) :   1.6979 B(  8-C , 13-S ) :   0.9332 B(  9-C , 12-S ) :   0.9351
B( 10-S , 14-C ) :   1.2642 B( 11-S , 14-C ) :   1.2640 B( 12-S , 15-C ) :   1.2473
B( 13-S , 15-C ) :   1.2474 B( 14-C , 16-C ) :   1.4174 B( 15-C , 17-C ) :   1.4525
B( 16-C , 18-S ) :   1.0962 B( 16-C , 19-S ) :   1.0993 B( 17-C , 20-S ) :   1.0886
B( 17-C , 21-S ) :   1.0893 B( 18-S , 32-C ) :   0.9827 B( 19-S , 31-C ) :   0.9823
B( 20-S , 23-C ) :   0.9909 B( 21-S , 22-C ) :   0.9902 B( 22-C , 24-C ) :   0.9119
B( 22-C , 25-H ) :   0.9664 B( 22-C , 26-H ) :   0.9640 B( 23-C , 24-C ) :   0.9125
B( 23-C , 29-H ) :   0.9641 B( 23-C , 30-H ) :   0.9662 B( 24-C , 27-H ) :   0.9628
B( 24-C , 28-H ) :   0.9717 B( 31-C , 33-C ) :   0.8889 B( 31-C , 38-H ) :   0.9401
B( 31-C , 39-H ) :   0.9763 B( 32-C , 33-C ) :   0.8888 B( 32-C , 34-H ) :   0.9759
B( 32-C , 35-H ) :   0.9405 B( 33-C , 36-H ) :   0.9634 B( 33-C , 37-H ) :   0.9596

FINAL SINGLE POINT ENERGY     -6337.657629439777

DIPOLE MOMENT
-------------
                                X             Y             Z
Electronic contribution:    -10.96718      -1.06544      -7.91525
Nuclear contribution   :     12.26291       1.18504       8.47097
                        -----------------------------------------
Total Dipole Moment    :      1.29573       0.11961       0.55572
                        -----------------------------------------
Magnitude (a.u.)       :      1.41494
Magnitude (Debye)      :      3.59648

Rotational constants in cm-1:     0.010699     0.000804     0.000783
Rotational constants in MHz :   320.736208    24.116847    23.471017

                             ****ORCA TERMINATED NORMALLY****
TOTAL RUN TIME: 0 days 1 hours 6 minutes 0 seconds 119 msec
