                         Program Version 5.0.4 -  RELEASE  -
|  1> ! nofrozencore ReducedPop printbasis
|  2> ! B3LYP TZVP
|  3>
|  4> %basis
|  5> newgto V "CP(PPP)" end
|  6> end
|  7>
|  8> %pal
|  9> nprocs 6
| 10> end
| 11>
| 12> % sym SymThresh 1e-2 end
| 13> * xyz -2 2
| 14> V -0.7509500904489986 -0.4578943414550544 0.6821871320811338
| 15> S 1.2412611741803254 -1.8401919366513666 1.1714147585440315
| 16> S 0.41274516023062596 1.3315856250076477 1.935429866414484
| 17> S -0.9272221441895998 -1.767110965573858 -1.412061992999269
| 18> S -1.667958222879296 1.3674282543243568 -0.7006805935451497
| 19> O -1.9151126191294314 -0.9544724147063586 1.6425799187743717
| 20> C -0.5665377947146979 2.7074530906595315 1.4443562885015442
| 21> C -1.397891138959113 2.722230494052097 0.3854293152401201
| 22> C 1.1406839093417425 -3.0464665639368045 -0.104366035652984
| 23> C 0.27764797979151207 -3.0143039431042666 -1.1362504550796715
| 24> S -0.4141226823104536 4.246828504964347 2.358151906150085
| 25> S -2.21883001450724 4.278379607221398 0.03156710561443239
| 26> S 0.4177842511557124 -4.3411756927767655 -2.3385064355148604
| 27> S 2.303470987410097 -4.415756052309786 -0.07759649345453778
| 28> C -1.5038650228490962 5.209622037975673 1.3525490292966378
| 29> C 1.7947694632647664 -5.163106347882696 -1.5978563646121968
| 30> C -1.775859709813005 6.531210353096345 1.576986341546426
| 31> C 2.3979808005276304 -6.265968006823324 -2.1358954579523295
| 32> S -1.0773212977463342 7.419321552870601 2.9551363213707935
| 33> S -2.8799187301859543 7.4538600553413135 0.5255572488343242
| 34> S 3.7868640531369926 -7.051634851971537 -1.3571832312304846
| 35> S 1.8552008484240214 -6.976481194047665 -3.6854257111609314
| 36> C 3.4069259583692513 -6.669568851656164 -4.6596550340819896
| 37> C 5.04657530082462 -6.786395247041414 -2.6799124058285173
| 38> C 4.648483198160523 -7.336535703104435 -4.042981779575961
| 39> H 3.8578389731740037 -5.632803141507875 -4.835247776660959
| 40> H 2.955506209976136 -7.063369058773949 -5.6092239863886055
| 41> H 5.493068724913677 -7.188988239902715 -4.730592061345246
| 42> H 4.6555508123070295 -8.423886464590936 -3.7488116910302325
| 43> H 6.045407624864798 -7.286582237215655 -2.5638559429066694
| 44> H 5.107105856462669 -5.678806362183878 -2.4490891113862343
| 45> C -4.183349786870395 7.855218976920492 1.7772008532094985
| 46> C -2.652043419347691 7.818867826582562 3.8438663918912006
| 47> C -3.6524337595892957 8.609798182541633 2.997867516605457
| 48> H -3.092726851769094 6.881778092584278 4.191505524542168
| 49> H -2.3516662019667964 8.400605454596873 4.7189728467095815
| 50> H -3.1902688166831834 9.547050291905517 2.6721826390895638
| 51> H -4.5078947660043385 8.871851382780367 3.636160948614591
| 52> H -4.9191037742327515 8.463636149418832 1.2452669416156625
| 53> H -4.6642788871648495 6.921044675187335 2.0759044264260478
| 54> *
| 55>
| 56> % eprnmr
| 57> gtensor true
| 58> Nuclei = all H {aiso,adip,aorb,fgrad,rho}
| 59> Nuclei = all V {aiso,adip,aorb,fgrad,rho}
| 60> end
| 61>
| 62>                          ****END OF INPUT****

CARTESIAN COORDINATES (ANGSTROEM)
---------------------------------
  V     -0.749394   -0.454606    0.680979
  S      1.242817   -1.836903    1.170206
  S      0.414301    1.334874    1.934222
  S     -0.925666   -1.763822   -1.413270
  S     -1.666402    1.370717   -0.701889
  O     -1.913556   -0.951184    1.641372
  C     -0.564982    2.710742    1.443148
  C     -1.396335    2.725519    0.384221
  C      1.142240   -3.043178   -0.105574
  C      0.279204   -3.011015   -1.137459
  S     -0.412566    4.250117    2.356944
  S     -2.217274    4.281668    0.030359
  S      0.419340   -4.337887   -2.339715
  S      2.305027   -4.412467   -0.078805
  C     -1.502309    5.212911    1.351341
  C      1.796326   -5.159818   -1.599065
  C     -1.774303    6.534499    1.575778
  C      2.399537   -6.262679   -2.137104
  S     -1.075765    7.422610    2.953928
  S     -2.878363    7.457149    0.524349
  S      3.788420   -7.048346   -1.358392
  S      1.856757   -6.973193   -3.686634
  C      3.408482   -6.666280   -4.660863
  C      5.048132   -6.783107   -2.681121
  C      4.650039   -7.333247   -4.044190
  H      3.859395   -5.629514   -4.836456
  H      2.957062   -7.060080   -5.610432
  H      5.494625   -7.185700   -4.731800
  H      4.657107   -8.420598   -3.750020
  H      6.046964   -7.283294   -2.565064
  H      5.108662   -5.675518   -2.450297
  C     -4.181794    7.858508    1.775992
  C     -2.650487    7.822157    3.842658
  C     -3.650878    8.613087    2.996659
  H     -3.091171    6.885067    4.190297
  H     -2.350110    8.403894    4.717764
  H     -3.188713    9.550339    2.670974
  H     -4.506339    8.875140    3.634953
  H     -4.917548    8.466925    1.244059
  H     -4.662723    6.924333    2.074696

 Total Charge           Charge          ....   -2
 Multiplicity           Mult            ....    2
 Number of Electrons    NEL             ....  321
 Basis Dimension        Dim             ....  681

ORBITAL ENERGIES
----------------
                 SPIN UP ORBITALS
  NO   OCC          E(Eh)            E(eV)
   0   1.0000    -196.674954     -5351.7976
   1   1.0000     -88.738469     -2414.6965
   2   1.0000     -88.733231     -2414.5540
   3   1.0000     -88.733188     -2414.5528
   4   1.0000     -88.731843     -2414.5162
   5   1.0000     -88.730996     -2414.4931
   6   1.0000     -88.730908     -2414.4907
   7   1.0000     -88.730272     -2414.4734
   8   1.0000     -88.730080     -2414.4682
   9   1.0000     -88.640132     -2412.0206
  10   1.0000     -88.639831     -2412.0124
  11   1.0000     -88.639719     -2412.0094
  12   1.0000     -88.639562     -2412.0051
  13   1.0000     -22.050351      -600.0206
  14   1.0000     -18.890286      -514.0308
  15   1.0000     -18.556799      -504.9562
  16   1.0000     -18.551626      -504.8154
  17   1.0000     -18.551527      -504.8127
  18   1.0000     -10.076748      -274.2022
  19   1.0000     -10.075836      -274.1774
  20   1.0000     -10.074082      -274.1297
  21   1.0000     -10.068011      -273.9645
  22   1.0000     -10.063493      -273.8416
  23   1.0000     -10.063426      -273.8397
  24   1.0000     -10.056751      -273.6581
  25   1.0000     -10.051303      -273.5099
  26   1.0000     -10.049343      -273.4565
  27   1.0000     -10.048307      -273.4283
  28   1.0000     -10.018528      -272.6180
  29   1.0000     -10.018248      -272.6104
  30   1.0000     -10.017735      -272.5964
  31   1.0000     -10.017310      -272.5849
  32   1.0000      -7.791457      -212.0163
  33   1.0000      -7.786658      -211.8857
  34   1.0000      -7.786634      -211.8851
  35   1.0000      -7.785715      -211.8601
  36   1.0000      -7.784227      -211.8196
  37   1.0000      -7.784190      -211.8186
  38   1.0000      -7.783518      -211.8003
  39   1.0000      -7.783380      -211.7965
  40   1.0000      -7.694390      -209.3750
  41   1.0000      -7.694121      -209.3677
  42   1.0000      -7.694080      -209.3666
  43   1.0000      -7.693800      -209.3590
  44   1.0000      -5.756559      -156.6439
  45   1.0000      -5.753055      -156.5486
  46   1.0000      -5.751648      -156.5103
  47   1.0000      -5.751630      -156.5098
  48   1.0000      -5.750644      -156.4830
  49   1.0000      -5.749170      -156.4429
  50   1.0000      -5.749135      -156.4419
  51   1.0000      -5.748464      -156.4236
  52   1.0000      -5.748320      -156.4197
  53   1.0000      -5.748233      -156.4174
  54   1.0000      -5.748216      -156.4169
  55   1.0000      -5.747278      -156.3914
  56   1.0000      -5.746201      -156.3621
  57   1.0000      -5.744744      -156.3224
  58   1.0000      -5.744697      -156.3211
  59   1.0000      -5.744027      -156.3029
  60   1.0000      -5.743891      -156.2992
  61   1.0000      -5.741462      -156.2331
  62   1.0000      -5.741418      -156.2319
  63   1.0000      -5.740451      -156.2056
  64   1.0000      -5.740056      -156.1949
  65   1.0000      -5.740023      -156.1940
  66   1.0000      -5.739351      -156.1757
  67   1.0000      -5.739200      -156.1716
  68   1.0000      -5.659719      -154.0088
  69   1.0000      -5.659428      -154.0009
  70   1.0000      -5.659383      -153.9996
  71   1.0000      -5.659134      -153.9929
  72   1.0000      -5.653062      -153.8276
  73   1.0000      -5.652770      -153.8197
  74   1.0000      -5.652741      -153.8189
  75   1.0000      -5.652484      -153.8119
  76   1.0000      -5.651712      -153.7909
  77   1.0000      -5.651458      -153.7840
  78   1.0000      -5.651387      -153.7821
  79   1.0000      -5.651087      -153.7739
  80   1.0000      -2.444006       -66.5048
  81   1.0000      -1.485312       -40.4174
  82   1.0000      -1.473642       -40.0998
  83   1.0000      -1.472834       -40.0778
  84   1.0000      -0.710659       -19.3380
  85   1.0000      -0.709529       -19.3073
  86   1.0000      -0.686351       -18.6765
  87   1.0000      -0.685656       -18.6577
  88   1.0000      -0.649876       -17.6840
  89   1.0000      -0.632576       -17.2133
  90   1.0000      -0.631366       -17.1803
  91   1.0000      -0.617325       -16.7983
  92   1.0000      -0.617278       -16.7970
  93   1.0000      -0.575263       -15.6537
  94   1.0000      -0.574571       -15.6349
  95   1.0000      -0.574402       -15.6303
  96   1.0000      -0.573063       -15.5938
  97   1.0000      -0.498731       -13.5712
  98   1.0000      -0.496139       -13.5006
  99   1.0000      -0.495922       -13.4947
 100   1.0000      -0.493364       -13.4251
 101   1.0000      -0.479800       -13.0560
 102   1.0000      -0.477275       -12.9873
 103   1.0000      -0.446582       -12.1521
 104   1.0000      -0.439599       -11.9621
 105   1.0000      -0.415475       -11.3057
 106   1.0000      -0.410523       -11.1709
 107   1.0000      -0.357819        -9.7368
 108   1.0000      -0.355379        -9.6704
 109   1.0000      -0.327569        -8.9136
 110   1.0000      -0.326681        -8.8894
 111   1.0000      -0.318753        -8.6737
 112   1.0000      -0.314479        -8.5574
 113   1.0000      -0.307091        -8.3564
 114   1.0000      -0.303936        -8.2705
 115   1.0000      -0.292470        -7.9585
 116   1.0000      -0.288151        -7.8410
 117   1.0000      -0.260558        -7.0901
 118   1.0000      -0.257067        -6.9951
 119   1.0000      -0.256392        -6.9768
 120   1.0000      -0.246139        -6.6978
 121   1.0000      -0.236457        -6.4343
 122   1.0000      -0.234403        -6.3784
 123   1.0000      -0.230704        -6.2778
 124   1.0000      -0.223570        -6.0836
 125   1.0000      -0.218834        -5.9548
 126   1.0000      -0.216529        -5.8921
 127   1.0000      -0.214010        -5.8235
 128   1.0000      -0.204450        -5.5634
 129   1.0000      -0.193265        -5.2590
 130   1.0000      -0.190972        -5.1966
 131   1.0000      -0.186053        -5.0628
 132   1.0000      -0.182375        -4.9627
 133   1.0000      -0.175415        -4.7733
 134   1.0000      -0.159598        -4.3429
 135   1.0000      -0.151215        -4.1148
 136   1.0000      -0.146583        -3.9887
 137   1.0000      -0.135803        -3.6954
 138   1.0000      -0.134160        -3.6507
 139   1.0000      -0.132861        -3.6153
 140   1.0000      -0.125225        -3.4076
 141   1.0000      -0.121255        -3.2995
 142   1.0000      -0.113571        -3.0904
 143   1.0000      -0.109817        -2.9883
 144   1.0000      -0.099981        -2.7206
 145   1.0000      -0.098319        -2.6754
 146   1.0000      -0.097232        -2.6458
 147   1.0000      -0.094644        -2.5754
 148   1.0000      -0.074633        -2.0309
 149   1.0000      -0.067829        -1.8457
 150   1.0000      -0.067370        -1.8332
 151   1.0000      -0.052423        -1.4265
 152   1.0000      -0.045704        -1.2437
 153   1.0000      -0.037525        -1.0211
 154   1.0000      -0.037177        -1.0116
 155   1.0000      -0.031314        -0.8521
 156   1.0000      -0.025112        -0.6833
 157   1.0000      -0.019206        -0.5226
 158   1.0000      -0.015521        -0.4223
 159   1.0000       0.020245         0.5509
 160   1.0000       0.041094         1.1182
 161   0.0000       0.134320         3.6550
 162   0.0000       0.136857         3.7241
 163   0.0000       0.157252         4.2790
 164   0.0000       0.161997         4.4082
 165   0.0000       0.166603         4.5335

                 SPIN DOWN ORBITALS
  NO   OCC          E(Eh)            E(eV)
   0   1.0000    -196.675101     -5351.8016
   1   1.0000     -88.738470     -2414.6965
   2   1.0000     -88.733232     -2414.5540
   3   1.0000     -88.733189     -2414.5528
   4   1.0000     -88.731843     -2414.5162
   5   1.0000     -88.731004     -2414.4934
   6   1.0000     -88.730916     -2414.4910
   7   1.0000     -88.730280     -2414.4737
   8   1.0000     -88.730088     -2414.4684
   9   1.0000     -88.640268     -2412.0243
  10   1.0000     -88.639971     -2412.0162
  11   1.0000     -88.639857     -2412.0131
  12   1.0000     -88.639703     -2412.0090
  13   1.0000     -22.035423      -599.6143
  14   1.0000     -18.894065      -514.1336
  15   1.0000     -18.551535      -504.8129
  16   1.0000     -18.535594      -504.3791
  17   1.0000     -18.535413      -504.3742
  18   1.0000     -10.076747      -274.2022
  19   1.0000     -10.075831      -274.1773
  20   1.0000     -10.074082      -274.1297
  21   1.0000     -10.068011      -273.9645
  22   1.0000     -10.063492      -273.8415
  23   1.0000     -10.063425      -273.8397
  24   1.0000     -10.056751      -273.6581
  25   1.0000     -10.051303      -273.5099
  26   1.0000     -10.049339      -273.4564
  27   1.0000     -10.048295      -273.4280
  28   1.0000     -10.018315      -272.6122
  29   1.0000     -10.018010      -272.6039
  30   1.0000     -10.017522      -272.5906
  31   1.0000     -10.017087      -272.5788
  32   1.0000      -7.791458      -212.0163
  33   1.0000      -7.786659      -211.8858
  34   1.0000      -7.786635      -211.8851
  35   1.0000      -7.785716      -211.8601
  36   1.0000      -7.784237      -211.8198
  37   1.0000      -7.784199      -211.8188
  38   1.0000      -7.783527      -211.8005
  39   1.0000      -7.783390      -211.7968
  40   1.0000      -7.694518      -209.3785
  41   1.0000      -7.694251      -209.3712
  42   1.0000      -7.694209      -209.3701
  43   1.0000      -7.693932      -209.3625
  44   1.0000      -5.756559      -156.6439
  45   1.0000      -5.753056      -156.5486
  46   1.0000      -5.751650      -156.5103
  47   1.0000      -5.751631      -156.5098
  48   1.0000      -5.750645      -156.4830
  49   1.0000      -5.749181      -156.4432
  50   1.0000      -5.749146      -156.4422
  51   1.0000      -5.748474      -156.4239
  52   1.0000      -5.748331      -156.4200
  53   1.0000      -5.748234      -156.4174
  54   1.0000      -5.748217      -156.4169
  55   1.0000      -5.747278      -156.3914
  56   1.0000      -5.746201      -156.3621
  57   1.0000      -5.744758      -156.3228
  58   1.0000      -5.744711      -156.3215
  59   1.0000      -5.744041      -156.3033
  60   1.0000      -5.743905      -156.2996
  61   1.0000      -5.741463      -156.2331
  62   1.0000      -5.741419      -156.2320
  63   1.0000      -5.740452      -156.2056
  64   1.0000      -5.740062      -156.1950
  65   1.0000      -5.740029      -156.1941
  66   1.0000      -5.739358      -156.1759
  67   1.0000      -5.739209      -156.1718
  68   1.0000      -5.659861      -154.0126
  69   1.0000      -5.659566      -154.0046
  70   1.0000      -5.659524      -154.0035
  71   1.0000      -5.659276      -153.9967
  72   1.0000      -5.653412      -153.8372
  73   1.0000      -5.653157      -153.8302
  74   1.0000      -5.653100      -153.8287
  75   1.0000      -5.652868      -153.8223
  76   1.0000      -5.651818      -153.7938
  77   1.0000      -5.651545      -153.7864
  78   1.0000      -5.651492      -153.7849
  79   1.0000      -5.651181      -153.7765
  80   1.0000      -2.399132       -65.2837
  81   1.0000      -1.466028       -39.8926
  82   1.0000      -1.411281       -38.4029
  83   1.0000      -1.411115       -38.3984
  84   1.0000      -0.710644       -19.3376
  85   1.0000      -0.709503       -19.3066
  86   1.0000      -0.686308       -18.6754
  87   1.0000      -0.685600       -18.6561
  88   1.0000      -0.657980       -17.9046
  89   1.0000      -0.632521       -17.2118
  90   1.0000      -0.631290       -17.1783
  91   1.0000      -0.617327       -16.7983
  92   1.0000      -0.617278       -16.7970
  93   1.0000      -0.575229       -15.6528
  94   1.0000      -0.574521       -15.6335
  95   1.0000      -0.574365       -15.6293
  96   1.0000      -0.572982       -15.5916
  97   1.0000      -0.498751       -13.5717
  98   1.0000      -0.496166       -13.5014
  99   1.0000      -0.495962       -13.4958
 100   1.0000      -0.493423       -13.4267
 101   1.0000      -0.479982       -13.0610
 102   1.0000      -0.477520       -12.9940
 103   1.0000      -0.446608       -12.1528
 104   1.0000      -0.439648       -11.9634
 105   1.0000      -0.415474       -11.3056
 106   1.0000      -0.410622       -11.1736
 107   1.0000      -0.357817        -9.7367
 108   1.0000      -0.355370        -9.6701
 109   1.0000      -0.327555        -8.9132
 110   1.0000      -0.326667        -8.8891
 111   1.0000      -0.318678        -8.6717
 112   1.0000      -0.314501        -8.5580
 113   1.0000      -0.307059        -8.3555
 114   1.0000      -0.303897        -8.2694
 115   1.0000      -0.292464        -7.9584
 116   1.0000      -0.288132        -7.8405
 117   1.0000      -0.260447        -7.0871
 118   1.0000      -0.256986        -6.9929
 119   1.0000      -0.256337        -6.9753
 120   1.0000      -0.246070        -6.6959
 121   1.0000      -0.236419        -6.4333
 122   1.0000      -0.234383        -6.3779
 123   1.0000      -0.230664        -6.2767
 124   1.0000      -0.223522        -6.0823
 125   1.0000      -0.218432        -5.9438
 126   1.0000      -0.216344        -5.8870
 127   1.0000      -0.213872        -5.8198
 128   1.0000      -0.204335        -5.5602
 129   1.0000      -0.191664        -5.2154
 130   1.0000      -0.190774        -5.1912
 131   1.0000      -0.185695        -5.0530
 132   1.0000      -0.182200        -4.9579
 133   1.0000      -0.175292        -4.7699
 134   1.0000      -0.158978        -4.3260
 135   1.0000      -0.151044        -4.1101
 136   1.0000      -0.146498        -3.9864
 137   1.0000      -0.135188        -3.6786
 138   1.0000      -0.133828        -3.6416
 139   1.0000      -0.132624        -3.6089
 140   1.0000      -0.124630        -3.3914
 141   1.0000      -0.120925        -3.2905
 142   1.0000      -0.115356        -3.1390
 143   1.0000      -0.111393        -3.0311
 144   1.0000      -0.099977        -2.7205
 145   1.0000      -0.098640        -2.6841
 146   1.0000      -0.097217        -2.6454
 147   1.0000      -0.094962        -2.5840
 148   1.0000      -0.070801        -1.9266
 149   1.0000      -0.067817        -1.8454
 150   1.0000      -0.067377        -1.8334
 151   1.0000      -0.049828        -1.3559
 152   1.0000      -0.044769        -1.2182
 153   1.0000      -0.037543        -1.0216
 154   1.0000      -0.036640        -0.9970
 155   1.0000      -0.031349        -0.8531
 156   1.0000      -0.026151        -0.7116
 157   1.0000      -0.015738        -0.4283
 158   1.0000       0.020542         0.5590
 159   1.0000       0.039989         1.0882
 160   0.0000       0.134318         3.6550
 161   0.0000       0.136866         3.7243
 162   0.0000       0.155051         4.2192
 163   0.0000       0.158387         4.3099
 164   0.0000       0.162733         4.4282

MULLIKEN ATOMIC CHARGES AND SPIN POPULATIONS
--------------------------------------------
   0 V :    0.471482    1.210410
   1 S :   -0.290509   -0.022419
   2 S :   -0.289756   -0.025213
   3 S :   -0.287923   -0.023230
   4 S :   -0.285643   -0.025711
   5 O :   -0.467718   -0.146579
   6 C :   -0.077434    0.009645
   7 C :   -0.084215    0.008116
   8 C :   -0.084411    0.007735
   9 C :   -0.085185    0.007369
  10 S :    0.099678   -0.000587
  11 S :    0.101029   -0.000625
  12 S :    0.104316   -0.000382
  13 S :    0.096356   -0.000347
  14 C :   -0.213444    0.001509
  15 C :   -0.198298    0.000964
  16 C :   -0.191969   -0.000062
  17 C :   -0.206911   -0.000382
  18 S :    0.008995   -0.000113
  19 S :    0.009309   -0.000113
  20 S :    0.014447   -0.000069
  21 S :    0.002268   -0.000074
  22 C :   -0.237343   -0.000001
  23 C :   -0.326246   -0.000003
  24 C :   -0.149092   -0.000011
  25 H :    0.110775   -0.000003
  26 H :    0.101971   -0.000006
  27 H :    0.091228   -0.000001
  28 H :    0.078368   -0.000001
  29 H :    0.109687   -0.000002
  30 H :    0.148602   -0.000000
  31 C :   -0.299970    0.000193
  32 C :   -0.300464    0.000189
  33 C :   -0.157753   -0.000237
  34 H :    0.142022   -0.000018
  35 H :    0.113453    0.000020
  36 H :    0.092361    0.000023
  37 H :    0.082577    0.000015
  38 H :    0.113304    0.000020
  39 H :    0.142055   -0.000018
Sum of atomic charges         :   -2.0000000

LOEWDIN ATOMIC CHARGES AND SPIN POPULATIONS
-------------------------------------------
   0 V :   -0.155554    1.163815
   1 S :    0.080081   -0.014456
   2 S :    0.079336   -0.016095
   3 S :    0.081939   -0.015152
   4 S :    0.083235   -0.016312
   5 O :   -0.318998   -0.131499
   6 C :   -0.549936    0.009043
   7 C :   -0.552119    0.007966
   8 C :   -0.552148    0.008122
   9 C :   -0.552075    0.007676
  10 S :    0.471304   -0.000902
  11 S :    0.472255   -0.000947
  12 S :    0.473678   -0.000815
  13 S :    0.470539   -0.000836
  14 C :   -0.465092    0.000162
  15 C :   -0.464844   -0.000082
  16 C :   -0.622744    0.000475
  17 C :   -0.622646    0.000084
  18 S :    0.358788   -0.000090
  19 S :    0.360152   -0.000087
  20 S :    0.354980   -0.000072
  21 S :    0.368418   -0.000077
  22 C :   -0.292295   -0.000009
  23 C :   -0.306010   -0.000007
  24 C :   -0.185693   -0.000002
  25 H :    0.073577   -0.000002
  26 H :    0.053142   -0.000003
  27 H :    0.056881   -0.000002
  28 H :    0.064546   -0.000001
  29 H :    0.064323   -0.000002
  30 H :    0.067849   -0.000001
  31 C :   -0.284066    0.000043
  32 C :   -0.283730    0.000037
  33 C :   -0.176322    0.000006
  34 H :    0.062101   -0.000001
  35 H :    0.053504    0.000008
  36 H :    0.060250    0.000005
  37 H :    0.057796    0.000002
  38 H :    0.053601    0.000009
  39 H :    0.061997   -0.000000

  Mayer bond orders larger than 0.100000
B(  0-V ,  1-S ) :   0.7711 B(  0-V ,  2-S ) :   0.7716 B(  0-V ,  3-S ) :   0.7641
B(  0-V ,  4-S ) :   0.7788 B(  0-V ,  5-O ) :   2.1487 B(  1-S ,  8-C ) :   1.1042
B(  2-S ,  6-C ) :   1.1042 B(  3-S ,  9-C ) :   1.1075 B(  4-S ,  7-C ) :   1.1047
B(  6-C ,  7-C ) :   1.6845 B(  6-C , 10-S ) :   0.9351 B(  7-C , 11-S ) :   0.9390
B(  8-C ,  9-C ) :   1.6969 B(  8-C , 13-S ) :   0.9348 B(  9-C , 12-S ) :   0.9360
B( 10-S , 14-C ) :   1.2487 B( 11-S , 14-C ) :   1.2485 B( 12-S , 15-C ) :   1.2478
B( 13-S , 15-C ) :   1.2438 B( 14-C , 16-C ) :   1.4509 B( 15-C , 17-C ) :   1.4452
B( 16-C , 18-S ) :   1.0882 B( 16-C , 19-S ) :   1.0896 B( 17-C , 20-S ) :   1.1345
B( 17-C , 21-S ) :   1.0492 B( 18-S , 32-C ) :   0.9918 B( 19-S , 31-C ) :   0.9918
B( 20-S , 23-C ) :   0.9725 B( 21-S , 22-C ) :   0.9933 B( 22-C , 24-C ) :   0.9376
B( 22-C , 25-H ) :   0.9357 B( 22-C , 26-H ) :   0.9688 B( 23-C , 24-C ) :   0.8889
B( 23-C , 29-H ) :   0.9585 B( 23-C , 30-H ) :   0.9730 B( 24-C , 27-H ) :   0.9753
B( 24-C , 28-H ) :   0.9527 B( 31-C , 33-C ) :   0.9134 B( 31-C , 38-H ) :   0.9656
B( 31-C , 39-H ) :   0.9659 B( 32-C , 33-C ) :   0.9135 B( 32-C , 34-H ) :   0.9656
B( 32-C , 35-H ) :   0.9655 B( 33-C , 36-H ) :   0.9718 B( 33-C , 37-H ) :   0.9624

FINAL SINGLE POINT ENERGY     -6337.668140673290

DIPOLE MOMENT
-------------
                                X             Y             Z
Electronic contribution:     -7.73561      -8.48223       7.36963
Nuclear contribution   :      8.48485       9.46084      -8.18342
                        -----------------------------------------
Total Dipole Moment    :      0.74924       0.97860      -0.81379
                        -----------------------------------------
Magnitude (a.u.)       :      1.47691
Magnitude (Debye)      :      3.75402

Rotational constants in cm-1:     0.010759     0.000804     0.000783
Rotational constants in MHz :   322.559348    24.115669    23.486691

                             ****ORCA TERMINATED NORMALLY****
TOTAL RUN TIME: 0 days 1 hours 6 minutes 14 seconds 952 msec
