                         Program Version 5.0.4 -  RELEASE  -
|  1> ! nofrozencore ReducedPop printbasis
|  2> ! B3LYP TZVP
|  3>
|  4> %basis
|  5> newgto V "CP(PPP)" end
|  6> end
|  7>
|  8> %pal
|  9> nprocs 6
| 10> end
| 11>
| 12> % sym SymThresh 1e-2 end
| 13> * xyz -2 2
| 14> V -0.11591960649137706 -0.8158288072381632 -0.7483063237479953
| 15> S -1.717833388485908 -1.5367704549999293 0.9932597566257948
| 16> S -1.775798671975744 0.940169783322218 -1.2853084799463659
| 17> S 1.6486337046647503 -1.6231862273308777 0.7897158978675385
| 18> S 1.5804151073467407 0.859819910773098 -1.380549666584412
| 19> O -0.21269190106347338 -1.8634675226331099 -1.9388044137384315
| 20> C -0.7713522195433896 1.9888860776241004 -2.2774130597683646
| 21> C 0.5742420006439143 1.9584507624454794 -2.312543737736476
| 22> C -0.6559451970674494 -2.401665680940591 2.0960435167052975
| 23> C 0.6869136118473863 -2.4331321307734974 2.015844021041409
| 24> S -1.5650557395516038 3.255836998741302 -3.2738481581229153
| 25> S 1.378328109688691 3.1952769539254784 -3.3345433981445964
| 26> S 1.545119074110646 -3.3457264733907484 3.3028135842088884
| 27> S -1.3941388741134493 -3.2835865360053904 3.476276057779474
| 28> C -0.08934113554697777 4.000106319637058 -3.901553688731689
| 29> C 0.11517057324302195 -3.8084300773474875 4.2325363184920075
| 30> C -0.08106419400992504 5.076506286908995 -4.745341686788524
| 31> C 0.17061883608253753 -4.507048175026721 5.406737807659914
| 32> S -1.5860521136803098 5.824067362752687 -5.338857922219055
| 33> S 1.4392140614849749 5.789285479913817 -5.342478198174136
| 34> S -1.3001010299181417 -4.948666704140389 6.3107437329642915
| 35> S 1.720782189770704 -4.9948019165560655 6.139178542174578
| 36> C 1.5977261959365279 -4.014413013466353 7.705103765738601
| 37> C -0.9709148677456414 -3.9801792851274334 7.854169797783972
| 38> C 0.3526178379073498 -4.337544354788495 8.532985661859804
| 39> H 1.6272447537439314 -2.9558562164746953 7.4436440903989185
| 40> H 2.5006792706184426 -4.251667276469632 8.268171330141175
| 41> H 0.41613884241217614 -3.760472813099751 9.50028230657934
| 42> H 0.35390239444629035 -5.408493801435791 8.79178168255245
| 43> H -1.8084183420681557 -4.1986273960831815 8.51708030270193
| 44> H -1.003777290947271 -2.9197072672976936 7.601226400298611
| 45> C 1.2050986391689573 5.458623603825043 -7.147385114072084
| 46> C -1.358849938949292 5.481070173147951 -7.143052562740622
| 47> C -0.07256847017442865 6.065948595880453 -7.774012267550938
| 48> H -1.4022100738294054 4.362853523437279 -7.295173132976917
| 49> H -2.280610964394372 5.95170201070067 -7.6618818028246665
| 50> H -0.06463315569656604 6.986769747712692 -7.610689792709029
| 51> H -0.0738832455825189 5.989893239252051 -8.211592144657681
| 52> H 2.1335692045728107 5.916948512013597 -7.664598146480975
| 53> H 1.231071571008225 4.339921555770238 -7.304060252315705
| 54> *
| 55>
| 56> % eprnmr
| 57> gtensor true
| 58> Nuclei = all H {aiso,adip,aorb,fgrad,rho}
| 59> Nuclei = all V {aiso,adip,aorb,fgrad,rho}
| 60> end
| 61>
| 62>                          ****END OF INPUT****

CARTESIAN COORDINATES (ANGSTROEM)
---------------------------------
  V     -0.115795   -0.812032   -0.747789
  S     -1.717708   -1.532974    0.993777
  S     -1.775674    0.943967   -1.284791
  S      1.648759   -1.619389    0.790233
  S      1.580540    0.863617   -1.380032
  O     -0.212567   -1.859671   -1.938287
  C     -0.771227    1.992683   -2.276896
  C      0.574367    1.962248   -2.312027
  C     -0.655820   -2.397869    2.096561
  C      0.687039   -2.429335    2.016361
  S     -1.564931    3.259634   -3.273331
  S      1.378453    3.199074   -3.334026
  S      1.545244   -3.341930    3.303331
  S     -1.394014   -3.279790    3.476793
  C     -0.089216    4.003903   -3.901036
  C      0.115296   -3.804633    4.233054
  C     -0.080939    5.080303   -4.744824
  C      0.170744   -4.503251    5.407255
  S     -1.585927    5.827864   -5.338341
  S      1.439339    5.793082   -5.341961
  S     -1.299976   -4.944870    6.311261
  S      1.720907   -4.991005    6.139696
  C      1.597851   -4.010616    7.705621
  C     -0.970790   -3.976383    7.854687
  C      0.352743   -4.333748    8.533503
  H      1.627370   -2.952059    7.444161
  H      2.500804   -4.247871    8.268689
  H      0.416264   -3.756676    9.500800
  H      0.354027   -5.404697    8.792299
  H     -1.808293   -4.194831    8.517598
  H     -1.003652   -2.915911    7.601744
  C      1.205224    5.462420   -7.146868
  C     -1.358725    5.484867   -7.142535
  C     -0.072444    6.069745   -7.773495
  H     -1.402085    4.366650   -7.294656
  H     -2.280486    5.955499   -7.661365
  H     -0.064508    6.990566   -7.610173
  H     -0.073758    5.993690   -8.211075
  H      2.133694    5.920745   -7.664081
  H      1.231196    4.343718   -7.303543

 Total Charge           Charge          ....   -2
 Multiplicity           Mult            ....    2
 Number of Electrons    NEL             ....  321
 Basis Dimension        Dim             ....  681

ORBITAL ENERGIES
----------------
                 SPIN UP ORBITALS
  NO   OCC          E(Eh)            E(eV)
   0   1.0000    -196.674726     -5351.7914
   1   1.0000     -88.734276     -2414.5824
   2   1.0000     -88.734270     -2414.5822
   3   1.0000     -88.733233     -2414.5540
   4   1.0000     -88.733184     -2414.5527
   5   1.0000     -88.730487     -2414.4793
   6   1.0000     -88.730294     -2414.4740
   7   1.0000     -88.730008     -2414.4663
   8   1.0000     -88.729938     -2414.4644
   9   1.0000     -88.639648     -2412.0075
  10   1.0000     -88.639643     -2412.0073
  11   1.0000     -88.639434     -2412.0016
  12   1.0000     -88.639189     -2411.9950
  13   1.0000     -22.050127      -600.0145
  14   1.0000     -18.889988      -514.0227
  15   1.0000     -18.556576      -504.9501
  16   1.0000     -18.551401      -504.8093
  17   1.0000     -18.551301      -504.8066
  18   1.0000     -10.101278      -274.8697
  19   1.0000     -10.076140      -274.1857
  20   1.0000     -10.075798      -274.1764
  21   1.0000     -10.073574      -274.1159
  22   1.0000     -10.073544      -274.1151
  23   1.0000     -10.062981      -273.8276
  24   1.0000     -10.062946      -273.8267
  25   1.0000     -10.054756      -273.6038
  26   1.0000     -10.048414      -273.4312
  27   1.0000     -10.048380      -273.4303
  28   1.0000     -10.018346      -272.6131
  29   1.0000     -10.017794      -272.5980
  30   1.0000     -10.017410      -272.5876
  31   1.0000     -10.017000      -272.5764
  32   1.0000      -7.787510      -211.9089
  33   1.0000      -7.787490      -211.9084
  34   1.0000      -7.786705      -211.8870
  35   1.0000      -7.786633      -211.8850
  36   1.0000      -7.783736      -211.8062
  37   1.0000      -7.783593      -211.8023
  38   1.0000      -7.783274      -211.7937
  39   1.0000      -7.783235      -211.7926
  40   1.0000      -7.693993      -209.3642
  41   1.0000      -7.693948      -209.3630
  42   1.0000      -7.693713      -209.3566
  43   1.0000      -7.693541      -209.3519
  44   1.0000      -5.752552      -156.5349
  45   1.0000      -5.752536      -156.5345
  46   1.0000      -5.751696      -156.5116
  47   1.0000      -5.751623      -156.5096
  48   1.0000      -5.749041      -156.4394
  49   1.0000      -5.749031      -156.4391
  50   1.0000      -5.748674      -156.4294
  51   1.0000      -5.748527      -156.4254
  52   1.0000      -5.748271      -156.4184
  53   1.0000      -5.748226      -156.4172
  54   1.0000      -5.748205      -156.4166
  55   1.0000      -5.748187      -156.4161
  56   1.0000      -5.744243      -156.3088
  57   1.0000      -5.744095      -156.3048
  58   1.0000      -5.743792      -156.2965
  59   1.0000      -5.743752      -156.2955
  60   1.0000      -5.742337      -156.2569
  61   1.0000      -5.742312      -156.2563
  62   1.0000      -5.741501      -156.2342
  63   1.0000      -5.741432      -156.2323
  64   1.0000      -5.739577      -156.1818
  65   1.0000      -5.739430      -156.1778
  66   1.0000      -5.739085      -156.1684
  67   1.0000      -5.739043      -156.1673
  68   1.0000      -5.659290      -153.9971
  69   1.0000      -5.659249      -153.9960
  70   1.0000      -5.659039      -153.9903
  71   1.0000      -5.658845      -153.9850
  72   1.0000      -5.652617      -153.8155
  73   1.0000      -5.652608      -153.8153
  74   1.0000      -5.652361      -153.8086
  75   1.0000      -5.652216      -153.8046
  76   1.0000      -5.651317      -153.7802
  77   1.0000      -5.651271      -153.7789
  78   1.0000      -5.651005      -153.7717
  79   1.0000      -5.650845      -153.7673
  80   1.0000      -2.443780       -66.4986
  81   1.0000      -1.485090       -40.4113
  82   1.0000      -1.473421       -40.0938
  83   1.0000      -1.472604       -40.0716
  84   1.0000      -0.718560       -19.5530
  85   1.0000      -0.709453       -19.3052
  86   1.0000      -0.697852       -18.9895
  87   1.0000      -0.685240       -18.6463
  88   1.0000      -0.650241       -17.6940
  89   1.0000      -0.649111       -17.6632
  90   1.0000      -0.630693       -17.1620
  91   1.0000      -0.617497       -16.8029
  92   1.0000      -0.611188       -16.6313
  93   1.0000      -0.585513       -15.9326
  94   1.0000      -0.574451       -15.6316
  95   1.0000      -0.574229       -15.6256
  96   1.0000      -0.572498       -15.5785
  97   1.0000      -0.519610       -14.1393
  98   1.0000      -0.496144       -13.5008
  99   1.0000      -0.495117       -13.4728
 100   1.0000      -0.490188       -13.3387
 101   1.0000      -0.478920       -13.0321
 102   1.0000      -0.475567       -12.9408
 103   1.0000      -0.458268       -12.4701
 104   1.0000      -0.445371       -12.1192
 105   1.0000      -0.416679       -11.3384
 106   1.0000      -0.411320       -11.1926
 107   1.0000      -0.388580       -10.5738
 108   1.0000      -0.355173        -9.6648
 109   1.0000      -0.347620        -9.4592
 110   1.0000      -0.325478        -8.8567
 111   1.0000      -0.318936        -8.6787
 112   1.0000      -0.314287        -8.5522
 113   1.0000      -0.310808        -8.4575
 114   1.0000      -0.301925        -8.2158
 115   1.0000      -0.292620        -7.9626
 116   1.0000      -0.283442        -7.7129
 117   1.0000      -0.257665        -7.0114
 118   1.0000      -0.257470        -7.0061
 119   1.0000      -0.255457        -6.9513
 120   1.0000      -0.254477        -6.9247
 121   1.0000      -0.241309        -6.5664
 122   1.0000      -0.234099        -6.3702
 123   1.0000      -0.231044        -6.2870
 124   1.0000      -0.225360        -6.1324
 125   1.0000      -0.220525        -6.0008
 126   1.0000      -0.219313        -5.9678
 127   1.0000      -0.214940        -5.8488
 128   1.0000      -0.211783        -5.7629
 129   1.0000      -0.195675        -5.3246
 130   1.0000      -0.190094        -5.1727
 131   1.0000      -0.186624        -5.0783
 132   1.0000      -0.184563        -5.0222
 133   1.0000      -0.179226        -4.8770
 134   1.0000      -0.159365        -4.3365
 135   1.0000      -0.151290        -4.1168
 136   1.0000      -0.146455        -3.9852
 137   1.0000      -0.137713        -3.7473
 138   1.0000      -0.134291        -3.6542
 139   1.0000      -0.132921        -3.6170
 140   1.0000      -0.125250        -3.4082
 141   1.0000      -0.120961        -3.2915
 142   1.0000      -0.113319        -3.0836
 143   1.0000      -0.109761        -2.9867
 144   1.0000      -0.099642        -2.7114
 145   1.0000      -0.098022        -2.6673
 146   1.0000      -0.097434        -2.6513
 147   1.0000      -0.094581        -2.5737
 148   1.0000      -0.074375        -2.0239
 149   1.0000      -0.067880        -1.8471
 150   1.0000      -0.067291        -1.8311
 151   1.0000      -0.052201        -1.4205
 152   1.0000      -0.045455        -1.2369
 153   1.0000      -0.037389        -1.0174
 154   1.0000      -0.036950        -1.0055
 155   1.0000      -0.031207        -0.8492
 156   1.0000      -0.024803        -0.6749
 157   1.0000      -0.018959        -0.5159
 158   1.0000      -0.015304        -0.4164
 159   1.0000       0.020518         0.5583
 160   1.0000       0.041380         1.1260
 161   0.0000       0.134824         3.6687
 162   0.0000       0.137524         3.7422
 163   0.0000       0.160877         4.3777
 164   0.0000       0.170630         4.6431
 165   0.0000       0.171503         4.6668

                 SPIN DOWN ORBITALS
  NO   OCC          E(Eh)            E(eV)
   0   1.0000    -196.674873     -5351.7954
   1   1.0000     -88.734277     -2414.5824
   2   1.0000     -88.734271     -2414.5823
   3   1.0000     -88.733234     -2414.5540
   4   1.0000     -88.733185     -2414.5527
   5   1.0000     -88.730495     -2414.4795
   6   1.0000     -88.730302     -2414.4743
   7   1.0000     -88.730016     -2414.4665
   8   1.0000     -88.729946     -2414.4646
   9   1.0000     -88.639785     -2412.0112
  10   1.0000     -88.639783     -2412.0111
  11   1.0000     -88.639575     -2412.0055
  12   1.0000     -88.639329     -2411.9988
  13   1.0000     -22.035193      -599.6081
  14   1.0000     -18.893782      -514.1259
  15   1.0000     -18.551305      -504.8067
  16   1.0000     -18.535366      -504.3729
  17   1.0000     -18.535183      -504.3680
  18   1.0000     -10.101277      -274.8697
  19   1.0000     -10.076134      -274.1855
  20   1.0000     -10.075797      -274.1764
  21   1.0000     -10.073573      -274.1159
  22   1.0000     -10.073542      -274.1150
  23   1.0000     -10.062981      -273.8276
  24   1.0000     -10.062946      -273.8267
  25   1.0000     -10.054756      -273.6038
  26   1.0000     -10.048403      -273.4309
  27   1.0000     -10.048375      -273.4302
  28   1.0000     -10.018108      -272.6066
  29   1.0000     -10.017580      -272.5922
  30   1.0000     -10.017187      -272.5815
  31   1.0000     -10.016788      -272.5707
  32   1.0000      -7.787511      -211.9089
  33   1.0000      -7.787491      -211.9084
  34   1.0000      -7.786706      -211.8870
  35   1.0000      -7.786633      -211.8851
  36   1.0000      -7.783746      -211.8065
  37   1.0000      -7.783602      -211.8026
  38   1.0000      -7.783284      -211.7939
  39   1.0000      -7.783245      -211.7929
  40   1.0000      -7.694123      -209.3677
  41   1.0000      -7.694076      -209.3664
  42   1.0000      -7.693844      -209.3601
  43   1.0000      -7.693671      -209.3554
  44   1.0000      -5.752553      -156.5349
  45   1.0000      -5.752537      -156.5345
  46   1.0000      -5.751696      -156.5116
  47   1.0000      -5.751623      -156.5096
  48   1.0000      -5.749042      -156.4394
  49   1.0000      -5.749032      -156.4391
  50   1.0000      -5.748684      -156.4297
  51   1.0000      -5.748537      -156.4257
  52   1.0000      -5.748271      -156.4184
  53   1.0000      -5.748237      -156.4175
  54   1.0000      -5.748205      -156.4166
  55   1.0000      -5.748198      -156.4164
  56   1.0000      -5.744257      -156.3092
  57   1.0000      -5.744108      -156.3051
  58   1.0000      -5.743807      -156.2969
  59   1.0000      -5.743766      -156.2958
  60   1.0000      -5.742337      -156.2569
  61   1.0000      -5.742313      -156.2563
  62   1.0000      -5.741502      -156.2342
  63   1.0000      -5.741433      -156.2323
  64   1.0000      -5.739585      -156.1820
  65   1.0000      -5.739439      -156.1781
  66   1.0000      -5.739091      -156.1686
  67   1.0000      -5.739049      -156.1675
  68   1.0000      -5.659428      -154.0009
  69   1.0000      -5.659391      -153.9999
  70   1.0000      -5.659180      -153.9941
  71   1.0000      -5.658987      -153.9889
  72   1.0000      -5.653004      -153.8261
  73   1.0000      -5.652960      -153.8249
  74   1.0000      -5.652743      -153.8190
  75   1.0000      -5.652576      -153.8144
  76   1.0000      -5.651403      -153.7825
  77   1.0000      -5.651377      -153.7818
  78   1.0000      -5.651098      -153.7742
  79   1.0000      -5.650951      -153.7702
  80   1.0000      -2.398890       -65.2771
  81   1.0000      -1.465781       -39.8859
  82   1.0000      -1.411033       -38.3962
  83   1.0000      -1.410878       -38.3919
  84   1.0000      -0.718554       -19.5528
  85   1.0000      -0.709438       -19.3048
  86   1.0000      -0.697795       -18.9880
  87   1.0000      -0.685198       -18.6452
  88   1.0000      -0.657787       -17.8993
  89   1.0000      -0.649638       -17.6775
  90   1.0000      -0.630635       -17.1604
  91   1.0000      -0.617499       -16.8030
  92   1.0000      -0.611188       -16.6313
  93   1.0000      -0.585410       -15.9298
  94   1.0000      -0.574426       -15.6309
  95   1.0000      -0.574201       -15.6248
  96   1.0000      -0.572434       -15.5767
  97   1.0000      -0.519605       -14.1392
  98   1.0000      -0.496188       -13.5020
  99   1.0000      -0.495144       -13.4735
 100   1.0000      -0.490288       -13.3414
 101   1.0000      -0.479112       -13.0373
 102   1.0000      -0.475761       -12.9461
 103   1.0000      -0.458309       -12.4712
 104   1.0000      -0.445409       -12.1202
 105   1.0000      -0.416677       -11.3384
 106   1.0000      -0.411432       -11.1956
 107   1.0000      -0.388580       -10.5738
 108   1.0000      -0.355169        -9.6646
 109   1.0000      -0.347608        -9.4589
 110   1.0000      -0.325465        -8.8564
 111   1.0000      -0.318856        -8.6765
 112   1.0000      -0.314314        -8.5529
 113   1.0000      -0.310755        -8.4561
 114   1.0000      -0.301892        -8.2149
 115   1.0000      -0.292615        -7.9625
 116   1.0000      -0.283439        -7.7128
 117   1.0000      -0.257530        -7.0077
 118   1.0000      -0.257372        -7.0035
 119   1.0000      -0.255427        -6.9505
 120   1.0000      -0.254427        -6.9233
 121   1.0000      -0.241284        -6.5657
 122   1.0000      -0.234066        -6.3692
 123   1.0000      -0.231002        -6.2859
 124   1.0000      -0.225248        -6.1293
 125   1.0000      -0.220499        -6.0001
 126   1.0000      -0.219065        -5.9611
 127   1.0000      -0.214624        -5.8402
 128   1.0000      -0.211652        -5.7593
 129   1.0000      -0.194978        -5.3056
 130   1.0000      -0.188731        -5.1356
 131   1.0000      -0.186528        -5.0757
 132   1.0000      -0.184332        -5.0159
 133   1.0000      -0.179112        -4.8739
 134   1.0000      -0.158739        -4.3195
 135   1.0000      -0.151120        -4.1122
 136   1.0000      -0.146380        -3.9832
 137   1.0000      -0.137223        -3.7340
 138   1.0000      -0.133876        -3.6429
 139   1.0000      -0.132699        -3.6109
 140   1.0000      -0.124575        -3.3899
 141   1.0000      -0.120632        -3.2826
 142   1.0000      -0.115125        -3.1327
 143   1.0000      -0.111354        -3.0301
 144   1.0000      -0.099626        -2.7110
 145   1.0000      -0.098360        -2.6765
 146   1.0000      -0.097411        -2.6507
 147   1.0000      -0.094926        -2.5831
 148   1.0000      -0.070542        -1.9195
 149   1.0000      -0.067873        -1.8469
 150   1.0000      -0.067291        -1.8311
 151   1.0000      -0.049611        -1.3500
 152   1.0000      -0.044515        -1.2113
 153   1.0000      -0.037437        -1.0187
 154   1.0000      -0.036383        -0.9900
 155   1.0000      -0.031248        -0.8503
 156   1.0000      -0.025841        -0.7032
 157   1.0000      -0.015512        -0.4221
 158   1.0000       0.020808         0.5662
 159   1.0000       0.040282         1.0961
 160   0.0000       0.134832         3.6690
 161   0.0000       0.137514         3.7419
 162   0.0000       0.156100         4.2477
 163   0.0000       0.161679         4.3995
 164   0.0000       0.171906         4.6778

MULLIKEN ATOMIC CHARGES AND SPIN POPULATIONS
--------------------------------------------
   0 V :    0.471208    1.210780
   1 S :   -0.290940   -0.022466
   2 S :   -0.289346   -0.025152
   3 S :   -0.289061   -0.023406
   4 S :   -0.285025   -0.025629
   5 O :   -0.467666   -0.146892
   6 C :   -0.077473    0.009700
   7 C :   -0.084598    0.008069
   8 C :   -0.084140    0.007716
   9 C :   -0.084799    0.007388
  10 S :    0.100604   -0.000594
  11 S :    0.101982   -0.000635
  12 S :    0.100024   -0.000394
  13 S :    0.099161   -0.000347
  14 C :   -0.208762    0.001535
  15 C :   -0.212757    0.000999
  16 C :   -0.195025   -0.000083
  17 C :   -0.189732   -0.000407
  18 S :    0.015026   -0.000112
  19 S :    0.015261   -0.000111
  20 S :    0.008104   -0.000068
  21 S :    0.008340   -0.000071
  22 C :   -0.300904   -0.000001
  23 C :   -0.299450   -0.000002
  24 C :   -0.154570   -0.000011
  25 H :    0.144085   -0.000001
  26 H :    0.114954   -0.000004
  27 H :    0.075887   -0.000001
  28 H :    0.091624   -0.000001
  29 H :    0.114593   -0.000004
  30 H :    0.143473   -0.000001
  31 C :   -0.328573    0.000240
  32 C :   -0.329229    0.000234
  33 C :   -0.094168   -0.000647
  34 H :    0.133657   -0.000017
  35 H :    0.092403    0.000026
  36 H :    0.108975    0.000063
  37 H :    0.100910    0.000301
  38 H :    0.092505    0.000027
  39 H :    0.133440   -0.000017
Sum of atomic charges         :   -2.0000000

LOEWDIN ATOMIC CHARGES AND SPIN POPULATIONS
-------------------------------------------
   0 V :   -0.155925    1.164140
   1 S :    0.079989   -0.014497
   2 S :    0.079510   -0.016022
   3 S :    0.081304   -0.015282
   4 S :    0.083449   -0.016258
   5 O :   -0.318883   -0.131783
   6 C :   -0.549847    0.009048
   7 C :   -0.552000    0.007959
   8 C :   -0.552423    0.008123
   9 C :   -0.552420    0.007662
  10 S :    0.472183   -0.000903
  11 S :    0.473166   -0.000952
  12 S :    0.471338   -0.000823
  13 S :    0.470574   -0.000832
  14 C :   -0.464589    0.000181
  15 C :   -0.465150   -0.000082
  16 C :   -0.623298    0.000467
  17 C :   -0.622132    0.000084
  18 S :    0.362026   -0.000087
  19 S :    0.363396   -0.000084
  20 S :    0.359129   -0.000073
  21 S :    0.358718   -0.000075
  22 C :   -0.283982   -0.000008
  23 C :   -0.284037   -0.000009
  24 C :   -0.178223   -0.000002
  25 H :    0.062499   -0.000001
  26 H :    0.053451   -0.000002
  27 H :    0.060718   -0.000002
  28 H :    0.060839   -0.000001
  29 H :    0.053376   -0.000002
  30 H :    0.062306   -0.000002
  31 C :   -0.246159    0.000045
  32 C :   -0.245895    0.000039
  33 C :    0.088220    0.000003
  34 H :    0.066713   -0.000001
  35 H :    0.059300    0.000011
  36 H :    0.081306    0.000005
  37 H :   -0.334580    0.000005
  38 H :    0.059346    0.000011
  39 H :    0.066686   -0.000000

  Mayer bond orders larger than 0.100000
B(  0-V ,  1-S ) :   0.7719 B(  0-V ,  2-S ) :   0.7707 B(  0-V ,  3-S ) :   0.7653
B(  0-V ,  4-S ) :   0.7780 B(  0-V ,  5-O ) :   2.1487 B(  1-S ,  8-C ) :   1.1037
B(  2-S ,  6-C ) :   1.1047 B(  3-S ,  9-C ) :   1.1065 B(  4-S ,  7-C ) :   1.1053
B(  6-C ,  7-C ) :   1.6838 B(  6-C , 10-S ) :   0.9352 B(  7-C , 11-S ) :   0.9391
B(  8-C ,  9-C ) :   1.6988 B(  8-C , 13-S ) :   0.9336 B(  9-C , 12-S ) :   0.9354
B( 10-S , 14-C ) :   1.2487 B( 11-S , 14-C ) :   1.2483 B( 12-S , 15-C ) :   1.2469
B( 13-S , 15-C ) :   1.2469 B( 14-C , 16-C ) :   1.4380 B( 15-C , 17-C ) :   1.4538
B( 16-C , 18-S ) :   1.0936 B( 16-C , 19-S ) :   1.0950 B( 17-C , 20-S ) :   1.0877
B( 17-C , 21-S ) :   1.0882 B( 18-S , 32-C ) :   1.0108 B( 19-S , 31-C ) :   1.0109
B( 20-S , 23-C ) :   0.9901 B( 21-S , 22-C ) :   0.9897 B( 22-C , 24-C ) :   0.9147
B( 22-C , 25-H ) :   0.9656 B( 22-C , 26-H ) :   0.9655 B( 23-C , 24-C ) :   0.9155
B( 23-C , 29-H ) :   0.9656 B( 23-C , 30-H ) :   0.9655 B( 24-C , 27-H ) :   0.9594
B( 24-C , 28-H ) :   0.9705 B( 31-C , 33-C ) :   0.8801 B( 31-C , 38-H ) :   0.9678
B( 31-C , 39-H ) :   0.9668 B( 32-C , 33-C ) :   0.8794 B( 32-C , 34-H ) :   0.9667
B( 32-C , 35-H ) :   0.9679 B( 33-C , 36-H ) :   1.1029 B( 33-C , 37-H ) :   0.8932

FINAL SINGLE POINT ENERGY     -6336.366520489708

DIPOLE MOMENT
-------------
                                X             Y             Z
Electronic contribution:     -1.85013     -11.83379      -6.74440
Nuclear contribution   :      2.06273      13.19631       7.50759
                        -----------------------------------------
Total Dipole Moment    :      0.21259       1.36252       0.76319
                        -----------------------------------------
Magnitude (a.u.)       :      1.57611
Magnitude (Debye)      :      4.00616

Rotational constants in cm-1:     0.010765     0.000804     0.000783
Rotational constants in MHz :   322.722201    24.117139    23.487060

                             ****ORCA TERMINATED NORMALLY****
TOTAL RUN TIME: 0 days 1 hours 6 minutes 37 seconds 706 msec
