                         Program Version 5.0.4 -  RELEASE  -
|  1> ! nofrozencore ReducedPop printbasis
|  2> ! B3LYP TZVP
|  3>
|  4> %basis
|  5> newgto V "CP(PPP)" end
|  6> end
|  7>
|  8> %pal
|  9> nprocs 8
| 10> end
| 11>
| 12> % sym SymThresh 1e-2 end
| 13> * xyz -2 2
| 14> V 0.8233781261969751 -0.6927086420573044 0.2836366913579478
| 15> S -0.993816053910581 -1.4863812191733239 1.7646243342251133
| 16> S -0.45882020883616587 -1.757310283848448 -1.5462279107596084
| 17> S 1.0426634706915514 1.2121286328736094 1.8521441956733293
| 18> S 1.4869775373982261 0.9767714771439466 -1.4063669970957577
| 19> O 2.0737935481270453 -1.6416346801444737 0.5276812258708783
| 20> C 0.3518731350233531 -1.0267862058403414 -2.9255584093110896
| 21> C 1.1289011441830188 0.07133173860340504 -2.869388765053646
| 22> C -0.8380003116754657 -0.3742594475725585 3.1246927730032126
| 23> C -0.02680707316944015 0.7061897322543581 3.1574367547166493
| 24> S 0.08506435631859882 -1.7303367032873271 -4.557080585165336
| 25> S 1.7708281925245468 0.6807544329121415 -4.43056675782001
| 26> S -0.036785972714894075 1.7136122470061088 4.657704418503722
| 27> S -1.8468444265873716 -0.7034173865341492 4.588309685360462
| 28> C 1.0227572780729615 -0.5395127438273151 -5.4673228888580105
| 29> C -1.4937387166279938 0.8974007964926755 5.37123676298633
| 30> C 1.1720216855927013 -0.5681842439833228 -6.826546090488113
| 31> C -1.6871145185916925 1.0043134896455788 6.807581747969983
| 32> S 0.44739917048274414 -1.8502596804795979 -7.83051537411516
| 33> S 2.1263177098231822 0.6632841452982496 -7.692189120009028
| 34> S -3.1030314083668635 0.17660303152513643 7.500325556832575
| 35> S -1.3231685156924007 2.578203728056947 7.557368124792097
| 36> C -2.9271162925663083 3.535156304376741 7.565711917104843
| 37> C -4.485855388792219 1.4322357016115466 7.521582361254984
| 38> C -4.042709246137455 2.7187608978178237 8.215525447851862
| 39> H -3.1738893011865708 3.9328120795803163 6.566488751671441
| 40> H -2.6804343756823488 4.381861842935887 8.232397218237036
| 41> H -4.9233353018670565 3.367535937287354 8.392426001173309
| 42> H -3.66129474279666 2.4158109702414565 9.20597389878092
| 43> H -5.233938353045936 0.9306202369261868 8.162529151282724
| 44> H -4.922384392017446 1.5808672957981305 6.519265032397129
| 45> C 3.43661928446331 -0.4437417706314549 -8.387631599325328
| 46> C 2.011606888177184 -2.58203313376898 -8.498617619514086
| 47> C 2.887368944272784 -1.579445821210402 -9.253613158267642
| 48> H 2.5604856220625383 -3.026156824555299 -7.665150318466978
| 49> H 1.6942202969926954 -3.386963343698337 -9.166310267125523
| 50> H 2.318668852562963 -1.1576890518419363 -10.088361893777387
| 51> H 3.7399087180023662 -2.1252123067343733 -9.68167649155949
| 52> H 4.083069071419431 0.20795003112669858 -8.980808938903971
| 53> H 4.022060579659346 -0.838859358659704 -7.554354297931051
| 54> *
| 55>
| 56> % eprnmr
| 57> gtensor true
| 58> Nuclei = all H {aiso,adip,aorb,fgrad,rho}
| 59> Nuclei = all V {aiso,adip,aorb,fgrad,rho}
| 60> end
| 61>
| 62>                          ****END OF INPUT****

CARTESIAN COORDINATES (ANGSTROEM)
---------------------------------
  V      0.821442   -0.691158    0.280714
  S     -0.995752   -1.484830    1.761701
  S     -0.460756   -1.755759   -1.549151
  S      1.040727    1.213680    1.849221
  S      1.485041    0.978322   -1.409290
  O      2.071857   -1.640084    0.524758
  C      0.349937   -1.025235   -2.928482
  C      1.126965    0.072883   -2.872312
  C     -0.839936   -0.372708    3.121770
  C     -0.028743    0.707741    3.154514
  S      0.083128   -1.728786   -4.560004
  S      1.768892    0.682305   -4.433490
  S     -0.038722    1.715163    4.654781
  S     -1.848780   -0.701866    4.585387
  C      1.020821   -0.537962   -5.470246
  C     -1.495675    0.898952    5.368314
  C      1.170086   -0.566633   -6.829469
  C     -1.689051    1.005864    6.804659
  S      0.445463   -1.848709   -7.833438
  S      2.124382    0.664835   -7.695112
  S     -3.104967    0.178154    7.497402
  S     -1.325105    2.579755    7.554445
  C     -2.929052    3.536707    7.562789
  C     -4.487791    1.433787    7.518659
  C     -4.044645    2.720312    8.212602
  H     -3.175825    3.934363    6.563566
  H     -2.682370    4.383413    8.229474
  H     -4.925271    3.369087    8.389503
  H     -3.663231    2.417362    9.203051
  H     -5.235874    0.932171    8.159606
  H     -4.924320    1.582418    6.516342
  C      3.434683   -0.442191   -8.390555
  C      2.009671   -2.580482   -8.501541
  C      2.885433   -1.577895   -9.256536
  H      2.558550   -3.024606   -7.668073
  H      1.692284   -3.385412   -9.169233
  H      2.316733   -1.156138  -10.091285
  H      3.737973   -2.123661   -9.684600
  H      4.081133    0.209501   -8.983732
  H      4.020125   -0.837308   -7.557277

 Total Charge           Charge          ....   -2
 Multiplicity           Mult            ....    2
 Number of Electrons    NEL             ....  321
 Basis Dimension        Dim             ....  681

ORBITAL ENERGIES
----------------
                 SPIN UP ORBITALS
  NO   OCC          E(Eh)            E(eV)
   0   1.0000    -196.677449     -5351.8655
   1   1.0000     -88.738901     -2414.7083
   2   1.0000     -88.738778     -2414.7049
   3   1.0000     -88.734364     -2414.5848
   4   1.0000     -88.734349     -2414.5844
   5   1.0000     -88.731697     -2414.5122
   6   1.0000     -88.731536     -2414.5078
   7   1.0000     -88.724673     -2414.3211
   8   1.0000     -88.724621     -2414.3197
   9   1.0000     -88.644183     -2412.1308
  10   1.0000     -88.643711     -2412.1180
  11   1.0000     -88.641885     -2412.0683
  12   1.0000     -88.641719     -2412.0638
  13   1.0000     -22.052819      -600.0877
  14   1.0000     -18.893055      -514.1062
  15   1.0000     -18.559302      -505.0243
  16   1.0000     -18.554075      -504.8821
  17   1.0000     -18.553981      -504.8795
  18   1.0000     -10.087384      -274.4917
  19   1.0000     -10.077163      -274.2135
  20   1.0000     -10.064526      -273.8697
  21   1.0000     -10.064469      -273.8681
  22   1.0000     -10.062223      -273.8070
  23   1.0000     -10.062181      -273.8059
  24   1.0000     -10.052277      -273.5364
  25   1.0000     -10.050221      -273.4804
  26   1.0000     -10.049628      -273.4643
  27   1.0000     -10.048323      -273.4288
  28   1.0000     -10.026180      -272.8262
  29   1.0000     -10.025420      -272.8055
  30   1.0000     -10.020039      -272.6591
  31   1.0000     -10.019096      -272.6335
  32   1.0000      -7.790612      -211.9933
  33   1.0000      -7.790505      -211.9904
  34   1.0000      -7.787812      -211.9171
  35   1.0000      -7.787798      -211.9167
  36   1.0000      -7.784955      -211.8394
  37   1.0000      -7.784826      -211.8359
  38   1.0000      -7.778145      -211.6541
  39   1.0000      -7.778090      -211.6526
  40   1.0000      -7.698373      -209.4834
  41   1.0000      -7.697969      -209.4724
  42   1.0000      -7.696233      -209.4251
  43   1.0000      -7.695944      -209.4173
  44   1.0000      -5.755512      -156.6154
  45   1.0000      -5.755413      -156.6127
  46   1.0000      -5.752797      -156.5416
  47   1.0000      -5.752788      -156.5413
  48   1.0000      -5.751322      -156.5014
  49   1.0000      -5.751212      -156.4984
  50   1.0000      -5.749904      -156.4628
  51   1.0000      -5.749767      -156.4591
  52   1.0000      -5.749385      -156.4487
  53   1.0000      -5.749383      -156.4487
  54   1.0000      -5.746598      -156.3729
  55   1.0000      -5.746492      -156.3700
  56   1.0000      -5.745472      -156.3423
  57   1.0000      -5.745344      -156.3388
  58   1.0000      -5.743467      -156.2877
  59   1.0000      -5.743400      -156.2858
  60   1.0000      -5.742603      -156.2642
  61   1.0000      -5.742587      -156.2637
  62   1.0000      -5.740769      -156.2143
  63   1.0000      -5.740642      -156.2108
  64   1.0000      -5.739301      -156.1743
  65   1.0000      -5.739262      -156.1733
  66   1.0000      -5.733011      -156.0032
  67   1.0000      -5.732954      -156.0016
  68   1.0000      -5.663673      -154.1164
  69   1.0000      -5.663249      -154.1048
  70   1.0000      -5.661520      -154.0578
  71   1.0000      -5.661266      -154.0509
  72   1.0000      -5.656975      -153.9341
  73   1.0000      -5.656586      -153.9235
  74   1.0000      -5.655797      -153.9021
  75   1.0000      -5.655372      -153.8905
  76   1.0000      -5.654862      -153.8766
  77   1.0000      -5.654626      -153.8702
  78   1.0000      -5.653558      -153.8411
  79   1.0000      -5.653253      -153.8328
  80   1.0000      -2.446498       -66.5726
  81   1.0000      -1.487916       -40.4883
  82   1.0000      -1.476098       -40.1667
  83   1.0000      -1.475286       -40.1446
  84   1.0000      -0.710815       -19.3423
  85   1.0000      -0.698861       -19.0170
  86   1.0000      -0.686961       -18.6932
  87   1.0000      -0.678425       -18.4609
  88   1.0000      -0.652543       -17.7566
  89   1.0000      -0.632686       -17.2162
  90   1.0000      -0.624873       -17.0037
  91   1.0000      -0.618400       -16.8275
  92   1.0000      -0.608158       -16.5488
  93   1.0000      -0.575999       -15.6737
  94   1.0000      -0.575116       -15.6497
  95   1.0000      -0.574753       -15.6398
  96   1.0000      -0.567092       -15.4314
  97   1.0000      -0.497700       -13.5431
  98   1.0000      -0.497205       -13.5296
  99   1.0000      -0.492306       -13.3963
 100   1.0000      -0.482878       -13.1398
 101   1.0000      -0.480786       -13.0829
 102   1.0000      -0.477885       -13.0039
 103   1.0000      -0.447870       -12.1872
 104   1.0000      -0.441239       -12.0067
 105   1.0000      -0.416512       -11.3339
 106   1.0000      -0.411533       -11.1984
 107   1.0000      -0.356546        -9.7021
 108   1.0000      -0.349178        -9.5016
 109   1.0000      -0.327802        -8.9200
 110   1.0000      -0.321404        -8.7459
 111   1.0000      -0.319092        -8.6829
 112   1.0000      -0.309617        -8.4251
 113   1.0000      -0.305205        -8.3050
 114   1.0000      -0.295351        -8.0369
 115   1.0000      -0.293488        -7.9862
 116   1.0000      -0.291013        -7.9189
 117   1.0000      -0.258567        -7.0360
 118   1.0000      -0.258243        -7.0271
 119   1.0000      -0.255733        -6.9588
 120   1.0000      -0.249418        -6.7870
 121   1.0000      -0.235600        -6.4110
 122   1.0000      -0.231844        -6.3088
 123   1.0000      -0.226181        -6.1547
 124   1.0000      -0.224742        -6.1155
 125   1.0000      -0.219862        -5.9828
 126   1.0000      -0.216012        -5.8780
 127   1.0000      -0.215517        -5.8645
 128   1.0000      -0.208018        -5.6605
 129   1.0000      -0.194761        -5.2997
 130   1.0000      -0.187568        -5.1040
 131   1.0000      -0.184915        -5.0318
 132   1.0000      -0.179119        -4.8741
 133   1.0000      -0.178090        -4.8461
 134   1.0000      -0.160337        -4.3630
 135   1.0000      -0.151121        -4.1122
 136   1.0000      -0.138361        -3.7650
 137   1.0000      -0.137528        -3.7423
 138   1.0000      -0.135652        -3.6913
 139   1.0000      -0.132003        -3.5920
 140   1.0000      -0.125692        -3.4203
 141   1.0000      -0.124018        -3.3747
 142   1.0000      -0.116021        -3.1571
 143   1.0000      -0.111113        -3.0235
 144   1.0000      -0.101045        -2.7496
 145   1.0000      -0.099540        -2.7086
 146   1.0000      -0.097141        -2.6433
 147   1.0000      -0.085409        -2.3241
 148   1.0000      -0.077354        -2.1049
 149   1.0000      -0.068675        -1.8687
 150   1.0000      -0.062486        -1.7003
 151   1.0000      -0.054409        -1.4805
 152   1.0000      -0.048089        -1.3086
 153   1.0000      -0.040654        -1.1062
 154   1.0000      -0.040082        -1.0907
 155   1.0000      -0.033804        -0.9198
 156   1.0000      -0.028388        -0.7725
 157   1.0000      -0.021804        -0.5933
 158   1.0000      -0.018480        -0.5029
 159   1.0000       0.016469         0.4481
 160   1.0000       0.037535         1.0214
 161   0.0000       0.103505         2.8165
 162   0.0000       0.135643         3.6910
 163   0.0000       0.159915         4.3515
 164   0.0000       0.160925         4.3790
 165   0.0000       0.165516         4.5039

                 SPIN DOWN ORBITALS
  NO   OCC          E(Eh)            E(eV)
   0   1.0000    -196.677597     -5351.8695
   1   1.0000     -88.738908     -2414.7084
   2   1.0000     -88.738784     -2414.7051
   3   1.0000     -88.734365     -2414.5848
   4   1.0000     -88.734350     -2414.5844
   5   1.0000     -88.731705     -2414.5125
   6   1.0000     -88.731544     -2414.5081
   7   1.0000     -88.724674     -2414.3211
   8   1.0000     -88.724622     -2414.3197
   9   1.0000     -88.644319     -2412.1346
  10   1.0000     -88.643849     -2412.1218
  11   1.0000     -88.642026     -2412.0721
  12   1.0000     -88.641861     -2412.0677
  13   1.0000     -22.037890      -599.6815
  14   1.0000     -18.896853      -514.2095
  15   1.0000     -18.554034      -504.8809
  16   1.0000     -18.538046      -504.4459
  17   1.0000     -18.537866      -504.4410
  18   1.0000     -10.087393      -274.4919
  19   1.0000     -10.077157      -274.2134
  20   1.0000     -10.064526      -273.8697
  21   1.0000     -10.064468      -273.8681
  22   1.0000     -10.062224      -273.8070
  23   1.0000     -10.062182      -273.8059
  24   1.0000     -10.052277      -273.5364
  25   1.0000     -10.050224      -273.4805
  26   1.0000     -10.049617      -273.4640
  27   1.0000     -10.048323      -273.4288
  28   1.0000     -10.025958      -272.8202
  29   1.0000     -10.025200      -272.7996
  30   1.0000     -10.019801      -272.6527
  31   1.0000     -10.018874      -272.6274
  32   1.0000      -7.790620      -211.9935
  33   1.0000      -7.790513      -211.9906
  34   1.0000      -7.787813      -211.9172
  35   1.0000      -7.787798      -211.9168
  36   1.0000      -7.784964      -211.8397
  37   1.0000      -7.784836      -211.8362
  38   1.0000      -7.778145      -211.6541
  39   1.0000      -7.778091      -211.6526
  40   1.0000      -7.698500      -209.4868
  41   1.0000      -7.698098      -209.4759
  42   1.0000      -7.696364      -209.4287
  43   1.0000      -7.696077      -209.4209
  44   1.0000      -5.755520      -156.6156
  45   1.0000      -5.755421      -156.6130
  46   1.0000      -5.752799      -156.5416
  47   1.0000      -5.752789      -156.5413
  48   1.0000      -5.751336      -156.5018
  49   1.0000      -5.751226      -156.4988
  50   1.0000      -5.749915      -156.4631
  51   1.0000      -5.749778      -156.4594
  52   1.0000      -5.749387      -156.4488
  53   1.0000      -5.749384      -156.4487
  54   1.0000      -5.746601      -156.3730
  55   1.0000      -5.746495      -156.3701
  56   1.0000      -5.745486      -156.3426
  57   1.0000      -5.745358      -156.3391
  58   1.0000      -5.743467      -156.2877
  59   1.0000      -5.743400      -156.2859
  60   1.0000      -5.742604      -156.2642
  61   1.0000      -5.742588      -156.2638
  62   1.0000      -5.740777      -156.2145
  63   1.0000      -5.740651      -156.2111
  64   1.0000      -5.739301      -156.1743
  65   1.0000      -5.739262      -156.1733
  66   1.0000      -5.733012      -156.0032
  67   1.0000      -5.732954      -156.0016
  68   1.0000      -5.663816      -154.1203
  69   1.0000      -5.663391      -154.1087
  70   1.0000      -5.661659      -154.0616
  71   1.0000      -5.661408      -154.0547
  72   1.0000      -5.657329      -153.9437
  73   1.0000      -5.656949      -153.9334
  74   1.0000      -5.655895      -153.9047
  75   1.0000      -5.655471      -153.8932
  76   1.0000      -5.655253      -153.8873
  77   1.0000      -5.655013      -153.8807
  78   1.0000      -5.653644      -153.8435
  79   1.0000      -5.653346      -153.8354
  80   1.0000      -2.401620       -65.3514
  81   1.0000      -1.468614       -39.9630
  82   1.0000      -1.413729       -38.4695
  83   1.0000      -1.413579       -38.4654
  84   1.0000      -0.710788       -19.3415
  85   1.0000      -0.698844       -19.0165
  86   1.0000      -0.686905       -18.6916
  87   1.0000      -0.678368       -18.4593
  88   1.0000      -0.660693       -17.9784
  89   1.0000      -0.632610       -17.2142
  90   1.0000      -0.624818       -17.0022
  91   1.0000      -0.618400       -16.8275
  92   1.0000      -0.608161       -16.5489
  93   1.0000      -0.575970       -15.6730
  94   1.0000      -0.575087       -15.6489
  95   1.0000      -0.574671       -15.6376
  96   1.0000      -0.567029       -15.4296
  97   1.0000      -0.497720       -13.5436
  98   1.0000      -0.497256       -13.5310
  99   1.0000      -0.492394       -13.3987
 100   1.0000      -0.482911       -13.1407
 101   1.0000      -0.480975       -13.0880
 102   1.0000      -0.478096       -13.0096
 103   1.0000      -0.447896       -12.1879
 104   1.0000      -0.441294       -12.0082
 105   1.0000      -0.416518       -11.3340
 106   1.0000      -0.411603       -11.2003
 107   1.0000      -0.356536        -9.7018
 108   1.0000      -0.349175        -9.5015
 109   1.0000      -0.327787        -8.9195
 110   1.0000      -0.321403        -8.7458
 111   1.0000      -0.319033        -8.6813
 112   1.0000      -0.309591        -8.4244
 113   1.0000      -0.305162        -8.3039
 114   1.0000      -0.295318        -8.0360
 115   1.0000      -0.293483        -7.9861
 116   1.0000      -0.291006        -7.9187
 117   1.0000      -0.258497        -7.0341
 118   1.0000      -0.258113        -7.0236
 119   1.0000      -0.255688        -6.9576
 120   1.0000      -0.249270        -6.7830
 121   1.0000      -0.235579        -6.4104
 122   1.0000      -0.231803        -6.3077
 123   1.0000      -0.226154        -6.1540
 124   1.0000      -0.224573        -6.1109
 125   1.0000      -0.219607        -5.9758
 126   1.0000      -0.215950        -5.8763
 127   1.0000      -0.215351        -5.8600
 128   1.0000      -0.207714        -5.6522
 129   1.0000      -0.193283        -5.2595
 130   1.0000      -0.187335        -5.0976
 131   1.0000      -0.184698        -5.0259
 132   1.0000      -0.178992        -4.8706
 133   1.0000      -0.177744        -4.8367
 134   1.0000      -0.159718        -4.3462
 135   1.0000      -0.150971        -4.1081
 136   1.0000      -0.138140        -3.7590
 137   1.0000      -0.136856        -3.7240
 138   1.0000      -0.135600        -3.6899
 139   1.0000      -0.131298        -3.5728
 140   1.0000      -0.125664        -3.4195
 141   1.0000      -0.123668        -3.3652
 142   1.0000      -0.117907        -3.2084
 143   1.0000      -0.112741        -3.0678
 144   1.0000      -0.101017        -2.7488
 145   1.0000      -0.099790        -2.7154
 146   1.0000      -0.097362        -2.6494
 147   1.0000      -0.085411        -2.3242
 148   1.0000      -0.073602        -2.0028
 149   1.0000      -0.068676        -1.8688
 150   1.0000      -0.062490        -1.7004
 151   1.0000      -0.051789        -1.4092
 152   1.0000      -0.047155        -1.2831
 153   1.0000      -0.040678        -1.1069
 154   1.0000      -0.039687        -1.0799
 155   1.0000      -0.033902        -0.9225
 156   1.0000      -0.029245        -0.7958
 157   1.0000      -0.018723        -0.5095
 158   1.0000       0.016841         0.4583
 159   1.0000       0.036301         0.9878
 160   0.0000       0.103454         2.8151
 161   0.0000       0.135650         3.6912
 162   0.0000       0.153280         4.1710
 163   0.0000       0.160368         4.3638
 164   0.0000       0.161754         4.4016

MULLIKEN ATOMIC CHARGES AND SPIN POPULATIONS
--------------------------------------------
   0 V :    0.470064    1.210843
   1 S :   -0.274086   -0.022061
   2 S :   -0.289308   -0.025481
   3 S :   -0.272039   -0.022943
   4 S :   -0.285268   -0.025916
   5 O :   -0.465995   -0.147025
   6 C :   -0.077064    0.009681
   7 C :   -0.083963    0.008045
   8 C :   -0.097209    0.007906
   9 C :   -0.097640    0.007576
  10 S :    0.100077   -0.000594
  11 S :    0.101380   -0.000637
  12 S :    0.117051    0.000002
  13 S :    0.116126    0.000030
  14 C :   -0.212239    0.001528
  15 C :   -0.180314   -0.000507
  16 C :   -0.192868   -0.000074
  17 C :   -0.187371   -0.000149
  18 S :    0.009635   -0.000114
  19 S :    0.010010   -0.000114
  20 S :   -0.030730   -0.000032
  21 S :   -0.030992   -0.000035
  22 C :   -0.246831   -0.000048
  23 C :   -0.247444   -0.000050
  24 C :   -0.242260   -0.000008
  25 H :    0.134938    0.000003
  26 H :    0.103514   -0.000005
  27 H :    0.078893   -0.000003
  28 H :    0.104927   -0.000005
  29 H :    0.103348   -0.000005
  30 H :    0.134859    0.000002
  31 C :   -0.300816    0.000195
  32 C :   -0.301703    0.000191
  33 C :   -0.156781   -0.000239
  34 H :    0.142305   -0.000017
  35 H :    0.114051    0.000019
  36 H :    0.092486    0.000024
  37 H :    0.083072    0.000015
  38 H :    0.113894    0.000021
  39 H :    0.142293   -0.000018
Sum of atomic charges         :   -2.0000000

LOEWDIN ATOMIC CHARGES AND SPIN POPULATIONS
-------------------------------------------
   0 V :   -0.157655    1.163946
   1 S :    0.082579   -0.014272
   2 S :    0.079980   -0.016291
   3 S :    0.084062   -0.015016
   4 S :    0.083873   -0.016485
   5 O :   -0.317646   -0.131898
   6 C :   -0.549665    0.009028
   7 C :   -0.551884    0.007915
   8 C :   -0.542948    0.008548
   9 C :   -0.542863    0.008108
  10 S :    0.471522   -0.000906
  11 S :    0.472480   -0.000957
  12 S :    0.477692   -0.000588
  13 S :    0.476962   -0.000609
  14 C :   -0.465081    0.000162
  15 C :   -0.441075   -0.000560
  16 C :   -0.621890    0.000480
  17 C :   -0.641647   -0.000316
  18 S :    0.359067   -0.000090
  19 S :    0.360470   -0.000088
  20 S :    0.342183   -0.000050
  21 S :    0.342019   -0.000051
  22 C :   -0.286513   -0.000050
  23 C :   -0.286601   -0.000052
  24 C :   -0.186302    0.000000
  25 H :    0.059675   -0.000002
  26 H :    0.057210   -0.000003
  27 H :    0.055447   -0.000005
  28 H :    0.063684   -0.000003
  29 H :    0.057168   -0.000003
  30 H :    0.059521   -0.000002
  31 C :   -0.283949    0.000043
  32 C :   -0.283688    0.000037
  33 C :   -0.176176    0.000007
  34 H :    0.062180   -0.000001
  35 H :    0.053678    0.000008
  36 H :    0.060345    0.000005
  37 H :    0.057983    0.000002
  38 H :    0.053734    0.000009
  39 H :    0.062072   -0.000000

  Mayer bond orders larger than 0.100000
B(  0-V ,  1-S ) :   0.7665 B(  0-V ,  2-S ) :   0.7741 B(  0-V ,  3-S ) :   0.7599
B(  0-V ,  4-S ) :   0.7815 B(  0-V ,  5-O ) :   2.1510 B(  1-S ,  8-C ) :   1.1156
B(  2-S ,  6-C ) :   1.1029 B(  3-S ,  9-C ) :   1.1178 B(  4-S ,  7-C ) :   1.1030
B(  6-C ,  7-C ) :   1.6844 B(  6-C , 10-S ) :   0.9353 B(  7-C , 11-S ) :   0.9392
B(  8-C ,  9-C ) :   1.6459 B(  8-C , 13-S ) :   0.9668 B(  9-C , 12-S ) :   0.9694
B( 10-S , 14-C ) :   1.2478 B( 11-S , 14-C ) :   1.2474 B( 12-S , 15-C ) :   1.1528
B( 13-S , 15-C ) :   1.1542 B( 14-C , 16-C ) :   1.4536 B( 15-C , 17-C ) :   1.3471
B( 16-C , 18-S ) :   1.0887 B( 16-C , 19-S ) :   1.0903 B( 17-C , 20-S ) :   1.0517
B( 17-C , 21-S ) :   1.0500 B( 18-S , 32-C ) :   0.9915 B( 19-S , 31-C ) :   0.9917
B( 20-S , 23-C ) :   0.9671 B( 21-S , 22-C ) :   0.9669 B( 22-C , 24-C ) :   0.9134
B( 22-C , 25-H ) :   0.9572 B( 22-C , 26-H ) :   0.9710 B( 23-C , 24-C ) :   0.9137
B( 23-C , 29-H ) :   0.9711 B( 23-C , 30-H ) :   0.9571 B( 24-C , 27-H ) :   0.9473
B( 24-C , 28-H ) :   0.9816 B( 31-C , 33-C ) :   0.9132 B( 31-C , 38-H ) :   0.9655
B( 31-C , 39-H ) :   0.9659 B( 32-C , 33-C ) :   0.9130 B( 32-C , 34-H ) :   0.9658
B( 32-C , 35-H ) :   0.9655 B( 33-C , 36-H ) :   0.9717 B( 33-C , 37-H ) :   0.9626

FINAL SINGLE POINT ENERGY     -6337.674837611644

DIPOLE MOMENT
-------------
                                X             Y             Z
Electronic contribution:      8.79560      -8.28215       5.74408
Nuclear contribution   :     -9.56019       9.06872      -7.01835
                        -----------------------------------------
Total Dipole Moment    :     -0.76459       0.78657      -1.27427
                        -----------------------------------------
Magnitude (a.u.)       :      1.68138
Magnitude (Debye)      :      4.27373

Rotational constants in cm-1:     0.010691     0.000804     0.000783
Rotational constants in MHz :   320.499873    24.110881    23.478365

                             ****ORCA TERMINATED NORMALLY****
TOTAL RUN TIME: 0 days 1 hours 2 minutes 26 seconds 344 msec
