                         Program Version 5.0.4 -  RELEASE  -
|  1> ! nofrozencore ReducedPop printbasis
|  2> ! B3LYP TZVP
|  3>
|  4> %basis
|  5> newgto V "CP(PPP)" end
|  6> end
|  7>
|  8> %pal
|  9> nprocs 8
| 10> end
| 11>
| 12> % sym SymThresh 1e-2 end
| 13> * xyz -2 2
| 14> V -1.0344462606570635 -0.3552621784377077 0.2038196057849023
| 15> S 0.06545886468190104 -0.8110599045601112 2.368040032909811
| 16> S -0.9050328891555538 2.0423406724789173 0.8628516201810796
| 17> S 0.1550616578842198 -2.362902355209314 -0.6243685302283208
| 18> S -0.7221922800548314 0.4545595949792338 -2.090269566719929
| 19> O -2.565771744611616 -0.7444602496586044 0.3710671986324223
| 20> C -1.2449276450157742 2.7722342116208663 -0.6996002285750866
| 21> C -1.1744217083842825 2.14156796435584 -1.88701844631194
| 22> C 0.7799746542726225 -2.390139338441165 2.0709522363505473
| 23> C 0.810988361805166 -3.002932734428063 0.8734064709349073
| 24> S -1.6641248033814824 4.513342129564293 -0.7456438179423123
| 25> S -1.477198716917242 3.1481406768440308 -3.3484348612847565
| 26> S 1.644108228381178 -4.586876449779512 0.8017380562181193
| 27> S 1.569515666162249 -3.2654308999789827 3.432993767190923
| 28> C -1.7700932093445059 4.6711900562407624 -2.505780506288589
| 29> C 2.152175629427013 -4.642885552532663 2.497862436401754
| 30> C -2.060669598153161 5.849775248392377 -3.1362017371722413
| 31> C 2.907190589278784 -5.6547446880217755 3.023309096458943
| 32> S -2.350290456827217 7.3504267106217425 -2.2121068270170277
| 33> S -2.2070697803651544 5.976449879982594 -4.906553420076454
| 34> S 3.4534814546827315 -5.672798779588647 4.72054623327068
| 35> S 3.432606598476722 -7.027012118966572 2.012168679707795
| 36> C 5.244488411956606 -6.672569818666688 2.2981259371431904
| 37> C 5.284770834195556 -5.499464053752181 4.591193397566436
| 38> C 5.798572583835574 -6.647686394015515 3.739229315279481
| 39> H 5.430659953003265 -5.703940675335329 1.8255619892763766
| 40> H 5.787761690123471 -7.432748177445545 1.7264386457433254
| 41> H 6.8956075130435455 -6.584917425963823 3.6484322108741982
| 42> H 5.565692415951226 -7.591291541446612 4.243772159454974
| 43> H 5.650060362811558 -5.568084660607638 5.622167067271092
| 44> H 5.554705051168238 -4.519314627514164 4.187626479841961
| 45> C -3.9867610376963825 6.36620620364661 -5.189402852375163
| 46> C -4.0787142314792 7.542671461136019 -2.899717803958565
| 47> C -4.296272613702545 7.641715401628301 -4.4261362216966775
| 48> H -4.641220356974399 6.686990937102954 -2.5144882076411488
| 49> H -4.4837475533650855 8.446684108832812 -2.43079546559184
| 50> H -3.687402159469115 8.453730534589406 -4.837577243484412
| 51> H -5.354407881452563 7.918405293527386 -4.568823800674213
| 52> H -4.076547930172922 6.511193196670508 -6.272600500669921
| 53> H -4.6236713004477705 5.527437919171457 -4.8925015837578565
| 54> *
| 55>
| 56> % eprnmr
| 57> gtensor true
| 58> Nuclei = all H {aiso,adip,aorb,fgrad,rho}
| 59> Nuclei = all V {aiso,adip,aorb,fgrad,rho}
| 60> end
| 61>
| 62>                          ****END OF INPUT****

CARTESIAN COORDINATES (ANGSTROEM)
---------------------------------
  V     -1.032324   -0.352400    0.202405
  S      0.067581   -0.808198    2.366625
  S     -0.902910    2.045203    0.861437
  S      0.157184   -2.360040   -0.625783
  S     -0.720070    0.457422   -2.091684
  O     -2.563649   -0.741598    0.369653
  C     -1.242805    2.775096   -0.701015
  C     -1.172299    2.144430   -1.888433
  C      0.782097   -2.387277    2.069538
  C      0.813111   -3.000071    0.871992
  S     -1.662002    4.516204   -0.747058
  S     -1.475076    3.151003   -3.349849
  S      1.646231   -4.584014    0.800323
  S      1.571638   -3.262569    3.431579
  C     -1.767971    4.674052   -2.507195
  C      2.154298   -4.640023    2.496448
  C     -2.058547    5.852637   -3.137616
  C      2.909313   -5.651883    3.021894
  S     -2.348168    7.353289   -2.213521
  S     -2.204947    5.979312   -4.907968
  S      3.455604   -5.669937    4.719132
  S      3.434729   -7.024150    2.010754
  C      5.246611   -6.669708    2.296711
  C      5.286893   -5.496602    4.589779
  C      5.800695   -6.644824    3.737815
  H      5.432782   -5.701079    1.824147
  H      5.789884   -7.429886    1.725024
  H      6.897730   -6.582055    3.647018
  H      5.567815   -7.588429    4.242358
  H      5.652183   -5.565223    5.620752
  H      5.556827   -4.516452    4.186212
  C     -3.984639    6.369068   -5.190817
  C     -4.076592    7.545534   -2.901132
  C     -4.294150    7.644578   -4.427551
  H     -4.639098    6.689853   -2.515903
  H     -4.481625    8.449546   -2.432210
  H     -3.685280    8.456593   -4.838992
  H     -5.352285    7.921267   -4.570238
  H     -4.074425    6.514055   -6.274015
  H     -4.621549    5.530300   -4.893916

 Total Charge           Charge          ....   -2
 Multiplicity           Mult            ....    2
 Number of Electrons    NEL             ....  321
 Basis Dimension        Dim             ....  681

ORBITAL ENERGIES
----------------
                 SPIN UP ORBITALS
  NO   OCC          E(Eh)            E(eV)
   0   1.0000    -196.674410     -5351.7828
   1   1.0000     -88.735486     -2414.6153
   2   1.0000     -88.735024     -2414.6028
   3   1.0000     -88.731665     -2414.5114
   4   1.0000     -88.731283     -2414.5010
   5   1.0000     -88.730047     -2414.4673
   6   1.0000     -88.729990     -2414.4658
   7   1.0000     -88.729843     -2414.4618
   8   1.0000     -88.729808     -2414.4608
   9   1.0000     -88.639573     -2412.0054
  10   1.0000     -88.639346     -2411.9992
  11   1.0000     -88.639343     -2411.9991
  12   1.0000     -88.638965     -2411.9889
  13   1.0000     -22.049820      -600.0061
  14   1.0000     -18.889740      -514.0160
  15   1.0000     -18.556268      -504.9417
  16   1.0000     -18.551096      -504.8010
  17   1.0000     -18.550992      -504.7982
  18   1.0000     -10.075512      -274.1686
  19   1.0000     -10.075363      -274.1646
  20   1.0000     -10.064460      -273.8679
  21   1.0000     -10.064275      -273.8628
  22   1.0000     -10.064149      -273.8594
  23   1.0000     -10.063657      -273.8460
  24   1.0000     -10.052332      -273.5379
  25   1.0000     -10.052054      -273.5303
  26   1.0000     -10.048682      -273.4385
  27   1.0000     -10.048614      -273.4367
  28   1.0000     -10.017855      -272.5997
  29   1.0000     -10.017814      -272.5986
  30   1.0000     -10.017061      -272.5781
  31   1.0000     -10.016807      -272.5712
  32   1.0000      -7.788522      -211.9365
  33   1.0000      -7.788152      -211.9264
  34   1.0000      -7.785307      -211.8490
  35   1.0000      -7.784981      -211.8401
  36   1.0000      -7.783342      -211.7955
  37   1.0000      -7.783308      -211.7946
  38   1.0000      -7.783075      -211.7882
  39   1.0000      -7.783061      -211.7879
  40   1.0000      -7.693932      -209.3625
  41   1.0000      -7.693720      -209.3568
  42   1.0000      -7.693610      -209.3538
  43   1.0000      -7.693148      -209.3412
  44   1.0000      -5.753438      -156.5590
  45   1.0000      -5.753078      -156.5492
  46   1.0000      -5.750371      -156.4756
  47   1.0000      -5.750303      -156.4737
  48   1.0000      -5.750047      -156.4667
  49   1.0000      -5.749894      -156.4626
  50   1.0000      -5.748316      -156.4196
  51   1.0000      -5.748259      -156.4181
  52   1.0000      -5.748010      -156.4113
  53   1.0000      -5.747985      -156.4106
  54   1.0000      -5.746729      -156.3765
  55   1.0000      -5.746387      -156.3671
  56   1.0000      -5.743820      -156.2973
  57   1.0000      -5.743783      -156.2963
  58   1.0000      -5.743621      -156.2919
  59   1.0000      -5.743613      -156.2917
  60   1.0000      -5.743282      -156.2826
  61   1.0000      -5.742926      -156.2730
  62   1.0000      -5.740112      -156.1964
  63   1.0000      -5.739792      -156.1877
  64   1.0000      -5.739165      -156.1706
  65   1.0000      -5.739150      -156.1702
  66   1.0000      -5.738882      -156.1629
  67   1.0000      -5.738873      -156.1627
  68   1.0000      -5.659237      -153.9957
  69   1.0000      -5.659007      -153.9894
  70   1.0000      -5.658946      -153.9878
  71   1.0000      -5.658489      -153.9753
  72   1.0000      -5.652556      -153.8139
  73   1.0000      -5.652388      -153.8093
  74   1.0000      -5.652267      -153.8060
  75   1.0000      -5.651849      -153.7946
  76   1.0000      -5.651277      -153.7791
  77   1.0000      -5.651036      -153.7725
  78   1.0000      -5.650937      -153.7698
  79   1.0000      -5.650424      -153.7558
  80   1.0000      -2.443479       -66.4904
  81   1.0000      -1.484779       -40.4029
  82   1.0000      -1.473128       -40.0859
  83   1.0000      -1.472306       -40.0635
  84   1.0000      -0.709409       -19.3040
  85   1.0000      -0.709348       -19.3024
  86   1.0000      -0.685607       -18.6563
  87   1.0000      -0.685514       -18.6538
  88   1.0000      -0.649368       -17.6702
  89   1.0000      -0.632171       -17.2022
  90   1.0000      -0.632034       -17.1985
  91   1.0000      -0.614867       -16.7314
  92   1.0000      -0.614718       -16.7273
  93   1.0000      -0.574490       -15.6327
  94   1.0000      -0.574119       -15.6226
  95   1.0000      -0.572916       -15.5898
  96   1.0000      -0.572017       -15.5654
  97   1.0000      -0.497295       -13.5321
  98   1.0000      -0.496977       -13.5234
  99   1.0000      -0.494688       -13.4611
 100   1.0000      -0.493879       -13.4391
 101   1.0000      -0.479649       -13.0519
 102   1.0000      -0.477003       -12.9799
 103   1.0000      -0.446611       -12.1529
 104   1.0000      -0.444495       -12.0953
 105   1.0000      -0.416262       -11.3271
 106   1.0000      -0.410982       -11.1834
 107   1.0000      -0.354830        -9.6554
 108   1.0000      -0.354749        -9.6532
 109   1.0000      -0.327869        -8.9218
 110   1.0000      -0.327514        -8.9121
 111   1.0000      -0.317996        -8.6531
 112   1.0000      -0.313749        -8.5376
 113   1.0000      -0.305255        -8.3064
 114   1.0000      -0.304770        -8.2932
 115   1.0000      -0.289482        -7.8772
 116   1.0000      -0.289297        -7.8722
 117   1.0000      -0.259962        -7.0739
 118   1.0000      -0.258492        -7.0339
 119   1.0000      -0.256275        -6.9736
 120   1.0000      -0.254906        -6.9363
 121   1.0000      -0.238008        -6.4765
 122   1.0000      -0.237715        -6.4685
 123   1.0000      -0.225068        -6.1244
 124   1.0000      -0.224379        -6.1057
 125   1.0000      -0.218505        -5.9458
 126   1.0000      -0.217123        -5.9082
 127   1.0000      -0.213642        -5.8135
 128   1.0000      -0.211450        -5.7539
 129   1.0000      -0.193058        -5.2534
 130   1.0000      -0.188254        -5.1226
 131   1.0000      -0.186575        -5.0770
 132   1.0000      -0.182103        -4.9553
 133   1.0000      -0.177656        -4.8343
 134   1.0000      -0.159344        -4.3360
 135   1.0000      -0.152163        -4.1406
 136   1.0000      -0.147633        -4.0173
 137   1.0000      -0.134406        -3.6574
 138   1.0000      -0.133019        -3.6196
 139   1.0000      -0.132777        -3.6131
 140   1.0000      -0.124579        -3.3900
 141   1.0000      -0.120737        -3.2854
 142   1.0000      -0.113074        -3.0769
 143   1.0000      -0.109223        -2.9721
 144   1.0000      -0.099444        -2.7060
 145   1.0000      -0.097839        -2.6623
 146   1.0000      -0.096901        -2.6368
 147   1.0000      -0.094280        -2.5655
 148   1.0000      -0.074152        -2.0178
 149   1.0000      -0.068179        -1.8552
 150   1.0000      -0.067678        -1.8416
 151   1.0000      -0.051983        -1.4145
 152   1.0000      -0.045265        -1.2317
 153   1.0000      -0.037183        -1.0118
 154   1.0000      -0.036397        -0.9904
 155   1.0000      -0.030683        -0.8349
 156   1.0000      -0.024663        -0.6711
 157   1.0000      -0.018691        -0.5086
 158   1.0000      -0.015011        -0.4085
 159   1.0000       0.020753         0.5647
 160   1.0000       0.041601         1.1320
 161   0.0000       0.136986         3.7276
 162   0.0000       0.137341         3.7372
 163   0.0000       0.157142         4.2760
 164   0.0000       0.157730         4.2921
 165   0.0000       0.167627         4.5614

                 SPIN DOWN ORBITALS
  NO   OCC          E(Eh)            E(eV)
   0   1.0000    -196.674557     -5351.7868
   1   1.0000     -88.735487     -2414.6154
   2   1.0000     -88.735024     -2414.6028
   3   1.0000     -88.731666     -2414.5114
   4   1.0000     -88.731284     -2414.5010
   5   1.0000     -88.730055     -2414.4675
   6   1.0000     -88.729998     -2414.4660
   7   1.0000     -88.729852     -2414.4620
   8   1.0000     -88.729817     -2414.4611
   9   1.0000     -88.639711     -2412.0092
  10   1.0000     -88.639484     -2412.0030
  11   1.0000     -88.639479     -2412.0029
  12   1.0000     -88.639107     -2411.9927
  13   1.0000     -22.034900      -599.6001
  14   1.0000     -18.893512      -514.1186
  15   1.0000     -18.551008      -504.7986
  16   1.0000     -18.535072      -504.3650
  17   1.0000     -18.534888      -504.3599
  18   1.0000     -10.075511      -274.1686
  19   1.0000     -10.075358      -274.1644
  20   1.0000     -10.064458      -273.8678
  21   1.0000     -10.064275      -273.8628
  22   1.0000     -10.064149      -273.8594
  23   1.0000     -10.063658      -273.8460
  24   1.0000     -10.052332      -273.5379
  25   1.0000     -10.052054      -273.5303
  26   1.0000     -10.048678      -273.4384
  27   1.0000     -10.048602      -273.4364
  28   1.0000     -10.017624      -272.5934
  29   1.0000     -10.017595      -272.5926
  30   1.0000     -10.016831      -272.5718
  31   1.0000     -10.016598      -272.5655
  32   1.0000      -7.788523      -211.9365
  33   1.0000      -7.788152      -211.9264
  34   1.0000      -7.785308      -211.8490
  35   1.0000      -7.784982      -211.8401
  36   1.0000      -7.783351      -211.7958
  37   1.0000      -7.783318      -211.7948
  38   1.0000      -7.783085      -211.7885
  39   1.0000      -7.783070      -211.7881
  40   1.0000      -7.694060      -209.3660
  41   1.0000      -7.693850      -209.3603
  42   1.0000      -7.693736      -209.3572
  43   1.0000      -7.693281      -209.3448
  44   1.0000      -5.753439      -156.5590
  45   1.0000      -5.753079      -156.5492
  46   1.0000      -5.750372      -156.4756
  47   1.0000      -5.750304      -156.4737
  48   1.0000      -5.750048      -156.4668
  49   1.0000      -5.749894      -156.4626
  50   1.0000      -5.748326      -156.4199
  51   1.0000      -5.748269      -156.4184
  52   1.0000      -5.748021      -156.4116
  53   1.0000      -5.747997      -156.4109
  54   1.0000      -5.746730      -156.3765
  55   1.0000      -5.746388      -156.3672
  56   1.0000      -5.743834      -156.2977
  57   1.0000      -5.743797      -156.2967
  58   1.0000      -5.743634      -156.2922
  59   1.0000      -5.743628      -156.2921
  60   1.0000      -5.743283      -156.2827
  61   1.0000      -5.742927      -156.2730
  62   1.0000      -5.740113      -156.1964
  63   1.0000      -5.739792      -156.1877
  64   1.0000      -5.739171      -156.1708
  65   1.0000      -5.739159      -156.1705
  66   1.0000      -5.738891      -156.1632
  67   1.0000      -5.738879      -156.1628
  68   1.0000      -5.659377      -153.9995
  69   1.0000      -5.659149      -153.9933
  70   1.0000      -5.659089      -153.9916
  71   1.0000      -5.658628      -153.9791
  72   1.0000      -5.652936      -153.8242
  73   1.0000      -5.652748      -153.8191
  74   1.0000      -5.652614      -153.8154
  75   1.0000      -5.652237      -153.8052
  76   1.0000      -5.651360      -153.7813
  77   1.0000      -5.651142      -153.7754
  78   1.0000      -5.651042      -153.7727
  79   1.0000      -5.650519      -153.7584
  80   1.0000      -2.398627       -65.2700
  81   1.0000      -1.465515       -39.8787
  82   1.0000      -1.410796       -38.3897
  83   1.0000      -1.410616       -38.3848
  84   1.0000      -0.709394       -19.3036
  85   1.0000      -0.709323       -19.3017
  86   1.0000      -0.685553       -18.6548
  87   1.0000      -0.685469       -18.6526
  88   1.0000      -0.657457       -17.8903
  89   1.0000      -0.632114       -17.2007
  90   1.0000      -0.631967       -17.1967
  91   1.0000      -0.614864       -16.7313
  92   1.0000      -0.614711       -16.7271
  93   1.0000      -0.574465       -15.6320
  94   1.0000      -0.574091       -15.6218
  95   1.0000      -0.572840       -15.5878
  96   1.0000      -0.571945       -15.5634
  97   1.0000      -0.497318       -13.5327
  98   1.0000      -0.497014       -13.5245
  99   1.0000      -0.494720       -13.4620
 100   1.0000      -0.493913       -13.4401
 101   1.0000      -0.479839       -13.0571
 102   1.0000      -0.477255       -12.9868
 103   1.0000      -0.446629       -12.1534
 104   1.0000      -0.444540       -12.0965
 105   1.0000      -0.416258       -11.3269
 106   1.0000      -0.411091       -11.1863
 107   1.0000      -0.354819        -9.6551
 108   1.0000      -0.354744        -9.6531
 109   1.0000      -0.327857        -8.9214
 110   1.0000      -0.327506        -8.9119
 111   1.0000      -0.317916        -8.6509
 112   1.0000      -0.313766        -8.5380
 113   1.0000      -0.305210        -8.3052
 114   1.0000      -0.304745        -8.2925
 115   1.0000      -0.289476        -7.8770
 116   1.0000      -0.289289        -7.8720
 117   1.0000      -0.259815        -7.0699
 118   1.0000      -0.258440        -7.0325
 119   1.0000      -0.256223        -6.9722
 120   1.0000      -0.254868        -6.9353
 121   1.0000      -0.237996        -6.4762
 122   1.0000      -0.237708        -6.4684
 123   1.0000      -0.224850        -6.1185
 124   1.0000      -0.224251        -6.1022
 125   1.0000      -0.218336        -5.9412
 126   1.0000      -0.216994        -5.9047
 127   1.0000      -0.213435        -5.8079
 128   1.0000      -0.211321        -5.7503
 129   1.0000      -0.191451        -5.2096
 130   1.0000      -0.188161        -5.1201
 131   1.0000      -0.186148        -5.0653
 132   1.0000      -0.181865        -4.9488
 133   1.0000      -0.177545        -4.8312
 134   1.0000      -0.158721        -4.3190
 135   1.0000      -0.151981        -4.1356
 136   1.0000      -0.147540        -4.0148
 137   1.0000      -0.133623        -3.6361
 138   1.0000      -0.132798        -3.6136
 139   1.0000      -0.132553        -3.6069
 140   1.0000      -0.124024        -3.3749
 141   1.0000      -0.120404        -3.2764
 142   1.0000      -0.114846        -3.1251
 143   1.0000      -0.110784        -3.0146
 144   1.0000      -0.099425        -2.7055
 145   1.0000      -0.098181        -2.6716
 146   1.0000      -0.096880        -2.6362
 147   1.0000      -0.094600        -2.5742
 148   1.0000      -0.070322        -1.9135
 149   1.0000      -0.068152        -1.8545
 150   1.0000      -0.067681        -1.8417
 151   1.0000      -0.049394        -1.3441
 152   1.0000      -0.044322        -1.2061
 153   1.0000      -0.037091        -1.0093
 154   1.0000      -0.035983        -0.9792
 155   1.0000      -0.030713        -0.8357
 156   1.0000      -0.025650        -0.6980
 157   1.0000      -0.015280        -0.4158
 158   1.0000       0.021047         0.5727
 159   1.0000       0.040494         1.1019
 160   0.0000       0.136993         3.7278
 161   0.0000       0.137338         3.7372
 162   0.0000       0.154432         4.2023
 163   0.0000       0.157530         4.2866
 164   0.0000       0.160663         4.3719

MULLIKEN ATOMIC CHARGES AND SPIN POPULATIONS
--------------------------------------------
   0 V :    0.470443    1.209961
   1 S :   -0.288815   -0.022394
   2 S :   -0.292063   -0.025477
   3 S :   -0.290109   -0.023312
   4 S :   -0.283198   -0.025213
   5 O :   -0.467969   -0.146379
   6 C :   -0.086053    0.009027
   7 C :   -0.076293    0.008695
   8 C :   -0.077296    0.007888
   9 C :   -0.091770    0.007320
  10 S :    0.098157   -0.000654
  11 S :    0.102021   -0.000573
  12 S :    0.097922   -0.000345
  13 S :    0.101303   -0.000397
  14 C :   -0.204670    0.001478
  15 C :   -0.204504    0.000990
  16 C :   -0.192790   -0.000045
  17 C :   -0.191525   -0.000391
  18 S :    0.012494   -0.000107
  19 S :    0.002833   -0.000108
  20 S :    0.002444   -0.000069
  21 S :    0.011746   -0.000068
  22 C :   -0.331174   -0.000004
  23 C :   -0.282066    0.000004
  24 C :   -0.152830   -0.000012
  25 H :    0.148123   -0.000001
  26 H :    0.111849   -0.000005
  27 H :    0.081449   -0.000000
  28 H :    0.094349   -0.000001
  29 H :    0.114283   -0.000003
  30 H :    0.141462   -0.000002
  31 C :   -0.281702    0.000206
  32 C :   -0.334368    0.000183
  33 C :   -0.150865   -0.000236
  34 H :    0.147908   -0.000018
  35 H :    0.111530    0.000025
  36 H :    0.094718    0.000023
  37 H :    0.080260    0.000015
  38 H :    0.114227    0.000016
  39 H :    0.140537   -0.000017
Sum of atomic charges         :   -2.0000000

LOEWDIN ATOMIC CHARGES AND SPIN POPULATIONS
-------------------------------------------
   0 V :   -0.157151    1.163338
   1 S :    0.081720   -0.014386
   2 S :    0.074697   -0.016551
   3 S :    0.080922   -0.015193
   4 S :    0.087620   -0.015668
   5 O :   -0.319235   -0.131313
   6 C :   -0.551726    0.008486
   7 C :   -0.550169    0.008490
   8 C :   -0.550230    0.008177
   9 C :   -0.554550    0.007715
  10 S :    0.471249   -0.000941
  11 S :    0.471907   -0.000928
  12 S :    0.470324   -0.000796
  13 S :    0.471621   -0.000858
  14 C :   -0.465844    0.000156
  15 C :   -0.465809   -0.000076
  16 C :   -0.621348    0.000484
  17 C :   -0.621021    0.000088
  18 S :    0.349103   -0.000085
  19 S :    0.367710   -0.000083
  20 S :    0.365547   -0.000074
  21 S :    0.350488   -0.000071
  22 C :   -0.282534   -0.000011
  23 C :   -0.283864   -0.000004
  24 C :   -0.177587   -0.000002
  25 H :    0.064644   -0.000001
  26 H :    0.051595   -0.000002
  27 H :    0.057418   -0.000002
  28 H :    0.060641   -0.000001
  29 H :    0.056248   -0.000002
  30 H :    0.061632   -0.000002
  31 C :   -0.284668    0.000065
  32 C :   -0.282888    0.000020
  33 C :   -0.177979    0.000007
  34 H :    0.064576   -0.000001
  35 H :    0.051431    0.000010
  36 H :    0.060788    0.000004
  37 H :    0.057064    0.000002
  38 H :    0.056514    0.000008
  39 H :    0.061141   -0.000001

  Mayer bond orders larger than 0.100000
B(  0-V ,  1-S ) :   0.7736 B(  0-V ,  2-S ) :   0.7609 B(  0-V ,  3-S ) :   0.7652
B(  0-V ,  4-S ) :   0.7878 B(  0-V ,  5-O ) :   2.1483 B(  1-S ,  8-C ) :   1.1039
B(  2-S ,  6-C ) :   1.1113 B(  3-S ,  9-C ) :   1.1056 B(  4-S ,  7-C ) :   1.0977
B(  6-C ,  7-C ) :   1.6844 B(  6-C , 10-S ) :   0.9396 B(  7-C , 11-S ) :   0.9342
B(  8-C ,  9-C ) :   1.6982 B(  8-C , 13-S ) :   0.9298 B(  9-C , 12-S ) :   0.9398
B( 10-S , 14-C ) :   1.2459 B( 11-S , 14-C ) :   1.2483 B( 12-S , 15-C ) :   1.2435
B( 13-S , 15-C ) :   1.2473 B( 14-C , 16-C ) :   1.4468 B( 15-C , 17-C ) :   1.4496
B( 16-C , 18-S ) :   1.0735 B( 16-C , 19-S ) :   1.1044 B( 17-C , 20-S ) :   1.1011
B( 17-C , 21-S ) :   1.0748 B( 18-S , 32-C ) :   1.0059 B( 19-S , 31-C ) :   0.9706
B( 20-S , 23-C ) :   0.9726 B( 21-S , 22-C ) :   1.0037 B( 22-C , 24-C ) :   0.9052
B( 22-C , 25-H ) :   0.9706 B( 22-C , 26-H ) :   0.9633 B( 23-C , 24-C ) :   0.9122
B( 23-C , 29-H ) :   0.9686 B( 23-C , 30-H ) :   0.9590 B( 24-C , 27-H ) :   0.9606
B( 24-C , 28-H ) :   0.9733 B( 31-C , 33-C ) :   0.9118 B( 31-C , 38-H ) :   0.9688
B( 31-C , 39-H ) :   0.9587 B( 32-C , 33-C ) :   0.9040 B( 32-C , 34-H ) :   0.9711
B( 32-C , 35-H ) :   0.9632 B( 33-C , 36-H ) :   0.9733 B( 33-C , 37-H ) :   0.9602

FINAL SINGLE POINT ENERGY     -6337.695237555754

DIPOLE MOMENT
-------------
                                X             Y             Z
Electronic contribution:    -10.99418      -6.70559       4.45077
Nuclear contribution   :     12.25127       7.42086      -4.95289
                        -----------------------------------------
Total Dipole Moment    :      1.25710       0.71528      -0.50212
                        -----------------------------------------
Magnitude (a.u.)       :      1.53102
Magnitude (Debye)      :      3.89155

Rotational constants in cm-1:     0.010751     0.000804     0.000783
Rotational constants in MHz :   322.312598    24.115468    23.486005

                             ****ORCA TERMINATED NORMALLY****
TOTAL RUN TIME: 0 days 1 hours 1 minutes 44 seconds 13 msec
