                         Program Version 5.0.4 -  RELEASE  -
|  1> ! nofrozencore ReducedPop printbasis
|  2> ! B3LYP TZVP
|  3>
|  4> %basis
|  5> newgto V "CP(PPP)" end
|  6> end
|  7>
|  8> %pal
|  9> nprocs 6
| 10> end
| 11>
| 12> % sym SymThresh 1e-2 end
| 13> * xyz -2 2
| 14> V 0.44438708574530367 0.8984012314494338 0.4841042338793752
| 15> S -1.879381873939859 1.0049941767166737 1.3256665338601858
| 16> S 0.7220667311132222 -1.009026986265438 2.037120502540916
| 17> S -0.47918892716276373 1.7330938248611178 -1.656181581004589
| 18> S 2.022358352626134 -0.3075169284562148 -0.9789708861928244
| 19> O 1.240992253388883 2.101217845303037 1.149608389105544
| 20> C 2.226190673959991 -1.670877970255247 1.4105153233213277
| 21> C 2.745162757221055 -1.391910534874972 0.19992093596360364
| 22> C -2.679676393005992 1.842458049192819 0.0029748462126198932
| 23> C -2.123922488716726 2.1331210828202187 -1.18759554822433
| 24> S 3.123786640384639 -2.8686013113763638 2.404371267439422
| 25> S 4.245834712208521 -2.2668942508436034 -0.25078998220104654
| 26> S -3.1753200403638835 2.9462354407205753 -2.390307874586147
| 27> S -4.400326705646978 2.326713266963424 0.21529729495608566
| 28> C 4.402581426061772 -3.2135277978488035 1.2334927547589845
| 29> C -4.650740957203908 2.9735502862476753 -1.4004803436123057
| 30> C 5.41352081983623 -4.1081468962084715 1.4539488528966136
| 31> C -5.845782642519836 3.458565069106014 -1.855145977520506
| 32> S 5.568609584710306 -5.000825201349258 2.9889844569533426
| 33> S 6.67275869213678 -4.420138387455506 0.23269472993021173
| 34> S -7.363162712147841 3.4013546416393585 -0.8726784421068462
| 35> S -5.98623031911028 4.147726395744871 -3.4696263381337022
| 36> C -7.390898875719909 2.693386239467723 -4.2386268372993285
| 37> C -8.214194741479563 2.4774917927527285 -1.7716807231232021
| 38> C -8.580561187653277 2.7746508999605624 -3.2357644568455903
| 39> H -6.84804574438335 1.7466180322167983 -4.200736584753823
| 40> H -7.649880009149823 2.963649281065215 -5.262543457185845
| 41> H -9.402823089096112 2.018352001422175 -3.4575220324371285
| 42> H -9.013502513730348 3.781262377223366 -3.319096557547674
| 43> H -9.159609079447696 2.4398913569948792 -1.2167246280453143
| 44> H -7.831408048643091 1.4466263152048158 -1.7576909478845122
| 45> C 8.14451227090805 -3.8262556840508877 1.1946643366563199
| 46> C 7.195591399859031 -4.316965987476452 3.5348508306709663
| 47> C 8.330047498701292 -4.5442039251194 2.533318606297043
| 48> H 7.065646711297523 -3.2515747988019714 3.738228733449094
| 49> H 7.418514298789487 -4.819661543317947 4.479398957262011
| 50> H 8.44700771029888 -5.617929254363999 2.3557015440124047
| 51> H 9.263451216237932 -4.184816507528345 2.988866080638644
| 52> H 9.00630645387891 -4.0015523718411625 0.5458753707326179
| 53> H 8.039509941674188 -2.7489333202370374 1.3410396246526302
| 54> *
| 55>
| 56> % eprnmr
| 57> gtensor true
| 58> Nuclei = all H {aiso,adip,aorb,fgrad,rho}
| 59> Nuclei = all V {aiso,adip,aorb,fgrad,rho}
| 60> end
| 61>
| 62>                          ****END OF INPUT****

CARTESIAN COORDINATES (ANGSTROEM)
---------------------------------
  V      0.444839    0.894659    0.483407
  S     -1.878930    1.001251    1.324969
  S      0.722519   -1.012770    2.036423
  S     -0.478737    1.729351   -1.656879
  S      2.022811   -0.311260   -0.979668
  O      1.241444    2.097475    1.148911
  C      2.226643   -1.674621    1.409818
  C      2.745615   -1.395653    0.199224
  C     -2.679224    1.838715    0.002278
  C     -2.123470    2.129378   -1.188293
  S      3.124239   -2.872344    2.403674
  S      4.246287   -2.270637   -0.251487
  S     -3.174868    2.942493   -2.391005
  S     -4.399875    2.322971    0.214600
  C      4.403034   -3.217271    1.232796
  C     -4.650289    2.969808   -1.401178
  C      5.413973   -4.111890    1.453252
  C     -5.845330    3.454822   -1.855843
  S      5.569062   -5.004568    2.988287
  S      6.673211   -4.423881    0.231998
  S     -7.362711    3.397612   -0.873376
  S     -5.985778    4.143984   -3.470324
  C     -7.390447    2.689644   -4.239324
  C     -8.213743    2.473749   -1.772378
  C     -8.580109    2.770908   -3.236462
  H     -6.847594    1.742875   -4.201434
  H     -7.649428    2.959907   -5.263241
  H     -9.402371    2.014609   -3.458219
  H     -9.013050    3.777520   -3.319794
  H     -9.159157    2.436149   -1.217422
  H     -7.830956    1.442884   -1.758388
  C      8.144964   -3.829998    1.193967
  C      7.196044   -4.320709    3.534154
  C      8.330500   -4.547947    2.532621
  H      7.066099   -3.255318    3.737532
  H      7.418967   -4.823404    4.478702
  H      8.447460   -5.621672    2.355004
  H      9.263903   -4.188559    2.988169
  H      9.006759   -4.005295    0.545178
  H      8.039962   -2.752676    1.340342

 Total Charge           Charge          ....   -2
 Multiplicity           Mult            ....    2
 Number of Electrons    NEL             ....  321
 Basis Dimension        Dim             ....  681

ORBITAL ENERGIES
----------------
                 SPIN UP ORBITALS
  NO   OCC          E(Eh)            E(eV)
   0   1.0000    -196.675787     -5351.8202
   1   1.0000     -88.733900     -2414.5722
   2   1.0000     -88.733644     -2414.5652
   3   1.0000     -88.733450     -2414.5599
   4   1.0000     -88.733193     -2414.5529
   5   1.0000     -88.731414     -2414.5045
   6   1.0000     -88.730709     -2414.4853
   7   1.0000     -88.730485     -2414.4793
   8   1.0000     -88.721549     -2414.2361
   9   1.0000     -88.641244     -2412.0509
  10   1.0000     -88.640771     -2412.0380
  11   1.0000     -88.640394     -2412.0278
  12   1.0000     -88.640195     -2412.0223
  13   1.0000     -22.051179      -600.0431
  14   1.0000     -18.891111      -514.0533
  15   1.0000     -18.557628      -504.9787
  16   1.0000     -18.552452      -504.8379
  17   1.0000     -18.552355      -504.8353
  18   1.0000     -10.076779      -274.2031
  19   1.0000     -10.076212      -274.1877
  20   1.0000     -10.070044      -274.0198
  21   1.0000     -10.063937      -273.8537
  22   1.0000     -10.063636      -273.8454
  23   1.0000     -10.055065      -273.6122
  24   1.0000     -10.051616      -273.5184
  25   1.0000     -10.048673      -273.4383
  26   1.0000     -10.048071      -273.4219
  27   1.0000     -10.047416      -273.4041
  28   1.0000     -10.020172      -272.6627
  29   1.0000     -10.019143      -272.6348
  30   1.0000     -10.018769      -272.6246
  31   1.0000     -10.017837      -272.5992
  32   1.0000      -7.787017      -211.8955
  33   1.0000      -7.786949      -211.8937
  34   1.0000      -7.786541      -211.8825
  35   1.0000      -7.784730      -211.8333
  36   1.0000      -7.784470      -211.8262
  37   1.0000      -7.783953      -211.8121
  38   1.0000      -7.783779      -211.8074
  39   1.0000      -7.783231      -211.7925
  40   1.0000      -7.695511      -209.4055
  41   1.0000      -7.695143      -209.3955
  42   1.0000      -7.694718      -209.3839
  43   1.0000      -7.694435      -209.3762
  44   1.0000      -5.752010      -156.5201
  45   1.0000      -5.751938      -156.5182
  46   1.0000      -5.751372      -156.5028
  47   1.0000      -5.749724      -156.4579
  48   1.0000      -5.749446      -156.4504
  49   1.0000      -5.748898      -156.4355
  50   1.0000      -5.748712      -156.4304
  51   1.0000      -5.748602      -156.4274
  52   1.0000      -5.748523      -156.4253
  53   1.0000      -5.747931      -156.4092
  54   1.0000      -5.747018      -156.3843
  55   1.0000      -5.746846      -156.3796
  56   1.0000      -5.744986      -156.3290
  57   1.0000      -5.744469      -156.3149
  58   1.0000      -5.744295      -156.3102
  59   1.0000      -5.743580      -156.2907
  60   1.0000      -5.742521      -156.2619
  61   1.0000      -5.741815      -156.2427
  62   1.0000      -5.741739      -156.2407
  63   1.0000      -5.740279      -156.2009
  64   1.0000      -5.739781      -156.1874
  65   1.0000      -5.739605      -156.1826
  66   1.0000      -5.739475      -156.1790
  67   1.0000      -5.737761      -156.1324
  68   1.0000      -5.660832      -154.0391
  69   1.0000      -5.660445      -154.0285
  70   1.0000      -5.660022      -154.0170
  71   1.0000      -5.659758      -154.0098
  72   1.0000      -5.654174      -153.8579
  73   1.0000      -5.653783      -153.8473
  74   1.0000      -5.653357      -153.8357
  75   1.0000      -5.653112      -153.8290
  76   1.0000      -5.652836      -153.8215
  77   1.0000      -5.652462      -153.8113
  78   1.0000      -5.652040      -153.7998
  79   1.0000      -5.651737      -153.7916
  80   1.0000      -2.444834       -66.5273
  81   1.0000      -1.486144       -40.4400
  82   1.0000      -1.474470       -40.1224
  83   1.0000      -1.473666       -40.1005
  84   1.0000      -0.729221       -19.8431
  85   1.0000      -0.709900       -19.3173
  86   1.0000      -0.695414       -18.9232
  87   1.0000      -0.686038       -18.6681
  88   1.0000      -0.650667       -17.7055
  89   1.0000      -0.631767       -17.1913
  90   1.0000      -0.629804       -17.1378
  91   1.0000      -0.619692       -16.8627
  92   1.0000      -0.617590       -16.8055
  93   1.0000      -0.577879       -15.7249
  94   1.0000      -0.574914       -15.6442
  95   1.0000      -0.573671       -15.6104
  96   1.0000      -0.567726       -15.4486
  97   1.0000      -0.497996       -13.5512
  98   1.0000      -0.496655       -13.5147
  99   1.0000      -0.496310       -13.5053
 100   1.0000      -0.491804       -13.3827
 101   1.0000      -0.480290       -13.0694
 102   1.0000      -0.477932       -13.0052
 103   1.0000      -0.446973       -12.1627
 104   1.0000      -0.441111       -12.0032
 105   1.0000      -0.416765       -11.3407
 106   1.0000      -0.411824       -11.2063
 107   1.0000      -0.363548        -9.8926
 108   1.0000      -0.355712        -9.6794
 109   1.0000      -0.327045        -8.8994
 110   1.0000      -0.325259        -8.8507
 111   1.0000      -0.319279        -8.6880
 112   1.0000      -0.314788        -8.5658
 113   1.0000      -0.304355        -8.2819
 114   1.0000      -0.299121        -8.1395
 115   1.0000      -0.296016        -8.0550
 116   1.0000      -0.292788        -7.9672
 117   1.0000      -0.267860        -7.2888
 118   1.0000      -0.257386        -7.0038
 119   1.0000      -0.257189        -6.9985
 120   1.0000      -0.246031        -6.6948
 121   1.0000      -0.238150        -6.4804
 122   1.0000      -0.234766        -6.3883
 123   1.0000      -0.231105        -6.2887
 124   1.0000      -0.229641        -6.2489
 125   1.0000      -0.219785        -5.9807
 126   1.0000      -0.218131        -5.9356
 127   1.0000      -0.214508        -5.8371
 128   1.0000      -0.211749        -5.7620
 129   1.0000      -0.193907        -5.2765
 130   1.0000      -0.188668        -5.1339
 131   1.0000      -0.186492        -5.0747
 132   1.0000      -0.181474        -4.9381
 133   1.0000      -0.173079        -4.7097
 134   1.0000      -0.160161        -4.3582
 135   1.0000      -0.150683        -4.1003
 136   1.0000      -0.145494        -3.9591
 137   1.0000      -0.136286        -3.7085
 138   1.0000      -0.134528        -3.6607
 139   1.0000      -0.130059        -3.5391
 140   1.0000      -0.124684        -3.3928
 141   1.0000      -0.121806        -3.3145
 142   1.0000      -0.114347        -3.1116
 143   1.0000      -0.109873        -2.9898
 144   1.0000      -0.100671        -2.7394
 145   1.0000      -0.098882        -2.6907
 146   1.0000      -0.096348        -2.6217
 147   1.0000      -0.091716        -2.4957
 148   1.0000      -0.075355        -2.0505
 149   1.0000      -0.067865        -1.8467
 150   1.0000      -0.063565        -1.7297
 151   1.0000      -0.053217        -1.4481
 152   1.0000      -0.046502        -1.2654
 153   1.0000      -0.038070        -1.0359
 154   1.0000      -0.037838        -1.0296
 155   1.0000      -0.031702        -0.8626
 156   1.0000      -0.025977        -0.7069
 157   1.0000      -0.020015        -0.5446
 158   1.0000      -0.016290        -0.4433
 159   1.0000       0.019411         0.5282
 160   1.0000       0.040211         1.0942
 161   0.0000       0.110215         2.9991
 162   0.0000       0.136505         3.7145
 163   0.0000       0.151719         4.1285
 164   0.0000       0.161689         4.3998
 165   0.0000       0.166169         4.5217

                 SPIN DOWN ORBITALS
  NO   OCC          E(Eh)            E(eV)
   0   1.0000    -196.675934     -5351.8242
   1   1.0000     -88.733900     -2414.5722
   2   1.0000     -88.733645     -2414.5652
   3   1.0000     -88.733451     -2414.5600
   4   1.0000     -88.733201     -2414.5532
   5   1.0000     -88.731422     -2414.5047
   6   1.0000     -88.730717     -2414.4856
   7   1.0000     -88.730494     -2414.4795
   8   1.0000     -88.721549     -2414.2361
   9   1.0000     -88.641380     -2412.0546
  10   1.0000     -88.640910     -2412.0418
  11   1.0000     -88.640535     -2412.0316
  12   1.0000     -88.640337     -2412.0262
  13   1.0000     -22.036246      -599.6367
  14   1.0000     -18.894906      -514.1565
  15   1.0000     -18.552357      -504.8353
  16   1.0000     -18.536418      -504.4016
  17   1.0000     -18.536238      -504.3967
  18   1.0000     -10.076779      -274.2031
  19   1.0000     -10.076207      -274.1875
  20   1.0000     -10.070044      -274.0198
  21   1.0000     -10.063936      -273.8536
  22   1.0000     -10.063635      -273.8454
  23   1.0000     -10.055065      -273.6122
  24   1.0000     -10.051616      -273.5184
  25   1.0000     -10.048661      -273.4380
  26   1.0000     -10.048071      -273.4219
  27   1.0000     -10.047412      -273.4040
  28   1.0000     -10.019954      -272.6568
  29   1.0000     -10.018935      -272.6291
  30   1.0000     -10.018531      -272.6181
  31   1.0000     -10.017613      -272.5931
  32   1.0000      -7.787018      -211.8955
  33   1.0000      -7.786950      -211.8937
  34   1.0000      -7.786550      -211.8828
  35   1.0000      -7.784731      -211.8333
  36   1.0000      -7.784479      -211.8265
  37   1.0000      -7.783962      -211.8124
  38   1.0000      -7.783789      -211.8077
  39   1.0000      -7.783231      -211.7925
  40   1.0000      -7.695638      -209.4089
  41   1.0000      -7.695272      -209.3990
  42   1.0000      -7.694849      -209.3875
  43   1.0000      -7.694567      -209.3798
  44   1.0000      -5.752011      -156.5202
  45   1.0000      -5.751940      -156.5182
  46   1.0000      -5.751383      -156.5031
  47   1.0000      -5.749725      -156.4580
  48   1.0000      -5.749456      -156.4507
  49   1.0000      -5.748909      -156.4358
  50   1.0000      -5.748723      -156.4307
  51   1.0000      -5.748603      -156.4274
  52   1.0000      -5.748524      -156.4253
  53   1.0000      -5.747932      -156.4092
  54   1.0000      -5.747032      -156.3847
  55   1.0000      -5.746846      -156.3796
  56   1.0000      -5.745000      -156.3294
  57   1.0000      -5.744483      -156.3153
  58   1.0000      -5.744308      -156.3106
  59   1.0000      -5.743580      -156.2908
  60   1.0000      -5.742527      -156.2621
  61   1.0000      -5.741815      -156.2427
  62   1.0000      -5.741740      -156.2407
  63   1.0000      -5.740285      -156.2011
  64   1.0000      -5.739789      -156.1876
  65   1.0000      -5.739614      -156.1828
  66   1.0000      -5.739476      -156.1791
  67   1.0000      -5.737762      -156.1324
  68   1.0000      -5.660974      -154.0429
  69   1.0000      -5.660587      -154.0324
  70   1.0000      -5.660161      -154.0208
  71   1.0000      -5.659900      -154.0137
  72   1.0000      -5.654523      -153.8674
  73   1.0000      -5.654142      -153.8570
  74   1.0000      -5.653746      -153.8462
  75   1.0000      -5.653497      -153.8395
  76   1.0000      -5.652940      -153.8243
  77   1.0000      -5.652568      -153.8142
  78   1.0000      -5.652127      -153.8022
  79   1.0000      -5.651831      -153.7941
  80   1.0000      -2.399945       -65.3058
  81   1.0000      -1.466835       -39.9146
  82   1.0000      -1.412099       -38.4252
  83   1.0000      -1.411929       -38.4205
  84   1.0000      -0.729220       -19.8431
  85   1.0000      -0.709873       -19.3166
  86   1.0000      -0.695359       -18.9217
  87   1.0000      -0.685983       -18.6665
  88   1.0000      -0.658809       -17.9271
  89   1.0000      -0.631693       -17.1892
  90   1.0000      -0.629734       -17.1359
  91   1.0000      -0.619693       -16.8627
  92   1.0000      -0.617590       -16.8055
  93   1.0000      -0.577852       -15.7242
  94   1.0000      -0.574885       -15.6434
  95   1.0000      -0.573588       -15.6081
  96   1.0000      -0.567672       -15.4472
  97   1.0000      -0.498013       -13.5516
  98   1.0000      -0.496677       -13.5153
  99   1.0000      -0.496356       -13.5065
 100   1.0000      -0.491887       -13.3849
 101   1.0000      -0.480462       -13.0740
 102   1.0000      -0.478171       -13.0117
 103   1.0000      -0.446999       -12.1635
 104   1.0000      -0.441155       -12.0044
 105   1.0000      -0.416761       -11.3406
 106   1.0000      -0.411929       -11.2091
 107   1.0000      -0.363546        -9.8926
 108   1.0000      -0.355702        -9.6792
 109   1.0000      -0.327029        -8.8989
 110   1.0000      -0.325242        -8.8503
 111   1.0000      -0.319197        -8.6858
 112   1.0000      -0.314810        -8.5664
 113   1.0000      -0.304312        -8.2807
 114   1.0000      -0.299086        -8.1385
 115   1.0000      -0.296012        -8.0549
 116   1.0000      -0.292783        -7.9670
 117   1.0000      -0.267808        -7.2874
 118   1.0000      -0.257330        -7.0023
 119   1.0000      -0.257085        -6.9956
 120   1.0000      -0.245921        -6.6919
 121   1.0000      -0.238139        -6.4801
 122   1.0000      -0.234739        -6.3876
 123   1.0000      -0.231058        -6.2874
 124   1.0000      -0.229562        -6.2467
 125   1.0000      -0.219323        -5.9681
 126   1.0000      -0.218078        -5.9342
 127   1.0000      -0.214340        -5.8325
 128   1.0000      -0.211670        -5.7598
 129   1.0000      -0.192141        -5.2284
 130   1.0000      -0.188463        -5.1283
 131   1.0000      -0.186159        -5.0656
 132   1.0000      -0.181337        -4.9344
 133   1.0000      -0.172972        -4.7068
 134   1.0000      -0.159534        -4.3411
 135   1.0000      -0.150522        -4.0959
 136   1.0000      -0.145413        -3.9569
 137   1.0000      -0.135672        -3.6918
 138   1.0000      -0.134303        -3.6546
 139   1.0000      -0.129404        -3.5213
 140   1.0000      -0.124459        -3.3867
 141   1.0000      -0.121513        -3.3065
 142   1.0000      -0.116152        -3.1607
 143   1.0000      -0.111484        -3.0336
 144   1.0000      -0.100688        -2.7398
 145   1.0000      -0.099186        -2.6990
 146   1.0000      -0.096527        -2.6266
 147   1.0000      -0.091751        -2.4967
 148   1.0000      -0.071556        -1.9471
 149   1.0000      -0.067865        -1.8467
 150   1.0000      -0.063559        -1.7295
 151   1.0000      -0.050616        -1.3773
 152   1.0000      -0.045574        -1.2401
 153   1.0000      -0.037903        -1.0314
 154   1.0000      -0.037493        -1.0202
 155   1.0000      -0.031723        -0.8632
 156   1.0000      -0.027014        -0.7351
 157   1.0000      -0.016506        -0.4491
 158   1.0000       0.019713         0.5364
 159   1.0000       0.039099         1.0640
 160   0.0000       0.110222         2.9993
 161   0.0000       0.136514         3.7147
 162   0.0000       0.151697         4.1279
 163   0.0000       0.155142         4.2216
 164   0.0000       0.162251         4.4151

MULLIKEN ATOMIC CHARGES AND SPIN POPULATIONS
--------------------------------------------
   0 V :    0.470640    1.210803
   1 S :   -0.289623   -0.022282
   2 S :   -0.289648   -0.025341
   3 S :   -0.285052   -0.023264
   4 S :   -0.284988   -0.025787
   5 O :   -0.467172   -0.146929
   6 C :   -0.077242    0.009699
   7 C :   -0.084287    0.008079
   8 C :   -0.085928    0.007674
   9 C :   -0.083836    0.007438
  10 S :    0.099710   -0.000588
  11 S :    0.101310   -0.000628
  12 S :    0.109205   -0.000375
  13 S :    0.103092   -0.000355
  14 C :   -0.213871    0.001518
  15 C :   -0.220878    0.000968
  16 C :   -0.191240   -0.000072
  17 C :   -0.180612   -0.000359
  18 S :    0.009883   -0.000113
  19 S :    0.008550   -0.000112
  20 S :    0.063318   -0.000066
  21 S :   -0.042635   -0.000071
  22 C :   -0.320908   -0.000003
  23 C :   -0.289385    0.000008
  24 C :   -0.126197   -0.000013
  25 H :    0.144355    0.000000
  26 H :    0.117683   -0.000003
  27 H :    0.072096   -0.000002
  28 H :    0.083973   -0.000000
  29 H :    0.098514   -0.000006
  30 H :    0.123311   -0.000006
  31 C :   -0.300046    0.000195
  32 C :   -0.300581    0.000190
  33 C :   -0.158208   -0.000239
  34 H :    0.142043   -0.000018
  35 H :    0.113480    0.000019
  36 H :    0.092450    0.000023
  37 H :    0.082852    0.000015
  38 H :    0.113707    0.000020
  39 H :    0.142162   -0.000018
Sum of atomic charges         :   -2.0000000

LOEWDIN ATOMIC CHARGES AND SPIN POPULATIONS
-------------------------------------------
   0 V :   -0.155826    1.164158
   1 S :    0.080459   -0.014346
   2 S :    0.079501   -0.016185
   3 S :    0.084283   -0.015177
   4 S :    0.083671   -0.016383
   5 O :   -0.318601   -0.131829
   6 C :   -0.549909    0.009046
   7 C :   -0.552033    0.007974
   8 C :   -0.550243    0.008123
   9 C :   -0.551923    0.007697
  10 S :    0.471401   -0.000900
  11 S :    0.472365   -0.000951
  12 S :    0.475819   -0.000809
  13 S :    0.478136   -0.000838
  14 C :   -0.465090    0.000165
  15 C :   -0.465491   -0.000070
  16 C :   -0.622508    0.000470
  17 C :   -0.616311    0.000089
  18 S :    0.360029   -0.000089
  19 S :    0.359012   -0.000087
  20 S :    0.459833   -0.000067
  21 S :    0.286265   -0.000072
  22 C :   -0.217325   -0.000009
  23 C :   -0.394795   -0.000004
  24 C :   -0.180266   -0.000002
  25 H :    0.065043   -0.000000
  26 H :    0.053021   -0.000002
  27 H :    0.060321   -0.000003
  28 H :    0.058090   -0.000001
  29 H :    0.058729   -0.000003
  30 H :    0.048857   -0.000004
  31 C :   -0.282595    0.000043
  32 C :   -0.285128    0.000035
  33 C :   -0.176332    0.000006
  34 H :    0.062029   -0.000001
  35 H :    0.053617    0.000008
  36 H :    0.060284    0.000004
  37 H :    0.057860    0.000002
  38 H :    0.053638    0.000008
  39 H :    0.062111   -0.000000

  Mayer bond orders larger than 0.100000
B(  0-V ,  1-S ) :   0.7696 B(  0-V ,  2-S ) :   0.7723 B(  0-V ,  3-S ) :   0.7640
B(  0-V ,  4-S ) :   0.7799 B(  0-V ,  5-O ) :   2.1492 B(  1-S ,  8-C ) :   1.1066
B(  2-S ,  6-C ) :   1.1038 B(  3-S ,  9-C ) :   1.1095 B(  4-S ,  7-C ) :   1.1046
B(  6-C ,  7-C ) :   1.6846 B(  6-C , 10-S ) :   0.9351 B(  7-C , 11-S ) :   0.9390
B(  8-C ,  9-C ) :   1.6897 B(  8-C , 13-S ) :   0.9326 B(  9-C , 12-S ) :   0.9448
B( 10-S , 14-C ) :   1.2484 B( 11-S , 14-C ) :   1.2480 B( 12-S , 15-C ) :   1.2386
B( 13-S , 15-C ) :   1.2580 B( 14-C , 16-C ) :   1.4516 B( 15-C , 17-C ) :   1.4330
B( 16-C , 18-S ) :   1.0873 B( 16-C , 19-S ) :   1.0903 B( 17-C , 20-S ) :   1.0218
B( 17-C , 21-S ) :   1.1499 B( 18-S , 32-C ) :   0.9936 B( 19-S , 31-C ) :   0.9899
B( 20-S , 23-C ) :   1.1780 B( 21-S , 22-C ) :   0.8755 B( 22-C , 24-C ) :   0.9317
B( 22-C , 25-H ) :   0.9634 B( 22-C , 26-H ) :   0.9629 B( 23-C , 24-C ) :   0.8633
B( 23-C , 29-H ) :   0.9405 B( 23-C , 30-H ) :   0.9526 B( 24-C , 27-H ) :   0.9577
B( 24-C , 28-H ) :   0.9686 B( 31-C , 33-C ) :   0.9142 B( 31-C , 38-H ) :   0.9656
B( 31-C , 39-H ) :   0.9658 B( 32-C , 33-C ) :   0.9129 B( 32-C , 34-H ) :   0.9656
B( 32-C , 35-H ) :   0.9655 B( 33-C , 36-H ) :   0.9718 B( 33-C , 37-H ) :   0.9623

FINAL SINGLE POINT ENERGY     -6337.638661959244

DIPOLE MOMENT
-------------
                                X             Y             Z
Electronic contribution:      2.53483      12.30679       5.37585
Nuclear contribution   :     -2.63030     -13.73298      -5.74610
                        -----------------------------------------
Total Dipole Moment    :     -0.09547      -1.42620      -0.37025
                        -----------------------------------------
Magnitude (a.u.)       :      1.47656
Magnitude (Debye)      :      3.75313

Rotational constants in cm-1:     0.010748     0.000804     0.000783
Rotational constants in MHz :   322.208816    24.113466    23.486676

                             ****ORCA TERMINATED NORMALLY****
TOTAL RUN TIME: 0 days 1 hours 8 minutes 0 seconds 927 msec
