                         Program Version 5.0.4 -  RELEASE  -
|  1> ! nofrozencore ReducedPop printbasis
|  2> ! B3LYP TZVP
|  3>
|  4> %basis
|  5> newgto V "CP(PPP)" end
|  6> end
|  7>
|  8> %pal
|  9> nprocs 6
| 10> end
| 11>
| 12> % sym SymThresh 1e-2 end
| 13> * xyz -2 2
| 14> V -0.0697811867102082 -0.40548702410617926 -1.0340817152913158
| 15> S 2.244500446856552 0.39843612588925714 -0.9795780645788771
| 16> S 0.7578836584689175 -2.2718984428979683 0.4249865048393386
| 17> S -0.7132682341068588 2.0100051370740912 -1.2683110408921172
| 18> S -2.1568956771363172 -0.5927293275174795 0.24132667270391442
| 19> O -0.33192545947030444 -1.0683742994053873 -2.4538256477560654
| 20> C -1.0124690341648421 -2.674815078727082 0.9526717027505052
| 21> C -2.2411191511504986 -2.086653827431063 0.9070428191236424
| 22> C 2.3069740441642588 1.9940183753719936 -1.3927092400268772
| 23> C 1.0709212734319598 2.5560331413926938 -1.4607100094762373
| 24> S -1.2412257298994533 -4.146966795604107 1.7144836103980616
| 25> S -3.8703638740979445 -2.7652441115791446 1.66150621755575
| 26> S 1.292926484928196 4.17677418740032 -1.842040736125184
| 27> S 3.968429658899155 2.9155656728323804 -1.6278868382231015
| 28> C -2.9900194913769504 -4.192000597904878 2.1731709732191042
| 29> C 3.0822872187605244 4.4090053182295454 -1.8712302562790344
| 30> C -3.684213185736507 -5.163653241034069 2.8407318019414665
| 31> C 3.798110149356249 5.558258109188909 -2.066347551941052
| 32> S -2.9716709341623546 -6.674431952419833 3.3717439645509573
| 33> S -5.4469163167164405 -4.943637741187802 3.19554066073298
| 34> S 5.610674202934619 5.5288797680443365 -2.0501691487089517
| 35> S 3.0490030361617153 7.1256284081648396 -2.3093790521533837
| 36> C 3.667960794696235 7.9957849276420525 -0.8004913545820144
| 37> C 5.841627153594568 6.63349878435454 -0.5786987866260648
| 38> C 5.193668582605747 8.016146909546862 -0.713936462524023
| 39> H 3.2287149774461685 7.519012003169081 0.0789836714965045
| 40> H 3.275863161599805 9.013848854608616 -0.8706525289920566
| 41> H 5.48450179314822 8.610021293243644 0.16393960753274994
| 42> H 5.597331571774183 8.52177372890989 -1.5967999762278293
| 43> H 6.922958106286674 6.735210467884581 -0.45541225178358097
| 44> H 5.447513528690176 6.108049861492521 0.29394080077578244
| 45> C -6.059993602473267 -6.382783622139327 2.1998358854173743
| 46> C -3.958494361876013 -7.8596789418055835 2.3526722245618226
| 47> C -5.461240320171309 -7.736318456717001 2.598455744472868
| 48> H -3.716044214985011 -7.701846059133978 1.298971675755806
| 49> H -3.604121562631498 -8.852716129206229 2.641848601712555
| 50> H -5.670044558748158 -7.929831875829824 3.6553876569202166
| 51> H -5.975166012382509 -8.514047828273851 2.016181504660538
| 52> H -7.144444870088128 -6.39558734680753 2.3373763448216596
| 53> H -5.852780282132246 -6.166359532124928 1.1493740866480484
| 54> *
| 55>
| 56> % eprnmr
| 57> gtensor true
| 58> Nuclei = all H {aiso,adip,aorb,fgrad,rho}
| 59> Nuclei = all V {aiso,adip,aorb,fgrad,rho}
| 60> end
| 61>
| 62>                          ****END OF INPUT****

CARTESIAN COORDINATES (ANGSTROEM)
---------------------------------
  V     -0.070614   -0.406117   -1.030393
  S      2.243668    0.397806   -0.975889
  S      0.757051   -2.272529    0.428675
  S     -0.714101    2.009375   -1.264622
  S     -2.157728   -0.593360    0.245015
  O     -0.332758   -1.069005   -2.450137
  C     -1.013301   -2.675445    0.956360
  C     -2.241952   -2.087284    0.910732
  C      2.306142    1.993388   -1.389021
  C      1.070089    2.555403   -1.457021
  S     -1.242058   -4.147597    1.718172
  S     -3.871196   -2.765874    1.665195
  S      1.292094    4.176144   -1.838352
  S      3.967597    2.914935   -1.624198
  C     -2.990852   -4.192631    2.176860
  C      3.081455    4.408375   -1.867542
  C     -3.685046   -5.164284    2.844421
  C      3.797278    5.557628   -2.062659
  S     -2.972503   -6.675062    3.375433
  S     -5.447749   -4.944268    3.199229
  S      5.609842    5.528249   -2.046480
  S      3.048171    7.124998   -2.305690
  C      3.667128    7.995155   -0.796803
  C      5.840795    6.632868   -0.575010
  C      5.192836    8.015517   -0.710248
  H      3.227883    7.518382    0.082672
  H      3.275031    9.013218   -0.866964
  H      5.483669    8.609391    0.167628
  H      5.596499    8.521143   -1.593111
  H      6.922126    6.734580   -0.451724
  H      5.446681    6.107420    0.297630
  C     -6.060826   -6.383414    2.203525
  C     -3.959327   -7.860309    2.356361
  C     -5.462073   -7.736949    2.602144
  H     -3.716877   -7.702476    1.302660
  H     -3.604954   -8.853346    2.645537
  H     -5.670877   -7.930462    3.659076
  H     -5.975998   -8.514678    2.019870
  H     -7.145277   -6.396218    2.341065
  H     -5.853613   -6.166990    1.153063

 Total Charge           Charge          ....   -2
 Multiplicity           Mult            ....    2
 Number of Electrons    NEL             ....  321
 Basis Dimension        Dim             ....  681

ORBITAL ENERGIES
----------------
                 SPIN UP ORBITALS
  NO   OCC          E(Eh)            E(eV)
   0   1.0000    -196.678830     -5351.9030
   1   1.0000     -88.738943     -2414.7094
   2   1.0000     -88.738833     -2414.7064
   3   1.0000     -88.735847     -2414.6252
   4   1.0000     -88.735843     -2414.6250
   5   1.0000     -88.729386     -2414.4493
   6   1.0000     -88.728935     -2414.4371
   7   1.0000     -88.718905     -2414.1641
   8   1.0000     -88.718089     -2414.1419
   9   1.0000     -88.657075     -2412.4817
  10   1.0000     -88.656013     -2412.4528
  11   1.0000     -88.628040     -2411.6916
  12   1.0000     -88.627113     -2411.6664
  13   1.0000     -22.053854      -600.1159
  14   1.0000     -18.893806      -514.1266
  15   1.0000     -18.560258      -505.0503
  16   1.0000     -18.555263      -504.9144
  17   1.0000     -18.554973      -504.9065
  18   1.0000     -10.074298      -274.1356
  19   1.0000     -10.073769      -274.1212
  20   1.0000     -10.064222      -273.8614
  21   1.0000     -10.064066      -273.8572
  22   1.0000     -10.060646      -273.7641
  23   1.0000     -10.060635      -273.7638
  24   1.0000     -10.050459      -273.4869
  25   1.0000     -10.050403      -273.4854
  26   1.0000     -10.046973      -273.3920
  27   1.0000     -10.046230      -273.3718
  28   1.0000     -10.020716      -272.6776
  29   1.0000     -10.020261      -272.6652
  30   1.0000     -10.016428      -272.5609
  31   1.0000     -10.015870      -272.5457
  32   1.0000      -7.790592      -211.9928
  33   1.0000      -7.790534      -211.9912
  34   1.0000      -7.788833      -211.9449
  35   1.0000      -7.788826      -211.9447
  36   1.0000      -7.783272      -211.7936
  37   1.0000      -7.782811      -211.7811
  38   1.0000      -7.774021      -211.5419
  39   1.0000      -7.773262      -211.5212
  40   1.0000      -7.707994      -209.7452
  41   1.0000      -7.707208      -209.7238
  42   1.0000      -7.686274      -209.1542
  43   1.0000      -7.685772      -209.1405
  44   1.0000      -5.755164      -156.6060
  45   1.0000      -5.755146      -156.6055
  46   1.0000      -5.753734      -156.5671
  47   1.0000      -5.753731      -156.5670
  48   1.0000      -5.752053      -156.5213
  49   1.0000      -5.751951      -156.5185
  50   1.0000      -5.750464      -156.4781
  51   1.0000      -5.750459      -156.4779
  52   1.0000      -5.748297      -156.4191
  53   1.0000      -5.747834      -156.4065
  54   1.0000      -5.746153      -156.3608
  55   1.0000      -5.746092      -156.3591
  56   1.0000      -5.744735      -156.3222
  57   1.0000      -5.744281      -156.3098
  58   1.0000      -5.743767      -156.2959
  59   1.0000      -5.743737      -156.2950
  60   1.0000      -5.739186      -156.1712
  61   1.0000      -5.738402      -156.1499
  62   1.0000      -5.738058      -156.1405
  63   1.0000      -5.737597      -156.1280
  64   1.0000      -5.733655      -156.0207
  65   1.0000      -5.732866      -155.9992
  66   1.0000      -5.730045      -155.9225
  67   1.0000      -5.729317      -155.9026
  68   1.0000      -5.674698      -154.4164
  69   1.0000      -5.673755      -154.3907
  70   1.0000      -5.666499      -154.1933
  71   1.0000      -5.665772      -154.1735
  72   1.0000      -5.664664      -154.1434
  73   1.0000      -5.663933      -154.1234
  74   1.0000      -5.650549      -153.7593
  75   1.0000      -5.649894      -153.7414
  76   1.0000      -5.644817      -153.6033
  77   1.0000      -5.644300      -153.5892
  78   1.0000      -5.644015      -153.5814
  79   1.0000      -5.643554      -153.5689
  80   1.0000      -2.447638       -66.6036
  81   1.0000      -1.488913       -40.5154
  82   1.0000      -1.477287       -40.1990
  83   1.0000      -1.476501       -40.1776
  84   1.0000      -0.709100       -19.2956
  85   1.0000      -0.709070       -19.2948
  86   1.0000      -0.687231       -18.7005
  87   1.0000      -0.686879       -18.6909
  88   1.0000      -0.653102       -17.7718
  89   1.0000      -0.636976       -17.3330
  90   1.0000      -0.636177       -17.3113
  91   1.0000      -0.616703       -16.7814
  92   1.0000      -0.616544       -16.7770
  93   1.0000      -0.581376       -15.8201
  94   1.0000      -0.580984       -15.8094
  95   1.0000      -0.574163       -15.6238
  96   1.0000      -0.573141       -15.5960
  97   1.0000      -0.501061       -13.6346
  98   1.0000      -0.501010       -13.6332
  99   1.0000      -0.490314       -13.3421
 100   1.0000      -0.489649       -13.3240
 101   1.0000      -0.474731       -12.9181
 102   1.0000      -0.473025       -12.8717
 103   1.0000      -0.445900       -12.1336
 104   1.0000      -0.444157       -12.0861
 105   1.0000      -0.409864       -11.1530
 106   1.0000      -0.405026       -11.0213
 107   1.0000      -0.353860        -9.6290
 108   1.0000      -0.353692        -9.6244
 109   1.0000      -0.329269        -8.9599
 110   1.0000      -0.327908        -8.9228
 111   1.0000      -0.319003        -8.6805
 112   1.0000      -0.316526        -8.6131
 113   1.0000      -0.298413        -8.1202
 114   1.0000      -0.297612        -8.0984
 115   1.0000      -0.291295        -7.9265
 116   1.0000      -0.290959        -7.9174
 117   1.0000      -0.258573        -7.0361
 118   1.0000      -0.258423        -7.0321
 119   1.0000      -0.252042        -6.8584
 120   1.0000      -0.250918        -6.8278
 121   1.0000      -0.233695        -6.3592
 122   1.0000      -0.233148        -6.3443
 123   1.0000      -0.230381        -6.2690
 124   1.0000      -0.229367        -6.2414
 125   1.0000      -0.221196        -6.0191
 126   1.0000      -0.219958        -5.9854
 127   1.0000      -0.213601        -5.8124
 128   1.0000      -0.212257        -5.7758
 129   1.0000      -0.198362        -5.3977
 130   1.0000      -0.188121        -5.1190
 131   1.0000      -0.187466        -5.1012
 132   1.0000      -0.183491        -4.9931
 133   1.0000      -0.172460        -4.6929
 134   1.0000      -0.164737        -4.4827
 135   1.0000      -0.150812        -4.1038
 136   1.0000      -0.145482        -3.9588
 137   1.0000      -0.138280        -3.7628
 138   1.0000      -0.136562        -3.7160
 139   1.0000      -0.128615        -3.4998
 140   1.0000      -0.121283        -3.3003
 141   1.0000      -0.120300        -3.2735
 142   1.0000      -0.115485        -3.1425
 143   1.0000      -0.112039        -3.0487
 144   1.0000      -0.100162        -2.7256
 145   1.0000      -0.099356        -2.7036
 146   1.0000      -0.095330        -2.5940
 147   1.0000      -0.092313        -2.5120
 148   1.0000      -0.071577        -1.9477
 149   1.0000      -0.066715        -1.8154
 150   1.0000      -0.065453        -1.7811
 151   1.0000      -0.051627        -1.4049
 152   1.0000      -0.046856        -1.2750
 153   1.0000      -0.037343        -1.0162
 154   1.0000      -0.035292        -0.9603
 155   1.0000      -0.026830        -0.7301
 156   1.0000      -0.025002        -0.6803
 157   1.0000      -0.022454        -0.6110
 158   1.0000      -0.017458        -0.4751
 159   1.0000       0.028668         0.7801
 160   1.0000       0.046038         1.2528
 161   0.0000       0.136079         3.7029
 162   0.0000       0.136736         3.7208
 163   0.0000       0.149033         4.0554
 164   0.0000       0.150761         4.1024
 165   0.0000       0.166801         4.5389

                 SPIN DOWN ORBITALS
  NO   OCC          E(Eh)            E(eV)
   0   1.0000    -196.678975     -5351.9070
   1   1.0000     -88.738964     -2414.7100
   2   1.0000     -88.738853     -2414.7069
   3   1.0000     -88.735847     -2414.6252
   4   1.0000     -88.735844     -2414.6251
   5   1.0000     -88.729386     -2414.4494
   6   1.0000     -88.728935     -2414.4371
   7   1.0000     -88.718910     -2414.1643
   8   1.0000     -88.718094     -2414.1421
   9   1.0000     -88.657232     -2412.4859
  10   1.0000     -88.656158     -2412.4567
  11   1.0000     -88.628166     -2411.6950
  12   1.0000     -88.627232     -2411.6696
  13   1.0000     -22.038845      -599.7075
  14   1.0000     -18.897628      -514.2306
  15   1.0000     -18.554939      -504.9055
  16   1.0000     -18.539128      -504.4753
  17   1.0000     -18.538814      -504.4668
  18   1.0000     -10.074279      -274.1351
  19   1.0000     -10.073735      -274.1203
  20   1.0000     -10.064223      -273.8614
  21   1.0000     -10.064063      -273.8571
  22   1.0000     -10.060645      -273.7641
  23   1.0000     -10.060636      -273.7638
  24   1.0000     -10.050459      -273.4869
  25   1.0000     -10.050403      -273.4854
  26   1.0000     -10.046971      -273.3920
  27   1.0000     -10.046216      -273.3714
  28   1.0000     -10.020533      -272.6726
  29   1.0000     -10.020091      -272.6605
  30   1.0000     -10.016144      -272.5531
  31   1.0000     -10.015648      -272.5396
  32   1.0000      -7.790614      -211.9934
  33   1.0000      -7.790555      -211.9918
  34   1.0000      -7.788834      -211.9450
  35   1.0000      -7.788826      -211.9447
  36   1.0000      -7.783273      -211.7936
  37   1.0000      -7.782812      -211.7811
  38   1.0000      -7.774025      -211.5420
  39   1.0000      -7.773266      -211.5213
  40   1.0000      -7.708140      -209.7492
  41   1.0000      -7.707344      -209.7275
  42   1.0000      -7.686392      -209.1574
  43   1.0000      -7.685883      -209.1435
  44   1.0000      -5.755210      -156.6072
  45   1.0000      -5.755192      -156.6067
  46   1.0000      -5.753734      -156.5671
  47   1.0000      -5.753733      -156.5670
  48   1.0000      -5.752078      -156.5220
  49   1.0000      -5.751976      -156.5192
  50   1.0000      -5.750464      -156.4781
  51   1.0000      -5.750460      -156.4780
  52   1.0000      -5.748298      -156.4191
  53   1.0000      -5.747835      -156.4065
  54   1.0000      -5.746169      -156.3612
  55   1.0000      -5.746105      -156.3595
  56   1.0000      -5.744736      -156.3222
  57   1.0000      -5.744283      -156.3099
  58   1.0000      -5.743770      -156.2959
  59   1.0000      -5.743739      -156.2951
  60   1.0000      -5.739194      -156.1714
  61   1.0000      -5.738412      -156.1501
  62   1.0000      -5.738059      -156.1405
  63   1.0000      -5.737597      -156.1280
  64   1.0000      -5.733661      -156.0209
  65   1.0000      -5.732872      -155.9994
  66   1.0000      -5.730049      -155.9226
  67   1.0000      -5.729325      -155.9029
  68   1.0000      -5.674844      -154.4204
  69   1.0000      -5.673894      -154.3945
  70   1.0000      -5.666924      -154.2049
  71   1.0000      -5.666176      -154.1845
  72   1.0000      -5.664776      -154.1464
  73   1.0000      -5.664023      -154.1259
  74   1.0000      -5.650694      -153.7632
  75   1.0000      -5.650028      -153.7451
  76   1.0000      -5.645103      -153.6111
  77   1.0000      -5.644644      -153.5986
  78   1.0000      -5.644136      -153.5847
  79   1.0000      -5.643597      -153.5701
  80   1.0000      -2.402545       -65.3766
  81   1.0000      -1.469427       -39.9851
  82   1.0000      -1.414841       -38.4998
  83   1.0000      -1.414413       -38.4881
  84   1.0000      -0.709058       -19.2944
  85   1.0000      -0.709037       -19.2939
  86   1.0000      -0.687148       -18.6982
  87   1.0000      -0.686821       -18.6894
  88   1.0000      -0.661308       -17.9951
  89   1.0000      -0.636895       -17.3308
  90   1.0000      -0.636119       -17.3097
  91   1.0000      -0.616706       -16.7814
  92   1.0000      -0.616542       -16.7770
  93   1.0000      -0.581355       -15.8195
  94   1.0000      -0.580980       -15.8093
  95   1.0000      -0.574138       -15.6231
  96   1.0000      -0.573117       -15.5953
  97   1.0000      -0.501095       -13.6355
  98   1.0000      -0.501039       -13.6340
  99   1.0000      -0.490332       -13.3426
 100   1.0000      -0.489668       -13.3245
 101   1.0000      -0.474986       -12.9250
 102   1.0000      -0.473318       -12.8796
 103   1.0000      -0.445911       -12.1339
 104   1.0000      -0.444200       -12.0873
 105   1.0000      -0.409831       -11.1521
 106   1.0000      -0.405092       -11.0231
 107   1.0000      -0.353847        -9.6287
 108   1.0000      -0.353672        -9.6239
 109   1.0000      -0.329198        -8.9579
 110   1.0000      -0.327871        -8.9218
 111   1.0000      -0.318957        -8.6793
 112   1.0000      -0.316519        -8.6129
 113   1.0000      -0.298403        -8.1199
 114   1.0000      -0.297604        -8.0982
 115   1.0000      -0.291287        -7.9263
 116   1.0000      -0.290957        -7.9173
 117   1.0000      -0.258512        -7.0345
 118   1.0000      -0.258354        -7.0302
 119   1.0000      -0.251894        -6.8544
 120   1.0000      -0.250834        -6.8256
 121   1.0000      -0.233619        -6.3571
 122   1.0000      -0.233128        -6.3437
 123   1.0000      -0.230328        -6.2676
 124   1.0000      -0.229325        -6.2402
 125   1.0000      -0.220827        -6.0090
 126   1.0000      -0.219868        -5.9829
 127   1.0000      -0.213472        -5.8089
 128   1.0000      -0.212166        -5.7733
 129   1.0000      -0.196622        -5.3504
 130   1.0000      -0.188045        -5.1170
 131   1.0000      -0.187357        -5.0982
 132   1.0000      -0.183198        -4.9851
 133   1.0000      -0.172043        -4.6815
 134   1.0000      -0.164241        -4.4692
 135   1.0000      -0.150618        -4.0985
 136   1.0000      -0.145153        -3.9498
 137   1.0000      -0.137489        -3.7413
 138   1.0000      -0.136447        -3.7129
 139   1.0000      -0.127990        -3.4828
 140   1.0000      -0.120777        -3.2865
 141   1.0000      -0.120003        -3.2654
 142   1.0000      -0.117458        -3.1962
 143   1.0000      -0.113935        -3.1003
 144   1.0000      -0.100125        -2.7246
 145   1.0000      -0.099526        -2.7082
 146   1.0000      -0.095362        -2.5949
 147   1.0000      -0.092673        -2.5218
 148   1.0000      -0.068989        -1.8773
 149   1.0000      -0.066690        -1.8147
 150   1.0000      -0.064744        -1.7618
 151   1.0000      -0.050984        -1.3873
 152   1.0000      -0.043711        -1.1894
 153   1.0000      -0.037266        -1.0141
 154   1.0000      -0.034803        -0.9470
 155   1.0000      -0.026308        -0.7159
 156   1.0000      -0.024289        -0.6609
 157   1.0000      -0.020349        -0.5537
 158   1.0000       0.028837         0.7847
 159   1.0000       0.045025         1.2252
 160   0.0000       0.136134         3.7044
 161   0.0000       0.136794         3.7223
 162   0.0000       0.149967         4.0808
 163   0.0000       0.151693         4.1278
 164   0.0000       0.153179         4.1682

MULLIKEN ATOMIC CHARGES AND SPIN POPULATIONS
--------------------------------------------
   0 V :    0.458190    1.212420
   1 S :   -0.275354   -0.019598
   2 S :   -0.275229   -0.028931
   3 S :   -0.276960   -0.026038
   4 S :   -0.268262   -0.021581
   5 O :   -0.462474   -0.148124
   6 C :   -0.101880    0.012884
   7 C :   -0.089363    0.005664
   8 C :   -0.093826    0.005208
   9 C :   -0.097370    0.009914
  10 S :    0.117500   -0.000835
  11 S :    0.073555   -0.002298
  12 S :    0.117444   -0.000435
  13 S :    0.074154   -0.002025
  14 C :   -0.186543    0.002547
  15 C :   -0.192256    0.001578
  16 C :   -0.209816    0.000214
  17 C :   -0.202775   -0.000445
  18 S :    0.019940   -0.000078
  19 S :   -0.000989   -0.000203
  20 S :   -0.002254   -0.000013
  21 S :    0.018931   -0.000101
  22 C :   -0.299012   -0.000000
  23 C :   -0.299658   -0.000022
  24 C :   -0.157417   -0.000009
  25 H :    0.140986   -0.000001
  26 H :    0.112146   -0.000005
  27 H :    0.083064   -0.000005
  28 H :    0.091486   -0.000001
  29 H :    0.112840   -0.000001
  30 H :    0.144702    0.000001
  31 C :   -0.300274    0.000332
  32 C :   -0.297330    0.000199
  33 C :   -0.157224   -0.000276
  34 H :    0.139357   -0.000007
  35 H :    0.111928    0.000006
  36 H :    0.091502    0.000027
  37 H :    0.082154    0.000011
  38 H :    0.112407    0.000072
  39 H :    0.143979   -0.000045
Sum of atomic charges         :   -2.0000000

LOEWDIN ATOMIC CHARGES AND SPIN POPULATIONS
-------------------------------------------
   0 V :   -0.148266    1.166047
   1 S :    0.134615   -0.012070
   2 S :    0.042540   -0.019948
   3 S :    0.048168   -0.017728
   4 S :    0.144238   -0.012499
   5 O :   -0.315262   -0.132997
   6 C :   -0.575099    0.010822
   7 C :   -0.552674    0.006239
   8 C :   -0.550790    0.006688
   9 C :   -0.575595    0.008514
  10 S :    0.506840   -0.000322
  11 S :    0.432478   -0.002455
  12 S :    0.504510   -0.000218
  13 S :    0.434257   -0.002326
  14 C :   -0.463237    0.001216
  15 C :   -0.463875    0.000548
  16 C :   -0.625332    0.000647
  17 C :   -0.623513    0.000000
  18 S :    0.373033   -0.000037
  19 S :    0.347316   -0.000153
  20 S :    0.345317   -0.000053
  21 S :    0.372575   -0.000086
  22 C :   -0.285089   -0.000011
  23 C :   -0.282241   -0.000017
  24 C :   -0.176341   -0.000006
  25 H :    0.061843   -0.000001
  26 H :    0.053420   -0.000003
  27 H :    0.057794   -0.000005
  28 H :    0.060010   -0.000002
  29 H :    0.052951    0.000001
  30 H :    0.063034   -0.000001
  31 C :   -0.283073    0.000135
  32 C :   -0.285573    0.000040
  33 C :   -0.176619   -0.000003
  34 H :    0.061255    0.000003
  35 H :    0.053415    0.000003
  36 H :    0.060005    0.000004
  37 H :    0.057489    0.000004
  38 H :    0.052696    0.000036
  39 H :    0.062780   -0.000006

  Mayer bond orders larger than 0.100000
B(  0-V ,  1-S ) :   0.8022 B(  0-V ,  2-S ) :   0.7343 B(  0-V ,  3-S ) :   0.7346
B(  0-V ,  4-S ) :   0.8052 B(  0-V ,  5-O ) :   2.1525 B(  1-S ,  8-C ) :   1.1889
B(  2-S ,  6-C ) :   1.0405 B(  3-S ,  9-C ) :   1.0383 B(  4-S ,  7-C ) :   1.1814
B(  6-C ,  7-C ) :   1.6362 B(  6-C , 10-S ) :   0.9980 B(  7-C , 11-S ) :   0.9037
B(  8-C ,  9-C ) :   1.6564 B(  8-C , 13-S ) :   0.9026 B(  9-C , 12-S ) :   0.9955
B( 10-S , 14-C ) :   1.2622 B( 11-S , 14-C ) :   1.2070 B( 12-S , 15-C ) :   1.2581
B( 13-S , 15-C ) :   1.2072 B( 14-C , 16-C ) :   1.4315 B( 15-C , 17-C ) :   1.4376
B( 16-C , 18-S ) :   1.1017 B( 16-C , 19-S ) :   1.0771 B( 17-C , 20-S ) :   1.0741
B( 17-C , 21-S ) :   1.0978 B( 18-S , 32-C ) :   0.9916 B( 19-S , 31-C ) :   0.9851
B( 20-S , 23-C ) :   0.9861 B( 21-S , 22-C ) :   0.9914 B( 22-C , 24-C ) :   0.9173
B( 22-C , 25-H ) :   0.9631 B( 22-C , 26-H ) :   0.9662 B( 23-C , 24-C ) :   0.9123
B( 23-C , 29-H ) :   0.9641 B( 23-C , 30-H ) :   0.9683 B( 24-C , 27-H ) :   0.9625
B( 24-C , 28-H ) :   0.9716 B( 31-C , 33-C ) :   0.9116 B( 31-C , 38-H ) :   0.9636
B( 31-C , 39-H ) :   0.9691 B( 32-C , 33-C ) :   0.9172 B( 32-C , 34-H ) :   0.9626
B( 32-C , 35-H ) :   0.9667 B( 33-C , 36-H ) :   0.9717 B( 33-C , 37-H ) :   0.9625

FINAL SINGLE POINT ENERGY     -6337.584416755552

DIPOLE MOMENT
-------------
                                X             Y             Z
Electronic contribution:      1.43697      -2.40227     -13.36187
Nuclear contribution   :     -1.58438       2.72195      14.80348
                        -----------------------------------------
Total Dipole Moment    :     -0.14741       0.31967       1.44162
                        -----------------------------------------
Magnitude (a.u.)       :      1.48397
Magnitude (Debye)      :      3.77196

Rotational constants in cm-1:     0.010725     0.000804     0.000783
Rotational constants in MHz :   321.536717    24.108020    23.472979

                             ****ORCA TERMINATED NORMALLY****
TOTAL RUN TIME: 0 days 1 hours 6 minutes 25 seconds 65 msec
