                         Program Version 5.0.4 -  RELEASE  -
|  1> ! nofrozencore ReducedPop printbasis
|  2> ! B3LYP TZVP
|  3>
|  4> %basis
|  5> newgto V "CP(PPP)" end
|  6> end
|  7>
|  8> %pal
|  9> nprocs 8
| 10> end
| 11>
| 12> % sym SymThresh 1e-2 end
| 13> * xyz -2 2
| 14> V 0.4785416725409485 -0.5601988065957945 -0.8569539443239407
| 15> S -1.5381005216988572 -1.928405587183015 -0.36333592861157293
| 16> S -1.1948157083960789 1.0685058032457098 -1.7361758616745069
| 17> S 1.455854986042619 -1.6050703300494598 1.1483710771391642
| 18> S 1.7543723903947073 1.4280956823724171 -0.19458732771694343
| 19> O 1.2432138466142604 -1.1911059994146556 -2.1007940225950255
| 20> C -0.16426734948533325 2.4913262079905745 -1.8774120674045878
| 21> C 1.0117380718715345 2.630267665035473 -1.2370940395133712
| 22> C -0.9272047266664617 -2.9881752692572556 0.9017126679739494
| 23> C 0.2656016093994712 -2.8442882728398264 1.5076194383866393
| 24> S -0.6881343374515418 3.9040648724010647 -2.8726188848580634
| 25> S 1.8465057031039511 4.203099703741152 -1.40457963493446
| 26> S 0.6487329041890445 -3.9982636168576575 2.8220247204251714
| 27> S -1.9534532475784072 -4.348972703765225 1.4881621600928994
| 28> C 0.6682482916634204 4.974738299496585 -2.4637606594293495
| 29> C -0.8686826390736548 -4.895158992263064 2.7793378342051347
| 30> C 0.809867198549044 6.2579967077512935 -2.9195499152813427
| 31> C -1.1590737385196377 -5.909227476554024 3.6500710010802613
| 32> S -0.3891300285426593 7.000994133589584 -4.002567243632593
| 33> S 2.2186722371755705 7.27700574681191 -2.5025324644003657
| 34> S -2.6996552592540497 -6.794832281108488 3.569269420336459
| 35> S -0.038053730284847126 -6.3979334329615885 4.9521865830076255
| 36> C -1.1123013799877748 -6.048473449189406 6.424943981874012
| 37> C -3.371484725424477 -6.244629861479586 5.203460113311322
| 38> C -2.4986856214465947 -6.700637547272701 6.376484949703976
| 39> H -1.2029888002881732 -4.961015635084355 6.529420083807045
| 40> H -0.5455258956674469 -6.4273282834765055 7.283682593685985
| 41> H -3.0169095070377256 -6.453753707892877 7.313695874826441
| 42> H -2.392183308225206 -7.790764123191672 6.34100882372223
| 43> H -4.376126685382118 -6.676628150404587 5.281434745669166
| 44> H -3.4671758787408367 -5.153304442573052 5.1779042517045974
| 45> C 2.9034429185853843 7.592716300130339 -4.200988156438846
| 46> C 0.7114578148910004 7.1538242300093495 -5.483567560731942
| 47> C 1.8854811164753804 8.104784575019167 -5.228111574276902
| 48> H 1.0591611606243525 6.146655416102119 -5.7497869375145845
| 49> H 0.08173042699940383 7.5292613312203915 -6.301843331722062
| 50> H 1.4930834827785906 9.078116029418721 -4.909193135643124
| 51> H 2.420973988240643 8.263533595014502 -6.174707896708545
| 52> H 3.6952711251582984 8.338932916115457 -4.047969907601523
| 53> H 3.372736980968189 6.665223586079159 -4.5567540093185475
| 54> *
| 55>
| 56> % eprnmr
| 57> gtensor true
| 58> Nuclei = all H {aiso,adip,aorb,fgrad,rho}
| 59> Nuclei = all V {aiso,adip,aorb,fgrad,rho}
| 60> end
| 61>
| 62>                          ****END OF INPUT****

CARTESIAN COORDINATES (ANGSTROEM)
---------------------------------
  V      0.477449   -0.556762   -0.855653
  S     -1.539193   -1.924969   -0.362035
  S     -1.195908    1.071943   -1.734875
  S      1.454763   -1.601633    1.149672
  S      1.753280    1.431533   -0.193287
  O      1.242121   -1.187669   -2.099493
  C     -0.165360    2.494763   -1.876111
  C      1.010646    2.633705   -1.235793
  C     -0.928297   -2.984738    0.903013
  C      0.264509   -2.840851    1.508920
  S     -0.689227    3.907502   -2.871318
  S      1.845413    4.206537   -1.403279
  S      0.647641   -3.994827    2.823326
  S     -1.954546   -4.345536    1.489463
  C      0.667156    4.978175   -2.462460
  C     -0.869775   -4.891722    2.780639
  C      0.808775    6.261434   -2.918249
  C     -1.160166   -5.905791    3.651372
  S     -0.390222    7.004431   -4.001266
  S      2.217580    7.280443   -2.501232
  S     -2.700748   -6.791395    3.570570
  S     -0.039146   -6.394496    4.953487
  C     -1.113394   -6.045037    6.426245
  C     -3.372577   -6.241193    5.204761
  C     -2.499778   -6.697201    6.377786
  H     -1.204081   -4.957579    6.530721
  H     -0.546618   -6.423891    7.284983
  H     -3.018002   -6.450317    7.314997
  H     -2.393276   -7.787327    6.342310
  H     -4.377219   -6.673191    5.282736
  H     -3.468268   -5.149867    5.179205
  C      2.902351    7.596153   -4.199687
  C      0.710365    7.157261   -5.482267
  C      1.884389    8.108222   -5.226811
  H      1.058069    6.150092   -5.748486
  H      0.080638    7.532698   -6.300543
  H      1.491991    9.081553   -4.907892
  H      2.419882    8.266971   -6.173407
  H      3.694179    8.342370   -4.046669
  H      3.371645    6.668661   -4.555453

 Total Charge           Charge          ....   -2
 Multiplicity           Mult            ....    2
 Number of Electrons    NEL             ....  321
 Basis Dimension        Dim             ....  681

ORBITAL ENERGIES
----------------
                 SPIN UP ORBITALS
  NO   OCC          E(Eh)            E(eV)
   0   1.0000    -196.675025     -5351.7995
   1   1.0000     -88.733726     -2414.5674
   2   1.0000     -88.733558     -2414.5629
   3   1.0000     -88.732805     -2414.5424
   4   1.0000     -88.732642     -2414.5379
   5   1.0000     -88.731445     -2414.5054
   6   1.0000     -88.730856     -2414.4893
   7   1.0000     -88.729342     -2414.4482
   8   1.0000     -88.729207     -2414.4445
   9   1.0000     -88.639829     -2412.0124
  10   1.0000     -88.639602     -2412.0062
  11   1.0000     -88.639590     -2412.0059
  12   1.0000     -88.639400     -2412.0007
  13   1.0000     -22.050406      -600.0221
  14   1.0000     -18.889834      -514.0185
  15   1.0000     -18.556850      -504.9576
  16   1.0000     -18.551681      -504.8169
  17   1.0000     -18.551591      -504.8144
  18   1.0000     -10.076229      -274.1881
  19   1.0000     -10.075903      -274.1793
  20   1.0000     -10.065986      -273.9094
  21   1.0000     -10.064940      -273.8809
  22   1.0000     -10.063894      -273.8525
  23   1.0000     -10.063299      -273.8363
  24   1.0000     -10.052072      -273.5308
  25   1.0000     -10.051548      -273.5165
  26   1.0000     -10.048714      -273.4394
  27   1.0000     -10.048523      -273.4342
  28   1.0000     -10.018553      -272.6187
  29   1.0000     -10.018000      -272.6036
  30   1.0000     -10.017150      -272.5805
  31   1.0000     -10.016951      -272.5751
  32   1.0000      -7.786893      -211.8921
  33   1.0000      -7.786805      -211.8897
  34   1.0000      -7.786375      -211.8780
  35   1.0000      -7.786233      -211.8742
  36   1.0000      -7.784282      -211.8211
  37   1.0000      -7.783855      -211.8095
  38   1.0000      -7.782840      -211.7818
  39   1.0000      -7.782787      -211.7804
  40   1.0000      -7.694268      -209.3717
  41   1.0000      -7.694074      -209.3664
  42   1.0000      -7.693717      -209.3567
  43   1.0000      -7.693366      -209.3471
  44   1.0000      -5.751961      -156.5188
  45   1.0000      -5.751844      -156.5156
  46   1.0000      -5.751322      -156.5014
  47   1.0000      -5.751160      -156.4970
  48   1.0000      -5.749268      -156.4455
  49   1.0000      -5.748814      -156.4332
  50   1.0000      -5.748447      -156.4232
  51   1.0000      -5.748361      -156.4208
  52   1.0000      -5.747979      -156.4105
  53   1.0000      -5.747874      -156.4076
  54   1.0000      -5.747772      -156.4048
  55   1.0000      -5.747703      -156.4030
  56   1.0000      -5.744862      -156.3256
  57   1.0000      -5.744425      -156.3137
  58   1.0000      -5.743314      -156.2835
  59   1.0000      -5.743237      -156.2814
  60   1.0000      -5.741670      -156.2388
  61   1.0000      -5.741602      -156.2369
  62   1.0000      -5.741170      -156.2252
  63   1.0000      -5.741003      -156.2206
  64   1.0000      -5.740083      -156.1956
  65   1.0000      -5.739661      -156.1841
  66   1.0000      -5.738674      -156.1573
  67   1.0000      -5.738639      -156.1563
  68   1.0000      -5.659539      -154.0039
  69   1.0000      -5.659329      -153.9982
  70   1.0000      -5.659071      -153.9911
  71   1.0000      -5.658763      -153.9828
  72   1.0000      -5.652916      -153.8237
  73   1.0000      -5.652736      -153.8188
  74   1.0000      -5.652396      -153.8095
  75   1.0000      -5.652060      -153.8004
  76   1.0000      -5.651606      -153.7880
  77   1.0000      -5.651398      -153.7824
  78   1.0000      -5.651024      -153.7722
  79   1.0000      -5.650623      -153.7613
  80   1.0000      -2.443944       -66.5031
  81   1.0000      -1.485000       -40.4089
  82   1.0000      -1.473621       -40.0993
  83   1.0000      -1.472822       -40.0775
  84   1.0000      -0.709166       -19.2974
  85   1.0000      -0.708674       -19.2840
  86   1.0000      -0.685032       -18.6407
  87   1.0000      -0.684745       -18.6328
  88   1.0000      -0.649479       -17.6732
  89   1.0000      -0.630973       -17.1697
  90   1.0000      -0.630739       -17.1633
  91   1.0000      -0.616345       -16.7716
  92   1.0000      -0.615752       -16.7555
  93   1.0000      -0.574325       -15.6282
  94   1.0000      -0.573797       -15.6138
  95   1.0000      -0.573396       -15.6029
  96   1.0000      -0.572482       -15.5780
  97   1.0000      -0.496630       -13.5140
  98   1.0000      -0.495560       -13.4849
  99   1.0000      -0.495054       -13.4711
 100   1.0000      -0.494606       -13.4589
 101   1.0000      -0.479518       -13.0483
 102   1.0000      -0.476771       -12.9736
 103   1.0000      -0.446817       -12.1585
 104   1.0000      -0.444619       -12.0987
 105   1.0000      -0.416186       -11.3250
 106   1.0000      -0.410863       -11.1801
 107   1.0000      -0.354490        -9.6462
 108   1.0000      -0.354255        -9.6398
 109   1.0000      -0.326068        -8.8728
 110   1.0000      -0.325857        -8.8670
 111   1.0000      -0.318805        -8.6751
 112   1.0000      -0.314068        -8.5462
 113   1.0000      -0.304574        -8.2879
 114   1.0000      -0.303747        -8.2654
 115   1.0000      -0.291176        -7.9233
 116   1.0000      -0.290592        -7.9074
 117   1.0000      -0.257838        -7.0161
 118   1.0000      -0.257113        -6.9964
 119   1.0000      -0.255630        -6.9560
 120   1.0000      -0.255029        -6.9397
 121   1.0000      -0.234708        -6.3867
 122   1.0000      -0.234222        -6.3735
 123   1.0000      -0.230607        -6.2751
 124   1.0000      -0.229314        -6.2400
 125   1.0000      -0.219891        -5.9835
 126   1.0000      -0.217692        -5.9237
 127   1.0000      -0.213931        -5.8214
 128   1.0000      -0.211621        -5.7585
 129   1.0000      -0.192982        -5.2513
 130   1.0000      -0.187191        -5.0937
 131   1.0000      -0.186081        -5.0635
 132   1.0000      -0.184110        -5.0099
 133   1.0000      -0.178912        -4.8684
 134   1.0000      -0.159118        -4.3298
 135   1.0000      -0.151591        -4.1250
 136   1.0000      -0.146680        -3.9914
 137   1.0000      -0.135396        -3.6843
 138   1.0000      -0.134194        -3.6516
 139   1.0000      -0.132739        -3.6120
 140   1.0000      -0.124763        -3.3950
 141   1.0000      -0.120737        -3.2854
 142   1.0000      -0.112753        -3.0682
 143   1.0000      -0.109320        -2.9748
 144   1.0000      -0.099419        -2.7053
 145   1.0000      -0.098192        -2.6719
 146   1.0000      -0.097104        -2.6423
 147   1.0000      -0.094707        -2.5771
 148   1.0000      -0.074198        -2.0190
 149   1.0000      -0.067391        -1.8338
 150   1.0000      -0.066947        -1.8217
 151   1.0000      -0.051928        -1.4130
 152   1.0000      -0.045317        -1.2331
 153   1.0000      -0.037451        -1.0191
 154   1.0000      -0.036763        -1.0004
 155   1.0000      -0.031203        -0.8491
 156   1.0000      -0.025077        -0.6824
 157   1.0000      -0.018939        -0.5153
 158   1.0000      -0.014532        -0.3954
 159   1.0000       0.020252         0.5511
 160   1.0000       0.041370         1.1257
 161   0.0000       0.136463         3.7133
 162   0.0000       0.137186         3.7330
 163   0.0000       0.161810         4.4031
 164   0.0000       0.162281         4.4159
 165   0.0000       0.170041         4.6270

                 SPIN DOWN ORBITALS
  NO   OCC          E(Eh)            E(eV)
   0   1.0000    -196.675172     -5351.8035
   1   1.0000     -88.733726     -2414.5675
   2   1.0000     -88.733559     -2414.5629
   3   1.0000     -88.732805     -2414.5424
   4   1.0000     -88.732643     -2414.5380
   5   1.0000     -88.731454     -2414.5056
   6   1.0000     -88.730864     -2414.4896
   7   1.0000     -88.729350     -2414.4484
   8   1.0000     -88.729216     -2414.4447
   9   1.0000     -88.639974     -2412.0163
  10   1.0000     -88.639741     -2412.0100
  11   1.0000     -88.639730     -2412.0097
  12   1.0000     -88.639539     -2412.0045
  13   1.0000     -22.035457      -599.6153
  14   1.0000     -18.893608      -514.1212
  15   1.0000     -18.551576      -504.8141
  16   1.0000     -18.535631      -504.3802
  17   1.0000     -18.535453      -504.3753
  18   1.0000     -10.076223      -274.1880
  19   1.0000     -10.075903      -274.1792
  20   1.0000     -10.065985      -273.9094
  21   1.0000     -10.064940      -273.8809
  22   1.0000     -10.063893      -273.8524
  23   1.0000     -10.063299      -273.8363
  24   1.0000     -10.052072      -273.5308
  25   1.0000     -10.051548      -273.5165
  26   1.0000     -10.048703      -273.4391
  27   1.0000     -10.048519      -273.4341
  28   1.0000     -10.018342      -272.6130
  29   1.0000     -10.017793      -272.5980
  30   1.0000     -10.016906      -272.5739
  31   1.0000     -10.016732      -272.5691
  32   1.0000      -7.786894      -211.8922
  33   1.0000      -7.786806      -211.8898
  34   1.0000      -7.786376      -211.8781
  35   1.0000      -7.786234      -211.8742
  36   1.0000      -7.784293      -211.8214
  37   1.0000      -7.783864      -211.8097
  38   1.0000      -7.782849      -211.7821
  39   1.0000      -7.782797      -211.7807
  40   1.0000      -7.694402      -209.3753
  41   1.0000      -7.694204      -209.3699
  42   1.0000      -7.693847      -209.3602
  43   1.0000      -7.693495      -209.3506
  44   1.0000      -5.751962      -156.5188
  45   1.0000      -5.751845      -156.5157
  46   1.0000      -5.751322      -156.5014
  47   1.0000      -5.751161      -156.4971
  48   1.0000      -5.749280      -156.4459
  49   1.0000      -5.748825      -156.4335
  50   1.0000      -5.748448      -156.4232
  51   1.0000      -5.748361      -156.4209
  52   1.0000      -5.747980      -156.4105
  53   1.0000      -5.747875      -156.4076
  54   1.0000      -5.747782      -156.4051
  55   1.0000      -5.747714      -156.4032
  56   1.0000      -5.744877      -156.3261
  57   1.0000      -5.744440      -156.3141
  58   1.0000      -5.743327      -156.2839
  59   1.0000      -5.743250      -156.2818
  60   1.0000      -5.741671      -156.2388
  61   1.0000      -5.741603      -156.2370
  62   1.0000      -5.741171      -156.2252
  63   1.0000      -5.741004      -156.2207
  64   1.0000      -5.740092      -156.1959
  65   1.0000      -5.739667      -156.1843
  66   1.0000      -5.738680      -156.1574
  67   1.0000      -5.738648      -156.1565
  68   1.0000      -5.659685      -154.0079
  69   1.0000      -5.659474      -154.0021
  70   1.0000      -5.659211      -153.9950
  71   1.0000      -5.658899      -153.9865
  72   1.0000      -5.653303      -153.8342
  73   1.0000      -5.653096      -153.8286
  74   1.0000      -5.652756      -153.8193
  75   1.0000      -5.652450      -153.8110
  76   1.0000      -5.651704      -153.7907
  77   1.0000      -5.651502      -153.7852
  78   1.0000      -5.651137      -153.7752
  79   1.0000      -5.650706      -153.7635
  80   1.0000      -2.399012       -65.2804
  81   1.0000      -1.465676       -39.8831
  82   1.0000      -1.411205       -38.4008
  83   1.0000      -1.411009       -38.3955
  84   1.0000      -0.709150       -19.2970
  85   1.0000      -0.708648       -19.2833
  86   1.0000      -0.684990       -18.6395
  87   1.0000      -0.684690       -18.6314
  88   1.0000      -0.657583       -17.8937
  89   1.0000      -0.630919       -17.1682
  90   1.0000      -0.630664       -17.1612
  91   1.0000      -0.616347       -16.7717
  92   1.0000      -0.615751       -16.7554
  93   1.0000      -0.574300       -15.6275
  94   1.0000      -0.573763       -15.6129
  95   1.0000      -0.573333       -15.6012
  96   1.0000      -0.572416       -15.5762
  97   1.0000      -0.496648       -13.5145
  98   1.0000      -0.495612       -13.4863
  99   1.0000      -0.495086       -13.4720
 100   1.0000      -0.494656       -13.4603
 101   1.0000      -0.479712       -13.0536
 102   1.0000      -0.477029       -12.9806
 103   1.0000      -0.446840       -12.1591
 104   1.0000      -0.444668       -12.1000
 105   1.0000      -0.416189       -11.3251
 106   1.0000      -0.410977       -11.1832
 107   1.0000      -0.354485        -9.6460
 108   1.0000      -0.354245        -9.6395
 109   1.0000      -0.326053        -8.8723
 110   1.0000      -0.325848        -8.8668
 111   1.0000      -0.318726        -8.6730
 112   1.0000      -0.314099        -8.5471
 113   1.0000      -0.304525        -8.2866
 114   1.0000      -0.303724        -8.2648
 115   1.0000      -0.291167        -7.9231
 116   1.0000      -0.290586        -7.9072
 117   1.0000      -0.257704        -7.0125
 118   1.0000      -0.257011        -6.9936
 119   1.0000      -0.255603        -6.9553
 120   1.0000      -0.254994        -6.9388
 121   1.0000      -0.234662        -6.3855
 122   1.0000      -0.234213        -6.3733
 123   1.0000      -0.230551        -6.2736
 124   1.0000      -0.229286        -6.2392
 125   1.0000      -0.219539        -5.9740
 126   1.0000      -0.217547        -5.9198
 127   1.0000      -0.213744        -5.8163
 128   1.0000      -0.211492        -5.7550
 129   1.0000      -0.191303        -5.2056
 130   1.0000      -0.187123        -5.0919
 131   1.0000      -0.185716        -5.0536
 132   1.0000      -0.183892        -5.0040
 133   1.0000      -0.178800        -4.8654
 134   1.0000      -0.158497        -4.3129
 135   1.0000      -0.151414        -4.1202
 136   1.0000      -0.146599        -3.9892
 137   1.0000      -0.134635        -3.6636
 138   1.0000      -0.133995        -3.6462
 139   1.0000      -0.132483        -3.6051
 140   1.0000      -0.124175        -3.3790
 141   1.0000      -0.120419        -3.2768
 142   1.0000      -0.114539        -3.1168
 143   1.0000      -0.110868        -3.0169
 144   1.0000      -0.099424        -2.7055
 145   1.0000      -0.098462        -2.6793
 146   1.0000      -0.097130        -2.6430
 147   1.0000      -0.095008        -2.5853
 148   1.0000      -0.070389        -1.9154
 149   1.0000      -0.067374        -1.8333
 150   1.0000      -0.066944        -1.8216
 151   1.0000      -0.049392        -1.3440
 152   1.0000      -0.044415        -1.2086
 153   1.0000      -0.037499        -1.0204
 154   1.0000      -0.036230        -0.9859
 155   1.0000      -0.031242        -0.8501
 156   1.0000      -0.025931        -0.7056
 157   1.0000      -0.014716        -0.4005
 158   1.0000       0.020541         0.5589
 159   1.0000       0.040299         1.0966
 160   0.0000       0.136469         3.7135
 161   0.0000       0.137179         3.7328
 162   0.0000       0.156019         4.2455
 163   0.0000       0.162061         4.4099
 164   0.0000       0.163409         4.4466

MULLIKEN ATOMIC CHARGES AND SPIN POPULATIONS
--------------------------------------------
   0 V :    0.476678    1.211333
   1 S :   -0.292123   -0.023476
   2 S :   -0.291707   -0.025440
   3 S :   -0.286242   -0.023015
   4 S :   -0.281914   -0.025610
   5 O :   -0.473517   -0.146231
   6 C :   -0.067464    0.008152
   7 C :   -0.096946    0.009306
   8 C :   -0.077307    0.007485
   9 C :   -0.092196    0.007720
  10 S :    0.095900   -0.000790
  11 S :    0.104539   -0.000522
  12 S :    0.102648   -0.000296
  13 S :    0.096684   -0.000447
  14 C :   -0.209913    0.001399
  15 C :   -0.210066    0.000988
  16 C :   -0.195110    0.000038
  17 C :   -0.192189   -0.000395
  18 S :    0.009288   -0.000126
  19 S :    0.008568   -0.000103
  20 S :    0.008399   -0.000070
  21 S :    0.008231   -0.000065
  22 C :   -0.294828   -0.000002
  23 C :   -0.306483   -0.000006
  24 C :   -0.158731   -0.000008
  25 H :    0.138290   -0.000001
  26 H :    0.111033   -0.000004
  27 H :    0.083829   -0.000001
  28 H :    0.092662   -0.000001
  29 H :    0.115496   -0.000005
  30 H :    0.148213   -0.000000
  31 C :   -0.292423    0.000179
  32 C :   -0.309305    0.000202
  33 C :   -0.158985   -0.000232
  34 H :    0.149050   -0.000022
  35 H :    0.116062    0.000026
  36 H :    0.093035    0.000023
  37 H :    0.083088    0.000015
  38 H :    0.109882    0.000017
  39 H :    0.135873   -0.000014
Sum of atomic charges         :   -2.0000000

LOEWDIN ATOMIC CHARGES AND SPIN POPULATIONS
-------------------------------------------
   0 V :   -0.151968    1.164984
   1 S :    0.075309   -0.015578
   2 S :    0.071425   -0.016545
   3 S :    0.087109   -0.014775
   4 S :    0.089364   -0.016205
   5 O :   -0.322612   -0.131285
   6 C :   -0.547997    0.007638
   7 C :   -0.553117    0.009135
   8 C :   -0.550833    0.007578
   9 C :   -0.553715    0.008217
  10 S :    0.464900   -0.001024
  11 S :    0.477276   -0.000913
  12 S :    0.475295   -0.000807
  13 S :    0.466570   -0.000836
  14 C :   -0.464717    0.000165
  15 C :   -0.465194   -0.000076
  16 C :   -0.622320    0.000473
  17 C :   -0.621997    0.000087
  18 S :    0.359427   -0.000097
  19 S :    0.355774   -0.000079
  20 S :    0.359600   -0.000077
  21 S :    0.356389   -0.000066
  22 C :   -0.284191   -0.000008
  23 C :   -0.283208   -0.000008
  24 C :   -0.176646   -0.000002
  25 H :    0.061041   -0.000001
  26 H :    0.054323   -0.000002
  27 H :    0.057889   -0.000001
  28 H :    0.060386   -0.000001
  29 H :    0.053837   -0.000003
  30 H :    0.065422   -0.000001
  31 C :   -0.285288    0.000039
  32 C :   -0.283892    0.000046
  33 C :   -0.177163    0.000006
  34 H :    0.066276   -0.000001
  35 H :    0.054069    0.000010
  36 H :    0.060515    0.000004
  37 H :    0.057601    0.000002
  38 H :    0.054742    0.000008
  39 H :    0.060320   -0.000000

  Mayer bond orders larger than 0.100000
B(  0-V ,  1-S ) :   0.7597 B(  0-V ,  2-S ) :   0.7553 B(  0-V ,  3-S ) :   0.7782
B(  0-V ,  4-S ) :   0.7895 B(  0-V ,  5-O ) :   2.1425 B(  1-S ,  8-C ) :   1.1068
B(  2-S ,  6-C ) :   1.1047 B(  3-S ,  9-C ) :   1.1028 B(  4-S ,  7-C ) :   1.1035
B(  6-C ,  7-C ) :   1.6858 B(  6-C , 10-S ) :   0.9255 B(  7-C , 11-S ) :   0.9458
B(  8-C ,  9-C ) :   1.6981 B(  8-C , 13-S ) :   0.9280 B(  9-C , 12-S ) :   0.9409
B( 10-S , 14-C ) :   1.2423 B( 11-S , 14-C ) :   1.2509 B( 12-S , 15-C ) :   1.2491
B( 13-S , 15-C ) :   1.2418 B( 14-C , 16-C ) :   1.4525 B( 15-C , 17-C ) :   1.4540
B( 16-C , 18-S ) :   1.0958 B( 16-C , 19-S ) :   1.0822 B( 17-C , 20-S ) :   1.0935
B( 17-C , 21-S ) :   1.0837 B( 18-S , 32-C ) :   0.9812 B( 19-S , 31-C ) :   0.9978
B( 20-S , 23-C ) :   0.9832 B( 21-S , 22-C ) :   0.9964 B( 22-C , 24-C ) :   0.9179
B( 22-C , 25-H ) :   0.9636 B( 22-C , 26-H ) :   0.9657 B( 23-C , 24-C ) :   0.9080
B( 23-C , 29-H ) :   0.9644 B( 23-C , 30-H ) :   0.9671 B( 24-C , 27-H ) :   0.9624
B( 24-C , 28-H ) :   0.9720 B( 31-C , 33-C ) :   0.9194 B( 31-C , 38-H ) :   0.9656
B( 31-C , 39-H ) :   0.9630 B( 32-C , 33-C ) :   0.9056 B( 32-C , 34-H ) :   0.9677
B( 32-C , 35-H ) :   0.9638 B( 33-C , 36-H ) :   0.9720 B( 33-C , 37-H ) :   0.9622

FINAL SINGLE POINT ENERGY     -6337.704857795127

DIPOLE MOMENT
-------------
                                X             Y             Z
Electronic contribution:      4.38798      -9.59715      -8.71789
Nuclear contribution   :     -4.88437      10.62948       9.71753
                        -----------------------------------------
Total Dipole Moment    :     -0.49639       1.03233       0.99964
                        -----------------------------------------
Magnitude (a.u.)       :      1.52033
Magnitude (Debye)      :      3.86436

Rotational constants in cm-1:     0.010745     0.000804     0.000783
Rotational constants in MHz :   322.133314    24.095605    23.474331

                             ****ORCA TERMINATED NORMALLY****
TOTAL RUN TIME: 0 days 1 hours 1 minutes 41 seconds 902 msec
