                         Program Version 5.0.4 -  RELEASE  -
|  1> ! nofrozencore ReducedPop printbasis
|  2> ! B3LYP TZVP
|  3>
|  4> %basis
|  5> newgto V "CP(PPP)" end
|  6> end
|  7>
|  8> %pal
|  9> nprocs 6
| 10> end
| 11>
| 12> % sym SymThresh 1e-2 end
| 13> * xyz -2 2
| 14> V 0.6919683862256436 0.6278399111186581 0.6163562233520432
| 15> S 0.13878891819137584 2.1708806236562572 -1.3168421246748174
| 16> S -1.581157549410894 1.019506922114438 1.4737135717267729
| 17> S 2.143828991469595 -0.46868111925638545 -1.1695215290968526
| 18> S 0.3993541518262092 -1.6460538206232362 1.5298948151065208
| 19> O 1.6893779598874514 1.4286282412977955 1.5616541338996548
| 20> C -1.703981357200074 -0.2821763973031193 2.621812503768457
| 21> C -0.9036844286571479 -1.3607852699809 2.636955098378547
| 22> C 1.2473731787719313 1.702979927410385 -2.536959767806287
| 23> C 2.052489857501086 0.6339180846251796 -2.4754596440841676
| 24> S -3.0033368573960626 -0.22321850902884932 3.825803895509972
| 25> S -1.2266964277415182 -2.6157008302508573 3.8413502147871355
| 26> S 3.0644867035492553 0.2524722337165514 -3.8508043952917146
| 27> S 1.245345948701273 2.6781948816817107 -3.99438120839539
| 28> C -2.6850783285891158 -1.8352826132068818 4.479889134232967
| 29> C 2.5638867411243114 1.7254951092271018 -4.709460923805751
| 30> C -3.4124963153124335 -2.3587830554871667 5.506099137169861
| 31> C 2.951759695572992 1.9445933484724007 -5.988473059690653
| 32> S -4.719076478983542 -1.5100932375472922 6.316096960803581
| 33> S -3.010591366076286 -3.8735554820339018 6.28357213702851
| 34> S 2.303641848738981 3.1289314314617926 -7.047439799885196
| 35> S 3.9482121862637194 0.9101871661020435 -6.924374711492931
| 36> C 2.918213163700117 0.2730378128567161 -8.366810728825097
| 37> C 1.4733455060130929 2.2276130578209976 -8.477673257570522
| 38> C 2.33252274448488 1.2994056315550695 -9.337434950730188
| 39> H 2.0993478968416386 -0.32549442662501055 -7.956681583751522
| 40> H 3.6319864877578665 -0.4126382426717646 -8.85178125204837
| 41> H 1.6813174036739624 0.7768928940075854 -10.066628789729785
| 42> H 3.109289847894472 1.8410750289396098 -9.899909310785599
| 43> H 1.0585807773365317 3.0737112234192523 -9.049151298445347
| 44> H 0.6370435008136108 1.6510332723715146 -8.07171205407399
| 45> C -2.611679854813704 -3.3648741289090087 8.034083934176198
| 46> C -4.073821898684774 -1.3227543824812014 8.058275004825484
| 47> C -3.7170778208049025 -2.620704427148155 8.7824015298304
| 48> H -3.20239389425836 -0.6639647081336699 8.027656325600688
| 49> H -4.882780514291291 -0.7917640500422015 8.5695197262489
| 50> H -4.603044065868802 -3.255669541580199 8.901004511507393
| 51> H -3.349204483586124 -2.369409379780618 9.789979285786268
| 52> H -2.3709764384572796 -4.314871813995603 8.521863684450292
| 53> H -1.7044321095835695 -2.7556793677149676 8.011740935953716
| 54> *
| 55>
| 56> % eprnmr
| 57> gtensor true
| 58> Nuclei = all H {aiso,adip,aorb,fgrad,rho}
| 59> Nuclei = all V {aiso,adip,aorb,fgrad,rho}
| 60> end
| 61>
| 62>                          ****END OF INPUT****

CARTESIAN COORDINATES (ANGSTROEM)
---------------------------------
  V      0.688910    0.625535    0.616541
  S      0.135731    2.168576   -1.316657
  S     -1.584216    1.017202    1.473899
  S      2.140771   -0.470986   -1.169336
  S      0.396296   -1.648358    1.530080
  O      1.686320    1.426324    1.561839
  C     -1.707040   -0.284481    2.621998
  C     -0.906743   -1.363090    2.637140
  C      1.244315    1.700675   -2.536775
  C      2.049432    0.631613   -2.475275
  S     -3.006395   -0.225523    3.825989
  S     -1.229755   -2.618005    3.841535
  S      3.061428    0.250168   -3.850619
  S      1.242288    2.675890   -3.994196
  C     -2.688137   -1.837587    4.480074
  C      2.560828    1.723190   -4.709276
  C     -3.415555   -2.361088    5.506284
  C      2.948701    1.942289   -5.988288
  S     -4.722135   -1.512398    6.316282
  S     -3.013650   -3.875860    6.283757
  S      2.300584    3.126627   -7.047255
  S      3.945154    0.907883   -6.924190
  C      2.915155    0.270733   -8.366626
  C      1.470287    2.225308   -8.477488
  C      2.329464    1.297101   -9.337250
  H      2.096290   -0.327799   -7.956496
  H      3.628928   -0.414943   -8.851596
  H      1.678259    0.774588  -10.066444
  H      3.106232    1.838770   -9.899724
  H      1.055522    3.071407   -9.048966
  H      0.633985    1.648729   -8.071527
  C     -2.614738   -3.367179    8.034269
  C     -4.076880   -1.325059    8.058460
  C     -3.720136   -2.623009    8.782587
  H     -3.205452   -0.666269    8.027841
  H     -4.885839   -0.794069    8.569705
  H     -4.606102   -3.257974    8.901190
  H     -3.352263   -2.371714    9.790164
  H     -2.374035   -4.317176    8.522049
  H     -1.707490   -2.757984    8.011926

 Total Charge           Charge          ....   -2
 Multiplicity           Mult            ....    2
 Number of Electrons    NEL             ....  321
 Basis Dimension        Dim             ....  681

ORBITAL ENERGIES
----------------
                 SPIN UP ORBITALS
  NO   OCC          E(Eh)            E(eV)
   0   1.0000    -196.678651     -5351.8982
   1   1.0000     -88.733085     -2414.5500
   2   1.0000     -88.732669     -2414.5387
   3   1.0000     -88.731831     -2414.5159
   4   1.0000     -88.731162     -2414.4977
   5   1.0000     -88.731020     -2414.4938
   6   1.0000     -88.730946     -2414.4918
   7   1.0000     -88.724778     -2414.3240
   8   1.0000     -88.724503     -2414.3165
   9   1.0000     -88.640300     -2412.0252
  10   1.0000     -88.639800     -2412.0116
  11   1.0000     -88.633251     -2411.8334
  12   1.0000     -88.632634     -2411.8166
  13   1.0000     -22.053635      -600.1099
  14   1.0000     -18.892249      -514.0842
  15   1.0000     -18.560054      -505.0447
  16   1.0000     -18.554985      -504.9068
  17   1.0000     -18.554816      -504.9022
  18   1.0000     -10.076093      -274.1844
  19   1.0000     -10.072000      -274.0731
  20   1.0000     -10.065418      -273.8940
  21   1.0000     -10.065052      -273.8840
  22   1.0000     -10.063872      -273.8519
  23   1.0000     -10.063762      -273.8489
  24   1.0000     -10.054512      -273.5972
  25   1.0000     -10.054385      -273.5937
  26   1.0000     -10.046219      -273.3715
  27   1.0000     -10.037983      -273.1474
  28   1.0000     -10.016191      -272.5544
  29   1.0000     -10.015220      -272.5280
  30   1.0000     -10.007887      -272.3284
  31   1.0000     -10.007044      -272.3055
  32   1.0000      -7.786583      -211.8837
  33   1.0000      -7.786266      -211.8751
  34   1.0000      -7.785653      -211.8584
  35   1.0000      -7.785032      -211.8415
  36   1.0000      -7.784797      -211.8351
  37   1.0000      -7.784661      -211.8314
  38   1.0000      -7.779506      -211.6911
  39   1.0000      -7.779272      -211.6847
  40   1.0000      -7.695122      -209.3949
  41   1.0000      -7.694764      -209.3852
  42   1.0000      -7.688604      -209.2175
  43   1.0000      -7.687999      -209.2011
  44   1.0000      -5.751556      -156.5078
  45   1.0000      -5.751176      -156.4974
  46   1.0000      -5.750715      -156.4849
  47   1.0000      -5.750089      -156.4679
  48   1.0000      -5.749778      -156.4594
  49   1.0000      -5.749652      -156.4560
  50   1.0000      -5.747082      -156.3860
  51   1.0000      -5.747037      -156.3848
  52   1.0000      -5.746789      -156.3781
  53   1.0000      -5.746371      -156.3667
  54   1.0000      -5.745355      -156.3390
  55   1.0000      -5.745188      -156.3345
  56   1.0000      -5.744557      -156.3174
  57   1.0000      -5.744323      -156.3110
  58   1.0000      -5.742354      -156.2574
  59   1.0000      -5.742057      -156.2493
  60   1.0000      -5.740661      -156.2113
  61   1.0000      -5.740485      -156.2065
  62   1.0000      -5.740453      -156.2057
  63   1.0000      -5.740416      -156.2047
  64   1.0000      -5.740349      -156.2028
  65   1.0000      -5.739842      -156.1890
  66   1.0000      -5.734306      -156.0384
  67   1.0000      -5.734083      -156.0323
  68   1.0000      -5.660258      -154.0234
  69   1.0000      -5.659818      -154.0115
  70   1.0000      -5.653768      -153.8468
  71   1.0000      -5.653474      -153.8388
  72   1.0000      -5.653421      -153.8374
  73   1.0000      -5.652877      -153.8226
  74   1.0000      -5.652536      -153.8133
  75   1.0000      -5.652210      -153.8045
  76   1.0000      -5.647398      -153.6735
  77   1.0000      -5.646801      -153.6573
  78   1.0000      -5.646065      -153.6372
  79   1.0000      -5.645445      -153.6204
  80   1.0000      -2.446789       -66.5805
  81   1.0000      -1.487761       -40.4840
  82   1.0000      -1.476326       -40.1729
  83   1.0000      -1.475378       -40.1471
  84   1.0000      -0.716574       -19.4990
  85   1.0000      -0.714164       -19.4334
  86   1.0000      -0.689550       -18.7636
  87   1.0000      -0.689079       -18.7508
  88   1.0000      -0.651603       -17.7310
  89   1.0000      -0.644649       -17.5418
  90   1.0000      -0.639864       -17.4116
  91   1.0000      -0.613319       -16.6893
  92   1.0000      -0.604115       -16.4388
  93   1.0000      -0.587309       -15.9815
  94   1.0000      -0.583604       -15.8807
  95   1.0000      -0.578519       -15.7423
  96   1.0000      -0.577721       -15.7206
  97   1.0000      -0.499842       -13.6014
  98   1.0000      -0.498877       -13.5751
  99   1.0000      -0.496842       -13.5197
 100   1.0000      -0.496075       -13.4989
 101   1.0000      -0.482031       -13.1167
 102   1.0000      -0.478018       -13.0075
 103   1.0000      -0.450194       -12.2504
 104   1.0000      -0.448646       -12.2083
 105   1.0000      -0.415581       -11.3085
 106   1.0000      -0.410232       -11.1630
 107   1.0000      -0.360019        -9.7966
 108   1.0000      -0.359716        -9.7884
 109   1.0000      -0.328984        -8.9521
 110   1.0000      -0.326903        -8.8955
 111   1.0000      -0.320092        -8.7102
 112   1.0000      -0.314414        -8.5556
 113   1.0000      -0.306097        -8.3293
 114   1.0000      -0.301462        -8.2032
 115   1.0000      -0.289894        -7.8884
 116   1.0000      -0.281693        -7.6653
 117   1.0000      -0.261582        -7.1180
 118   1.0000      -0.261313        -7.1107
 119   1.0000      -0.259195        -7.0530
 120   1.0000      -0.258418        -7.0319
 121   1.0000      -0.242079        -6.5873
 122   1.0000      -0.239901        -6.5280
 123   1.0000      -0.226933        -6.1752
 124   1.0000      -0.223486        -6.0814
 125   1.0000      -0.222345        -6.0503
 126   1.0000      -0.219176        -5.9641
 127   1.0000      -0.218593        -5.9482
 128   1.0000      -0.216897        -5.9021
 129   1.0000      -0.194021        -5.2796
 130   1.0000      -0.189389        -5.1535
 131   1.0000      -0.185570        -5.0496
 132   1.0000      -0.182510        -4.9664
 133   1.0000      -0.177987        -4.8433
 134   1.0000      -0.160982        -4.3805
 135   1.0000      -0.146629        -3.9900
 136   1.0000      -0.140860        -3.8330
 137   1.0000      -0.140678        -3.8280
 138   1.0000      -0.140181        -3.8145
 139   1.0000      -0.136358        -3.7105
 140   1.0000      -0.128137        -3.4868
 141   1.0000      -0.126522        -3.4428
 142   1.0000      -0.114536        -3.1167
 143   1.0000      -0.112712        -3.0670
 144   1.0000      -0.105011        -2.8575
 145   1.0000      -0.103004        -2.8029
 146   1.0000      -0.099151        -2.6980
 147   1.0000      -0.094887        -2.5820
 148   1.0000      -0.072729        -1.9791
 149   1.0000      -0.064244        -1.7482
 150   1.0000      -0.052935        -1.4404
 151   1.0000      -0.050374        -1.3708
 152   1.0000      -0.045199        -1.2299
 153   1.0000      -0.035296        -0.9605
 154   1.0000      -0.031569        -0.8590
 155   1.0000      -0.028216        -0.7678
 156   1.0000      -0.024624        -0.6700
 157   1.0000      -0.020344        -0.5536
 158   1.0000      -0.015559        -0.4234
 159   1.0000       0.023643         0.6434
 160   1.0000       0.044710         1.2166
 161   0.0000       0.128146         3.4870
 162   0.0000       0.132638         3.6093
 163   0.0000       0.158635         4.3167
 164   0.0000       0.158896         4.3238
 165   0.0000       0.163444         4.4475

                 SPIN DOWN ORBITALS
  NO   OCC          E(Eh)            E(eV)
   0   1.0000    -196.678796     -5351.9021
   1   1.0000     -88.733094     -2414.5502
   2   1.0000     -88.732678     -2414.5389
   3   1.0000     -88.731832     -2414.5159
   4   1.0000     -88.731172     -2414.4979
   5   1.0000     -88.731021     -2414.4938
   6   1.0000     -88.730955     -2414.4920
   7   1.0000     -88.724779     -2414.3240
   8   1.0000     -88.724504     -2414.3165
   9   1.0000     -88.640447     -2412.0292
  10   1.0000     -88.639948     -2412.0156
  11   1.0000     -88.633393     -2411.8372
  12   1.0000     -88.632779     -2411.8205
  13   1.0000     -22.038505      -599.6982
  14   1.0000     -18.896111      -514.1893
  15   1.0000     -18.554674      -504.8983
  16   1.0000     -18.538830      -504.4672
  17   1.0000     -18.538432      -504.4564
  18   1.0000     -10.076087      -274.1843
  19   1.0000     -10.072016      -274.0735
  20   1.0000     -10.065417      -273.8939
  21   1.0000     -10.065051      -273.8840
  22   1.0000     -10.063872      -273.8519
  23   1.0000     -10.063762      -273.8489
  24   1.0000     -10.054512      -273.5972
  25   1.0000     -10.054385      -273.5937
  26   1.0000     -10.046207      -273.3712
  27   1.0000     -10.037980      -273.1473
  28   1.0000     -10.015948      -272.5478
  29   1.0000     -10.015001      -272.5220
  30   1.0000     -10.007744      -272.3245
  31   1.0000     -10.006905      -272.3017
  32   1.0000      -7.786593      -211.8840
  33   1.0000      -7.786276      -211.8753
  34   1.0000      -7.785654      -211.8584
  35   1.0000      -7.785032      -211.8415
  36   1.0000      -7.784809      -211.8354
  37   1.0000      -7.784672      -211.8317
  38   1.0000      -7.779506      -211.6911
  39   1.0000      -7.779273      -211.6848
  40   1.0000      -7.695259      -209.3986
  41   1.0000      -7.694901      -209.3889
  42   1.0000      -7.688739      -209.2212
  43   1.0000      -7.688137      -209.2048
  44   1.0000      -5.751566      -156.5081
  45   1.0000      -5.751186      -156.4977
  46   1.0000      -5.750716      -156.4849
  47   1.0000      -5.750090      -156.4679
  48   1.0000      -5.749789      -156.4597
  49   1.0000      -5.749663      -156.4563
  50   1.0000      -5.747096      -156.3864
  51   1.0000      -5.747038      -156.3849
  52   1.0000      -5.746803      -156.3785
  53   1.0000      -5.746372      -156.3667
  54   1.0000      -5.745372      -156.3395
  55   1.0000      -5.745205      -156.3350
  56   1.0000      -5.744559      -156.3174
  57   1.0000      -5.744324      -156.3110
  58   1.0000      -5.742365      -156.2577
  59   1.0000      -5.742066      -156.2495
  60   1.0000      -5.740663      -156.2114
  61   1.0000      -5.740492      -156.2067
  62   1.0000      -5.740453      -156.2057
  63   1.0000      -5.740418      -156.2047
  64   1.0000      -5.740356      -156.2030
  65   1.0000      -5.739842      -156.1891
  66   1.0000      -5.734307      -156.0384
  67   1.0000      -5.734084      -156.0323
  68   1.0000      -5.660405      -154.0275
  69   1.0000      -5.659960      -154.0153
  70   1.0000      -5.654158      -153.8575
  71   1.0000      -5.653821      -153.8483
  72   1.0000      -5.653612      -153.8426
  73   1.0000      -5.653013      -153.8263
  74   1.0000      -5.652642      -153.8162
  75   1.0000      -5.652313      -153.8073
  76   1.0000      -5.647760      -153.6834
  77   1.0000      -5.647180      -153.6676
  78   1.0000      -5.646178      -153.6403
  79   1.0000      -5.645558      -153.6234
  80   1.0000      -2.401350       -65.3440
  81   1.0000      -1.468046       -39.9476
  82   1.0000      -1.413317       -38.4583
  83   1.0000      -1.412959       -38.4486
  84   1.0000      -0.716579       -19.4991
  85   1.0000      -0.714131       -19.4325
  86   1.0000      -0.689494       -18.7621
  87   1.0000      -0.689066       -18.7505
  88   1.0000      -0.659901       -17.9568
  89   1.0000      -0.644652       -17.5419
  90   1.0000      -0.639805       -17.4100
  91   1.0000      -0.613318       -16.6892
  92   1.0000      -0.604121       -16.4390
  93   1.0000      -0.587349       -15.9826
  94   1.0000      -0.583575       -15.8799
  95   1.0000      -0.578480       -15.7412
  96   1.0000      -0.577700       -15.7200
  97   1.0000      -0.499860       -13.6019
  98   1.0000      -0.498942       -13.5769
  99   1.0000      -0.496923       -13.5219
 100   1.0000      -0.496197       -13.5022
 101   1.0000      -0.482233       -13.1222
 102   1.0000      -0.478277       -13.0146
 103   1.0000      -0.450225       -12.2512
 104   1.0000      -0.448707       -12.2099
 105   1.0000      -0.415607       -11.3092
 106   1.0000      -0.410363       -11.1665
 107   1.0000      -0.360024        -9.7967
 108   1.0000      -0.359708        -9.7881
 109   1.0000      -0.328969        -8.9517
 110   1.0000      -0.326906        -8.8956
 111   1.0000      -0.320068        -8.7095
 112   1.0000      -0.314521        -8.5585
 113   1.0000      -0.306045        -8.3279
 114   1.0000      -0.301463        -8.2032
 115   1.0000      -0.289891        -7.8883
 116   1.0000      -0.281694        -7.6653
 117   1.0000      -0.261440        -7.1142
 118   1.0000      -0.261241        -7.1087
 119   1.0000      -0.259183        -7.0527
 120   1.0000      -0.258404        -7.0315
 121   1.0000      -0.242074        -6.5872
 122   1.0000      -0.239888        -6.5277
 123   1.0000      -0.226898        -6.1742
 124   1.0000      -0.223177        -6.0729
 125   1.0000      -0.222247        -6.0476
 126   1.0000      -0.219141        -5.9631
 127   1.0000      -0.218593        -5.9482
 128   1.0000      -0.216875        -5.9015
 129   1.0000      -0.193001        -5.2518
 130   1.0000      -0.189298        -5.1511
 131   1.0000      -0.184542        -5.0217
 132   1.0000      -0.182326        -4.9613
 133   1.0000      -0.177922        -4.8415
 134   1.0000      -0.160490        -4.3671
 135   1.0000      -0.146515        -3.9869
 136   1.0000      -0.140759        -3.8302
 137   1.0000      -0.140307        -3.8179
 138   1.0000      -0.139868        -3.8060
 139   1.0000      -0.136353        -3.7104
 140   1.0000      -0.127183        -3.4608
 141   1.0000      -0.126160        -3.4330
 142   1.0000      -0.116390        -3.1671
 143   1.0000      -0.114343        -3.1114
 144   1.0000      -0.105023        -2.8578
 145   1.0000      -0.103538        -2.8174
 146   1.0000      -0.099142        -2.6978
 147   1.0000      -0.095351        -2.5946
 148   1.0000      -0.068496        -1.8639
 149   1.0000      -0.064243        -1.7481
 150   1.0000      -0.052888        -1.4392
 151   1.0000      -0.048078        -1.3083
 152   1.0000      -0.044074        -1.1993
 153   1.0000      -0.035334        -0.9615
 154   1.0000      -0.030848        -0.8394
 155   1.0000      -0.028052        -0.7633
 156   1.0000      -0.025613        -0.6970
 157   1.0000      -0.015802        -0.4300
 158   1.0000       0.023875         0.6497
 159   1.0000       0.043785         1.1914
 160   0.0000       0.128139         3.4868
 161   0.0000       0.132644         3.6094
 162   0.0000       0.156225         4.2511
 163   0.0000       0.158769         4.3203
 164   0.0000       0.160612         4.3705

MULLIKEN ATOMIC CHARGES AND SPIN POPULATIONS
--------------------------------------------
   0 V :    0.484714    1.220083
   1 S :   -0.309690   -0.021559
   2 S :   -0.284259   -0.025553
   3 S :   -0.309753   -0.022927
   4 S :   -0.282950   -0.026423
   5 O :   -0.470911   -0.149374
   6 C :   -0.073425    0.010032
   7 C :   -0.089546    0.007568
   8 C :   -0.084304    0.004693
   9 C :   -0.090168    0.004176
  10 S :    0.107046   -0.000576
  11 S :    0.109228   -0.000652
  12 S :    0.111783   -0.000336
  13 S :    0.109611   -0.000258
  14 C :   -0.166389    0.001856
  15 C :   -0.085749   -0.000217
  16 C :   -0.225234   -0.000204
  17 C :   -0.284215   -0.000083
  18 S :    0.005186   -0.000094
  19 S :    0.004371   -0.000089
  20 S :   -0.005226   -0.000099
  21 S :   -0.004670   -0.000100
  22 C :   -0.320169   -0.000004
  23 C :   -0.319167   -0.000010
  24 C :   -0.140607    0.000002
  25 H :    0.140196    0.000000
  26 H :    0.116734   -0.000003
  27 H :    0.088881    0.000001
  28 H :    0.090945   -0.000002
  29 H :    0.116453   -0.000004
  30 H :    0.140017    0.000001
  31 C :   -0.308250    0.000152
  32 C :   -0.310317    0.000144
  33 C :   -0.148263   -0.000165
  34 H :    0.139784   -0.000011
  35 H :    0.116357    0.000008
  36 H :    0.091340    0.000019
  37 H :    0.085766    0.000010
  38 H :    0.115687    0.000010
  39 H :    0.139162   -0.000012
Sum of atomic charges         :   -2.0000000

LOEWDIN ATOMIC CHARGES AND SPIN POPULATIONS
-------------------------------------------
   0 V :   -0.123098    1.175949
   1 S :    0.072224   -0.015138
   2 S :    0.092375   -0.016162
   3 S :    0.069832   -0.016384
   4 S :    0.092618   -0.016997
   5 O :   -0.320450   -0.134265
   6 C :   -0.565674    0.009329
   7 C :   -0.568533    0.007635
   8 C :   -0.585108    0.005427
   9 C :   -0.585595    0.004776
  10 S :    0.485666   -0.000935
  11 S :    0.485531   -0.001005
  12 S :    0.496481   -0.000990
  13 S :    0.494490   -0.000997
  14 C :   -0.455906    0.000184
  15 C :   -0.442760   -0.000665
  16 C :   -0.644841    0.000433
  17 C :   -0.673910    0.000065
  18 S :    0.360707   -0.000075
  19 S :    0.364203   -0.000067
  20 S :    0.363543   -0.000101
  21 S :    0.363856   -0.000099
  22 C :   -0.286337   -0.000003
  23 C :   -0.286338   -0.000008
  24 C :   -0.172127   -0.000002
  25 H :    0.061838   -0.000001
  26 H :    0.056167   -0.000003
  27 H :    0.062285   -0.000001
  28 H :    0.060028   -0.000000
  29 H :    0.056104   -0.000003
  30 H :    0.061738   -0.000001
  31 C :   -0.284984    0.000048
  32 C :   -0.284259    0.000038
  33 C :   -0.173017    0.000003
  34 H :    0.061652   -0.000001
  35 H :    0.055112    0.000005
  36 H :    0.060109    0.000003
  37 H :    0.059928    0.000002
  38 H :    0.055180    0.000006
  39 H :    0.061265   -0.000000

  Mayer bond orders larger than 0.100000
B(  0-V ,  1-S ) :   0.7493 B(  0-V ,  2-S ) :   0.7936 B(  0-V ,  3-S ) :   0.7333
B(  0-V ,  4-S ) :   0.7888 B(  0-V ,  5-O ) :   2.1492 B(  1-S ,  8-C ) :   1.1433
B(  2-S ,  6-C ) :   1.1103 B(  3-S ,  9-C ) :   1.1522 B(  4-S ,  7-C ) :   1.1222
B(  6-C ,  7-C ) :   1.6408 B(  6-C , 10-S ) :   0.9554 B(  7-C , 11-S ) :   0.9619
B(  8-C ,  9-C ) :   1.6078 B(  8-C , 13-S ) :   0.9724 B(  9-C , 12-S ) :   0.9766
B( 10-S , 14-C ) :   1.2455 B( 11-S , 14-C ) :   1.2422 B( 12-S , 15-C ) :   1.2362
B( 13-S , 15-C ) :   1.2358 B( 14-C , 16-C ) :   1.4378 B( 15-C , 17-C ) :   1.3727
B( 16-C , 18-S ) :   1.1266 B( 16-C , 19-S ) :   1.1294 B( 17-C , 20-S ) :   1.1829
B( 17-C , 21-S ) :   1.1852 B( 18-S , 32-C ) :   0.9820 B( 19-S , 31-C ) :   0.9808
B( 20-S , 23-C ) :   0.9640 B( 21-S , 22-C ) :   0.9631 B( 22-C , 24-C ) :   0.9014
B( 22-C , 25-H ) :   0.9639 B( 22-C , 26-H ) :   0.9669 B( 23-C , 24-C ) :   0.9019
B( 23-C , 29-H ) :   0.9669 B( 23-C , 30-H ) :   0.9638 B( 24-C , 27-H ) :   0.9688
B( 24-C , 28-H ) :   0.9664 B( 31-C , 33-C ) :   0.9104 B( 31-C , 38-H ) :   0.9672
B( 31-C , 39-H ) :   0.9638 B( 32-C , 33-C ) :   0.9098 B( 32-C , 34-H ) :   0.9638
B( 32-C , 35-H ) :   0.9672 B( 33-C , 36-H ) :   0.9699 B( 33-C , 37-H ) :   0.9667

FINAL SINGLE POINT ENERGY     -6337.665390064941

DIPOLE MOMENT
-------------
                                X             Y             Z
Electronic contribution:      9.37579       8.88015       4.58565
Nuclear contribution   :    -10.59218      -9.97132      -4.74146
                        -----------------------------------------
Total Dipole Moment    :     -1.21640      -1.09118      -0.15581
                        -----------------------------------------
Magnitude (a.u.)       :      1.64151
Magnitude (Debye)      :      4.17239

Rotational constants in cm-1:     0.010965     0.000806     0.000786
Rotational constants in MHz :   328.725148    24.148622    23.571982

                             ****ORCA TERMINATED NORMALLY****
TOTAL RUN TIME: 0 days 1 hours 6 minutes 50 seconds 388 msec
