                         Program Version 5.0.4 -  RELEASE  -
|  1> ! nofrozencore ReducedPop printbasis
|  2> ! B3LYP TZVP
|  3>
|  4> %basis
|  5> newgto V "CP(PPP)" end
|  6> end
|  7>
|  8> %pal
|  9> nprocs 6
| 10> end
| 11>
| 12> % sym SymThresh 1e-2 end
| 13> * xyz -2 2
| 14> V -1.062746421964548 0.239816975964458 0.20166729351784748
| 15> S -0.6474044300736465 1.815912421868568 -1.6610719947899455
| 16> S -0.9827422406829783 -1.5391556806565772 -1.5210224519700517
| 17> S 0.16280859873411013 1.8663088552061597 1.617558395450164
| 18> S -0.022594890723660544 -1.430960623929565 1.6885282176488186
| 19> O -2.6009755044589804 0.345089880318242 0.6025822826405485
| 20> C -0.9064123175356483 -2.9321925422895765 -0.4496275308130554
| 21> C -0.5167113352060632 -2.8889527738949314 0.838927931558097
| 22> C 0.11723423918119164 3.1595499599982833 -0.8227571538871323
| 23> C 0.44253473761253265 3.1771732637372128 0.4828473541820788
| 24> S -1.305754347072406 -4.556647899295138 -1.105699098963509
| 25> S -0.43513960284962266 -4.4573200145081895 1.7058746542420953
| 26> S 1.2625824331779287 4.657834152802254 1.0840742513598463
| 27> S 0.5479407480400235 4.623099108473433 -1.7726717408012926
| 28> C -0.9510992372174841 -5.480172506329712 0.3595958032433568
| 29> C 1.3357092273320288 5.510225860946748 -0.46224771380693436
| 30> C -1.0778772563164065 -6.839551911375712 0.4508586728406731
| 31> C 1.9345951835537918 6.728988065500331 -0.6255673754525432
| 32> S -1.6787815976934246 -7.828519169724343 -0.9060636368353984
| 33> S -0.714177300036395 -7.716257506323441 1.9591227970716607
| 34> S 2.0007827429087532 7.5428228945502855 -2.209817240981609
| 35> S 2.741967405956698 7.568417336121615 0.7238053755519415
| 36> C 4.469309789438237 7.550702217999831 0.05436076972391004
| 37> C 3.8390385374590443 7.534242830470859 -2.4406591280962964
| 38> C 4.605325531409462 8.2281334927485 -1.3118194769893157
| 39> H 4.8032929387144145 6.511185436157679 0.0092393541643003
| 40> H 5.076151266372876 8.072377848365269 0.7988242082590791
| 41> H 5.671203465788895 8.243656998603067 -1.581538799928953
| 42> H 4.273909262155326 9.268995474989433 -1.2347427394341515
| 43> H 4.015180057099837 8.047597198287951 -3.3896453397620654
| 44> H 4.161542934419024 6.495784779254304 -2.548606545476218
| 45> C -2.4153346173904606 -8.357688753626832 2.321227054463829
| 46> C -3.2385650480898684 -8.44621402794005 -0.11576619866085658
| 47> C -3.006420388792345 -9.206866930530646 1.1920020623048004
| 48> H -3.8994578551427055 -7.5898486129007265 0.04442422542669305
| 49> H -3.7016778613260466 -9.102456288504639 -0.8584471007167472
| 50> H -2.351664942568389 -10.064621058610788 1.0006061418400682
| 51> H -3.974420190774975 -9.603867204317865 1.5332201067726459
| 52> H -2.313766460670557 -8.95494464035259 3.231010914650935
| 53> H -3.058855352514385 -7.502041518707444 2.5441865655625184
| 54> *
| 55>
| 56> % eprnmr
| 57> gtensor true
| 58> Nuclei = all H {aiso,adip,aorb,fgrad,rho}
| 59> Nuclei = all V {aiso,adip,aorb,fgrad,rho}
| 60> end
| 61>
| 62>                          ****END OF INPUT****

CARTESIAN COORDINATES (ANGSTROEM)
---------------------------------
  V     -1.060290    0.236932    0.201083
  S     -0.644948    1.813027   -1.661656
  S     -0.980286   -1.542041   -1.521607
  S      0.165265    1.863424    1.616974
  S     -0.020139   -1.433846    1.687944
  O     -2.598519    0.342205    0.601998
  C     -0.903956   -2.935078   -0.450212
  C     -0.514255   -2.891838    0.838344
  C      0.119690    3.156665   -0.823341
  C      0.444991    3.174288    0.482263
  S     -1.303298   -4.559533   -1.106283
  S     -0.432684   -4.460205    1.705290
  S      1.265039    4.654949    1.083490
  S      0.550397    4.620214   -1.773256
  C     -0.948643   -5.483058    0.359012
  C      1.338165    5.507341   -0.462832
  C     -1.075421   -6.842437    0.450274
  C      1.937051    6.726103   -0.626152
  S     -1.676326   -7.831404   -0.906648
  S     -0.711721   -7.719143    1.958539
  S      2.003239    7.539938   -2.210401
  S      2.744423    7.565532    0.723221
  C      4.471766    7.547817    0.053777
  C      3.841495    7.531358   -2.441243
  C      4.607782    8.225248   -1.312404
  H      4.805749    6.508300    0.008655
  H      5.078607    8.069493    0.798240
  H      5.673660    8.240772   -1.582123
  H      4.276365    9.266110   -1.235327
  H      4.017636    8.044712   -3.390230
  H      4.163999    6.492900   -2.549191
  C     -2.412879   -8.360574    2.320643
  C     -3.236109   -8.449099   -0.116350
  C     -3.003964   -9.209752    1.191418
  H     -3.897002   -7.592734    0.043840
  H     -3.699222   -9.105342   -0.859031
  H     -2.349209  -10.067506    1.000022
  H     -3.971964   -9.606752    1.532636
  H     -2.311310   -8.957830    3.230427
  H     -3.056399   -7.504927    2.543602

 Total Charge           Charge          ....   -2
 Multiplicity           Mult            ....    2
 Number of Electrons    NEL             ....  321
 Basis Dimension        Dim             ....  681

ORBITAL ENERGIES
----------------
                 SPIN UP ORBITALS
  NO   OCC          E(Eh)            E(eV)
   0   1.0000    -196.674969     -5351.7980
   1   1.0000     -88.732992     -2414.5475
   2   1.0000     -88.732880     -2414.5444
   3   1.0000     -88.732796     -2414.5421
   4   1.0000     -88.732741     -2414.5406
   5   1.0000     -88.730073     -2414.4680
   6   1.0000     -88.730023     -2414.4667
   7   1.0000     -88.729920     -2414.4639
   8   1.0000     -88.729892     -2414.4631
   9   1.0000     -88.639936     -2412.0153
  10   1.0000     -88.639825     -2412.0123
  11   1.0000     -88.639261     -2411.9969
  12   1.0000     -88.639202     -2411.9953
  13   1.0000     -22.050228      -600.0172
  14   1.0000     -18.889491      -514.0092
  15   1.0000     -18.556761      -504.9551
  16   1.0000     -18.551476      -504.8113
  17   1.0000     -18.551371      -504.8085
  18   1.0000     -10.075826      -274.1772
  19   1.0000     -10.075651      -274.1724
  20   1.0000     -10.063192      -273.8334
  21   1.0000     -10.063092      -273.8307
  22   1.0000     -10.063036      -273.8291
  23   1.0000     -10.062982      -273.8277
  24   1.0000     -10.051184      -273.5066
  25   1.0000     -10.050975      -273.5009
  26   1.0000     -10.048235      -273.4264
  27   1.0000     -10.047990      -273.4197
  28   1.0000     -10.018183      -272.6086
  29   1.0000     -10.017812      -272.5985
  30   1.0000     -10.017079      -272.5786
  31   1.0000     -10.017017      -272.5769
  32   1.0000      -7.786413      -211.8791
  33   1.0000      -7.786309      -211.8762
  34   1.0000      -7.786176      -211.8726
  35   1.0000      -7.786165      -211.8723
  36   1.0000      -7.783320      -211.7949
  37   1.0000      -7.783287      -211.7940
  38   1.0000      -7.783202      -211.7917
  39   1.0000      -7.783177      -211.7910
  40   1.0000      -7.694194      -209.3697
  41   1.0000      -7.694045      -209.3656
  42   1.0000      -7.693519      -209.3513
  43   1.0000      -7.693435      -209.3490
  44   1.0000      -5.751407      -156.5038
  45   1.0000      -5.751298      -156.5008
  46   1.0000      -5.751181      -156.4976
  47   1.0000      -5.751161      -156.4971
  48   1.0000      -5.748263      -156.4182
  49   1.0000      -5.748228      -156.4172
  50   1.0000      -5.748146      -156.4150
  51   1.0000      -5.748122      -156.4143
  52   1.0000      -5.747986      -156.4106
  53   1.0000      -5.747888      -156.4080
  54   1.0000      -5.747761      -156.4045
  55   1.0000      -5.747738      -156.4039
  56   1.0000      -5.743827      -156.2975
  57   1.0000      -5.743813      -156.2971
  58   1.0000      -5.743721      -156.2946
  59   1.0000      -5.743669      -156.2932
  60   1.0000      -5.741216      -156.2264
  61   1.0000      -5.741107      -156.2235
  62   1.0000      -5.740961      -156.2195
  63   1.0000      -5.740959      -156.2194
  64   1.0000      -5.739153      -156.1703
  65   1.0000      -5.739098      -156.1688
  66   1.0000      -5.739023      -156.1667
  67   1.0000      -5.739016      -156.1666
  68   1.0000      -5.659507      -154.0030
  69   1.0000      -5.659359      -153.9990
  70   1.0000      -5.658816      -153.9842
  71   1.0000      -5.658783      -153.9833
  72   1.0000      -5.652841      -153.8216
  73   1.0000      -5.652688      -153.8174
  74   1.0000      -5.652186      -153.8038
  75   1.0000      -5.652104      -153.8016
  76   1.0000      -5.651553      -153.7866
  77   1.0000      -5.651392      -153.7822
  78   1.0000      -5.650854      -153.7676
  79   1.0000      -5.650747      -153.7646
  80   1.0000      -2.443623       -66.4944
  81   1.0000      -1.484634       -40.3989
  82   1.0000      -1.473205       -40.0880
  83   1.0000      -1.472455       -40.0675
  84   1.0000      -0.709190       -19.2980
  85   1.0000      -0.708805       -19.2876
  86   1.0000      -0.685102       -18.6426
  87   1.0000      -0.684872       -18.6363
  88   1.0000      -0.648921       -17.6580
  89   1.0000      -0.630933       -17.1686
  90   1.0000      -0.630716       -17.1627
  91   1.0000      -0.616596       -16.7784
  92   1.0000      -0.616093       -16.7647
  93   1.0000      -0.574361       -15.6292
  94   1.0000      -0.574068       -15.6212
  95   1.0000      -0.573221       -15.5981
  96   1.0000      -0.572299       -15.5731
  97   1.0000      -0.496404       -13.5078
  98   1.0000      -0.495785       -13.4910
  99   1.0000      -0.495108       -13.4726
 100   1.0000      -0.494717       -13.4619
 101   1.0000      -0.479538       -13.0489
 102   1.0000      -0.476923       -12.9777
 103   1.0000      -0.446841       -12.1592
 104   1.0000      -0.444684       -12.1005
 105   1.0000      -0.416076       -11.3220
 106   1.0000      -0.410885       -11.1807
 107   1.0000      -0.354698        -9.6518
 108   1.0000      -0.354434        -9.6446
 109   1.0000      -0.326099        -8.8736
 110   1.0000      -0.325843        -8.8666
 111   1.0000      -0.318688        -8.6719
 112   1.0000      -0.314175        -8.5491
 113   1.0000      -0.303925        -8.2702
 114   1.0000      -0.303135        -8.2487
 115   1.0000      -0.291780        -7.9397
 116   1.0000      -0.291413        -7.9298
 117   1.0000      -0.257642        -7.0108
 118   1.0000      -0.257228        -6.9995
 119   1.0000      -0.255479        -6.9519
 120   1.0000      -0.255237        -6.9454
 121   1.0000      -0.234165        -6.3720
 122   1.0000      -0.233583        -6.3561
 123   1.0000      -0.230588        -6.2746
 124   1.0000      -0.229338        -6.2406
 125   1.0000      -0.219694        -5.9782
 126   1.0000      -0.217781        -5.9261
 127   1.0000      -0.213675        -5.8144
 128   1.0000      -0.211738        -5.7617
 129   1.0000      -0.192577        -5.2403
 130   1.0000      -0.186979        -5.0879
 131   1.0000      -0.185462        -5.0467
 132   1.0000      -0.184245        -5.0136
 133   1.0000      -0.179053        -4.8723
 134   1.0000      -0.159583        -4.3425
 135   1.0000      -0.151181        -4.1138
 136   1.0000      -0.146479        -3.9859
 137   1.0000      -0.135244        -3.6802
 138   1.0000      -0.133901        -3.6436
 139   1.0000      -0.132633        -3.6091
 140   1.0000      -0.124229        -3.3804
 141   1.0000      -0.121062        -3.2943
 142   1.0000      -0.111907        -3.0451
 143   1.0000      -0.108406        -2.9499
 144   1.0000      -0.099476        -2.7069
 145   1.0000      -0.097717        -2.6590
 146   1.0000      -0.097022        -2.6401
 147   1.0000      -0.094031        -2.5587
 148   1.0000      -0.074116        -2.0168
 149   1.0000      -0.067164        -1.8276
 150   1.0000      -0.066761        -1.8166
 151   1.0000      -0.052092        -1.4175
 152   1.0000      -0.045437        -1.2364
 153   1.0000      -0.037221        -1.0128
 154   1.0000      -0.037147        -1.0108
 155   1.0000      -0.031630        -0.8607
 156   1.0000      -0.024308        -0.6614
 157   1.0000      -0.018784        -0.5111
 158   1.0000      -0.014668        -0.3991
 159   1.0000       0.021223         0.5775
 160   1.0000       0.041128         1.1191
 161   0.0000       0.137201         3.7334
 162   0.0000       0.137527         3.7423
 163   0.0000       0.162528         4.4226
 164   0.0000       0.162612         4.4249
 165   0.0000       0.170468         4.6387

                 SPIN DOWN ORBITALS
  NO   OCC          E(Eh)            E(eV)
   0   1.0000    -196.675115     -5351.8020
   1   1.0000     -88.732993     -2414.5475
   2   1.0000     -88.732881     -2414.5444
   3   1.0000     -88.732797     -2414.5422
   4   1.0000     -88.732742     -2414.5407
   5   1.0000     -88.730082     -2414.4683
   6   1.0000     -88.730032     -2414.4669
   7   1.0000     -88.729929     -2414.4641
   8   1.0000     -88.729901     -2414.4634
   9   1.0000     -88.640059     -2412.0186
  10   1.0000     -88.639952     -2412.0157
  11   1.0000     -88.639393     -2412.0005
  12   1.0000     -88.639325     -2411.9987
  13   1.0000     -22.035289      -599.6107
  14   1.0000     -18.893292      -514.1126
  15   1.0000     -18.551477      -504.8114
  16   1.0000     -18.535429      -504.3747
  17   1.0000     -18.535263      -504.3701
  18   1.0000     -10.075826      -274.1772
  19   1.0000     -10.075644      -274.1722
  20   1.0000     -10.063190      -273.8333
  21   1.0000     -10.063090      -273.8306
  22   1.0000     -10.063037      -273.8291
  23   1.0000     -10.062982      -273.8277
  24   1.0000     -10.051184      -273.5066
  25   1.0000     -10.050975      -273.5009
  26   1.0000     -10.048231      -273.4263
  27   1.0000     -10.047973      -273.4193
  28   1.0000     -10.017938      -272.6020
  29   1.0000     -10.017611      -272.5930
  30   1.0000     -10.016864      -272.5727
  31   1.0000     -10.016818      -272.5715
  32   1.0000      -7.786414      -211.8791
  33   1.0000      -7.786310      -211.8763
  34   1.0000      -7.786177      -211.8726
  35   1.0000      -7.786166      -211.8723
  36   1.0000      -7.783330      -211.7952
  37   1.0000      -7.783297      -211.7943
  38   1.0000      -7.783212      -211.7920
  39   1.0000      -7.783188      -211.7913
  40   1.0000      -7.694308      -209.3728
  41   1.0000      -7.694164      -209.3688
  42   1.0000      -7.693635      -209.3545
  43   1.0000      -7.693558      -209.3523
  44   1.0000      -5.751408      -156.5038
  45   1.0000      -5.751299      -156.5008
  46   1.0000      -5.751183      -156.4976
  47   1.0000      -5.751163      -156.4971
  48   1.0000      -5.748274      -156.4185
  49   1.0000      -5.748240      -156.4176
  50   1.0000      -5.748157      -156.4153
  51   1.0000      -5.748133      -156.4147
  52   1.0000      -5.747986      -156.4107
  53   1.0000      -5.747889      -156.4080
  54   1.0000      -5.747763      -156.4046
  55   1.0000      -5.747740      -156.4040
  56   1.0000      -5.743841      -156.2979
  57   1.0000      -5.743828      -156.2975
  58   1.0000      -5.743736      -156.2950
  59   1.0000      -5.743684      -156.2936
  60   1.0000      -5.741216      -156.2264
  61   1.0000      -5.741108      -156.2235
  62   1.0000      -5.740961      -156.2195
  63   1.0000      -5.740960      -156.2195
  64   1.0000      -5.739163      -156.1706
  65   1.0000      -5.739105      -156.1690
  66   1.0000      -5.739030      -156.1669
  67   1.0000      -5.739029      -156.1669
  68   1.0000      -5.659640      -154.0066
  69   1.0000      -5.659485      -154.0024
  70   1.0000      -5.658947      -153.9878
  71   1.0000      -5.658916      -153.9869
  72   1.0000      -5.653175      -153.8307
  73   1.0000      -5.653080      -153.8281
  74   1.0000      -5.652534      -153.8133
  75   1.0000      -5.652493      -153.8121
  76   1.0000      -5.651622      -153.7884
  77   1.0000      -5.651430      -153.7832
  78   1.0000      -5.650917      -153.7693
  79   1.0000      -5.650802      -153.7661
  80   1.0000      -2.398754       -65.2734
  81   1.0000      -1.465271       -39.8720
  82   1.0000      -1.410911       -38.3928
  83   1.0000      -1.410792       -38.3896
  84   1.0000      -0.709177       -19.2977
  85   1.0000      -0.708772       -19.2867
  86   1.0000      -0.685063       -18.6415
  87   1.0000      -0.684812       -18.6347
  88   1.0000      -0.657122       -17.8812
  89   1.0000      -0.630879       -17.1671
  90   1.0000      -0.630632       -17.1604
  91   1.0000      -0.616597       -16.7785
  92   1.0000      -0.616091       -16.7647
  93   1.0000      -0.574344       -15.6287
  94   1.0000      -0.574044       -15.6205
  95   1.0000      -0.573142       -15.5960
  96   1.0000      -0.572223       -15.5710
  97   1.0000      -0.496415       -13.5081
  98   1.0000      -0.495826       -13.4921
  99   1.0000      -0.495145       -13.4736
 100   1.0000      -0.494743       -13.4627
 101   1.0000      -0.479707       -13.0535
 102   1.0000      -0.477151       -12.9839
 103   1.0000      -0.446851       -12.1594
 104   1.0000      -0.444721       -12.1015
 105   1.0000      -0.416053       -11.3214
 106   1.0000      -0.410962       -11.1829
 107   1.0000      -0.354694        -9.6517
 108   1.0000      -0.354422        -9.6443
 109   1.0000      -0.326085        -8.8732
 110   1.0000      -0.325831        -8.8663
 111   1.0000      -0.318612        -8.6699
 112   1.0000      -0.314196        -8.5497
 113   1.0000      -0.303877        -8.2689
 114   1.0000      -0.303113        -8.2481
 115   1.0000      -0.291773        -7.9395
 116   1.0000      -0.291410        -7.9297
 117   1.0000      -0.257489        -7.0066
 118   1.0000      -0.257153        -6.9975
 119   1.0000      -0.255447        -6.9511
 120   1.0000      -0.255204        -6.9445
 121   1.0000      -0.234117        -6.3707
 122   1.0000      -0.233573        -6.3558
 123   1.0000      -0.230540        -6.2733
 124   1.0000      -0.229309        -6.2398
 125   1.0000      -0.219343        -5.9686
 126   1.0000      -0.217659        -5.9228
 127   1.0000      -0.213456        -5.8084
 128   1.0000      -0.211615        -5.7583
 129   1.0000      -0.190993        -5.1972
 130   1.0000      -0.186908        -5.0860
 131   1.0000      -0.185021        -5.0347
 132   1.0000      -0.184021        -5.0075
 133   1.0000      -0.178944        -4.8693
 134   1.0000      -0.158971        -4.3258
 135   1.0000      -0.151022        -4.1095
 136   1.0000      -0.146406        -3.9839
 137   1.0000      -0.134689        -3.6651
 138   1.0000      -0.133523        -3.6334
 139   1.0000      -0.132419        -3.6033
 140   1.0000      -0.123657        -3.3649
 141   1.0000      -0.120765        -3.2862
 142   1.0000      -0.113708        -3.0941
 143   1.0000      -0.109962        -2.9922
 144   1.0000      -0.099449        -2.7062
 145   1.0000      -0.098099        -2.6694
 146   1.0000      -0.096994        -2.6394
 147   1.0000      -0.094385        -2.5683
 148   1.0000      -0.070306        -1.9131
 149   1.0000      -0.067150        -1.8272
 150   1.0000      -0.066770        -1.8169
 151   1.0000      -0.049550        -1.3483
 152   1.0000      -0.044530        -1.2117
 153   1.0000      -0.037152        -1.0110
 154   1.0000      -0.036690        -0.9984
 155   1.0000      -0.031237        -0.8500
 156   1.0000      -0.025141        -0.6841
 157   1.0000      -0.014773        -0.4020
 158   1.0000       0.021671         0.5897
 159   1.0000       0.039017         1.0617
 160   0.0000       0.137196         3.7333
 161   0.0000       0.137527         3.7423
 162   0.0000       0.157004         4.2723
 163   0.0000       0.162625         4.4253
 164   0.0000       0.164028         4.4634

MULLIKEN ATOMIC CHARGES AND SPIN POPULATIONS
--------------------------------------------
   0 V :    0.472111    1.206340
   1 S :   -0.291747   -0.019959
   2 S :   -0.289641   -0.024632
   3 S :   -0.289577   -0.020894
   4 S :   -0.284146   -0.024705
   5 O :   -0.470379   -0.147290
   6 C :   -0.077248    0.010217
   7 C :   -0.083119    0.007463
   8 C :   -0.086647    0.007162
   9 C :   -0.084223    0.006453
  10 S :    0.100759   -0.000758
  11 S :    0.102309   -0.000829
  12 S :    0.100603   -0.000450
  13 S :    0.099560   -0.000385
  14 C :   -0.213958    0.001479
  15 C :   -0.211709    0.000792
  16 C :   -0.190371    0.000396
  17 C :   -0.190647   -0.000281
  18 S :    0.006933   -0.000141
  19 S :    0.007285   -0.000136
  20 S :    0.007258   -0.000096
  21 S :    0.007280   -0.000099
  22 C :   -0.300603    0.000043
  23 C :   -0.299926    0.000041
  24 C :   -0.158709   -0.000065
  25 H :    0.144036   -0.000005
  26 H :    0.113692    0.000002
  27 H :    0.083653    0.000005
  28 H :    0.091890    0.000004
  29 H :    0.113267    0.000001
  30 H :    0.143539   -0.000005
  31 C :   -0.299867    0.000307
  32 C :   -0.300655    0.000300
  33 C :   -0.158601   -0.000362
  34 H :    0.143379   -0.000027
  35 H :    0.113189    0.000037
  36 H :    0.091875    0.000038
  37 H :    0.082709    0.000029
  38 H :    0.113242    0.000040
  39 H :    0.143208   -0.000027
Sum of atomic charges         :   -2.0000000

LOEWDIN ATOMIC CHARGES AND SPIN POPULATIONS
-------------------------------------------
   0 V :   -0.152505    1.160266
   1 S :    0.079631   -0.012539
   2 S :    0.078304   -0.015390
   3 S :    0.081114   -0.013313
   4 S :    0.083118   -0.015297
   5 O :   -0.322164   -0.132342
   6 C :   -0.548940    0.009355
   7 C :   -0.552281    0.007486
   8 C :   -0.552828    0.007809
   9 C :   -0.552649    0.007022
  10 S :    0.471958   -0.001015
  11 S :    0.472987   -0.001118
  12 S :    0.471368   -0.000904
  13 S :    0.470552   -0.000896
  14 C :   -0.464748    0.000282
  15 C :   -0.465101   -0.000129
  16 C :   -0.623159    0.000775
  17 C :   -0.622569    0.000110
  18 S :    0.356594   -0.000097
  19 S :    0.358615   -0.000091
  20 S :    0.358028   -0.000092
  21 S :    0.357958   -0.000094
  22 C :   -0.283037    0.000001
  23 C :   -0.283151   -0.000002
  24 C :   -0.176144    0.000001
  25 H :    0.062934   -0.000001
  26 H :    0.053606    0.000000
  27 H :    0.058173   -0.000001
  28 H :    0.060190    0.000000
  29 H :    0.053596   -0.000000
  30 H :    0.062755   -0.000001
  31 C :   -0.283482    0.000083
  32 C :   -0.283369    0.000072
  33 C :   -0.176447    0.000011
  34 H :    0.062834    0.000000
  35 H :    0.053634    0.000016
  36 H :    0.060309    0.000009
  37 H :    0.058085    0.000005
  38 H :    0.053518    0.000017
  39 H :    0.062714    0.000000

  Mayer bond orders larger than 0.100000
B(  0-V ,  1-S ) :   0.7726 B(  0-V ,  2-S ) :   0.7714 B(  0-V ,  3-S ) :   0.7618
B(  0-V ,  4-S ) :   0.7841 B(  0-V ,  5-O ) :   2.1463 B(  1-S ,  8-C ) :   1.1020
B(  2-S ,  6-C ) :   1.1020 B(  3-S ,  9-C ) :   1.1038 B(  4-S ,  7-C ) :   1.0988
B(  6-C ,  7-C ) :   1.6817 B(  6-C , 10-S ) :   0.9356 B(  7-C , 11-S ) :   0.9395
B(  8-C ,  9-C ) :   1.7041 B(  8-C , 13-S ) :   0.9326 B(  9-C , 12-S ) :   0.9343
B( 10-S , 14-C ) :   1.2486 B( 11-S , 14-C ) :   1.2483 B( 12-S , 15-C ) :   1.2468
B( 13-S , 15-C ) :   1.2469 B( 14-C , 16-C ) :   1.4486 B( 15-C , 17-C ) :   1.4531
B( 16-C , 18-S ) :   1.0875 B( 16-C , 19-S ) :   1.0893 B( 17-C , 20-S ) :   1.0885
B( 17-C , 21-S ) :   1.0888 B( 18-S , 32-C ) :   0.9916 B( 19-S , 31-C ) :   0.9912
B( 20-S , 23-C ) :   0.9912 B( 21-S , 22-C ) :   0.9902 B( 22-C , 24-C ) :   0.9136
B( 22-C , 25-H ) :   0.9658 B( 22-C , 26-H ) :   0.9655 B( 23-C , 24-C ) :   0.9142
B( 23-C , 29-H ) :   0.9655 B( 23-C , 30-H ) :   0.9656 B( 24-C , 27-H ) :   0.9624
B( 24-C , 28-H ) :   0.9717 B( 31-C , 33-C ) :   0.9139 B( 31-C , 38-H ) :   0.9655
B( 31-C , 39-H ) :   0.9660 B( 32-C , 33-C ) :   0.9139 B( 32-C , 34-H ) :   0.9658
B( 32-C , 35-H ) :   0.9654 B( 33-C , 36-H ) :   0.9715 B( 33-C , 37-H ) :   0.9622

FINAL SINGLE POINT ENERGY     -6337.706821146168

DIPOLE MOMENT
-------------
                                X             Y             Z
Electronic contribution:    -11.67436       6.26639       1.19543
Nuclear contribution   :     13.02724      -6.93390      -1.33924
                        -----------------------------------------
Total Dipole Moment    :      1.35288      -0.66751      -0.14381
                        -----------------------------------------
Magnitude (a.u.)       :      1.51543
Magnitude (Debye)      :      3.85193

Rotational constants in cm-1:     0.010607     0.000810     0.000789
Rotational constants in MHz :   317.993973    24.281666    23.667223

                             ****ORCA TERMINATED NORMALLY****
TOTAL RUN TIME: 0 days 1 hours 6 minutes 34 seconds 947 msec
