                         Program Version 5.0.4 -  RELEASE  -
|  1> ! nofrozencore ReducedPop printbasis
|  2> ! B3LYP TZVP
|  3>
|  4> %basis
|  5> newgto V "CP(PPP)" end
|  6> end
|  7>
|  8> %pal
|  9> nprocs 6
| 10> end
| 11>
| 12> % sym SymThresh 1e-2 end
| 13> * xyz -2 2
| 14> V 0.05688804394697618 -0.5904919004122732 -0.9418354381378887
| 15> S -2.3903949451327415 -0.3350956234400465 -0.687703455416769
| 16> S 0.05638982897752151 1.8075746827299628 -1.555266917688266
| 17> S -0.11134542469202745 -2.2885281475851196 0.8524393500776299
| 18> S 2.262644424340856 -0.13794366687803372 0.06555893314017686
| 19> O 0.3093253173444319 -1.3719296952516085 -2.3019262691636313
| 20> C 1.777980168629365 2.138639115479675 -1.4150577514345517
| 21> C 2.6613058750033036 1.3600456200632445 -0.7622253276149263
| 22> C -2.763098739242102 -1.675288396844297 0.38773631122267865
| 23> C -1.8532951242753721 -2.452103560278901 1.0040255562955909
| 24> S 2.42607198925905 3.6584868169153295 -2.1207475257260997
| 25> S 4.350639576824387 1.9598607811091902 -0.6779461182456875
| 26> S -2.495137929133915 -3.7224652776887286 2.0993796773723647
| 27> S -4.487836878086557 -2.027851602073776 0.7464551716031735
| 28> C 4.094854691669186 3.4637530200582973 -1.570283347495247
| 29> C -4.2074147474681665 -3.3282239633528516 1.9107066610932761
| 30> C 5.087086546257322 4.372356380895805 -1.8169279478585523
| 31> C -5.209282748638893 -3.9685604136615464 2.5862836289416733
| 32> S 4.799832457115627 5.85032315443962 -2.7703888918346844
| 33> S 6.752184152107876 4.12563672873638 -1.2318200383358007
| 34> S -6.923098533720248 -3.5335168792868923 2.3646482626059133
| 35> S -4.871817074635348 -5.260745229554749 3.766979935111207
| 36> C -5.52683064899931 -4.429581536925719 5.295247291538485
| 37> C -7.297524384240537 -2.9462536425498587 4.08830571869001
| 38> C -6.985481088163395 -3.9744277209411045 5.180997414308507
| 39> H -4.9498680862008 -3.6177701933931217 5.477522007206281
| 40> H -5.42998582868591 -4.97715004008626 5.910709796632004
| 41> H -7.268812280849063 -3.6678457996809435 5.972817997618102
| 42> H -7.883788210640372 -5.299123739360641 4.872686482217932
| 43> H -8.098166216985142 -2.7437300647172953 4.088231084530199
| 44> H -6.7455112263234085 -2.1199229999556595 4.259906738708003
| 45> C 7.609770794341491 4.027812455234665 -2.8695391867853557
| 46> C 5.945623239538108 5.488750526761046 -4.179689105865495
| 47> C 7.396768550629607 5.260917260416123 -3.7501867494158887
| 48> H 5.559564744640331 4.621099082639101 -4.715824940827463
| 49> H 5.877347013068089 6.35352904101991 -4.837121839726722
| 50> H 7.764653973379844 6.155535555890174 -3.2208195374212463
| 51> H 8.00557866930857 5.143960352368205 -4.653640487695263
| 52> H 8.666028138595015 3.9074233541418963 -2.635968719858204
| 53> H 7.267252667137509 3.1251890061144327 -3.376756882379636
| 54> *
| 55>
| 56> % eprnmr
| 57> gtensor true
| 58> Nuclei = all H {aiso,adip,aorb,fgrad,rho}
| 59> Nuclei = all V {aiso,adip,aorb,fgrad,rho}
| 60> end
| 61>
| 62>                          ****END OF INPUT****

CARTESIAN COORDINATES (ANGSTROEM)
---------------------------------
  V      0.058235   -0.587433   -0.939957
  S     -2.389048   -0.332037   -0.685825
  S      0.057736    1.810633   -1.553388
  S     -0.109999   -2.285469    0.854318
  S      2.263991   -0.134885    0.067438
  O      0.310672   -1.368871   -2.300048
  C      1.779327    2.141698   -1.413179
  C      2.662652    1.363104   -0.760347
  C     -2.761752   -1.672230    0.389615
  C     -1.851949   -2.449045    1.005904
  S      2.427419    3.661546   -2.118869
  S      4.351986    1.962920   -0.676068
  S     -2.493791   -3.719406    2.101258
  S     -4.486490   -2.024793    0.748334
  C      4.096201    3.466812   -1.568405
  C     -4.206068   -3.325165    1.912585
  C      5.088433    4.375415   -1.815049
  C     -5.207936   -3.965502    2.588162
  S      4.801179    5.853382   -2.768510
  S      6.753531    4.128696   -1.229941
  S     -6.921752   -3.530458    2.366527
  S     -4.870470   -5.257686    3.768859
  C     -5.525484   -4.426523    5.297126
  C     -7.296178   -2.943195    4.090184
  C     -6.984134   -3.971369    5.182876
  H     -4.948521   -3.614711    5.479401
  H     -5.428639   -4.974091    5.912588
  H     -7.267466   -3.664787    5.974697
  H     -7.882442   -5.296065    4.874565
  H     -8.096820   -2.740671    4.090110
  H     -6.744165   -2.116864    4.261785
  C      7.611117    4.030871   -2.867661
  C      5.946970    5.491809   -4.177810
  C      7.398115    5.263976   -3.748308
  H      5.560911    4.624158   -4.713946
  H      5.878694    6.356588   -4.835243
  H      7.766001    6.158594   -3.218941
  H      8.006925    5.147019   -4.651762
  H      8.667375    3.910482   -2.634090
  H      7.268599    3.128248   -3.374878

 Total Charge           Charge          ....   -2
 Multiplicity           Mult            ....    2
 Number of Electrons    NEL             ....  321
 Basis Dimension        Dim             ....  681

ORBITAL ENERGIES
----------------
                 SPIN UP ORBITALS
  NO   OCC          E(Eh)            E(eV)
   0   1.0000    -196.675338     -5351.8080
   1   1.0000     -88.733400     -2414.5586
   2   1.0000     -88.733383     -2414.5581
   3   1.0000     -88.733170     -2414.5523
   4   1.0000     -88.733100     -2414.5504
   5   1.0000     -88.731304     -2414.5015
   6   1.0000     -88.731212     -2414.4990
   7   1.0000     -88.730518     -2414.4802
   8   1.0000     -88.730313     -2414.4746
   9   1.0000     -88.640535     -2412.0316
  10   1.0000     -88.640111     -2412.0200
  11   1.0000     -88.640080     -2412.0192
  12   1.0000     -88.639904     -2412.0144
  13   1.0000     -22.050737      -600.0311
  14   1.0000     -18.890623      -514.0400
  15   1.0000     -18.557185      -504.9667
  16   1.0000     -18.552011      -504.8259
  17   1.0000     -18.551912      -504.8232
  18   1.0000     -10.076763      -274.2027
  19   1.0000     -10.076047      -274.1832
  20   1.0000     -10.066474      -273.9227
  21   1.0000     -10.063103      -273.8310
  22   1.0000     -10.063045      -273.8294
  23   1.0000     -10.051907      -273.5263
  24   1.0000     -10.049754      -273.4677
  25   1.0000     -10.048540      -273.4347
  26   1.0000     -10.032486      -272.9978
  27   1.0000     -10.031801      -272.9792
  28   1.0000     -10.018897      -272.6280
  29   1.0000     -10.018524      -272.6179
  30   1.0000     -10.018103      -272.6064
  31   1.0000     -10.017594      -272.5926
  32   1.0000      -7.786850      -211.8910
  33   1.0000      -7.786825      -211.8903
  34   1.0000      -7.786538      -211.8825
  35   1.0000      -7.786457      -211.8803
  36   1.0000      -7.784528      -211.8278
  37   1.0000      -7.784477      -211.8264
  38   1.0000      -7.783762      -211.8069
  39   1.0000      -7.783620      -211.8031
  40   1.0000      -7.694817      -209.3866
  41   1.0000      -7.694422      -209.3759
  42   1.0000      -7.694412      -209.3756
  43   1.0000      -7.694130      -209.3679
  44   1.0000      -5.751839      -156.5155
  45   1.0000      -5.751817      -156.5149
  46   1.0000      -5.751530      -156.5071
  47   1.0000      -5.751454      -156.5050
  48   1.0000      -5.749459      -156.4507
  49   1.0000      -5.749409      -156.4494
  50   1.0000      -5.748711      -156.4304
  51   1.0000      -5.748564      -156.4264
  52   1.0000      -5.748422      -156.4225
  53   1.0000      -5.748406      -156.4221
  54   1.0000      -5.748172      -156.4157
  55   1.0000      -5.748093      -156.4136
  56   1.0000      -5.745044      -156.3306
  57   1.0000      -5.744989      -156.3291
  58   1.0000      -5.744275      -156.3097
  59   1.0000      -5.744123      -156.3055
  60   1.0000      -5.741647      -156.2382
  61   1.0000      -5.741614      -156.2372
  62   1.0000      -5.741293      -156.2285
  63   1.0000      -5.741212      -156.2263
  64   1.0000      -5.740370      -156.2034
  65   1.0000      -5.740317      -156.2020
  66   1.0000      -5.739587      -156.1821
  67   1.0000      -5.739444      -156.1782
  68   1.0000      -5.660130      -154.0200
  69   1.0000      -5.659736      -154.0092
  70   1.0000      -5.659722      -154.0089
  71   1.0000      -5.659459      -154.0017
  72   1.0000      -5.653480      -153.8390
  73   1.0000      -5.653083      -153.8282
  74   1.0000      -5.653068      -153.8278
  75   1.0000      -5.652818      -153.8210
  76   1.0000      -5.652139      -153.8025
  77   1.0000      -5.651746      -153.7918
  78   1.0000      -5.651733      -153.7915
  79   1.0000      -5.651428      -153.7832
  80   1.0000      -2.444388       -66.5152
  81   1.0000      -1.485693       -40.4278
  82   1.0000      -1.474022       -40.1102
  83   1.0000      -1.473210       -40.0881
  84   1.0000      -0.715901       -19.4806
  85   1.0000      -0.709766       -19.3137
  86   1.0000      -0.693828       -18.8800
  87   1.0000      -0.685911       -18.6646
  88   1.0000      -0.650215       -17.6932
  89   1.0000      -0.644358       -17.5339
  90   1.0000      -0.637591       -17.3497
  91   1.0000      -0.631600       -17.1867
  92   1.0000      -0.617772       -16.8104
  93   1.0000      -0.576418       -15.6851
  94   1.0000      -0.575880       -15.6705
  95   1.0000      -0.574721       -15.6389
  96   1.0000      -0.573359       -15.6019
  97   1.0000      -0.518377       -14.1058
  98   1.0000      -0.510601       -13.8942
  99   1.0000      -0.496490       -13.5102
 100   1.0000      -0.496461       -13.5094
 101   1.0000      -0.482296       -13.1240
 102   1.0000      -0.478276       -13.0146
 103   1.0000      -0.466906       -12.7052
 104   1.0000      -0.446618       -12.1531
 105   1.0000      -0.417906       -11.3718
 106   1.0000      -0.411999       -11.2111
 107   1.0000      -0.374261       -10.1841
 108   1.0000      -0.355590        -9.6761
 109   1.0000      -0.339719        -9.2442
 110   1.0000      -0.327322        -8.9069
 111   1.0000      -0.323363        -8.7991
 112   1.0000      -0.318350        -8.6627
 113   1.0000      -0.314933        -8.5697
 114   1.0000      -0.313933        -8.5426
 115   1.0000      -0.304335        -8.2814
 116   1.0000      -0.293044        -7.9741
 117   1.0000      -0.267407        -7.2765
 118   1.0000      -0.265101        -7.2138
 119   1.0000      -0.257418        -7.0047
 120   1.0000      -0.257021        -6.9939
 121   1.0000      -0.244668        -6.6578
 122   1.0000      -0.234257        -6.3744
 123   1.0000      -0.231190        -6.2910
 124   1.0000      -0.230050        -6.2600
 125   1.0000      -0.218856        -5.9554
 126   1.0000      -0.215707        -5.8697
 127   1.0000      -0.214025        -5.8239
 128   1.0000      -0.193943        -5.2775
 129   1.0000      -0.193611        -5.2684
 130   1.0000      -0.186355        -5.0710
 131   1.0000      -0.185500        -5.0477
 132   1.0000      -0.180165        -4.9025
 133   1.0000      -0.165167        -4.4944
 134   1.0000      -0.160023        -4.3544
 135   1.0000      -0.153169        -4.1680
 136   1.0000      -0.147783        -4.0214
 137   1.0000      -0.136279        -3.7083
 138   1.0000      -0.135420        -3.6850
 139   1.0000      -0.133562        -3.6344
 140   1.0000      -0.125703        -3.4206
 141   1.0000      -0.121584        -3.3085
 142   1.0000      -0.113902        -3.0994
 143   1.0000      -0.110197        -2.9986
 144   1.0000      -0.100287        -2.7289
 145   1.0000      -0.098600        -2.6830
 146   1.0000      -0.097610        -2.6561
 147   1.0000      -0.094939        -2.5834
 148   1.0000      -0.074939        -2.0392
 149   1.0000      -0.067887        -1.8473
 150   1.0000      -0.067422        -1.8346
 151   1.0000      -0.052779        -1.4362
 152   1.0000      -0.046039        -1.2528
 153   1.0000      -0.038000        -1.0340
 154   1.0000      -0.037592        -1.0229
 155   1.0000      -0.031736        -0.8636
 156   1.0000      -0.025471        -0.6931
 157   1.0000      -0.019571        -0.5325
 158   1.0000      -0.015864        -0.4317
 159   1.0000       0.019898         0.5414
 160   1.0000       0.040746         1.1088
 161   0.0000       0.114296         3.1102
 162   0.0000       0.136644         3.7183
 163   0.0000       0.149296         4.0625
 164   0.0000       0.162064         4.4100
 165   0.0000       0.169606         4.6152

                 SPIN DOWN ORBITALS
  NO   OCC          E(Eh)            E(eV)
   0   1.0000    -196.675485     -5351.8120
   1   1.0000     -88.733400     -2414.5586
   2   1.0000     -88.733384     -2414.5581
   3   1.0000     -88.733170     -2414.5523
   4   1.0000     -88.733100     -2414.5504
   5   1.0000     -88.731313     -2414.5018
   6   1.0000     -88.731220     -2414.4992
   7   1.0000     -88.730527     -2414.4804
   8   1.0000     -88.730322     -2414.4748
   9   1.0000     -88.640672     -2412.0353
  10   1.0000     -88.640251     -2412.0239
  11   1.0000     -88.640219     -2412.0230
  12   1.0000     -88.640046     -2412.0183
  13   1.0000     -22.035802      -599.6247
  14   1.0000     -18.894419      -514.1433
  15   1.0000     -18.551914      -504.8232
  16   1.0000     -18.535975      -504.3895
  17   1.0000     -18.535794      -504.3846
  18   1.0000     -10.076762      -274.2026
  19   1.0000     -10.076042      -274.1830
  20   1.0000     -10.066474      -273.9227
  21   1.0000     -10.063102      -273.8309
  22   1.0000     -10.063044      -273.8294
  23   1.0000     -10.051907      -273.5263
  24   1.0000     -10.049750      -273.4676
  25   1.0000     -10.048529      -273.4344
  26   1.0000     -10.032486      -272.9978
  27   1.0000     -10.031801      -272.9792
  28   1.0000     -10.018683      -272.6222
  29   1.0000     -10.018286      -272.6114
  30   1.0000     -10.017891      -272.6007
  31   1.0000     -10.017371      -272.5865
  32   1.0000      -7.786851      -211.8910
  33   1.0000      -7.786826      -211.8903
  34   1.0000      -7.786538      -211.8825
  35   1.0000      -7.786458      -211.8803
  36   1.0000      -7.784537      -211.8280
  37   1.0000      -7.784487      -211.8266
  38   1.0000      -7.783771      -211.8072
  39   1.0000      -7.783630      -211.8033
  40   1.0000      -7.694944      -209.3901
  41   1.0000      -7.694552      -209.3794
  42   1.0000      -7.694541      -209.3791
  43   1.0000      -7.694262      -209.3715
  44   1.0000      -5.751841      -156.5155
  45   1.0000      -5.751818      -156.5149
  46   1.0000      -5.751531      -156.5071
  47   1.0000      -5.751455      -156.5050
  48   1.0000      -5.749470      -156.4510
  49   1.0000      -5.749420      -156.4497
  50   1.0000      -5.748722      -156.4307
  51   1.0000      -5.748575      -156.4267
  52   1.0000      -5.748423      -156.4225
  53   1.0000      -5.748407      -156.4221
  54   1.0000      -5.748173      -156.4157
  55   1.0000      -5.748093      -156.4136
  56   1.0000      -5.745059      -156.3310
  57   1.0000      -5.745003      -156.3295
  58   1.0000      -5.744289      -156.3100
  59   1.0000      -5.744136      -156.3059
  60   1.0000      -5.741648      -156.2382
  61   1.0000      -5.741614      -156.2373
  62   1.0000      -5.741294      -156.2286
  63   1.0000      -5.741213      -156.2264
  64   1.0000      -5.740376      -156.2036
  65   1.0000      -5.740323      -156.2021
  66   1.0000      -5.739595      -156.1823
  67   1.0000      -5.739453      -156.1785
  68   1.0000      -5.660272      -154.0238
  69   1.0000      -5.659875      -154.0130
  70   1.0000      -5.659863      -154.0127
  71   1.0000      -5.659601      -154.0056
  72   1.0000      -5.653830      -153.8485
  73   1.0000      -5.653456      -153.8384
  74   1.0000      -5.653443      -153.8380
  75   1.0000      -5.653201      -153.8314
  76   1.0000      -5.652244      -153.8054
  77   1.0000      -5.651838      -153.7943
  78   1.0000      -5.651832      -153.7942
  79   1.0000      -5.651521      -153.7857
  80   1.0000      -2.399491       -65.2935
  81   1.0000      -1.466381       -39.9022
  82   1.0000      -1.411641       -38.4127
  83   1.0000      -1.411477       -38.4082
  84   1.0000      -0.715895       -19.4805
  85   1.0000      -0.709740       -19.3130
  86   1.0000      -0.693782       -18.8788
  87   1.0000      -0.685855       -18.6631
  88   1.0000      -0.658355       -17.9148
  89   1.0000      -0.644359       -17.5339
  90   1.0000      -0.637536       -17.3482
  91   1.0000      -0.631524       -17.1846
  92   1.0000      -0.617772       -16.8104
  93   1.0000      -0.576396       -15.6845
  94   1.0000      -0.575811       -15.6686
  95   1.0000      -0.574691       -15.6381
  96   1.0000      -0.573276       -15.5996
  97   1.0000      -0.518384       -14.1059
  98   1.0000      -0.510609       -13.8944
  99   1.0000      -0.496531       -13.5113
 100   1.0000      -0.496481       -13.5099
 101   1.0000      -0.482526       -13.1302
 102   1.0000      -0.478528       -13.0214
 103   1.0000      -0.466948       -12.7063
 104   1.0000      -0.446650       -12.1540
 105   1.0000      -0.417911       -11.3719
 106   1.0000      -0.412110       -11.2141
 107   1.0000      -0.374261       -10.1842
 108   1.0000      -0.355581        -9.6758
 109   1.0000      -0.339704        -9.2438
 110   1.0000      -0.327306        -8.9065
 111   1.0000      -0.323350        -8.7988
 112   1.0000      -0.318290        -8.6611
 113   1.0000      -0.314911        -8.5692
 114   1.0000      -0.313953        -8.5431
 115   1.0000      -0.304294        -8.2803
 116   1.0000      -0.293039        -7.9740
 117   1.0000      -0.267390        -7.2761
 118   1.0000      -0.264986        -7.2106
 119   1.0000      -0.257359        -7.0031
 120   1.0000      -0.256942        -6.9918
 121   1.0000      -0.244588        -6.6556
 122   1.0000      -0.234226        -6.3736
 123   1.0000      -0.231151        -6.2899
 124   1.0000      -0.229953        -6.2573
 125   1.0000      -0.218488        -5.9453
 126   1.0000      -0.215433        -5.8622
 127   1.0000      -0.213928        -5.8213
 128   1.0000      -0.193792        -5.2734
 129   1.0000      -0.191939        -5.2229
 130   1.0000      -0.186030        -5.0621
 131   1.0000      -0.185263        -5.0413
 132   1.0000      -0.180054        -4.8995
 133   1.0000      -0.165156        -4.4941
 134   1.0000      -0.159403        -4.3376
 135   1.0000      -0.152996        -4.1632
 136   1.0000      -0.147700        -4.0191
 137   1.0000      -0.135472        -3.6864
 138   1.0000      -0.135285        -3.6813
 139   1.0000      -0.133338        -3.6283
 140   1.0000      -0.125082        -3.4037
 141   1.0000      -0.121255        -3.2995
 142   1.0000      -0.115712        -3.1487
 143   1.0000      -0.111800        -3.0422
 144   1.0000      -0.100285        -2.7289
 145   1.0000      -0.098923        -2.6918
 146   1.0000      -0.097586        -2.6554
 147   1.0000      -0.095261        -2.5922
 148   1.0000      -0.071110        -1.9350
 149   1.0000      -0.067876        -1.8470
 150   1.0000      -0.067426        -1.8347
 151   1.0000      -0.050182        -1.3655
 152   1.0000      -0.045106        -1.2274
 153   1.0000      -0.038038        -1.0351
 154   1.0000      -0.037031        -1.0077
 155   1.0000      -0.031783        -0.8648
 156   1.0000      -0.026508        -0.7213
 157   1.0000      -0.016076        -0.4375
 158   1.0000       0.020196         0.5496
 159   1.0000       0.039640         1.0787
 160   0.0000       0.114294         3.1101
 161   0.0000       0.136653         3.7185
 162   0.0000       0.149261         4.0616
 163   0.0000       0.155693         4.2366
 164   0.0000       0.162697         4.4272

MULLIKEN ATOMIC CHARGES AND SPIN POPULATIONS
--------------------------------------------
   0 V :    0.470944    1.210892
   1 S :   -0.290220   -0.022388
   2 S :   -0.289729   -0.025258
   3 S :   -0.288283   -0.023332
   4 S :   -0.285526   -0.025719
   5 O :   -0.467490   -0.146956
   6 C :   -0.077396    0.009695
   7 C :   -0.084328    0.008075
   8 C :   -0.084645    0.007748
   9 C :   -0.085367    0.007366
  10 S :    0.099637   -0.000587
  11 S :    0.100992   -0.000629
  12 S :    0.101600   -0.000389
  13 S :    0.100692   -0.000342
  14 C :   -0.213789    0.001514
  15 C :   -0.219399    0.000970
  16 C :   -0.191200   -0.000068
  17 C :   -0.169401   -0.000382
  18 S :    0.008854   -0.000113
  19 S :    0.008983   -0.000112
  20 S :    0.003441   -0.000070
  21 S :    0.003947   -0.000072
  22 C :   -0.323102   -0.000004
  23 C :   -0.322905   -0.000004
  24 C :   -0.206272   -0.000003
  25 H :    0.146616   -0.000000
  26 H :    0.179765   -0.000004
  27 H :    0.158135   -0.000001
  28 H :   -0.039649   -0.000011
  29 H :    0.180186   -0.000004
  30 H :    0.146774   -0.000000
  31 C :   -0.299805    0.000194
  32 C :   -0.300828    0.000190
  33 C :   -0.158765   -0.000238
  34 H :    0.142261   -0.000018
  35 H :    0.114479    0.000019
  36 H :    0.090500    0.000023
  37 H :    0.083840    0.000015
  38 H :    0.114391    0.000020
  39 H :    0.142063   -0.000018
Sum of atomic charges         :   -2.0000000

LOEWDIN ATOMIC CHARGES AND SPIN POPULATIONS
-------------------------------------------
   0 V :   -0.155969    1.164229
   1 S :    0.080441   -0.014419
   2 S :    0.079347   -0.016111
   3 S :    0.081780   -0.015220
   4 S :    0.083263   -0.016332
   5 O :   -0.318749   -0.131851
   6 C :   -0.549958    0.009050
   7 C :   -0.552119    0.007964
   8 C :   -0.552233    0.008134
   9 C :   -0.552226    0.007666
  10 S :    0.471270   -0.000901
  11 S :    0.472228   -0.000949
  12 S :    0.472963   -0.000820
  13 S :    0.472189   -0.000827
  14 C :   -0.465074    0.000165
  15 C :   -0.465696   -0.000084
  16 C :   -0.622575    0.000470
  17 C :   -0.618249    0.000085
  18 S :    0.358766   -0.000089
  19 S :    0.360133   -0.000087
  20 S :    0.367657   -0.000073
  21 S :    0.367209   -0.000075
  22 C :   -0.212984   -0.000008
  23 C :   -0.211361   -0.000009
  24 C :   -0.094497   -0.000001
  25 H :    0.058677   -0.000001
  26 H :   -0.020484   -0.000002
  27 H :    0.005102   -0.000001
  28 H :    0.019967   -0.000008
  29 H :   -0.022021   -0.000002
  30 H :    0.057810   -0.000001
  31 C :   -0.283322    0.000043
  32 C :   -0.283060    0.000036
  33 C :   -0.176381    0.000007
  34 H :    0.061903   -0.000001
  35 H :    0.052890    0.000008
  36 H :    0.061313    0.000004
  37 H :    0.057310    0.000002
  38 H :    0.052956    0.000008
  39 H :    0.061786   -0.000000

  Mayer bond orders larger than 0.100000
B(  0-V ,  1-S ) :   0.7710 B(  0-V ,  2-S ) :   0.7718 B(  0-V ,  3-S ) :   0.7643
B(  0-V ,  4-S ) :   0.7791 B(  0-V ,  5-O ) :   2.1489 B(  1-S ,  8-C ) :   1.1049
B(  2-S ,  6-C ) :   1.1041 B(  3-S ,  9-C ) :   1.1078 B(  4-S ,  7-C ) :   1.1046
B(  6-C ,  7-C ) :   1.6846 B(  6-C , 10-S ) :   0.9351 B(  7-C , 11-S ) :   0.9389
B(  8-C ,  9-C ) :   1.6960 B(  8-C , 13-S ) :   0.9343 B(  9-C , 12-S ) :   0.9361
B( 10-S , 14-C ) :   1.2485 B( 11-S , 14-C ) :   1.2484 B( 12-S , 15-C ) :   1.2483
B( 13-S , 15-C ) :   1.2483 B( 14-C , 16-C ) :   1.4515 B( 15-C , 17-C ) :   1.4583
B( 16-C , 18-S ) :   1.0880 B( 16-C , 19-S ) :   1.0894 B( 17-C , 20-S ) :   1.0829
B( 17-C , 21-S ) :   1.0835 B( 18-S , 32-C ) :   0.9918 B( 19-S , 31-C ) :   0.9916
B( 20-S , 23-C ) :   0.9727 B( 21-S , 22-C ) :   0.9727 B( 22-C , 24-C ) :   0.9209
B( 22-C , 25-H ) :   0.9650 B( 22-C , 26-H ) :   0.9760 B( 23-C , 24-C ) :   0.9206
B( 23-C , 29-H ) :   0.9763 B( 23-C , 30-H ) :   0.9653 B( 24-C , 27-H ) :   0.9635
B( 24-C , 28-H ) :   0.9117 B( 31-C , 33-C ) :   0.9141 B( 31-C , 38-H ) :   0.9659
B( 31-C , 39-H ) :   0.9659 B( 32-C , 33-C ) :   0.9135 B( 32-C , 34-H ) :   0.9657
B( 32-C , 35-H ) :   0.9658 B( 33-C , 36-H ) :   0.9712 B( 33-C , 37-H ) :   0.9626

FINAL SINGLE POINT ENERGY     -6337.448519750304

DIPOLE MOMENT
-------------
                                X             Y             Z
Electronic contribution:     -1.85682      -7.89613      -9.83863
Nuclear contribution   :      2.36172       9.18215      11.00797
                        -----------------------------------------
Total Dipole Moment    :      0.50490       1.28603       1.16934
                        -----------------------------------------
Magnitude (a.u.)       :      1.81001
Magnitude (Debye)      :      4.60069

Rotational constants in cm-1:     0.010766     0.000804     0.000783
Rotational constants in MHz :   322.743408    24.115738    23.487246

                             ****ORCA TERMINATED NORMALLY****
TOTAL RUN TIME: 0 days 1 hours 7 minutes 12 seconds 737 msec
