                         Program Version 5.0.4 -  RELEASE  -
|  1> ! nofrozencore ReducedPop printbasis
|  2> ! B3LYP TZVP
|  3>
|  4> %basis
|  5> newgto V "CP(PPP)" end
|  6> end
|  7>
|  8> %pal
|  9> nprocs 8
| 10> end
| 11>
| 12> % sym SymThresh 1e-2 end
| 13> * xyz -2 2
| 14> V 0.5688542782583098 -0.957412803141563 0.062364254848689155
| 15> S 1.3777694028825203 0.20720011007129846 2.087795539823089
| 16> S -1.5748016055794123 -1.2584245792841893 1.281476828611004
| 17> S 2.0713683805924656 0.5752923319121042 -1.1565113592744694
| 18> S -0.8568177728615213 -0.7824230547822875 -1.9571411012093063
| 19> O 1.241633258157295 -2.3971120686586893 0.041984426107305094
| 20> C -2.613277470333484 -1.7260952593217815 -0.05523437375675468
| 21> C -2.32454616643654 -1.531022392811839 -1.3553986667072897
| 22> C 2.6706057225403237 1.2023549185099258 1.4506854907663007
| 23> C 2.948432958927176 1.352892923351623 0.14396582719881412
| 24> S -4.223896028493573 -2.4314614225787072 0.3096339513243905
| 25> S -3.588539519180139 -1.9860164207433215 -2.542008126049613
| 26> S 4.3181628603992674 2.431277540443508 -0.27296050562012086
| 27> S 3.7105677468104226 2.093181535180712 2.606745906634312
| 28> C -4.7574304116103105 -2.5912629469581634 -1.3663736474702104
| 29> C 4.632913085395882 2.966802949488458 1.3803837034999338
| 30> C -5.972614762188053 -3.0973393413885617 -1.7195267135354506
| 31> C 5.5652873520904045 3.9070503826654126 1.6871948915097608
| 32> S -7.153649890222561 -3.6392552967674705 -0.5087956168115438
| 33> S -6.520605055799603 -3.12285648475724 -3.409159207974354
| 34> S 5.998291471188177 4.285738980029602 3.366338104830085
| 35> S 6.597300763984932 4.638857628281994 0.4426041361259329
| 36> C 6.0840768330495 6.39344213816322 0.7317158816933611
| 37> C 5.55925584700763 6.082814929299738 3.3098287960019497
| 38> C 6.2332196662207515 6.8891614233573595 2.1829406868098062
| 39> H 5.047468574542962 6.4934040653593135 0.38243681094579224
| 40> H 6.724530079129762 7.00369993358684 0.07933575959662101
| 41> H 5.814117197810327 7.914376584816888 2.221371498143966
| 42> H 7.310828844290035 6.975678107058573 2.412278511328982
| 43> H 5.871592273266158 6.496746781133218 4.278673826412261
| 44> H 4.465068925565578 6.1509530067838165 3.2464571626796177
| 45> C -6.720547924748464 -4.95463266266503 -3.576364583010653
| 46> C -7.264847634285479 -5.404353424817139 -1.054883111077685
| 47> C -7.6440470829969 -5.595384910991992 -2.5305317142809622
| 48> H -6.306299564120112 -5.882440694458018 -0.8305204246644181
| 49> H -8.031304892260168 -5.8621249006272595 -0.4203464847774028
| 50> H -8.665653385880896 -5.222143281072544 -2.6840475044191834
| 51> H -7.663998482395425 -6.679666535463786 -2.7282745402035444
| 52> H -7.135809683403133 -5.116437930874516 -4.576804137016635
| 53> H -5.721839384977684 -5.400976466205889 -3.5453487954244154
| 54> *
| 55>
| 56> % eprnmr
| 57> gtensor true
| 58> Nuclei = all H {aiso,adip,aorb,fgrad,rho}
| 59> Nuclei = all V {aiso,adip,aorb,fgrad,rho}
| 60> end
| 61>
| 62>                          ****END OF INPUT****

CARTESIAN COORDINATES (ANGSTROEM)
---------------------------------
  V      0.565409   -0.955824    0.061810
  S      1.374324    0.208789    2.087241
  S     -1.578247   -1.256836    1.280923
  S      2.067923    0.576881   -1.157066
  S     -0.860263   -0.780835   -1.957695
  O      1.238188   -2.395524    0.041430
  C     -2.616723   -1.724507   -0.055789
  C     -2.327991   -1.529434   -1.355953
  C      2.667161    1.203943    1.450131
  C      2.944988    1.354481    0.143412
  S     -4.227341   -2.429873    0.309080
  S     -3.591985   -1.984428   -2.542562
  S      4.314718    2.432866   -0.273515
  S      3.707123    2.094770    2.606192
  C     -4.760875   -2.589674   -1.366928
  C      4.629468    2.968391    1.379829
  C     -5.976060   -3.095751   -1.720081
  C      5.561842    3.908639    1.686641
  S     -7.157095   -3.637667   -0.509350
  S     -6.524050   -3.121268   -3.409713
  S      5.994846    4.287327    3.365784
  S      6.593856    4.640446    0.442050
  C      6.080632    6.395031    0.731162
  C      5.555811    6.084403    3.309275
  C      6.229775    6.890750    2.182386
  H      5.044024    6.494993    0.381883
  H      6.721085    7.005288    0.078781
  H      5.810672    7.915965    2.220817
  H      7.307384    6.977267    2.411724
  H      5.868147    6.498335    4.278120
  H      4.461624    6.152541    3.245903
  C     -6.723993   -4.953044   -3.576919
  C     -7.268293   -5.402765   -1.055437
  C     -7.647492   -5.593796   -2.531086
  H     -6.309745   -5.880852   -0.831075
  H     -8.034750   -5.860536   -0.420901
  H     -8.669098   -5.220555   -2.684602
  H     -7.667444   -6.678078   -2.728829
  H     -7.139255   -5.114849   -4.577358
  H     -5.725284   -5.399388   -3.545903

 Total Charge           Charge          ....   -2
 Multiplicity           Mult            ....    2
 Number of Electrons    NEL             ....  321
 Basis Dimension        Dim             ....  681

ORBITAL ENERGIES
----------------
                 SPIN UP ORBITALS
  NO   OCC          E(Eh)            E(eV)
   0   1.0000    -196.673958     -5351.7705
   1   1.0000     -88.733241     -2414.5542
   2   1.0000     -88.732990     -2414.5474
   3   1.0000     -88.732419     -2414.5319
   4   1.0000     -88.732329     -2414.5294
   5   1.0000     -88.729626     -2414.4559
   6   1.0000     -88.729556     -2414.4540
   7   1.0000     -88.729076     -2414.4409
   8   1.0000     -88.728797     -2414.4333
   9   1.0000     -88.638059     -2411.9642
  10   1.0000     -88.637727     -2411.9552
  11   1.0000     -88.637681     -2411.9539
  12   1.0000     -88.637453     -2411.9477
  13   1.0000     -22.049313      -599.9923
  14   1.0000     -18.889011      -513.9961
  15   1.0000     -18.555767      -504.9281
  16   1.0000     -18.550600      -504.7875
  17   1.0000     -18.550483      -504.7843
  18   1.0000     -10.073955      -274.1263
  19   1.0000     -10.073713      -274.1197
  20   1.0000     -10.065529      -273.8970
  21   1.0000     -10.065503      -273.8963
  22   1.0000     -10.063737      -273.8482
  23   1.0000     -10.063686      -273.8468
  24   1.0000     -10.055840      -273.6333
  25   1.0000     -10.052903      -273.5534
  26   1.0000     -10.046664      -273.3836
  27   1.0000     -10.046000      -273.3655
  28   1.0000     -10.016115      -272.5524
  29   1.0000     -10.015540      -272.5367
  30   1.0000     -10.015130      -272.5255
  31   1.0000     -10.014739      -272.5149
  32   1.0000      -7.786898      -211.8923
  33   1.0000      -7.786681      -211.8864
  34   1.0000      -7.786020      -211.8684
  35   1.0000      -7.785924      -211.8658
  36   1.0000      -7.782994      -211.7860
  37   1.0000      -7.782949      -211.7848
  38   1.0000      -7.782401      -211.7699
  39   1.0000      -7.782193      -211.7642
  40   1.0000      -7.692538      -209.3246
  41   1.0000      -7.692278      -209.3175
  42   1.0000      -7.692026      -209.3107
  43   1.0000      -7.691717      -209.3023
  44   1.0000      -5.751805      -156.5146
  45   1.0000      -5.751587      -156.5087
  46   1.0000      -5.750956      -156.4915
  47   1.0000      -5.750854      -156.4887
  48   1.0000      -5.748505      -156.4248
  49   1.0000      -5.748280      -156.4187
  50   1.0000      -5.747933      -156.4092
  51   1.0000      -5.747888      -156.4080
  52   1.0000      -5.747607      -156.4003
  53   1.0000      -5.747521      -156.3980
  54   1.0000      -5.747338      -156.3930
  55   1.0000      -5.747128      -156.3873
  56   1.0000      -5.743566      -156.2904
  57   1.0000      -5.743513      -156.2889
  58   1.0000      -5.742937      -156.2733
  59   1.0000      -5.742715      -156.2672
  60   1.0000      -5.741701      -156.2396
  61   1.0000      -5.741482      -156.2337
  62   1.0000      -5.740823      -156.2157
  63   1.0000      -5.740730      -156.2132
  64   1.0000      -5.738752      -156.1594
  65   1.0000      -5.738713      -156.1583
  66   1.0000      -5.738201      -156.1444
  67   1.0000      -5.737997      -156.1388
  68   1.0000      -5.657767      -153.9557
  69   1.0000      -5.657503      -153.9485
  70   1.0000      -5.657281      -153.9424
  71   1.0000      -5.657026      -153.9355
  72   1.0000      -5.651178      -153.7764
  73   1.0000      -5.650907      -153.7690
  74   1.0000      -5.650708      -153.7636
  75   1.0000      -5.650405      -153.7553
  76   1.0000      -5.649936      -153.7426
  77   1.0000      -5.649661      -153.7351
  78   1.0000      -5.649364      -153.7270
  79   1.0000      -5.649022      -153.7177
  80   1.0000      -2.442829       -66.4727
  81   1.0000      -1.484084       -40.3840
  82   1.0000      -1.472501       -40.0688
  83   1.0000      -1.471552       -40.0430
  84   1.0000      -0.710646       -19.3377
  85   1.0000      -0.709536       -19.3074
  86   1.0000      -0.683939       -18.6109
  87   1.0000      -0.683655       -18.6032
  88   1.0000      -0.648610       -17.6496
  89   1.0000      -0.631546       -17.1853
  90   1.0000      -0.630898       -17.1676
  91   1.0000      -0.618111       -16.8196
  92   1.0000      -0.617472       -16.8023
  93   1.0000      -0.575848       -15.6696
  94   1.0000      -0.574403       -15.6303
  95   1.0000      -0.573519       -15.6063
  96   1.0000      -0.572305       -15.5732
  97   1.0000      -0.497169       -13.5286
  98   1.0000      -0.497143       -13.5280
  99   1.0000      -0.496142       -13.5007
 100   1.0000      -0.495208       -13.4753
 101   1.0000      -0.479225       -13.0404
 102   1.0000      -0.476542       -12.9674
 103   1.0000      -0.444251       -12.0887
 104   1.0000      -0.441895       -12.0246
 105   1.0000      -0.414009       -11.2658
 106   1.0000      -0.409149       -11.1335
 107   1.0000      -0.353347        -9.6151
 108   1.0000      -0.352551        -9.5934
 109   1.0000      -0.322464        -8.7747
 110   1.0000      -0.320176        -8.7124
 111   1.0000      -0.318655        -8.6711
 112   1.0000      -0.314388        -8.5549
 113   1.0000      -0.305783        -8.3208
 114   1.0000      -0.304367        -8.2822
 115   1.0000      -0.292118        -7.9489
 116   1.0000      -0.291733        -7.9385
 117   1.0000      -0.259866        -7.0713
 118   1.0000      -0.258813        -7.0427
 119   1.0000      -0.257536        -7.0079
 120   1.0000      -0.256228        -6.9723
 121   1.0000      -0.232862        -6.3365
 122   1.0000      -0.232165        -6.3175
 123   1.0000      -0.228739        -6.2243
 124   1.0000      -0.227124        -6.1804
 125   1.0000      -0.220361        -5.9963
 126   1.0000      -0.218124        -5.9355
 127   1.0000      -0.211887        -5.7658
 128   1.0000      -0.209442        -5.6992
 129   1.0000      -0.191426        -5.2090
 130   1.0000      -0.186956        -5.0873
 131   1.0000      -0.186670        -5.0796
 132   1.0000      -0.185153        -5.0383
 133   1.0000      -0.181757        -4.9459
 134   1.0000      -0.158782        -4.3207
 135   1.0000      -0.152947        -4.1619
 136   1.0000      -0.148371        -4.0374
 137   1.0000      -0.134312        -3.6548
 138   1.0000      -0.133935        -3.6446
 139   1.0000      -0.133045        -3.6203
 140   1.0000      -0.123979        -3.3736
 141   1.0000      -0.121317        -3.3012
 142   1.0000      -0.112129        -3.0512
 143   1.0000      -0.108687        -2.9575
 144   1.0000      -0.099254        -2.7008
 145   1.0000      -0.098635        -2.6840
 146   1.0000      -0.097575        -2.6552
 147   1.0000      -0.095242        -2.5917
 148   1.0000      -0.072923        -1.9843
 149   1.0000      -0.066062        -1.7976
 150   1.0000      -0.065627        -1.7858
 151   1.0000      -0.049939        -1.3589
 152   1.0000      -0.044737        -1.2174
 153   1.0000      -0.037063        -1.0085
 154   1.0000      -0.034248        -0.9319
 155   1.0000      -0.030625        -0.8333
 156   1.0000      -0.023516        -0.6399
 157   1.0000      -0.017798        -0.4843
 158   1.0000      -0.013924        -0.3789
 159   1.0000       0.022246         0.6053
 160   1.0000       0.042929         1.1682
 161   0.0000       0.135990         3.7005
 162   0.0000       0.137231         3.7342
 163   0.0000       0.159910         4.3514
 164   0.0000       0.161256         4.3880
 165   0.0000       0.168253         4.5784

                 SPIN DOWN ORBITALS
  NO   OCC          E(Eh)            E(eV)
   0   1.0000    -196.674104     -5351.7744
   1   1.0000     -88.733242     -2414.5543
   2   1.0000     -88.732990     -2414.5474
   3   1.0000     -88.732420     -2414.5319
   4   1.0000     -88.732330     -2414.5295
   5   1.0000     -88.729635     -2414.4561
   6   1.0000     -88.729565     -2414.4542
   7   1.0000     -88.729084     -2414.4411
   8   1.0000     -88.728805     -2414.4335
   9   1.0000     -88.638194     -2411.9679
  10   1.0000     -88.637863     -2411.9589
  11   1.0000     -88.637819     -2411.9577
  12   1.0000     -88.637593     -2411.9515
  13   1.0000     -22.034385      -599.5861
  14   1.0000     -18.892781      -514.0987
  15   1.0000     -18.550499      -504.7848
  16   1.0000     -18.534637      -504.3531
  17   1.0000     -18.534305      -504.3441
  18   1.0000     -10.073955      -274.1263
  19   1.0000     -10.073711      -274.1196
  20   1.0000     -10.065529      -273.8970
  21   1.0000     -10.065503      -273.8963
  22   1.0000     -10.063736      -273.8482
  23   1.0000     -10.063684      -273.8468
  24   1.0000     -10.055840      -273.6333
  25   1.0000     -10.052903      -273.5534
  26   1.0000     -10.046660      -273.3835
  27   1.0000     -10.045988      -273.3652
  28   1.0000     -10.015884      -272.5461
  29   1.0000     -10.015330      -272.5310
  30   1.0000     -10.014917      -272.5197
  31   1.0000     -10.014530      -272.5092
  32   1.0000      -7.786899      -211.8923
  33   1.0000      -7.786682      -211.8864
  34   1.0000      -7.786021      -211.8684
  35   1.0000      -7.785925      -211.8658
  36   1.0000      -7.783004      -211.7863
  37   1.0000      -7.782959      -211.7851
  38   1.0000      -7.782411      -211.7702
  39   1.0000      -7.782203      -211.7645
  40   1.0000      -7.692663      -209.3280
  41   1.0000      -7.692405      -209.3210
  42   1.0000      -7.692155      -209.3142
  43   1.0000      -7.691847      -209.3058
  44   1.0000      -5.751806      -156.5146
  45   1.0000      -5.751588      -156.5087
  46   1.0000      -5.750958      -156.4915
  47   1.0000      -5.750855      -156.4887
  48   1.0000      -5.748506      -156.4248
  49   1.0000      -5.748281      -156.4187
  50   1.0000      -5.747945      -156.4095
  51   1.0000      -5.747900      -156.4083
  52   1.0000      -5.747609      -156.4004
  53   1.0000      -5.747522      -156.3980
  54   1.0000      -5.747349      -156.3933
  55   1.0000      -5.747139      -156.3876
  56   1.0000      -5.743581      -156.2908
  57   1.0000      -5.743529      -156.2894
  58   1.0000      -5.742952      -156.2737
  59   1.0000      -5.742729      -156.2676
  60   1.0000      -5.741701      -156.2396
  61   1.0000      -5.741483      -156.2337
  62   1.0000      -5.740824      -156.2158
  63   1.0000      -5.740731      -156.2132
  64   1.0000      -5.738759      -156.1596
  65   1.0000      -5.738720      -156.1585
  66   1.0000      -5.738209      -156.1446
  67   1.0000      -5.738006      -156.1391
  68   1.0000      -5.657908      -153.9595
  69   1.0000      -5.657645      -153.9523
  70   1.0000      -5.657417      -153.9461
  71   1.0000      -5.657166      -153.9393
  72   1.0000      -5.651524      -153.7858
  73   1.0000      -5.651260      -153.7786
  74   1.0000      -5.651097      -153.7742
  75   1.0000      -5.650787      -153.7657
  76   1.0000      -5.650038      -153.7453
  77   1.0000      -5.649764      -153.7379
  78   1.0000      -5.649446      -153.7292
  79   1.0000      -5.649112      -153.7201
  80   1.0000      -2.397964       -65.2519
  81   1.0000      -1.464788       -39.8589
  82   1.0000      -1.410068       -38.3699
  83   1.0000      -1.409944       -38.3665
  84   1.0000      -0.710631       -19.3372
  85   1.0000      -0.709511       -19.3068
  86   1.0000      -0.683889       -18.6096
  87   1.0000      -0.683614       -18.6021
  88   1.0000      -0.656697       -17.8696
  89   1.0000      -0.631493       -17.1838
  90   1.0000      -0.630827       -17.1657
  91   1.0000      -0.618113       -16.8197
  92   1.0000      -0.617472       -16.8023
  93   1.0000      -0.575831       -15.6692
  94   1.0000      -0.574382       -15.6297
  95   1.0000      -0.573456       -15.6045
  96   1.0000      -0.572233       -15.5713
  97   1.0000      -0.497206       -13.5297
  98   1.0000      -0.497167       -13.5286
  99   1.0000      -0.496181       -13.5018
 100   1.0000      -0.495239       -13.4761
 101   1.0000      -0.479420       -13.0457
 102   1.0000      -0.476800       -12.9744
 103   1.0000      -0.444271       -12.0892
 104   1.0000      -0.441942       -12.0259
 105   1.0000      -0.413999       -11.2655
 106   1.0000      -0.409247       -11.1362
 107   1.0000      -0.353339        -9.6148
 108   1.0000      -0.352547        -9.5933
 109   1.0000      -0.322449        -8.7743
 110   1.0000      -0.320164        -8.7121
 111   1.0000      -0.318591        -8.6693
 112   1.0000      -0.314424        -8.5559
 113   1.0000      -0.305750        -8.3199
 114   1.0000      -0.304339        -8.2815
 115   1.0000      -0.292112        -7.9488
 116   1.0000      -0.291731        -7.9384
 117   1.0000      -0.259792        -7.0693
 118   1.0000      -0.258663        -7.0386
 119   1.0000      -0.257500        -7.0069
 120   1.0000      -0.256193        -6.9714
 121   1.0000      -0.232774        -6.3341
 122   1.0000      -0.232155        -6.3173
 123   1.0000      -0.228683        -6.2228
 124   1.0000      -0.227087        -6.1794
 125   1.0000      -0.220157        -5.9908
 126   1.0000      -0.217983        -5.9316
 127   1.0000      -0.211676        -5.7600
 128   1.0000      -0.209315        -5.6957
 129   1.0000      -0.189657        -5.1608
 130   1.0000      -0.186898        -5.0858
 131   1.0000      -0.186493        -5.0747
 132   1.0000      -0.184790        -5.0284
 133   1.0000      -0.181655        -4.9431
 134   1.0000      -0.158165        -4.3039
 135   1.0000      -0.152776        -4.1573
 136   1.0000      -0.148297        -4.0354
 137   1.0000      -0.133848        -3.6422
 138   1.0000      -0.133475        -3.6320
 139   1.0000      -0.132741        -3.6121
 140   1.0000      -0.123362        -3.3568
 141   1.0000      -0.120949        -3.2912
 142   1.0000      -0.113926        -3.1001
 143   1.0000      -0.110205        -2.9988
 144   1.0000      -0.099249        -2.7007
 145   1.0000      -0.098608        -2.6833
 146   1.0000      -0.097913        -2.6643
 147   1.0000      -0.095607        -2.6016
 148   1.0000      -0.068883        -1.8744
 149   1.0000      -0.066051        -1.7973
 150   1.0000      -0.065628        -1.7858
 151   1.0000      -0.047379        -1.2893
 152   1.0000      -0.043863        -1.1936
 153   1.0000      -0.037060        -1.0085
 154   1.0000      -0.033684        -0.9166
 155   1.0000      -0.030717        -0.8359
 156   1.0000      -0.024484        -0.6662
 157   1.0000      -0.014111        -0.3840
 158   1.0000       0.022613         0.6153
 159   1.0000       0.041698         1.1347
 160   0.0000       0.135985         3.7004
 161   0.0000       0.137231         3.7342
 162   0.0000       0.156587         4.2610
 163   0.0000       0.160512         4.3678
 164   0.0000       0.162627         4.4253

MULLIKEN ATOMIC CHARGES AND SPIN POPULATIONS
--------------------------------------------
   0 V :    0.471143    1.209355
   1 S :   -0.290906   -0.021651
   2 S :   -0.294400   -0.024893
   3 S :   -0.287795   -0.022433
   4 S :   -0.290737   -0.025364
   5 O :   -0.469606   -0.146292
   6 C :   -0.076681    0.009509
   7 C :   -0.086149    0.007658
   8 C :   -0.085971    0.007287
   9 C :   -0.084259    0.007291
  10 S :    0.097681   -0.000592
  11 S :    0.099533   -0.000643
  12 S :    0.097009   -0.000473
  13 S :    0.096775   -0.000451
  14 C :   -0.205523    0.001352
  15 C :   -0.202282    0.000963
  16 C :   -0.203354   -0.000079
  17 C :   -0.203662   -0.000341
  18 S :    0.013590   -0.000127
  19 S :    0.014110   -0.000125
  20 S :    0.016130   -0.000087
  21 S :    0.016034   -0.000091
  22 C :   -0.288003    0.000018
  23 C :   -0.287732    0.000018
  24 C :   -0.153945   -0.000036
  25 H :    0.140624   -0.000002
  26 H :    0.107188   -0.000001
  27 H :    0.082934    0.000002
  28 H :    0.082674    0.000003
  29 H :    0.107108   -0.000001
  30 H :    0.140679   -0.000002
  31 C :   -0.292359    0.000227
  32 C :   -0.292821    0.000224
  33 C :   -0.153628   -0.000288
  34 H :    0.140117   -0.000020
  35 H :    0.109238    0.000029
  36 H :    0.085697    0.000028
  37 H :    0.081981    0.000020
  38 H :    0.109292    0.000030
  39 H :    0.140279   -0.000020
Sum of atomic charges         :   -2.0000000

LOEWDIN ATOMIC CHARGES AND SPIN POPULATIONS
-------------------------------------------
   0 V :   -0.155797    1.163461
   1 S :    0.083439   -0.013965
   2 S :    0.075632   -0.015952
   3 S :    0.086422   -0.014545
   4 S :    0.078888   -0.016201
   5 O :   -0.320351   -0.131261
   6 C :   -0.551511    0.008790
   7 C :   -0.554194    0.007588
   8 C :   -0.556492    0.007846
   9 C :   -0.556148    0.007690
  10 S :    0.471163   -0.000933
  11 S :    0.472827   -0.000993
  12 S :    0.471335   -0.000920
  13 S :    0.471353   -0.000939
  14 C :   -0.465203    0.000055
  15 C :   -0.463779   -0.000095
  16 C :   -0.624830    0.000521
  17 C :   -0.622093    0.000100
  18 S :    0.360157   -0.000097
  19 S :    0.361464   -0.000093
  20 S :    0.360562   -0.000085
  21 S :    0.360386   -0.000088
  22 C :   -0.284722   -0.000003
  23 C :   -0.284776   -0.000003
  24 C :   -0.172596   -0.000001
  25 H :    0.061924   -0.000001
  26 H :    0.053861   -0.000001
  27 H :    0.061162   -0.000001
  28 H :    0.060185    0.000000
  29 H :    0.053791   -0.000001
  30 H :    0.061830   -0.000001
  31 C :   -0.284572    0.000049
  32 C :   -0.284276    0.000042
  33 C :   -0.173788    0.000007
  34 H :    0.061419   -0.000000
  35 H :    0.053379    0.000011
  36 H :    0.059843    0.000006
  37 H :    0.059267    0.000003
  38 H :    0.053460    0.000011
  39 H :    0.061380    0.000000

  Mayer bond orders larger than 0.100000
B(  0-V ,  1-S ) :   0.7764 B(  0-V ,  2-S ) :   0.7665 B(  0-V ,  3-S ) :   0.7743
B(  0-V ,  4-S ) :   0.7727 B(  0-V ,  5-O ) :   2.1471 B(  1-S ,  8-C ) :   1.1058
B(  2-S ,  6-C ) :   1.1079 B(  3-S ,  9-C ) :   1.1056 B(  4-S ,  7-C ) :   1.1097
B(  6-C ,  7-C ) :   1.6805 B(  6-C , 10-S ) :   0.9351 B(  7-C , 11-S ) :   0.9402
B(  8-C ,  9-C ) :   1.6876 B(  8-C , 13-S ) :   0.9364 B(  9-C , 12-S ) :   0.9370
B( 10-S , 14-C ) :   1.2491 B( 11-S , 14-C ) :   1.2487 B( 12-S , 15-C ) :   1.2427
B( 13-S , 15-C ) :   1.2426 B( 14-C , 16-C ) :   1.4559 B( 15-C , 17-C ) :   1.4677
B( 16-C , 18-S ) :   1.0935 B( 16-C , 19-S ) :   1.0949 B( 17-C , 20-S ) :   1.0939
B( 17-C , 21-S ) :   1.0945 B( 18-S , 32-C ) :   0.9938 B( 19-S , 31-C ) :   0.9941
B( 20-S , 23-C ) :   0.9941 B( 21-S , 22-C ) :   0.9935 B( 22-C , 24-C ) :   0.9202
B( 22-C , 25-H ) :   0.9645 B( 22-C , 26-H ) :   0.9635 B( 23-C , 24-C ) :   0.9204
B( 23-C , 29-H ) :   0.9635 B( 23-C , 30-H ) :   0.9645 B( 24-C , 27-H ) :   0.9660
B( 24-C , 28-H ) :   0.9736 B( 31-C , 33-C ) :   0.9193 B( 31-C , 38-H ) :   0.9645
B( 31-C , 39-H ) :   0.9649 B( 32-C , 33-C ) :   0.9190 B( 32-C , 34-H ) :   0.9646
B( 32-C , 35-H ) :   0.9645 B( 33-C , 36-H ) :   0.9723 B( 33-C , 37-H ) :   0.9647

FINAL SINGLE POINT ENERGY     -6337.702293192002

DIPOLE MOMENT
-------------
                                X             Y             Z
Electronic contribution:      9.48085      -9.65943       2.12140
Nuclear contribution   :    -10.41666      10.81820      -2.32935
                        -----------------------------------------
Total Dipole Moment    :     -0.93581       1.15877      -0.20795
                        -----------------------------------------
Magnitude (a.u.)       :      1.50391
Magnitude (Debye)      :      3.82263

Rotational constants in cm-1:     0.010765     0.000805     0.000784
Rotational constants in MHz :   322.713607    24.142460    23.511545

                             ****ORCA TERMINATED NORMALLY****
TOTAL RUN TIME: 0 days 1 hours 1 minutes 46 seconds 239 msec
