                         Program Version 5.0.4 -  RELEASE  -
|  1> ! nofrozencore ReducedPop printbasis
|  2> ! B3LYP TZVP
|  3>
|  4> %basis
|  5> newgto V "CP(PPP)" end
|  6> end
|  7>
|  8> %pal
|  9> nprocs 8
| 10> end
| 11>
| 12> % sym SymThresh 1e-2 end
| 13> * xyz -2 2
| 14> V 0.8948374917812864 0.5269346668874335 0.4006763376202861
| 15> S 0.9292115630861066 -1.5532563396421717 1.7386321066086627
| 16> S 1.6389733305411511 -0.8941176644379528 -1.484440403839732
| 17> S -0.9626707310709713 1.2376418284029664 1.8754999059452504
| 18> S -0.3241007227332168 1.8252885530290799 -1.3061511035365754
| 19> O 2.172201546374491 1.374941024439047 0.8172413076972873
| 20> C 1.3252702928905762 0.2148609787053218 -2.815974307464384
| 21> C 0.5398208838410975 1.2969392360066205 -2.7451489833379865
| 22> C -0.18302726389808924 -1.1209854394183387 3.045753259106202
| 23> C -0.9185203548387074 -0.039848257112012835 3.096641190753638
| 24> S 2.041451795755035 -0.14946048875679024 -4.424587128519239
| 25> S 0.3002718395226855 2.220114525180482 -4.267153417031231
| 26> S -2.0160515509313703 0.13889063283174485 4.516799764625261
| 27> S -0.3565704555822148 -2.2919514779840457 4.4074030388406324
| 28> C 1.300200953789369 1.1949857834786402 -5.310421303836745
| 29> C -1.633157472299919 -1.419174602006593 5.307071101249669
| 30> C 1.4834204486836235 1.4216552646532712 -6.630667088733148
| 31> C -2.193996171168469 -1.8496418448212475 6.389799754392726
| 32> S 2.5464290156198137 0.39612345236806656 -7.635535789479316
| 33> S 0.705650811261805 2.7917469179704275 -7.472704697408909
| 34> S -1.7778917888730599 -3.431649525146259 7.146997801739147
| 35> S -3.4947902803196014 -0.9411976435355898 7.246424983643638
| 36> C -4.894836218719514 -2.1410611242872934 7.033127278685725
| 37> C -3.4053442943272585 -4.302789892831551 6.9529753193872645
| 38> C -4.584144675805131 -3.5455236404389714 7.651271450141203
| 39> H -4.90120238741958 -2.366132154546737 5.936369557879514
| 40> H -5.649223320662301 -1.7470494378137282 7.753288665858504
| 41> H -5.479872691815952 -4.15504933495559 7.436214009632043
| 42> H -4.246263286307088 -3.350267238605006 8.683044851660995
| 43> H -3.2789018182577108 -5.181065142110085 7.6273923220615245
| 44> H -3.6589135119219356 -4.179876716031586 5.869858870092286
| 45> C 2.2284546330854424 3.7195345459968094 -7.972800810553675
| 46> C 3.8015972818539896 1.6753974518604642 -8.104933279365465
| 47> C 3.198318215488298 2.8897143721117993 -8.828849704476301
| 48> H 4.287531975450281 2.010905128707488 -7.185647466866874
| 49> H 4.480312968428011 1.1624945914083398 -8.790726848290825
| 50> H 2.6680802537853965 2.5387233182297866 -9.719718976709295
| 51> H 4.029019177295002 3.5479965208193787 -9.119502939022812
| 52> H 1.861312589435176 4.555647423705001 -8.57295128131066
| 53> H 2.736098971369708 4.032689022647567 -7.0573471961850816
| 54> *
| 55>
| 56> % eprnmr
| 57> gtensor true
| 58> Nuclei = all H {aiso,adip,aorb,fgrad,rho}
| 59> Nuclei = all V {aiso,adip,aorb,fgrad,rho}
| 60> end
| 61>
| 62>                          ****END OF INPUT****

CARTESIAN COORDINATES (ANGSTROEM)
---------------------------------
  V      0.892997    0.525838    0.397497
  S      0.927371   -1.554353    1.735453
  S      1.637133   -0.895214   -1.487620
  S     -0.964512    1.236545    1.872321
  S     -0.325942    1.824192   -1.309330
  O      2.170361    1.373845    0.814062
  C      1.323429    0.213765   -2.819153
  C      0.537980    1.295843   -2.748328
  C     -0.184868   -1.122082    3.042574
  C     -0.920361   -0.040945    3.093462
  S      2.039611   -0.150557   -4.427766
  S      0.298431    2.219018   -4.270333
  S     -2.017892    0.137794    4.513621
  S     -0.358411   -2.293048    4.404224
  C      1.298360    1.193889   -5.313600
  C     -1.634998   -1.420271    5.303892
  C      1.481580    1.420559   -6.633846
  C     -2.195837   -1.850738    6.386621
  S      2.544588    0.395027   -7.638715
  S      0.703810    2.790651   -7.475884
  S     -1.779733   -3.432746    7.143819
  S     -3.496631   -0.942294    7.243246
  C     -4.896677   -2.142157    7.029948
  C     -3.407185   -4.303886    6.949796
  C     -4.585985   -3.546620    7.648092
  H     -4.903043   -2.367229    5.933190
  H     -5.651064   -1.748146    7.750110
  H     -5.481713   -4.156146    7.433035
  H     -4.248104   -3.351364    8.679866
  H     -3.280743   -5.182162    7.624213
  H     -3.660754   -4.180973    5.866680
  C      2.226614    3.718438   -7.975980
  C      3.799756    1.674301   -8.108112
  C      3.196477    2.888618   -8.832029
  H      4.285691    2.009809   -7.188827
  H      4.478472    1.161398   -8.793906
  H      2.666239    2.537627   -9.722898
  H      4.027178    3.546900   -9.122682
  H      1.859472    4.554551   -8.576130
  H      2.734258    4.031593   -7.060526

 Total Charge           Charge          ....   -2
 Multiplicity           Mult            ....    2
 Number of Electrons    NEL             ....  321
 Basis Dimension        Dim             ....  681

ORBITAL ENERGIES
----------------
                 SPIN UP ORBITALS
  NO   OCC          E(Eh)            E(eV)
   0   1.0000    -196.673204     -5351.7500
   1   1.0000     -88.735558     -2414.6173
   2   1.0000     -88.735461     -2414.6147
   3   1.0000     -88.733088     -2414.5501
   4   1.0000     -88.733033     -2414.5486
   5   1.0000     -88.728846     -2414.4347
   6   1.0000     -88.728674     -2414.4300
   7   1.0000     -88.727713     -2414.4038
   8   1.0000     -88.727637     -2414.4018
   9   1.0000     -88.638227     -2411.9688
  10   1.0000     -88.638065     -2411.9644
  11   1.0000     -88.638049     -2411.9639
  12   1.0000     -88.637578     -2411.9511
  13   1.0000     -22.048602      -599.9729
  14   1.0000     -18.888471      -513.9814
  15   1.0000     -18.555081      -504.9094
  16   1.0000     -18.549856      -504.7672
  17   1.0000     -18.549769      -504.7649
  18   1.0000     -10.075194      -274.1600
  19   1.0000     -10.075140      -274.1585
  20   1.0000     -10.074317      -274.1361
  21   1.0000     -10.071937      -274.0713
  22   1.0000     -10.064340      -273.8646
  23   1.0000     -10.064303      -273.8636
  24   1.0000     -10.053613      -273.5727
  25   1.0000     -10.050742      -273.4946
  26   1.0000     -10.049860      -273.4706
  27   1.0000     -10.048038      -273.4210
  28   1.0000     -10.016316      -272.5578
  29   1.0000     -10.015343      -272.5313
  30   1.0000     -10.013491      -272.4809
  31   1.0000     -10.012437      -272.4523
  32   1.0000      -7.789023      -211.9501
  33   1.0000      -7.788923      -211.9474
  34   1.0000      -7.786508      -211.8816
  35   1.0000      -7.786499      -211.8814
  36   1.0000      -7.782046      -211.7602
  37   1.0000      -7.781916      -211.7567
  38   1.0000      -7.780720      -211.7241
  39   1.0000      -7.780671      -211.7228
  40   1.0000      -7.692517      -209.3240
  41   1.0000      -7.692238      -209.3164
  42   1.0000      -7.692192      -209.3152
  43   1.0000      -7.691760      -209.3034
  44   1.0000      -5.754009      -156.5745
  45   1.0000      -5.753903      -156.5717
  46   1.0000      -5.751496      -156.5062
  47   1.0000      -5.751493      -156.5061
  48   1.0000      -5.750611      -156.4821
  49   1.0000      -5.750518      -156.4796
  50   1.0000      -5.748096      -156.4136
  51   1.0000      -5.748078      -156.4132
  52   1.0000      -5.747033      -156.3847
  53   1.0000      -5.746904      -156.3812
  54   1.0000      -5.745891      -156.3537
  55   1.0000      -5.745835      -156.3521
  56   1.0000      -5.743779      -156.2962
  57   1.0000      -5.743678      -156.2934
  58   1.0000      -5.742574      -156.2634
  59   1.0000      -5.742435      -156.2596
  60   1.0000      -5.741299      -156.2287
  61   1.0000      -5.741294      -156.2285
  62   1.0000      -5.741281      -156.2282
  63   1.0000      -5.741248      -156.2273
  64   1.0000      -5.737820      -156.1340
  65   1.0000      -5.737695      -156.1306
  66   1.0000      -5.736276      -156.0920
  67   1.0000      -5.736238      -156.0910
  68   1.0000      -5.657846      -153.9578
  69   1.0000      -5.657600      -153.9511
  70   1.0000      -5.657593      -153.9509
  71   1.0000      -5.657177      -153.9396
  72   1.0000      -5.651164      -153.7760
  73   1.0000      -5.650916      -153.7692
  74   1.0000      -5.650883      -153.7683
  75   1.0000      -5.650450      -153.7566
  76   1.0000      -5.649816      -153.7393
  77   1.0000      -5.649520      -153.7312
  78   1.0000      -5.649406      -153.7281
  79   1.0000      -5.648967      -153.7162
  80   1.0000      -2.442224       -66.4563
  81   1.0000      -1.483571       -40.3700
  82   1.0000      -1.471810       -40.0500
  83   1.0000      -1.471044       -40.0291
  84   1.0000      -0.713775       -19.4228
  85   1.0000      -0.709526       -19.3072
  86   1.0000      -0.684782       -18.6339
  87   1.0000      -0.684691       -18.6314
  88   1.0000      -0.648154       -17.6372
  89   1.0000      -0.637398       -17.3445
  90   1.0000      -0.631799       -17.1921
  91   1.0000      -0.618139       -16.8204
  92   1.0000      -0.617074       -16.7914
  93   1.0000      -0.572734       -15.5849
  94   1.0000      -0.572384       -15.5754
  95   1.0000      -0.571903       -15.5623
  96   1.0000      -0.569004       -15.4834
  97   1.0000      -0.503303       -13.6956
  98   1.0000      -0.496772       -13.5179
  99   1.0000      -0.494591       -13.4585
 100   1.0000      -0.491787       -13.3822
 101   1.0000      -0.476939       -12.9782
 102   1.0000      -0.472696       -12.8627
 103   1.0000      -0.444339       -12.0911
 104   1.0000      -0.436935       -11.8896
 105   1.0000      -0.419710       -11.4209
 106   1.0000      -0.412851       -11.2343
 107   1.0000      -0.375507       -10.2181
 108   1.0000      -0.358741        -9.7618
 109   1.0000      -0.324505        -8.8302
 110   1.0000      -0.321758        -8.7555
 111   1.0000      -0.319847        -8.7035
 112   1.0000      -0.315965        -8.5979
 113   1.0000      -0.311273        -8.4702
 114   1.0000      -0.310740        -8.4557
 115   1.0000      -0.305312        -8.3080
 116   1.0000      -0.296996        -8.0817
 117   1.0000      -0.261182        -7.1071
 118   1.0000      -0.257058        -6.9949
 119   1.0000      -0.256078        -6.9682
 120   1.0000      -0.252669        -6.8755
 121   1.0000      -0.232967        -6.3393
 122   1.0000      -0.229630        -6.2486
 123   1.0000      -0.226879        -6.1737
 124   1.0000      -0.219171        -5.9640
 125   1.0000      -0.217792        -5.9264
 126   1.0000      -0.214792        -5.8448
 127   1.0000      -0.213065        -5.7978
 128   1.0000      -0.207196        -5.6381
 129   1.0000      -0.191854        -5.2206
 130   1.0000      -0.186661        -5.0793
 131   1.0000      -0.185219        -5.0401
 132   1.0000      -0.183185        -4.9847
 133   1.0000      -0.179123        -4.8742
 134   1.0000      -0.158693        -4.3182
 135   1.0000      -0.149083        -4.0568
 136   1.0000      -0.143084        -3.8935
 137   1.0000      -0.139691        -3.8012
 138   1.0000      -0.135814        -3.6957
 139   1.0000      -0.129263        -3.5174
 140   1.0000      -0.124362        -3.3841
 141   1.0000      -0.116642        -3.1740
 142   1.0000      -0.111658        -3.0384
 143   1.0000      -0.108767        -2.9597
 144   1.0000      -0.099212        -2.6997
 145   1.0000      -0.097463        -2.6521
 146   1.0000      -0.095194        -2.5903
 147   1.0000      -0.095025        -2.5857
 148   1.0000      -0.073626        -2.0035
 149   1.0000      -0.066844        -1.8189
 150   1.0000      -0.066120        -1.7992
 151   1.0000      -0.050501        -1.3742
 152   1.0000      -0.044376        -1.2075
 153   1.0000      -0.041394        -1.1264
 154   1.0000      -0.035177        -0.9572
 155   1.0000      -0.033061        -0.8996
 156   1.0000      -0.022606        -0.6151
 157   1.0000      -0.017550        -0.4775
 158   1.0000      -0.013101        -0.3565
 159   1.0000       0.019468         0.5298
 160   1.0000       0.040823         1.1109
 161   0.0000       0.136699         3.7198
 162   0.0000       0.137981         3.7547
 163   0.0000       0.158796         4.3211
 164   0.0000       0.162485         4.4214
 165   0.0000       0.168944         4.5972

                 SPIN DOWN ORBITALS
  NO   OCC          E(Eh)            E(eV)
   0   1.0000    -196.673352     -5351.7540
   1   1.0000     -88.735559     -2414.6173
   2   1.0000     -88.735462     -2414.6147
   3   1.0000     -88.733089     -2414.5501
   4   1.0000     -88.733033     -2414.5486
   5   1.0000     -88.728855     -2414.4349
   6   1.0000     -88.728683     -2414.4302
   7   1.0000     -88.727721     -2414.4040
   8   1.0000     -88.727645     -2414.4020
   9   1.0000     -88.638367     -2411.9726
  10   1.0000     -88.638203     -2411.9681
  11   1.0000     -88.638190     -2411.9678
  12   1.0000     -88.637718     -2411.9549
  13   1.0000     -22.033676      -599.5668
  14   1.0000     -18.892253      -514.0843
  15   1.0000     -18.549819      -504.7662
  16   1.0000     -18.533832      -504.3312
  17   1.0000     -18.533653      -504.3263
  18   1.0000     -10.075194      -274.1600
  19   1.0000     -10.075140      -274.1585
  20   1.0000     -10.074312      -274.1360
  21   1.0000     -10.071936      -274.0713
  22   1.0000     -10.064340      -273.8646
  23   1.0000     -10.064302      -273.8636
  24   1.0000     -10.053613      -273.5727
  25   1.0000     -10.050742      -273.4946
  26   1.0000     -10.049856      -273.4705
  27   1.0000     -10.048028      -273.4207
  28   1.0000     -10.016077      -272.5513
  29   1.0000     -10.015118      -272.5252
  30   1.0000     -10.013272      -272.4750
  31   1.0000     -10.012220      -272.4464
  32   1.0000      -7.789024      -211.9501
  33   1.0000      -7.788924      -211.9474
  34   1.0000      -7.786508      -211.8817
  35   1.0000      -7.786499      -211.8814
  36   1.0000      -7.782055      -211.7605
  37   1.0000      -7.781926      -211.7570
  38   1.0000      -7.780729      -211.7244
  39   1.0000      -7.780681      -211.7231
  40   1.0000      -7.692647      -209.3276
  41   1.0000      -7.692370      -209.3200
  42   1.0000      -7.692320      -209.3187
  43   1.0000      -7.691891      -209.3070
  44   1.0000      -5.754010      -156.5746
  45   1.0000      -5.753904      -156.5717
  46   1.0000      -5.751497      -156.5062
  47   1.0000      -5.751494      -156.5061
  48   1.0000      -5.750612      -156.4821
  49   1.0000      -5.750519      -156.4796
  50   1.0000      -5.748097      -156.4137
  51   1.0000      -5.748080      -156.4132
  52   1.0000      -5.747044      -156.3850
  53   1.0000      -5.746914      -156.3815
  54   1.0000      -5.745902      -156.3539
  55   1.0000      -5.745845      -156.3524
  56   1.0000      -5.743780      -156.2962
  57   1.0000      -5.743679      -156.2935
  58   1.0000      -5.742588      -156.2638
  59   1.0000      -5.742449      -156.2600
  60   1.0000      -5.741314      -156.2291
  61   1.0000      -5.741295      -156.2286
  62   1.0000      -5.741282      -156.2282
  63   1.0000      -5.741263      -156.2277
  64   1.0000      -5.737827      -156.1342
  65   1.0000      -5.737703      -156.1308
  66   1.0000      -5.736283      -156.0922
  67   1.0000      -5.736244      -156.0911
  68   1.0000      -5.657985      -153.9616
  69   1.0000      -5.657744      -153.9550
  70   1.0000      -5.657735      -153.9548
  71   1.0000      -5.657320      -153.9435
  72   1.0000      -5.651551      -153.7865
  73   1.0000      -5.651298      -153.7796
  74   1.0000      -5.651239      -153.7780
  75   1.0000      -5.650816      -153.7665
  76   1.0000      -5.649903      -153.7417
  77   1.0000      -5.649613      -153.7338
  78   1.0000      -5.649509      -153.7310
  79   1.0000      -5.649071      -153.7190
  80   1.0000      -2.397354       -65.2353
  81   1.0000      -1.464295       -39.8455
  82   1.0000      -1.409460       -38.3534
  83   1.0000      -1.409323       -38.3496
  84   1.0000      -0.713763       -19.4225
  85   1.0000      -0.709501       -19.3065
  86   1.0000      -0.684736       -18.6326
  87   1.0000      -0.684635       -18.6299
  88   1.0000      -0.656253       -17.8576
  89   1.0000      -0.637327       -17.3425
  90   1.0000      -0.631721       -17.1900
  91   1.0000      -0.618141       -16.8205
  92   1.0000      -0.617074       -16.7914
  93   1.0000      -0.572667       -15.5831
  94   1.0000      -0.572352       -15.5745
  95   1.0000      -0.571830       -15.5603
  96   1.0000      -0.568981       -15.4827
  97   1.0000      -0.503319       -13.6960
  98   1.0000      -0.496791       -13.5184
  99   1.0000      -0.494632       -13.4596
 100   1.0000      -0.491836       -13.3835
 101   1.0000      -0.477148       -12.9838
 102   1.0000      -0.472943       -12.8694
 103   1.0000      -0.444364       -12.0918
 104   1.0000      -0.436981       -11.8909
 105   1.0000      -0.419725       -11.4213
 106   1.0000      -0.412945       -11.2368
 107   1.0000      -0.375505       -10.2180
 108   1.0000      -0.358733        -9.7616
 109   1.0000      -0.324488        -8.8298
 110   1.0000      -0.321750        -8.7553
 111   1.0000      -0.319813        -8.7025
 112   1.0000      -0.315947        -8.5974
 113   1.0000      -0.311226        -8.4689
 114   1.0000      -0.310742        -8.4557
 115   1.0000      -0.305272        -8.3069
 116   1.0000      -0.296990        -8.0815
 117   1.0000      -0.261090        -7.1046
 118   1.0000      -0.256992        -6.9931
 119   1.0000      -0.255993        -6.9659
 120   1.0000      -0.252604        -6.8737
 121   1.0000      -0.232932        -6.3384
 122   1.0000      -0.229564        -6.2468
 123   1.0000      -0.226838        -6.1726
 124   1.0000      -0.218752        -5.9525
 125   1.0000      -0.217722        -5.9245
 126   1.0000      -0.214513        -5.8372
 127   1.0000      -0.212987        -5.7957
 128   1.0000      -0.207136        -5.6364
 129   1.0000      -0.190214        -5.1760
 130   1.0000      -0.186586        -5.0773
 131   1.0000      -0.184805        -5.0288
 132   1.0000      -0.183011        -4.9800
 133   1.0000      -0.179028        -4.8716
 134   1.0000      -0.158073        -4.3014
 135   1.0000      -0.148909        -4.0520
 136   1.0000      -0.142993        -3.8910
 137   1.0000      -0.139407        -3.7935
 138   1.0000      -0.135358        -3.6833
 139   1.0000      -0.129034        -3.5112
 140   1.0000      -0.123507        -3.3608
 141   1.0000      -0.116397        -3.1673
 142   1.0000      -0.113402        -3.0858
 143   1.0000      -0.110319        -3.0019
 144   1.0000      -0.099220        -2.6999
 145   1.0000      -0.097527        -2.6538
 146   1.0000      -0.095524        -2.5993
 147   1.0000      -0.095250        -2.5919
 148   1.0000      -0.069846        -1.9006
 149   1.0000      -0.066839        -1.8188
 150   1.0000      -0.066114        -1.7991
 151   1.0000      -0.047902        -1.3035
 152   1.0000      -0.043408        -1.1812
 153   1.0000      -0.041464        -1.1283
 154   1.0000      -0.034605        -0.9416
 155   1.0000      -0.033223        -0.9040
 156   1.0000      -0.023629        -0.6430
 157   1.0000      -0.013306        -0.3621
 158   1.0000       0.019784         0.5384
 159   1.0000       0.039663         1.0793
 160   0.0000       0.136691         3.7196
 161   0.0000       0.137991         3.7549
 162   0.0000       0.156549         4.2599
 163   0.0000       0.159984         4.3534
 164   0.0000       0.163475         4.4484

MULLIKEN ATOMIC CHARGES AND SPIN POPULATIONS
--------------------------------------------
   0 V :    0.473586    1.210463
   1 S :   -0.297884   -0.022757
   2 S :   -0.291836   -0.025178
   3 S :   -0.295989   -0.023693
   4 S :   -0.287641   -0.025654
   5 O :   -0.468695   -0.146612
   6 C :   -0.074856    0.009760
   7 C :   -0.082112    0.008135
   8 C :   -0.071150    0.008136
   9 C :   -0.071935    0.007761
  10 S :    0.095331   -0.000577
  11 S :    0.096629   -0.000621
  12 S :    0.082373   -0.000460
  13 S :    0.081305   -0.000416
  14 C :   -0.218949    0.001570
  15 C :   -0.232860    0.001244
  16 C :   -0.181248   -0.000184
  17 C :   -0.154859   -0.000648
  18 S :    0.008165   -0.000115
  19 S :    0.008308   -0.000115
  20 S :    0.010878   -0.000095
  21 S :    0.010939   -0.000099
  22 C :   -0.311658    0.000002
  23 C :   -0.311562    0.000001
  24 C :   -0.205027   -0.000016
  25 H :    0.155130   -0.000002
  26 H :    0.130217   -0.000005
  27 H :    0.097309   -0.000000
  28 H :    0.094552    0.000001
  29 H :    0.129945   -0.000005
  30 H :    0.154488   -0.000002
  31 C :   -0.301012    0.000193
  32 C :   -0.302098    0.000188
  33 C :   -0.162867   -0.000240
  34 H :    0.143665   -0.000019
  35 H :    0.115657    0.000020
  36 H :    0.091675    0.000023
  37 H :    0.084845    0.000015
  38 H :    0.115641    0.000021
  39 H :    0.143599   -0.000019
Sum of atomic charges         :   -2.0000000

LOEWDIN ATOMIC CHARGES AND SPIN POPULATIONS
-------------------------------------------
   0 V :   -0.155724    1.163798
   1 S :    0.072193   -0.014710
   2 S :    0.077287   -0.016055
   3 S :    0.073466   -0.015502
   4 S :    0.081239   -0.016285
   5 O :   -0.319495   -0.131548
   6 C :   -0.548672    0.009109
   7 C :   -0.550810    0.008033
   8 C :   -0.544499    0.008431
   9 C :   -0.544573    0.007970
  10 S :    0.466782   -0.000889
  11 S :    0.467737   -0.000938
  12 S :    0.452375   -0.000840
  13 S :    0.451587   -0.000848
  14 C :   -0.462678    0.000156
  15 C :   -0.454228   -0.000065
  16 C :   -0.617158    0.000430
  17 C :   -0.597026    0.000065
  18 S :    0.356718   -0.000093
  19 S :    0.358106   -0.000090
  20 S :    0.349924   -0.000098
  21 S :    0.349554   -0.000100
  22 C :   -0.293767   -0.000008
  23 C :   -0.293880   -0.000008
  24 C :   -0.194934   -0.000001
  25 H :    0.075973   -0.000002
  26 H :    0.068415   -0.000003
  27 H :    0.061580   -0.000001
  28 H :    0.061121   -0.000000
  29 H :    0.068275   -0.000003
  30 H :    0.075622   -0.000002
  31 C :   -0.282962    0.000039
  32 C :   -0.282734    0.000033
  33 C :   -0.178574    0.000007
  34 H :    0.063320   -0.000001
  35 H :    0.054698    0.000008
  36 H :    0.059867    0.000005
  37 H :    0.057842    0.000002
  38 H :    0.054787    0.000008
  39 H :    0.063249   -0.000001

  Mayer bond orders larger than 0.100000
B(  0-V ,  1-S ) :   0.7721 B(  0-V ,  2-S ) :   0.7700 B(  0-V ,  3-S ) :   0.7654
B(  0-V ,  4-S ) :   0.7774 B(  0-V ,  5-O ) :   2.1482 B(  1-S ,  8-C ) :   1.0939
B(  2-S ,  6-C ) :   1.1024 B(  3-S ,  9-C ) :   1.0966 B(  4-S ,  7-C ) :   1.1029
B(  6-C ,  7-C ) :   1.6954 B(  6-C , 10-S ) :   0.9320 B(  7-C , 11-S ) :   0.9360
B(  8-C ,  9-C ) :   1.7511 B(  8-C , 13-S ) :   0.9207 B(  9-C , 12-S ) :   0.9226
B( 10-S , 14-C ) :   1.2483 B( 11-S , 14-C ) :   1.2482 B( 12-S , 15-C ) :   1.2458
B( 13-S , 15-C ) :   1.2460 B( 14-C , 16-C ) :   1.4626 B( 15-C , 17-C ) :   1.4950
B( 16-C , 18-S ) :   1.0883 B( 16-C , 19-S ) :   1.0897 B( 17-C , 20-S ) :   1.0888
B( 17-C , 21-S ) :   1.0901 B( 18-S , 32-C ) :   0.9935 B( 19-S , 31-C ) :   0.9936
B( 20-S , 23-C ) :   1.0024 B( 21-S , 22-C ) :   1.0017 B( 22-C , 24-C ) :   0.8982
B( 22-C , 25-H ) :   0.9541 B( 22-C , 26-H ) :   0.9632 B( 23-C , 24-C ) :   0.8995
B( 23-C , 29-H ) :   0.9633 B( 23-C , 30-H ) :   0.9538 B( 24-C , 27-H ) :   0.9610
B( 24-C , 28-H ) :   0.9620 B( 31-C , 33-C ) :   0.9088 B( 31-C , 38-H ) :   0.9661
B( 31-C , 39-H ) :   0.9654 B( 32-C , 33-C ) :   0.9086 B( 32-C , 34-H ) :   0.9654
B( 32-C , 35-H ) :   0.9662 B( 33-C , 36-H ) :   0.9703 B( 33-C , 37-H ) :   0.9634

FINAL SINGLE POINT ENERGY     -6337.658913832370

DIPOLE MOMENT
-------------
                                X             Y             Z
Electronic contribution:      9.62346       4.73902       7.87364
Nuclear contribution   :    -10.80436      -5.34143      -8.56869
                        -----------------------------------------
Total Dipole Moment    :     -1.18090      -0.60241      -0.69506
                        -----------------------------------------
Magnitude (a.u.)       :      1.49684
Magnitude (Debye)      :      3.80466

Rotational constants in cm-1:     0.010766     0.000804     0.000783
Rotational constants in MHz :   322.747020    24.116217    23.487601

                             ****ORCA TERMINATED NORMALLY****
TOTAL RUN TIME: 0 days 1 hours 1 minutes 46 seconds 684 msec
