                         Program Version 5.0.4 -  RELEASE  -
|  1> ! nofrozencore ReducedPop printbasis
|  2> ! B3LYP TZVP
|  3>
|  4> %basis
|  5> newgto V "CP(PPP)" end
|  6> end
|  7>
|  8> %pal
|  9> nprocs 8
| 10> end
| 11>
| 12> % sym SymThresh 1e-2 end
| 13> * xyz -2 2
| 14> V -0.2640501296892104 -1.047391189294248 -0.2687300882091393
| 15> S 1.8258644372365156 -0.7386970672392239 -1.5555481714910506
| 16> S 1.196402063616218 -1.1275330713593368 1.7281990007122547
| 17> S -1.3380177095023826 0.33742697370177205 -2.0179762179509106
| 18> S -1.9145932266797674 0.029232259944019727 1.2150650941149292
| 19> O -0.741809902268416 -2.5448823741142608 -0.5000861746050232
| 20> C -0.021002068458962565 -0.9227861801906109 2.9808359340620654
| 21> C -1.2668852334221248 -0.4557636517497217 2.7749810579987253
| 22> C 1.2159298520661128 0.02220331914910095 -3.018719103662718
| 23> C -0.04540325279252339 0.4538142377154751 -3.20118613229793
| 24> S 0.4221184090212816 -1.2843930558853136 4.684024499828638
| 25> S -2.2962760097490795 -0.24741481723261274 4.230206000316013
| 26> S -0.40045996125242006 1.2498559617528917 -4.771514555578602
| 27> S 2.3590589023972997 0.29988663572139873 -4.376639728897246
| 28> C -1.108460293584848 -0.792730202470144 5.4197826310227075
| 29> C 1.2333588416356422 1.15466603392827 -5.438603350788926
| 30> C -1.3544779378622562 -0.8391433947581299 6.764506667768849
| 31> C 1.5860776624733688 1.6778654023169848 -6.651691174508831
| 32> S -0.1482781428508375 -1.4496801003595894 7.9256633200637605
| 33> S -2.9164975283511865 -0.32490044390880296 7.451086978972549
| 34> S 3.248772276284014 1.5593873065826716 -7.281316516394973
| 35> S 0.41693161440729254 2.550362674530177 -7.675884674533614
| 36> C 1.2482472133155114 4.198274276442 -7.662612862288193
| 37> C 3.631559306424311 3.364093872333821 -7.336518391436159
| 38> C 2.672363430024749 4.163133167524973 -8.22109824070275
| 39> H 1.2008467997387842 4.617308255073105 -6.585668799091621
| 40> H 0.5026743801641874 4.96052633382038 -8.41426884593439
| 41> H 3.092165269588182 5.354809790613791 -8.238689489003779
| 42> H 2.679571514726703 3.9400287141818358 -8.847008516483065
| 43> H 4.841816561589043 3.4388294897652223 -7.825328156189562
| 44> H 3.6697121723740853 3.759576370887898 -6.246970744049299
| 45> C -3.452708134701694 -1.9468190169526105 8.163912187574743
| 46> C -1.0994909401815784 -2.905894596070268 8.560836225623595
| 47> C -2.4571101389693633 -2.53837415781013 9.163927687961515
| 48> H -1.218012375675711 -3.618509950789936 7.739597051490279
| 49> H -0.45668948637095536 -3.364010098585346 9.321917094748754
| 50> H -2.3096648385222562 -1.8385013282659421 9.98389042708499
| 51> H -2.9015218501876947 -3.45243539401758 9.589149887541806
| 52> H -4.412082694752528 -1.745736698080487 8.65530881831846
| 53> H -3.631205951702836 -2.638490127618361 7.3356205805749894
| 54> *
| 55>
| 56> % eprnmr
| 57> gtensor true
| 58> Nuclei = all H {aiso,adip,aorb,fgrad,rho}
| 59> Nuclei = all V {aiso,adip,aorb,fgrad,rho}
| 60> end
| 61>
| 62>                          ****END OF INPUT****

CARTESIAN COORDINATES (ANGSTROEM)
---------------------------------
  V     -0.263619   -1.044898   -0.265850
  S      1.826295   -0.736204   -1.552668
  S      1.196833   -1.125040    1.731079
  S     -1.337587    0.339920   -2.015096
  S     -1.914163    0.031725    1.217946
  O     -0.741379   -2.542389   -0.497206
  C     -0.020571   -0.920293    2.983716
  C     -1.266455   -0.453271    2.777862
  C      1.216361    0.024696   -3.015839
  C     -0.044973    0.456307   -3.198306
  S      0.422549   -1.281900    4.686905
  S     -2.295845   -0.244922    4.233086
  S     -0.400029    1.252349   -4.768634
  S      2.359490    0.302380   -4.373759
  C     -1.108030   -0.790237    5.422663
  C      1.233790    1.157159   -5.435723
  C     -1.354047   -0.836651    6.767387
  C      1.586508    1.680358   -6.648811
  S     -0.147847   -1.447187    7.928544
  S     -2.916067   -0.322408    7.453967
  S      3.249203    1.561880   -7.278436
  S      0.417362    2.552856   -7.673004
  C      1.248678    4.200767   -7.659732
  C      3.631990    3.366587   -7.333638
  C      2.672794    4.165626   -8.218218
  H      1.201278    4.619801   -6.582788
  H      0.503105    4.963019   -8.411388
  H      3.092596    5.357303   -8.235809
  H      2.680002    3.942522   -8.844128
  H      4.842247    3.441322   -7.822448
  H      3.670143    3.762069   -6.244090
  C     -3.452277   -1.944326    8.166793
  C     -1.099060   -2.903402    8.563717
  C     -2.456679   -2.535881    9.166808
  H     -1.217582   -3.616017    7.742477
  H     -0.456259   -3.361517    9.324798
  H     -2.309234   -1.836008    9.986771
  H     -2.901091   -3.449943    9.592030
  H     -4.411652   -1.743244    8.658189
  H     -3.630775   -2.635997    7.338501

 Total Charge           Charge          ....   -2
 Multiplicity           Mult            ....    2
 Number of Electrons    NEL             ....  321
 Basis Dimension        Dim             ....  681

ORBITAL ENERGIES
----------------
                 SPIN UP ORBITALS
  NO   OCC          E(Eh)            E(eV)
   0   1.0000    -196.675765     -5351.8197
   1   1.0000     -88.737112     -2414.6596
   2   1.0000     -88.737007     -2414.6567
   3   1.0000     -88.733559     -2414.5629
   4   1.0000     -88.733543     -2414.5625
   5   1.0000     -88.732520     -2414.5346
   6   1.0000     -88.732428     -2414.5321
   7   1.0000     -88.730676     -2414.4844
   8   1.0000     -88.730495     -2414.4795
   9   1.0000     -88.641145     -2412.0482
  10   1.0000     -88.640642     -2412.0345
  11   1.0000     -88.640394     -2412.0277
  12   1.0000     -88.640156     -2412.0213
  13   1.0000     -22.051157      -600.0425
  14   1.0000     -18.891044      -514.0514
  15   1.0000     -18.557604      -504.9781
  16   1.0000     -18.552431      -504.8373
  17   1.0000     -18.552334      -504.8347
  18   1.0000     -10.090479      -274.5759
  19   1.0000     -10.089954      -274.5616
  20   1.0000     -10.078530      -274.2507
  21   1.0000     -10.076206      -274.1875
  22   1.0000     -10.064261      -273.8625
  23   1.0000     -10.064209      -273.8611
  24   1.0000     -10.051269      -273.5089
  25   1.0000     -10.050949      -273.5002
  26   1.0000     -10.048665      -273.4381
  27   1.0000     -10.040019      -273.2028
  28   1.0000     -10.019794      -272.6525
  29   1.0000     -10.019000      -272.6309
  30   1.0000     -10.018743      -272.6239
  31   1.0000     -10.017805      -272.5983
  32   1.0000      -7.790453      -211.9890
  33   1.0000      -7.790343      -211.9860
  34   1.0000      -7.787006      -211.8952
  35   1.0000      -7.786986      -211.8947
  36   1.0000      -7.785754      -211.8611
  37   1.0000      -7.785710      -211.8599
  38   1.0000      -7.783927      -211.8114
  39   1.0000      -7.783793      -211.8078
  40   1.0000      -7.695408      -209.4027
  41   1.0000      -7.694982      -209.3911
  42   1.0000      -7.694687      -209.3831
  43   1.0000      -7.694396      -209.3752
  44   1.0000      -5.755510      -156.6154
  45   1.0000      -5.755397      -156.6123
  46   1.0000      -5.751994      -156.5197
  47   1.0000      -5.751989      -156.5196
  48   1.0000      -5.751977      -156.5193
  49   1.0000      -5.751880      -156.5166
  50   1.0000      -5.750702      -156.4846
  51   1.0000      -5.750655      -156.4833
  52   1.0000      -5.748871      -156.4347
  53   1.0000      -5.748733      -156.4310
  54   1.0000      -5.748578      -156.4268
  55   1.0000      -5.748569      -156.4265
  56   1.0000      -5.746251      -156.3634
  57   1.0000      -5.746198      -156.3620
  58   1.0000      -5.745212      -156.3352
  59   1.0000      -5.745113      -156.3325
  60   1.0000      -5.744443      -156.3142
  61   1.0000      -5.744301      -156.3104
  62   1.0000      -5.741801      -156.2424
  63   1.0000      -5.741777      -156.2417
  64   1.0000      -5.741596      -156.2368
  65   1.0000      -5.741556      -156.2357
  66   1.0000      -5.739752      -156.1866
  67   1.0000      -5.739618      -156.1830
  68   1.0000      -5.660732      -154.0363
  69   1.0000      -5.660301      -154.0246
  70   1.0000      -5.659992      -154.0162
  71   1.0000      -5.659723      -154.0089
  72   1.0000      -5.654064      -153.8549
  73   1.0000      -5.653642      -153.8434
  74   1.0000      -5.653341      -153.8352
  75   1.0000      -5.653081      -153.8282
  76   1.0000      -5.652738      -153.8188
  77   1.0000      -5.652297      -153.8068
  78   1.0000      -5.652016      -153.7992
  79   1.0000      -5.651691      -153.7903
  80   1.0000      -2.444806       -66.5265
  81   1.0000      -1.486109       -40.4391
  82   1.0000      -1.474441       -40.1216
  83   1.0000      -1.473632       -40.0996
  84   1.0000      -0.716949       -19.5092
  85   1.0000      -0.709897       -19.3173
  86   1.0000      -0.694958       -18.9108
  87   1.0000      -0.686021       -18.6676
  88   1.0000      -0.650644       -17.7049
  89   1.0000      -0.643236       -17.5033
  90   1.0000      -0.631763       -17.1911
  91   1.0000      -0.617382       -16.7998
  92   1.0000      -0.611354       -16.6358
  93   1.0000      -0.581454       -15.8222
  94   1.0000      -0.576056       -15.6753
  95   1.0000      -0.574875       -15.6431
  96   1.0000      -0.573647       -15.6097
  97   1.0000      -0.511380       -13.9154
  98   1.0000      -0.496633       -13.5141
  99   1.0000      -0.496047       -13.4981
 100   1.0000      -0.488372       -13.2893
 101   1.0000      -0.478890       -13.0312
 102   1.0000      -0.472464       -12.8564
 103   1.0000      -0.463773       -12.6199
 104   1.0000      -0.446668       -12.1545
 105   1.0000      -0.419661       -11.4195
 106   1.0000      -0.412769       -11.2320
 107   1.0000      -0.359393        -9.7796
 108   1.0000      -0.355728        -9.6798
 109   1.0000      -0.326700        -8.8900
 110   1.0000      -0.320061        -8.7093
 111   1.0000      -0.315324        -8.5804
 112   1.0000      -0.310864        -8.4590
 113   1.0000      -0.304215        -8.2781
 114   1.0000      -0.299804        -8.1581
 115   1.0000      -0.292501        -7.9594
 116   1.0000      -0.284721        -7.7476
 117   1.0000      -0.259287        -7.0556
 118   1.0000      -0.257883        -7.0174
 119   1.0000      -0.256756        -6.9867
 120   1.0000      -0.255006        -6.9391
 121   1.0000      -0.245340        -6.6760
 122   1.0000      -0.235080        -6.3969
 123   1.0000      -0.230784        -6.2800
 124   1.0000      -0.223323        -6.0769
 125   1.0000      -0.218943        -5.9577
 126   1.0000      -0.215348        -5.8599
 127   1.0000      -0.214880        -5.8472
 128   1.0000      -0.213557        -5.8112
 129   1.0000      -0.194124        -5.2824
 130   1.0000      -0.187483        -5.1017
 131   1.0000      -0.186468        -5.0741
 132   1.0000      -0.185537        -5.0487
 133   1.0000      -0.179881        -4.8948
 134   1.0000      -0.160459        -4.3663
 135   1.0000      -0.151612        -4.1256
 136   1.0000      -0.146985        -3.9997
 137   1.0000      -0.136479        -3.7138
 138   1.0000      -0.135513        -3.6875
 139   1.0000      -0.134147        -3.6503
 140   1.0000      -0.126059        -3.4302
 141   1.0000      -0.122128        -3.3233
 142   1.0000      -0.114318        -3.1107
 143   1.0000      -0.110655        -3.0111
 144   1.0000      -0.101111        -2.7514
 145   1.0000      -0.099142        -2.6978
 146   1.0000      -0.098962        -2.6929
 147   1.0000      -0.095582        -2.6009
 148   1.0000      -0.075437        -2.0528
 149   1.0000      -0.070091        -1.9073
 150   1.0000      -0.067837        -1.8459
 151   1.0000      -0.053177        -1.4470
 152   1.0000      -0.046494        -1.2652
 153   1.0000      -0.038885        -1.0581
 154   1.0000      -0.038018        -1.0345
 155   1.0000      -0.032350        -0.8803
 156   1.0000      -0.025957        -0.7063
 157   1.0000      -0.020003        -0.5443
 158   1.0000      -0.016263        -0.4425
 159   1.0000       0.019372         0.5271
 160   1.0000       0.040270         1.0958
 161   0.0000       0.128423         3.4946
 162   0.0000       0.136498         3.7143
 163   0.0000       0.143415         3.9025
 164   0.0000       0.161458         4.3935
 165   0.0000       0.165367         4.4999

                 SPIN DOWN ORBITALS
  NO   OCC          E(Eh)            E(eV)
   0   1.0000    -196.675912     -5351.8237
   1   1.0000     -88.737112     -2414.6596
   2   1.0000     -88.737008     -2414.6567
   3   1.0000     -88.733560     -2414.5629
   4   1.0000     -88.733543     -2414.5625
   5   1.0000     -88.732528     -2414.5348
   6   1.0000     -88.732436     -2414.5323
   7   1.0000     -88.730684     -2414.4847
   8   1.0000     -88.730504     -2414.4798
   9   1.0000     -88.641281     -2412.0519
  10   1.0000     -88.640780     -2412.0382
  11   1.0000     -88.640534     -2412.0316
  12   1.0000     -88.640297     -2412.0251
  13   1.0000     -22.036223      -599.6361
  14   1.0000     -18.894839      -514.1547
  15   1.0000     -18.552333      -504.8346
  16   1.0000     -18.536398      -504.4010
  17   1.0000     -18.536216      -504.3961
  18   1.0000     -10.090480      -274.5759
  19   1.0000     -10.089955      -274.5616
  20   1.0000     -10.078529      -274.2507
  21   1.0000     -10.076201      -274.1874
  22   1.0000     -10.064261      -273.8625
  23   1.0000     -10.064208      -273.8610
  24   1.0000     -10.051269      -273.5089
  25   1.0000     -10.050945      -273.5001
  26   1.0000     -10.048654      -273.4378
  27   1.0000     -10.040019      -273.2028
  28   1.0000     -10.019580      -272.6466
  29   1.0000     -10.018788      -272.6251
  30   1.0000     -10.018505      -272.6174
  31   1.0000     -10.017581      -272.5923
  32   1.0000      -7.790454      -211.9890
  33   1.0000      -7.790344      -211.9860
  34   1.0000      -7.787006      -211.8952
  35   1.0000      -7.786987      -211.8947
  36   1.0000      -7.785764      -211.8614
  37   1.0000      -7.785719      -211.8602
  38   1.0000      -7.783937      -211.8117
  39   1.0000      -7.783802      -211.8080
  40   1.0000      -7.695535      -209.4062
  41   1.0000      -7.695111      -209.3946
  42   1.0000      -7.694818      -209.3866
  43   1.0000      -7.694528      -209.3788
  44   1.0000      -5.755511      -156.6154
  45   1.0000      -5.755398      -156.6123
  46   1.0000      -5.751995      -156.5197
  47   1.0000      -5.751989      -156.5196
  48   1.0000      -5.751978      -156.5193
  49   1.0000      -5.751881      -156.5166
  50   1.0000      -5.750713      -156.4848
  51   1.0000      -5.750665      -156.4836
  52   1.0000      -5.748882      -156.4350
  53   1.0000      -5.748743      -156.4313
  54   1.0000      -5.748580      -156.4268
  55   1.0000      -5.748570      -156.4265
  56   1.0000      -5.746266      -156.3638
  57   1.0000      -5.746212      -156.3624
  58   1.0000      -5.745213      -156.3352
  59   1.0000      -5.745113      -156.3325
  60   1.0000      -5.744457      -156.3146
  61   1.0000      -5.744314      -156.3107
  62   1.0000      -5.741802      -156.2424
  63   1.0000      -5.741777      -156.2417
  64   1.0000      -5.741602      -156.2369
  65   1.0000      -5.741562      -156.2358
  66   1.0000      -5.739760      -156.1868
  67   1.0000      -5.739627      -156.1832
  68   1.0000      -5.660874      -154.0402
  69   1.0000      -5.660442      -154.0285
  70   1.0000      -5.660131      -154.0200
  71   1.0000      -5.659865      -154.0128
  72   1.0000      -5.654413      -153.8644
  73   1.0000      -5.654000      -153.8532
  74   1.0000      -5.653730      -153.8458
  75   1.0000      -5.653465      -153.8386
  76   1.0000      -5.652843      -153.8217
  77   1.0000      -5.652402      -153.8097
  78   1.0000      -5.652103      -153.8015
  79   1.0000      -5.651785      -153.7929
  80   1.0000      -2.399913       -65.3050
  81   1.0000      -1.466799       -39.9136
  82   1.0000      -1.412066       -38.4243
  83   1.0000      -1.411902       -38.4198
  84   1.0000      -0.716943       -19.5090
  85   1.0000      -0.709870       -19.3166
  86   1.0000      -0.694915       -18.9096
  87   1.0000      -0.685965       -18.6661
  88   1.0000      -0.658771       -17.9261
  89   1.0000      -0.643198       -17.5023
  90   1.0000      -0.631687       -17.1891
  91   1.0000      -0.617382       -16.7998
  92   1.0000      -0.611356       -16.6358
  93   1.0000      -0.581378       -15.8201
  94   1.0000      -0.576033       -15.6746
  95   1.0000      -0.574845       -15.6423
  96   1.0000      -0.573563       -15.6074
  97   1.0000      -0.511391       -13.9157
  98   1.0000      -0.496652       -13.5146
  99   1.0000      -0.496095       -13.4994
 100   1.0000      -0.488540       -13.2938
 101   1.0000      -0.479109       -13.0372
 102   1.0000      -0.472560       -12.8590
 103   1.0000      -0.463808       -12.6208
 104   1.0000      -0.446700       -12.1553
 105   1.0000      -0.419677       -11.4200
 106   1.0000      -0.412871       -11.2348
 107   1.0000      -0.359385        -9.7794
 108   1.0000      -0.355718        -9.6796
 109   1.0000      -0.326685        -8.8896
 110   1.0000      -0.319982        -8.7071
 111   1.0000      -0.315351        -8.5811
 112   1.0000      -0.310837        -8.4583
 113   1.0000      -0.304173        -8.2770
 114   1.0000      -0.299780        -8.1574
 115   1.0000      -0.292496        -7.9592
 116   1.0000      -0.284719        -7.7476
 117   1.0000      -0.259199        -7.0532
 118   1.0000      -0.257803        -7.0152
 119   1.0000      -0.256690        -6.9849
 120   1.0000      -0.254951        -6.9376
 121   1.0000      -0.245277        -6.6743
 122   1.0000      -0.235058        -6.3962
 123   1.0000      -0.230745        -6.2789
 124   1.0000      -0.223113        -6.0712
 125   1.0000      -0.218707        -5.9513
 126   1.0000      -0.215329        -5.8594
 127   1.0000      -0.214608        -5.8398
 128   1.0000      -0.213462        -5.8086
 129   1.0000      -0.192343        -5.2339
 130   1.0000      -0.187420        -5.0999
 131   1.0000      -0.186168        -5.0659
 132   1.0000      -0.185286        -5.0419
 133   1.0000      -0.179763        -4.8916
 134   1.0000      -0.159836        -4.3494
 135   1.0000      -0.151446        -4.1211
 136   1.0000      -0.146915        -3.9978
 137   1.0000      -0.135655        -3.6914
 138   1.0000      -0.135377        -3.6838
 139   1.0000      -0.133925        -3.6443
 140   1.0000      -0.125457        -3.4139
 141   1.0000      -0.121793        -3.3142
 142   1.0000      -0.116124        -3.1599
 143   1.0000      -0.112237        -3.0541
 144   1.0000      -0.101158        -2.7526
 145   1.0000      -0.099268        -2.7012
 146   1.0000      -0.099118        -2.6971
 147   1.0000      -0.095907        -2.6098
 148   1.0000      -0.071592        -1.9481
 149   1.0000      -0.070079        -1.9070
 150   1.0000      -0.067840        -1.8460
 151   1.0000      -0.050577        -1.3763
 152   1.0000      -0.045556        -1.2397
 153   1.0000      -0.038920        -1.0591
 154   1.0000      -0.037464        -1.0194
 155   1.0000      -0.032416        -0.8821
 156   1.0000      -0.026991        -0.7345
 157   1.0000      -0.016479        -0.4484
 158   1.0000       0.019678         0.5355
 159   1.0000       0.039157         1.0655
 160   0.0000       0.128423         3.4946
 161   0.0000       0.136506         3.7145
 162   0.0000       0.143284         3.8990
 163   0.0000       0.155548         4.2327
 164   0.0000       0.162132         4.4118

MULLIKEN ATOMIC CHARGES AND SPIN POPULATIONS
--------------------------------------------
   0 V :    0.470866    1.210830
   1 S :   -0.289163   -0.022305
   2 S :   -0.289487   -0.025315
   3 S :   -0.287284   -0.023237
   4 S :   -0.285253   -0.025798
   5 O :   -0.467337   -0.146942
   6 C :   -0.077316    0.009707
   7 C :   -0.084230    0.008080
   8 C :   -0.084211    0.007732
   9 C :   -0.085042    0.007366
  10 S :    0.099862   -0.000586
  11 S :    0.101134   -0.000631
  12 S :    0.102718   -0.000391
  13 S :    0.101833   -0.000346
  14 C :   -0.213037    0.001542
  15 C :   -0.193520    0.000992
  16 C :   -0.192337   -0.000095
  17 C :   -0.226009   -0.000402
  18 S :    0.009318   -0.000112
  19 S :    0.009655   -0.000112
  20 S :    0.022364   -0.000070
  21 S :    0.022039   -0.000073
  22 C :   -0.278892    0.000002
  23 C :   -0.277580    0.000002
  24 C :   -0.229885   -0.000023
  25 H :    0.140563   -0.000002
  26 H :    0.067206   -0.000002
  27 H :    0.033170   -0.000001
  28 H :    0.246606    0.000004
  29 H :    0.066214   -0.000002
  30 H :    0.139512   -0.000002
  31 C :   -0.299780    0.000194
  32 C :   -0.299708    0.000189
  33 C :   -0.158162   -0.000239
  34 H :    0.141701   -0.000017
  35 H :    0.112809    0.000020
  36 H :    0.094105    0.000024
  37 H :    0.081853    0.000015
  38 H :    0.112746    0.000021
  39 H :    0.141956   -0.000018
Sum of atomic charges         :   -2.0000000

LOEWDIN ATOMIC CHARGES AND SPIN POPULATIONS
-------------------------------------------
   0 V :   -0.155795    1.164170
   1 S :    0.080992   -0.014357
   2 S :    0.079588   -0.016158
   3 S :    0.082291   -0.015147
   4 S :    0.083486   -0.016388
   5 O :   -0.318690   -0.131836
   6 C :   -0.549883    0.009058
   7 C :   -0.552049    0.007965
   8 C :   -0.551893    0.008134
   9 C :   -0.551891    0.007669
  10 S :    0.471412   -0.000901
  11 S :    0.472362   -0.000950
  12 S :    0.473958   -0.000824
  13 S :    0.473204   -0.000831
  14 C :   -0.465017    0.000164
  15 C :   -0.464339   -0.000080
  16 C :   -0.622626    0.000471
  17 C :   -0.625353    0.000084
  18 S :    0.358874   -0.000089
  19 S :    0.360263   -0.000087
  20 S :    0.364119   -0.000074
  21 S :    0.363632   -0.000076
  22 C :   -0.291061   -0.000007
  23 C :   -0.291600   -0.000008
  24 C :   -0.068587   -0.000001
  25 H :    0.072698   -0.000001
  26 H :    0.066923   -0.000001
  27 H :    0.076107   -0.000003
  28 H :   -0.116072    0.000000
  29 H :    0.066754   -0.000002
  30 H :    0.072915   -0.000002
  31 C :   -0.284584    0.000043
  32 C :   -0.284242    0.000036
  33 C :   -0.176247    0.000007
  34 H :    0.062271   -0.000001
  35 H :    0.054075    0.000008
  36 H :    0.059397    0.000004
  37 H :    0.058256    0.000002
  38 H :    0.054162    0.000009
  39 H :    0.062188   -0.000000

  Mayer bond orders larger than 0.100000
B(  0-V ,  1-S ) :   0.7701 B(  0-V ,  2-S ) :   0.7724 B(  0-V ,  3-S ) :   0.7635
B(  0-V ,  4-S ) :   0.7797 B(  0-V ,  5-O ) :   2.1490 B(  1-S ,  8-C ) :   1.1056
B(  2-S ,  6-C ) :   1.1040 B(  3-S ,  9-C ) :   1.1085 B(  4-S ,  7-C ) :   1.1044
B(  6-C ,  7-C ) :   1.6844 B(  6-C , 10-S ) :   0.9352 B(  7-C , 11-S ) :   0.9390
B(  8-C ,  9-C ) :   1.6946 B(  8-C , 13-S ) :   0.9345 B(  9-C , 12-S ) :   0.9364
B( 10-S , 14-C ) :   1.2483 B( 11-S , 14-C ) :   1.2482 B( 12-S , 15-C ) :   1.2482
B( 13-S , 15-C ) :   1.2483 B( 14-C , 16-C ) :   1.4513 B( 15-C , 17-C ) :   1.4299
B( 16-C , 18-S ) :   1.0884 B( 16-C , 19-S ) :   1.0897 B( 17-C , 20-S ) :   1.1000
B( 17-C , 21-S ) :   1.1010 B( 18-S , 32-C ) :   0.9918 B( 19-S , 31-C ) :   0.9919
B( 20-S , 23-C ) :   0.9933 B( 21-S , 22-C ) :   0.9925 B( 22-C , 24-C ) :   0.8788
B( 22-C , 25-H ) :   0.9569 B( 22-C , 26-H ) :   0.9487 B( 23-C , 24-C ) :   0.8793
B( 23-C , 29-H ) :   0.9484 B( 23-C , 30-H ) :   0.9564 B( 24-C , 27-H ) :   0.9397
B( 24-C , 28-H ) :   0.9770 B( 31-C , 33-C ) :   0.9132 B( 31-C , 38-H ) :   0.9654
B( 31-C , 39-H ) :   0.9657 B( 32-C , 33-C ) :   0.9132 B( 32-C , 34-H ) :   0.9655
B( 32-C , 35-H ) :   0.9653 B( 33-C , 36-H ) :   0.9724 B( 33-C , 37-H ) :   0.9622

FINAL SINGLE POINT ENERGY     -6337.363503522138

DIPOLE MOMENT
-------------
                                X             Y             Z
Electronic contribution:     -2.08873     -12.52902      -6.48801
Nuclear contribution   :      2.19164      13.62745       7.33382
                        -----------------------------------------
Total Dipole Moment    :      0.10291       1.09843       0.84581
                        -----------------------------------------
Magnitude (a.u.)       :      1.39016
Magnitude (Debye)      :      3.53350

Rotational constants in cm-1:     0.010756     0.000804     0.000783
Rotational constants in MHz :   322.465033    24.115752    23.486104

                             ****ORCA TERMINATED NORMALLY****
TOTAL RUN TIME: 0 days 1 hours 2 minutes 2 seconds 922 msec
