                         Program Version 5.0.4 -  RELEASE  -
|  1> ! nofrozencore ReducedPop printbasis
|  2> ! B3LYP TZVP
|  3>
|  4> %basis
|  5> newgto V "CP(PPP)" end
|  6> end
|  7>
|  8> %pal
|  9> nprocs 6
| 10> end
| 11>
| 12> % sym SymThresh 1e-2 end
| 13> * xyz -2 2
| 14> V -0.561581263622719 0.47742751876385103 0.8349707140366677
| 15> S -1.0125238151138114 -1.919058342357886 1.275943713968988
| 16> S 1.7125768547753415 0.016482379106139925 1.6431596302760116
| 17> S -2.2079144673217317 0.2665365129669307 -1.002322256594066
| 18> S 0.5165794950846411 2.1087356318840986 -0.6972847446893328
| 19> O -1.2673776044238474 1.3164754710637816 1.9848282445607892
| 20> C 2.5332759274230914 1.4697833579281754 1.0842446457774422
| 21> C 2.049213362241441 2.2974566816672044 0.13902035826756828
| 22> C -2.386223567510937 -2.197474011292718 0.21438433389001893
| 23> C -2.864197936337182 -1.334886666595188 -0.7013069991681343
| 24> S 4.172372301873276 1.8655385941948284 1.7231719059102262
| 25> S 3.0928654394602897 3.6678241049101064 -0.3397206487961599
| 26> S -4.253855775305103 -1.91342875448409 -1.6923167288737295
| 27> S -3.193734620996622 -3.792989368678997 0.3115546677577803
| 28> C 4.456993875073006 3.2925419970299203 0.7241113210204115
| 29> C -4.352940204541793 -3.5326949478333827 -1.0044132897458764
| 30> C 5.597894948631679 4.04683970367379 0.7612522471056209
| 31> C -5.234809988255119 -4.487534942410435 -1.4297757164110771
| 32> S 6.920276529781289 3.743612102555708 1.914991204835847
| 33> S 5.815972708430514 5.435214691169049 -0.3425906302929963
| 34> S -5.302992103829304 -6.0838731029062325 -0.6367172017529713
| 35> S -6.340528260083694 -4.243306721798337 -2.808821198536332
| 36> C -5.736444703531005 -5.401160939017306 -4.1099919413183486
| 37> C -4.899112176680636 -6.9649587225727085 -2.2403315236671677
| 38> C -5.786929034517297 -6.787261553496153 -3.495764175245186
| 39> H -4.739301118508385 -5.12102111157016 -4.464192570383459
| 40> H -6.44942223786836 -5.294845086176098 -4.937536182455263
| 41> H -5.436400541120315 -7.541525184025189 -4.222545615230413
| 42> H -6.829102308945951 -7.023263227455654 -3.2549528148861446
| 43> H -4.86864158815263 -8.032559476015406 -1.9906658952912526
| 44> H -3.879148111818516 -6.6523590894622355 -2.4851015825921485
| 45> C 6.016278757202303 6.614945385481228 1.1012515017228754
| 46> C 6.922866827500643 5.195309749361052 3.051970472819019
| 47> C 7.121486456407623 6.409485351546838 2.1662764916564283
| 48> H 6.009565031786888 5.241843505148904 3.6547975718584587
| 49> H 7.780686536095806 5.030105083545608 3.71789938150336
| 50> H 8.100517837572593 6.329180985549994 1.6813594771879172
| 51> H 7.127411419653979 7.332725691458827 2.773690165024688
| 52> H 6.154519401861209 7.6080366502253 0.6543841428362458
| 53> H 5.042802130309204 6.6098723052876025 1.6027436649379985
| 54> *
| 55>
| 56> % eprnmr
| 57> gtensor true
| 58> Nuclei = all H {aiso,adip,aorb,fgrad,rho}
| 59> Nuclei = all V {aiso,adip,aorb,fgrad,rho}
| 60> end
| 61>
| 62>                          ****END OF INPUT****

CARTESIAN COORDINATES (ANGSTROEM)
---------------------------------
  V     -0.558236    0.477307    0.833102
  S     -1.009179   -1.919179    1.274075
  S      1.715922    0.016362    1.641291
  S     -2.204569    0.266416   -1.004191
  S      0.519925    2.108615   -0.699153
  O     -1.264032    1.316355    1.982960
  C      2.536621    1.469663    1.082376
  C      2.052559    2.297336    0.137152
  C     -2.382878   -2.197595    0.212516
  C     -2.860853   -1.335007   -0.703176
  S      4.175718    1.865418    1.721303
  S      3.096211    3.667703   -0.341589
  S     -4.250510   -1.913550   -1.694185
  S     -3.190389   -3.793110    0.309686
  C      4.460339    3.292421    0.722243
  C     -4.349595   -3.532816   -1.006282
  C      5.601240    4.046719    0.759384
  C     -5.231465   -4.487656   -1.431644
  S      6.923622    3.743491    1.913122
  S      5.819318    5.435094   -0.344459
  S     -5.299647   -6.083994   -0.638586
  S     -6.337183   -4.243428   -2.810690
  C     -5.733099   -5.401282   -4.111861
  C     -4.895767   -6.965080   -2.242200
  C     -5.783584   -6.787382   -3.497633
  H     -4.735956   -5.121142   -4.466061
  H     -6.446077   -5.294966   -4.939405
  H     -5.433055   -7.541646   -4.224414
  H     -6.825757   -7.023384   -3.256822
  H     -4.865296   -8.032680   -1.992535
  H     -3.875803   -6.652480   -2.486970
  C      6.019624    6.614825    1.099383
  C      6.926212    5.195189    3.050102
  C      7.124832    6.409365    2.164408
  H      6.012910    5.241723    3.652929
  H      7.784032    5.029984    3.716031
  H      8.103863    6.329060    1.679491
  H      7.130757    7.332605    2.771821
  H      6.157865    7.607916    0.652515
  H      5.046147    6.609752    1.600875

 Total Charge           Charge          ....   -2
 Multiplicity           Mult            ....    2
 Number of Electrons    NEL             ....  321
 Basis Dimension        Dim             ....  681

ORBITAL ENERGIES
----------------
                 SPIN UP ORBITALS
  NO   OCC          E(Eh)            E(eV)
   0   1.0000    -196.674815     -5351.7938
   1   1.0000     -88.736177     -2414.6341
   2   1.0000     -88.735663     -2414.6201
   3   1.0000     -88.731279     -2414.5008
   4   1.0000     -88.730973     -2414.4925
   5   1.0000     -88.730326     -2414.4749
   6   1.0000     -88.730122     -2414.4694
   7   1.0000     -88.730103     -2414.4689
   8   1.0000     -88.729665     -2414.4569
   9   1.0000     -88.639977     -2412.0164
  10   1.0000     -88.639793     -2412.0114
  11   1.0000     -88.639542     -2412.0046
  12   1.0000     -88.638837     -2411.9854
  13   1.0000     -22.050200      -600.0164
  14   1.0000     -18.890103      -514.0258
  15   1.0000     -18.556649      -504.9521
  16   1.0000     -18.551473      -504.8113
  17   1.0000     -18.551376      -504.8086
  18   1.0000     -10.075472      -274.1675
  19   1.0000     -10.075340      -274.1640
  20   1.0000     -10.065047      -273.8838
  21   1.0000     -10.064688      -273.8741
  22   1.0000     -10.064545      -273.8702
  23   1.0000     -10.064041      -273.8565
  24   1.0000     -10.052888      -273.5530
  25   1.0000     -10.052545      -273.5437
  26   1.0000     -10.048860      -273.4434
  27   1.0000     -10.048814      -273.4421
  28   1.0000     -10.018482      -272.6168
  29   1.0000     -10.017924      -272.6016
  30   1.0000     -10.017184      -272.5814
  31   1.0000     -10.016865      -272.5728
  32   1.0000      -7.789106      -211.9524
  33   1.0000      -7.788688      -211.9410
  34   1.0000      -7.784938      -211.8389
  35   1.0000      -7.784688      -211.8321
  36   1.0000      -7.783483      -211.7994
  37   1.0000      -7.783469      -211.7990
  38   1.0000      -7.783373      -211.7963
  39   1.0000      -7.782936      -211.7845
  40   1.0000      -7.694255      -209.3713
  41   1.0000      -7.694086      -209.3667
  42   1.0000      -7.693770      -209.3581
  43   1.0000      -7.693157      -209.3415
  44   1.0000      -5.754009      -156.5745
  45   1.0000      -5.753600      -156.5634
  46   1.0000      -5.750921      -156.4905
  47   1.0000      -5.750468      -156.4782
  48   1.0000      -5.750018      -156.4660
  49   1.0000      -5.749770      -156.4592
  50   1.0000      -5.748416      -156.4223
  51   1.0000      -5.748411      -156.4222
  52   1.0000      -5.748347      -156.4205
  53   1.0000      -5.747850      -156.4070
  54   1.0000      -5.746335      -156.3657
  55   1.0000      -5.746071      -156.3585
  56   1.0000      -5.744038      -156.3032
  57   1.0000      -5.743930      -156.3003
  58   1.0000      -5.743868      -156.2986
  59   1.0000      -5.743854      -156.2982
  60   1.0000      -5.743492      -156.2884
  61   1.0000      -5.743463      -156.2876
  62   1.0000      -5.739744      -156.1864
  63   1.0000      -5.739489      -156.1794
  64   1.0000      -5.739333      -156.1752
  65   1.0000      -5.739292      -156.1741
  66   1.0000      -5.739204      -156.1717
  67   1.0000      -5.738751      -156.1593
  68   1.0000      -5.659552      -154.0042
  69   1.0000      -5.659422      -154.0007
  70   1.0000      -5.659088      -153.9916
  71   1.0000      -5.658475      -153.9749
  72   1.0000      -5.652930      -153.8241
  73   1.0000      -5.652728      -153.8186
  74   1.0000      -5.652455      -153.8111
  75   1.0000      -5.651828      -153.7941
  76   1.0000      -5.651573      -153.7871
  77   1.0000      -5.651410      -153.7827
  78   1.0000      -5.651072      -153.7735
  79   1.0000      -5.650464      -153.7569
  80   1.0000      -2.443843       -66.5003
  81   1.0000      -1.485141       -40.4127
  82   1.0000      -1.473465       -40.0950
  83   1.0000      -1.472669       -40.0734
  84   1.0000      -0.709481       -19.3060
  85   1.0000      -0.709360       -19.3027
  86   1.0000      -0.685889       -18.6640
  87   1.0000      -0.685552       -18.6548
  88   1.0000      -0.649695       -17.6791
  89   1.0000      -0.632676       -17.2160
  90   1.0000      -0.632407       -17.2087
  91   1.0000      -0.613722       -16.7002
  92   1.0000      -0.613570       -16.6961
  93   1.0000      -0.574519       -15.6335
  94   1.0000      -0.574360       -15.6291
  95   1.0000      -0.572747       -15.5852
  96   1.0000      -0.571782       -15.5590
  97   1.0000      -0.497549       -13.5390
  98   1.0000      -0.497138       -13.5278
  99   1.0000      -0.494356       -13.4521
 100   1.0000      -0.493440       -13.4272
 101   1.0000      -0.479791       -13.0558
 102   1.0000      -0.477174       -12.9846
 103   1.0000      -0.446325       -12.1451
 104   1.0000      -0.444226       -12.0880
 105   1.0000      -0.416419       -11.3313
 106   1.0000      -0.411179       -11.1887
 107   1.0000      -0.354721        -9.6525
 108   1.0000      -0.354525        -9.6471
 109   1.0000      -0.328568        -8.9408
 110   1.0000      -0.328021        -8.9259
 111   1.0000      -0.317659        -8.6439
 112   1.0000      -0.313545        -8.5320
 113   1.0000      -0.305621        -8.3164
 114   1.0000      -0.305121        -8.3028
 115   1.0000      -0.288302        -7.8451
 116   1.0000      -0.288098        -7.8395
 117   1.0000      -0.260988        -7.1018
 118   1.0000      -0.259386        -7.0583
 119   1.0000      -0.256082        -6.9683
 120   1.0000      -0.254521        -6.9259
 121   1.0000      -0.238660        -6.4943
 122   1.0000      -0.238253        -6.4832
 123   1.0000      -0.223857        -6.0915
 124   1.0000      -0.222488        -6.0542
 125   1.0000      -0.217573        -5.9205
 126   1.0000      -0.216749        -5.8980
 127   1.0000      -0.213580        -5.8118
 128   1.0000      -0.211220        -5.7476
 129   1.0000      -0.193279        -5.2594
 130   1.0000      -0.188436        -5.1276
 131   1.0000      -0.186646        -5.0789
 132   1.0000      -0.181497        -4.9388
 133   1.0000      -0.177035        -4.8174
 134   1.0000      -0.159527        -4.3409
 135   1.0000      -0.152677        -4.1546
 136   1.0000      -0.148389        -4.0379
 137   1.0000      -0.134019        -3.6469
 138   1.0000      -0.132732        -3.6118
 139   1.0000      -0.132265        -3.5991
 140   1.0000      -0.124629        -3.3913
 141   1.0000      -0.120832        -3.2880
 142   1.0000      -0.113360        -3.0847
 143   1.0000      -0.109306        -2.9744
 144   1.0000      -0.099551        -2.7089
 145   1.0000      -0.097994        -2.6666
 146   1.0000      -0.096699        -2.6313
 147   1.0000      -0.094190        -2.5630
 148   1.0000      -0.074249        -2.0204
 149   1.0000      -0.068610        -1.8670
 150   1.0000      -0.068049        -1.8517
 151   1.0000      -0.052258        -1.4220
 152   1.0000      -0.045249        -1.2313
 153   1.0000      -0.037359        -1.0166
 154   1.0000      -0.036299        -0.9877
 155   1.0000      -0.030495        -0.8298
 156   1.0000      -0.024721        -0.6727
 157   1.0000      -0.018958        -0.5159
 158   1.0000      -0.015298        -0.4163
 159   1.0000       0.020640         0.5616
 160   1.0000       0.041414         1.1269
 161   0.0000       0.136310         3.7092
 162   0.0000       0.137203         3.7335
 163   0.0000       0.154652         4.2083
 164   0.0000       0.155077         4.2198
 165   0.0000       0.166626         4.5341

                 SPIN DOWN ORBITALS
  NO   OCC          E(Eh)            E(eV)
   0   1.0000    -196.674962     -5351.7978
   1   1.0000     -88.736178     -2414.6342
   2   1.0000     -88.735663     -2414.6202
   3   1.0000     -88.731279     -2414.5009
   4   1.0000     -88.730973     -2414.4925
   5   1.0000     -88.730334     -2414.4751
   6   1.0000     -88.730130     -2414.4696
   7   1.0000     -88.730112     -2414.4691
   8   1.0000     -88.729673     -2414.4572
   9   1.0000     -88.640115     -2412.0202
  10   1.0000     -88.639933     -2412.0152
  11   1.0000     -88.639684     -2412.0084
  12   1.0000     -88.638976     -2411.9892
  13   1.0000     -22.035265      -599.6100
  14   1.0000     -18.893885      -514.1288
  15   1.0000     -18.551381      -504.8088
  16   1.0000     -18.535434      -504.3748
  17   1.0000     -18.535257      -504.3700
  18   1.0000     -10.075466      -274.1674
  19   1.0000     -10.075340      -274.1639
  20   1.0000     -10.065045      -273.8838
  21   1.0000     -10.064688      -273.8741
  22   1.0000     -10.064544      -273.8702
  23   1.0000     -10.064041      -273.8565
  24   1.0000     -10.052887      -273.5530
  25   1.0000     -10.052545      -273.5437
  26   1.0000     -10.048848      -273.4431
  27   1.0000     -10.048810      -273.4420
  28   1.0000     -10.018225      -272.6098
  29   1.0000     -10.017717      -272.5959
  30   1.0000     -10.016978      -272.5758
  31   1.0000     -10.016651      -272.5669
  32   1.0000      -7.789107      -211.9524
  33   1.0000      -7.788689      -211.9410
  34   1.0000      -7.784939      -211.8390
  35   1.0000      -7.784688      -211.8321
  36   1.0000      -7.783493      -211.7996
  37   1.0000      -7.783479      -211.7992
  38   1.0000      -7.783382      -211.7966
  39   1.0000      -7.782946      -211.7847
  40   1.0000      -7.694384      -209.3748
  41   1.0000      -7.694216      -209.3703
  42   1.0000      -7.693903      -209.3617
  43   1.0000      -7.693287      -209.3450
  44   1.0000      -5.754010      -156.5746
  45   1.0000      -5.753601      -156.5634
  46   1.0000      -5.750922      -156.4905
  47   1.0000      -5.750469      -156.4782
  48   1.0000      -5.750019      -156.4660
  49   1.0000      -5.749771      -156.4592
  50   1.0000      -5.748426      -156.4226
  51   1.0000      -5.748421      -156.4225
  52   1.0000      -5.748357      -156.4208
  53   1.0000      -5.747862      -156.4073
  54   1.0000      -5.746336      -156.3657
  55   1.0000      -5.746072      -156.3586
  56   1.0000      -5.744052      -156.3036
  57   1.0000      -5.743944      -156.3007
  58   1.0000      -5.743868      -156.2986
  59   1.0000      -5.743868      -156.2986
  60   1.0000      -5.743507      -156.2888
  61   1.0000      -5.743464      -156.2876
  62   1.0000      -5.739745      -156.1864
  63   1.0000      -5.739490      -156.1795
  64   1.0000      -5.739343      -156.1755
  65   1.0000      -5.739299      -156.1743
  66   1.0000      -5.739210      -156.1718
  67   1.0000      -5.738757      -156.1595
  68   1.0000      -5.659694      -154.0081
  69   1.0000      -5.659566      -154.0046
  70   1.0000      -5.659224      -153.9953
  71   1.0000      -5.658617      -153.9788
  72   1.0000      -5.653284      -153.8337
  73   1.0000      -5.653103      -153.8288
  74   1.0000      -5.652849      -153.8218
  75   1.0000      -5.652188      -153.8039
  76   1.0000      -5.651680      -153.7900
  77   1.0000      -5.651501      -153.7852
  78   1.0000      -5.651163      -153.7760
  79   1.0000      -5.650570      -153.7598
  80   1.0000      -2.398949       -65.2787
  81   1.0000      -1.465844       -39.8876
  82   1.0000      -1.411087       -38.3976
  83   1.0000      -1.410924       -38.3932
  84   1.0000      -0.709455       -19.3053
  85   1.0000      -0.709346       -19.3023
  86   1.0000      -0.685833       -18.6625
  87   1.0000      -0.685510       -18.6537
  88   1.0000      -0.657806       -17.8998
  89   1.0000      -0.632612       -17.2143
  90   1.0000      -0.632352       -17.2072
  91   1.0000      -0.613717       -16.7001
  92   1.0000      -0.613562       -16.6959
  93   1.0000      -0.574492       -15.6327
  94   1.0000      -0.574335       -15.6284
  95   1.0000      -0.572667       -15.5831
  96   1.0000      -0.571716       -15.5572
  97   1.0000      -0.497578       -13.5398
  98   1.0000      -0.497170       -13.5287
  99   1.0000      -0.494388       -13.4530
 100   1.0000      -0.493480       -13.4283
 101   1.0000      -0.479985       -13.0611
 102   1.0000      -0.477429       -12.9915
 103   1.0000      -0.446343       -12.1456
 104   1.0000      -0.444272       -12.0893
 105   1.0000      -0.416418       -11.3313
 106   1.0000      -0.411291       -11.1918
 107   1.0000      -0.354711        -9.6522
 108   1.0000      -0.354520        -9.6470
 109   1.0000      -0.328558        -8.9405
 110   1.0000      -0.328014        -8.9257
 111   1.0000      -0.317580        -8.6418
 112   1.0000      -0.313556        -8.5323
 113   1.0000      -0.305582        -8.3153
 114   1.0000      -0.305095        -8.3021
 115   1.0000      -0.288296        -7.8449
 116   1.0000      -0.288089        -7.8393
 117   1.0000      -0.260850        -7.0981
 118   1.0000      -0.259342        -7.0571
 119   1.0000      -0.256021        -6.9667
 120   1.0000      -0.254483        -6.9248
 121   1.0000      -0.238647        -6.4939
 122   1.0000      -0.238249        -6.4831
 123   1.0000      -0.223515        -6.0822
 124   1.0000      -0.222363        -6.0508
 125   1.0000      -0.217490        -5.9182
 126   1.0000      -0.216635        -5.8949
 127   1.0000      -0.213389        -5.8066
 128   1.0000      -0.211085        -5.7439
 129   1.0000      -0.191767        -5.2182
 130   1.0000      -0.188334        -5.1248
 131   1.0000      -0.186113        -5.0644
 132   1.0000      -0.181299        -4.9334
 133   1.0000      -0.176928        -4.8144
 134   1.0000      -0.158910        -4.3242
 135   1.0000      -0.152484        -4.1493
 136   1.0000      -0.148293        -4.0353
 137   1.0000      -0.133152        -3.6233
 138   1.0000      -0.132487        -3.6052
 139   1.0000      -0.132089        -3.5943
 140   1.0000      -0.124170        -3.3788
 141   1.0000      -0.120516        -3.2794
 142   1.0000      -0.115148        -3.1333
 143   1.0000      -0.110891        -3.0175
 144   1.0000      -0.099536        -2.7085
 145   1.0000      -0.098316        -2.6753
 146   1.0000      -0.096682        -2.6309
 147   1.0000      -0.094499        -2.5714
 148   1.0000      -0.070433        -1.9166
 149   1.0000      -0.068592        -1.8665
 150   1.0000      -0.068052        -1.8518
 151   1.0000      -0.049684        -1.3520
 152   1.0000      -0.044309        -1.2057
 153   1.0000      -0.037048        -1.0081
 154   1.0000      -0.036046        -0.9809
 155   1.0000      -0.030526        -0.8307
 156   1.0000      -0.025790        -0.7018
 157   1.0000      -0.015481        -0.4213
 158   1.0000       0.020925         0.5694
 159   1.0000       0.040326         1.0973
 160   0.0000       0.136329         3.7097
 161   0.0000       0.137204         3.7335
 162   0.0000       0.152934         4.1615
 163   0.0000       0.154960         4.2167
 164   0.0000       0.159350         4.3361

MULLIKEN ATOMIC CHARGES AND SPIN POPULATIONS
--------------------------------------------
   0 V :    0.472343    1.210749
   1 S :   -0.293613   -0.022514
   2 S :   -0.286415   -0.024712
   3 S :   -0.287568   -0.023461
   4 S :   -0.287993   -0.026109
   5 O :   -0.467762   -0.146657
   6 C :   -0.067398    0.010536
   7 C :   -0.095393    0.007269
   8 C :   -0.092751    0.007558
   9 C :   -0.076437    0.007443
  10 S :    0.101949   -0.000498
  11 S :    0.100172   -0.000697
  12 S :    0.102832   -0.000455
  13 S :    0.096654   -0.000283
  14 C :   -0.202106    0.001461
  15 C :   -0.202032    0.000951
  16 C :   -0.192628   -0.000028
  17 C :   -0.190973   -0.000381
  18 S :    0.001115   -0.000106
  19 S :    0.012960   -0.000103
  20 S :    0.011984   -0.000063
  21 S :    0.000921   -0.000071
  22 C :   -0.280341    0.000005
  23 C :   -0.339836   -0.000006
  24 C :   -0.149624   -0.000011
  25 H :    0.142020   -0.000002
  26 H :    0.114858   -0.000002
  27 H :    0.080188   -0.000000
  28 H :    0.095412   -0.000001
  29 H :    0.110907   -0.000006
  30 H :    0.149321   -0.000001
  31 C :   -0.343287    0.000182
  32 C :   -0.279392    0.000202
  33 C :   -0.147956   -0.000229
  34 H :    0.140331   -0.000017
  35 H :    0.114362    0.000015
  36 H :    0.096098    0.000022
  37 H :    0.078988    0.000014
  38 H :    0.110718    0.000028
  39 H :    0.149370   -0.000019
Sum of atomic charges         :   -2.0000000

LOEWDIN ATOMIC CHARGES AND SPIN POPULATIONS
-------------------------------------------
   0 V :   -0.154403    1.164196
   1 S :    0.077742   -0.014589
   2 S :    0.085192   -0.015366
   3 S :    0.081779   -0.015353
   4 S :    0.077831   -0.016976
   5 O :   -0.318998   -0.131582
   6 C :   -0.547542    0.009781
   7 C :   -0.554370    0.007306
   8 C :   -0.554904    0.008069
   9 C :   -0.549549    0.007592
  10 S :    0.471567   -0.000859
  11 S :    0.472979   -0.000983
  12 S :    0.472573   -0.000864
  13 S :    0.469298   -0.000799
  14 C :   -0.466486    0.000163
  15 C :   -0.466546   -0.000090
  16 C :   -0.621248    0.000483
  17 C :   -0.620541    0.000087
  18 S :    0.368235   -0.000083
  19 S :    0.347922   -0.000079
  20 S :    0.348702   -0.000067
  21 S :    0.366692   -0.000076
  22 C :   -0.283820   -0.000002
  23 C :   -0.282450   -0.000013
  24 C :   -0.178469   -0.000001
  25 H :    0.061819   -0.000002
  26 H :    0.057089   -0.000002
  27 H :    0.056969   -0.000002
  28 H :    0.060826   -0.000001
  29 H :    0.051138   -0.000003
  30 H :    0.065174   -0.000001
  31 C :   -0.283019    0.000021
  32 C :   -0.284584    0.000063
  33 C :   -0.179024    0.000008
  34 H :    0.061200   -0.000001
  35 H :    0.057297    0.000007
  36 H :    0.061002    0.000004
  37 H :    0.056639    0.000002
  38 H :    0.051096    0.000011
  39 H :    0.065191   -0.000001

  Mayer bond orders larger than 0.100000
B(  0-V ,  1-S ) :   0.7694 B(  0-V ,  2-S ) :   0.7836 B(  0-V ,  3-S ) :   0.7649
B(  0-V ,  4-S ) :   0.7665 B(  0-V ,  5-O ) :   2.1488 B(  1-S ,  8-C ) :   1.1030
B(  2-S ,  6-C ) :   1.0955 B(  3-S ,  9-C ) :   1.1073 B(  4-S ,  7-C ) :   1.1136
B(  6-C ,  7-C ) :   1.6831 B(  6-C , 10-S ) :   0.9301 B(  7-C , 11-S ) :   0.9457
B(  8-C ,  9-C ) :   1.6981 B(  8-C , 13-S ) :   0.9388 B(  9-C , 12-S ) :   0.9307
B( 10-S , 14-C ) :   1.2483 B( 11-S , 14-C ) :   1.2448 B( 12-S , 15-C ) :   1.2474
B( 13-S , 15-C ) :   1.2423 B( 14-C , 16-C ) :   1.4428 B( 15-C , 17-C ) :   1.4475
B( 16-C , 18-S ) :   1.1064 B( 16-C , 19-S ) :   1.0695 B( 17-C , 20-S ) :   1.0697
B( 17-C , 21-S ) :   1.1048 B( 18-S , 32-C ) :   0.9642 B( 19-S , 31-C ) :   1.0086
B( 20-S , 23-C ) :   1.0069 B( 21-S , 22-C ) :   0.9661 B( 22-C , 24-C ) :   0.9102
B( 22-C , 25-H ) :   0.9575 B( 22-C , 26-H ) :   0.9693 B( 23-C , 24-C ) :   0.9021
B( 23-C , 29-H ) :   0.9630 B( 23-C , 30-H ) :   0.9714 B( 24-C , 27-H ) :   0.9591
B( 24-C , 28-H ) :   0.9740 B( 31-C , 33-C ) :   0.9003 B( 31-C , 38-H ) :   0.9629
B( 31-C , 39-H ) :   0.9721 B( 32-C , 33-C ) :   0.9098 B( 32-C , 34-H ) :   0.9565
B( 32-C , 35-H ) :   0.9695 B( 33-C , 36-H ) :   0.9742 B( 33-C , 37-H ) :   0.9588

FINAL SINGLE POINT ENERGY     -6337.688701075924

DIPOLE MOMENT
-------------
                                X             Y             Z
Electronic contribution:     -9.10793       3.19381       9.57119
Nuclear contribution   :     10.11924      -3.58435     -10.64476
                        -----------------------------------------
Total Dipole Moment    :      1.01131      -0.39053      -1.07357
                        -----------------------------------------
Magnitude (a.u.)       :      1.52572
Magnitude (Debye)      :      3.87807

Rotational constants in cm-1:     0.010748     0.000804     0.000783
Rotational constants in MHz :   322.221019    24.117599    23.481052

                             ****ORCA TERMINATED NORMALLY****
TOTAL RUN TIME: 0 days 1 hours 6 minutes 18 seconds 222 msec
