                         Program Version 5.0.4 -  RELEASE  -
|  1> ! nofrozencore ReducedPop printbasis
|  2> ! B3LYP TZVP
|  3>
|  4> %basis
|  5> newgto V "CP(PPP)" end
|  6> end
|  7>
|  8> %pal
|  9> nprocs 8
| 10> end
| 11>
| 12> % sym SymThresh 1e-2 end
| 13> * xyz -2 2
| 14> V 0.8439798378191259 0.4062089890127303 -0.6024542922903425
| 15> S 1.371374411380872 -2.0497997489387934 -0.5578669064913491
| 16> S -1.0222704954843704 -0.3003791795738506 -2.157799594734803
| 17> S 1.7101681443241448 0.43983676037362446 1.6929052912741296
| 18> S -0.6490517442627742 2.127340272458059 0.13668164522173115
| 19> O 1.89962807137476 1.300765247482896 -1.4106794226622756
| 20> C -1.9380509227204101 1.2110371807712592 -2.1359876660828747
| 21> C -1.7887354728932559 2.1654486873721446 -1.1967653159933216
| 22> C 2.2610335930237007 -2.164719123340962 0.9558805011905357
| 23> C 2.3777286804516002 -1.1709112656106633 1.855185927179787
| 24> S -3.232539390707216 1.523435503443431 -3.3531346895684466
| 25> S -2.936378127516021 3.544963273737974 -1.2385828601145148
| 26> S 3.2893022036934814 -1.5301668244232456 3.3564483891252803
| 27> S 3.0816324147508345 -3.7067794932500706 1.3750595262106622
| 28> C -3.8372156005015627 3.049425674833406 -2.677935706047338
| 29> C 3.645980206156076 -3.21409426020896 2.974458990455055
| 30> C -4.878226254760158 3.737528363316384 -3.247734310891707
| 31> C 4.294030844943522 -4.070469704636172 3.814946906586084
| 32> S -5.652027269149357 3.148483102909445 -4.745990997392511
| 33> S -5.5623864635341125 5.258809845620497 -2.6063542075161967
| 34> S 4.5637356114855026 -5.763742930990225 3.333647563815835
| 35> S 4.85109505068948 -3.5681722446192086 5.429198579942544
| 36> C 3.7639959927853943 -4.698612276508546 6.409255784760245
| 37> C 3.62168762117358 -6.605991003814289 4.688023843976343
| 38> C 4.026588815604988 -6.1748120714200025 6.100316976165388
| 39> H 2.7234971486534456 -4.430472478633604 6.203387532840082
| 40> H 3.9730300489428987 -4.483023049026451 7.461884374262267
| 41> H 3.4572402052768183 -6.786818271861109 6.814407515352138
| 42> H 5.0885243495532375 -6.390396039506984 6.260411847360301
| 43> H 3.8172398259975613 -7.673558405062404 4.549007816131254
| 44> H 2.55387347848781 -6.430425487304028 4.524301259078171
| 45> C -5.0373276831955955 6.344399841687769 -4.018359980187502
| 46> C -5.3360627540677426 4.588760405453814 -5.878375119473775
| 47> C -5.735896259967528 5.962150523925226 -5.325556718303042
| 48> H -4.270346207532848 4.585765865887692 -6.150578111587244
| 49> H -5.919319368150998 4.360199478508091 -6.7822749489946395
| 50> H -6.821426167508157 6.000202855438072 -5.173895786299214
| 51> H -5.486207428622987 6.712524429663589 -6.0896003787327
| 52> H -5.29181603137108 7.3741286827177195 -3.7315081918733446
| 53> H -3.9445962843559386 6.269729444979391 -4.106836715770026
| 54> *
| 55>
| 56> % eprnmr
| 57> gtensor true
| 58> Nuclei = all H {aiso,adip,aorb,fgrad,rho}
| 59> Nuclei = all V {aiso,adip,aorb,fgrad,rho}
| 60> end
| 61>
| 62>                          ****END OF INPUT****

CARTESIAN COORDINATES (ANGSTROEM)
---------------------------------
  V      0.840180    0.406190   -0.601946
  S      1.367575   -2.049819   -0.557359
  S     -1.026070   -0.300398   -2.157291
  S      1.706368    0.439818    1.693414
  S     -0.652852    2.127321    0.137190
  O      1.895828    1.300746   -1.410171
  C     -1.941851    1.211018   -2.135479
  C     -1.792535    2.165429   -1.196257
  C      2.257234   -2.164738    0.956389
  C      2.373929   -1.170930    1.855694
  S     -3.236339    1.523416   -3.352626
  S     -2.940178    3.544944   -1.238075
  S      3.285502   -1.530186    3.356957
  S      3.077833   -3.706799    1.375568
  C     -3.841015    3.049406   -2.677427
  C      3.642180   -3.214113    2.974967
  C     -4.882026    3.737509   -3.247226
  C      4.290231   -4.070489    3.815455
  S     -5.655827    3.148464   -4.745483
  S     -5.566186    5.258791   -2.605846
  S      4.559936   -5.763762    3.334156
  S      4.847295   -3.568191    5.429707
  C      3.760196   -4.698631    6.409764
  C      3.617888   -6.606010    4.688532
  C      4.022789   -6.174831    6.100825
  H      2.719697   -4.430492    6.203896
  H      3.969230   -4.483042    7.462393
  H      3.453440   -6.786837    6.814916
  H      5.084725   -6.390415    6.260920
  H      3.813440   -7.673578    4.549516
  H      2.550074   -6.430445    4.524810
  C     -5.041127    6.344381   -4.017852
  C     -5.339863    4.588741   -5.877867
  C     -5.739696    5.962131   -5.325048
  H     -4.274146    4.585747   -6.150070
  H     -5.923119    4.360180   -6.781767
  H     -6.825226    6.000184   -5.173388
  H     -5.490007    6.712505   -6.089092
  H     -5.295616    7.374109   -3.731000
  H     -3.948396    6.269710   -4.106328

 Total Charge           Charge          ....   -2
 Multiplicity           Mult            ....    2
 Number of Electrons    NEL             ....  321
 Basis Dimension        Dim             ....  681

ORBITAL ENERGIES
----------------
                 SPIN UP ORBITALS
  NO   OCC          E(Eh)            E(eV)
   0   1.0000    -196.675719     -5351.8184
   1   1.0000     -88.734352     -2414.5845
   2   1.0000     -88.734224     -2414.5810
   3   1.0000     -88.732997     -2414.5476
   4   1.0000     -88.731754     -2414.5138
   5   1.0000     -88.731248     -2414.5000
   6   1.0000     -88.729836     -2414.4616
   7   1.0000     -88.729736     -2414.4589
   8   1.0000     -88.728893     -2414.4359
   9   1.0000     -88.640197     -2412.0224
  10   1.0000     -88.640144     -2412.0209
  11   1.0000     -88.639386     -2412.0003
  12   1.0000     -88.638840     -2411.9855
  13   1.0000     -22.050981      -600.0377
  14   1.0000     -18.887952      -513.9673
  15   1.0000     -18.557440      -504.9736
  16   1.0000     -18.552272      -504.8330
  17   1.0000     -18.552150      -504.8297
  18   1.0000     -10.077383      -274.2195
  19   1.0000     -10.074052      -274.1289
  20   1.0000     -10.065438      -273.8945
  21   1.0000     -10.064316      -273.8640
  22   1.0000     -10.064105      -273.8582
  23   1.0000     -10.063640      -273.8456
  24   1.0000     -10.051939      -273.5272
  25   1.0000     -10.051415      -273.5129
  26   1.0000     -10.049638      -273.4646
  27   1.0000     -10.047561      -273.4080
  28   1.0000     -10.019091      -272.6333
  29   1.0000     -10.018219      -272.6096
  30   1.0000     -10.016902      -272.5738
  31   1.0000     -10.016093      -272.5517
  32   1.0000      -7.787709      -211.9143
  33   1.0000      -7.787546      -211.9099
  34   1.0000      -7.786504      -211.8815
  35   1.0000      -7.785061      -211.8423
  36   1.0000      -7.784444      -211.8255
  37   1.0000      -7.783267      -211.7935
  38   1.0000      -7.782733      -211.7789
  39   1.0000      -7.782245      -211.7656
  40   1.0000      -7.695071      -209.3935
  41   1.0000      -7.694014      -209.3648
  42   1.0000      -7.693811      -209.3592
  43   1.0000      -7.692852      -209.3331
  44   1.0000      -5.752663      -156.5379
  45   1.0000      -5.752498      -156.5334
  46   1.0000      -5.751530      -156.5071
  47   1.0000      -5.750127      -156.4689
  48   1.0000      -5.749408      -156.4494
  49   1.0000      -5.749318      -156.4469
  50   1.0000      -5.749260      -156.4453
  51   1.0000      -5.748199      -156.4165
  52   1.0000      -5.748012      -156.4114
  53   1.0000      -5.747708      -156.4031
  54   1.0000      -5.747177      -156.3886
  55   1.0000      -5.746580      -156.3724
  56   1.0000      -5.744925      -156.3273
  57   1.0000      -5.743783      -156.2963
  58   1.0000      -5.743277      -156.2825
  59   1.0000      -5.742787      -156.2692
  60   1.0000      -5.742513      -156.2617
  61   1.0000      -5.742305      -156.2561
  62   1.0000      -5.741310      -156.2290
  63   1.0000      -5.740303      -156.2016
  64   1.0000      -5.739843      -156.1891
  65   1.0000      -5.739077      -156.1682
  66   1.0000      -5.738538      -156.1536
  67   1.0000      -5.738025      -156.1396
  68   1.0000      -5.660324      -154.0252
  69   1.0000      -5.659266      -153.9965
  70   1.0000      -5.659234      -153.9956
  71   1.0000      -5.658188      -153.9671
  72   1.0000      -5.653679      -153.8444
  73   1.0000      -5.652701      -153.8178
  74   1.0000      -5.652502      -153.8124
  75   1.0000      -5.652337      -153.8079
  76   1.0000      -5.651512      -153.7854
  77   1.0000      -5.651337      -153.7807
  78   1.0000      -5.651092      -153.7740
  79   1.0000      -5.650240      -153.7509
  80   1.0000      -2.444127       -66.5081
  81   1.0000      -1.483975       -40.3810
  82   1.0000      -1.474129       -40.1131
  83   1.0000      -1.473199       -40.0878
  84   1.0000      -0.710657       -19.3380
  85   1.0000      -0.707326       -19.2473
  86   1.0000      -0.685671       -18.6581
  87   1.0000      -0.684196       -18.6179
  88   1.0000      -0.647125       -17.6092
  89   1.0000      -0.631532       -17.1849
  90   1.0000      -0.630293       -17.1512
  91   1.0000      -0.618014       -16.8170
  92   1.0000      -0.614415       -16.7191
  93   1.0000      -0.575079       -15.6487
  94   1.0000      -0.573477       -15.6051
  95   1.0000      -0.572851       -15.5881
  96   1.0000      -0.572067       -15.5667
  97   1.0000      -0.497369       -13.5341
  98   1.0000      -0.496360       -13.5067
  99   1.0000      -0.495250       -13.4764
 100   1.0000      -0.493422       -13.4267
 101   1.0000      -0.479568       -13.0497
 102   1.0000      -0.476954       -12.9786
 103   1.0000      -0.446684       -12.1549
 104   1.0000      -0.444465       -12.0945
 105   1.0000      -0.416191       -11.3251
 106   1.0000      -0.410958       -11.1827
 107   1.0000      -0.354823        -9.6552
 108   1.0000      -0.354217        -9.6387
 109   1.0000      -0.326653        -8.8887
 110   1.0000      -0.325695        -8.8626
 111   1.0000      -0.318753        -8.6737
 112   1.0000      -0.314023        -8.5450
 113   1.0000      -0.305015        -8.2999
 114   1.0000      -0.303362        -8.2549
 115   1.0000      -0.291870        -7.9422
 116   1.0000      -0.289863        -7.8876
 117   1.0000      -0.257778        -7.0145
 118   1.0000      -0.257254        -7.0002
 119   1.0000      -0.255339        -6.9481
 120   1.0000      -0.255075        -6.9409
 121   1.0000      -0.234900        -6.3919
 122   1.0000      -0.233955        -6.3663
 123   1.0000      -0.231304        -6.2941
 124   1.0000      -0.228764        -6.2250
 125   1.0000      -0.220299        -5.9946
 126   1.0000      -0.217777        -5.9260
 127   1.0000      -0.212923        -5.7939
 128   1.0000      -0.211530        -5.7560
 129   1.0000      -0.193215        -5.2577
 130   1.0000      -0.187552        -5.1035
 131   1.0000      -0.185508        -5.0479
 132   1.0000      -0.184284        -5.0146
 133   1.0000      -0.179101        -4.8736
 134   1.0000      -0.159377        -4.3369
 135   1.0000      -0.151615        -4.1257
 136   1.0000      -0.146630        -3.9900
 137   1.0000      -0.135798        -3.6952
 138   1.0000      -0.134253        -3.6532
 139   1.0000      -0.132036        -3.5929
 140   1.0000      -0.122504        -3.3335
 141   1.0000      -0.120832        -3.2880
 142   1.0000      -0.110303        -3.0015
 143   1.0000      -0.106352        -2.8940
 144   1.0000      -0.099490        -2.7073
 145   1.0000      -0.098034        -2.6676
 146   1.0000      -0.095847        -2.6081
 147   1.0000      -0.093674        -2.5490
 148   1.0000      -0.074451        -2.0259
 149   1.0000      -0.068735        -1.8704
 150   1.0000      -0.065861        -1.7922
 151   1.0000      -0.053596        -1.4584
 152   1.0000      -0.043790        -1.1916
 153   1.0000      -0.037053        -1.0083
 154   1.0000      -0.036574        -0.9952
 155   1.0000      -0.031138        -0.8473
 156   1.0000      -0.025800        -0.7021
 157   1.0000      -0.017460        -0.4751
 158   1.0000      -0.015162        -0.4126
 159   1.0000       0.020546         0.5591
 160   1.0000       0.041815         1.1379
 161   0.0000       0.136154         3.7049
 162   0.0000       0.137738         3.7480
 163   0.0000       0.161767         4.4019
 164   0.0000       0.161916         4.4060
 165   0.0000       0.169658         4.6166

                 SPIN DOWN ORBITALS
  NO   OCC          E(Eh)            E(eV)
   0   1.0000    -196.675863     -5351.8223
   1   1.0000     -88.734353     -2414.5845
   2   1.0000     -88.734224     -2414.5810
   3   1.0000     -88.732997     -2414.5476
   4   1.0000     -88.731755     -2414.5138
   5   1.0000     -88.731255     -2414.5002
   6   1.0000     -88.729843     -2414.4618
   7   1.0000     -88.729746     -2414.4591
   8   1.0000     -88.728901     -2414.4361
   9   1.0000     -88.640327     -2412.0259
  10   1.0000     -88.640296     -2412.0251
  11   1.0000     -88.639523     -2412.0041
  12   1.0000     -88.638973     -2411.9891
  13   1.0000     -22.035969      -599.6292
  14   1.0000     -18.891870      -514.0739
  15   1.0000     -18.552076      -504.8276
  16   1.0000     -18.536195      -504.3955
  17   1.0000     -18.535969      -504.3894
  18   1.0000     -10.077377      -274.2194
  19   1.0000     -10.074052      -274.1289
  20   1.0000     -10.065437      -273.8945
  21   1.0000     -10.064315      -273.8639
  22   1.0000     -10.064106      -273.8582
  23   1.0000     -10.063641      -273.8456
  24   1.0000     -10.051939      -273.5272
  25   1.0000     -10.051415      -273.5129
  26   1.0000     -10.049626      -273.4642
  27   1.0000     -10.047557      -273.4079
  28   1.0000     -10.018888      -272.6278
  29   1.0000     -10.017946      -272.6022
  30   1.0000     -10.016698      -272.5682
  31   1.0000     -10.015894      -272.5463
  32   1.0000      -7.787710      -211.9144
  33   1.0000      -7.787547      -211.9099
  34   1.0000      -7.786505      -211.8816
  35   1.0000      -7.785062      -211.8423
  36   1.0000      -7.784452      -211.8257
  37   1.0000      -7.783275      -211.7937
  38   1.0000      -7.782744      -211.7792
  39   1.0000      -7.782254      -211.7659
  40   1.0000      -7.695211      -209.3973
  41   1.0000      -7.694142      -209.3682
  42   1.0000      -7.693933      -209.3625
  43   1.0000      -7.692976      -209.3365
  44   1.0000      -5.752664      -156.5379
  45   1.0000      -5.752500      -156.5335
  46   1.0000      -5.751531      -156.5071
  47   1.0000      -5.750129      -156.4690
  48   1.0000      -5.749417      -156.4496
  49   1.0000      -5.749319      -156.4469
  50   1.0000      -5.749261      -156.4454
  51   1.0000      -5.748209      -156.4167
  52   1.0000      -5.748013      -156.4114
  53   1.0000      -5.747720      -156.4034
  54   1.0000      -5.747188      -156.3889
  55   1.0000      -5.746582      -156.3724
  56   1.0000      -5.744935      -156.3276
  57   1.0000      -5.743795      -156.2966
  58   1.0000      -5.743293      -156.2830
  59   1.0000      -5.742801      -156.2696
  60   1.0000      -5.742513      -156.2617
  61   1.0000      -5.742306      -156.2561
  62   1.0000      -5.741311      -156.2290
  63   1.0000      -5.740310      -156.2018
  64   1.0000      -5.739844      -156.1891
  65   1.0000      -5.739081      -156.1683
  66   1.0000      -5.738549      -156.1538
  67   1.0000      -5.738031      -156.1398
  68   1.0000      -5.660487      -154.0297
  69   1.0000      -5.659389      -153.9998
  70   1.0000      -5.659379      -153.9995
  71   1.0000      -5.658319      -153.9707
  72   1.0000      -5.654072      -153.8551
  73   1.0000      -5.653076      -153.8280
  74   1.0000      -5.652886      -153.8229
  75   1.0000      -5.652445      -153.8108
  76   1.0000      -5.651853      -153.7947
  77   1.0000      -5.651417      -153.7829
  78   1.0000      -5.651152      -153.7757
  79   1.0000      -5.650349      -153.7538
  80   1.0000      -2.398981       -65.2796
  81   1.0000      -1.464270       -39.8448
  82   1.0000      -1.411548       -38.4102
  83   1.0000      -1.411316       -38.4039
  84   1.0000      -0.710643       -19.3376
  85   1.0000      -0.707297       -19.2465
  86   1.0000      -0.685632       -18.6570
  87   1.0000      -0.684136       -18.6163
  88   1.0000      -0.655706       -17.8427
  89   1.0000      -0.631481       -17.1835
  90   1.0000      -0.630217       -17.1491
  91   1.0000      -0.618016       -16.8171
  92   1.0000      -0.614414       -16.7190
  93   1.0000      -0.575058       -15.6481
  94   1.0000      -0.573377       -15.6024
  95   1.0000      -0.572830       -15.5875
  96   1.0000      -0.572009       -15.5651
  97   1.0000      -0.497388       -13.5346
  98   1.0000      -0.496389       -13.5074
  99   1.0000      -0.495282       -13.4773
 100   1.0000      -0.493470       -13.4280
 101   1.0000      -0.479752       -13.0547
 102   1.0000      -0.477198       -12.9852
 103   1.0000      -0.446704       -12.1554
 104   1.0000      -0.444510       -12.0957
 105   1.0000      -0.416190       -11.3251
 106   1.0000      -0.411069       -11.1858
 107   1.0000      -0.354819        -9.6551
 108   1.0000      -0.354206        -9.6384
 109   1.0000      -0.326642        -8.8884
 110   1.0000      -0.325678        -8.8621
 111   1.0000      -0.318673        -8.6715
 112   1.0000      -0.314041        -8.5455
 113   1.0000      -0.304968        -8.2986
 114   1.0000      -0.303336        -8.2542
 115   1.0000      -0.291865        -7.9420
 116   1.0000      -0.289857        -7.8874
 117   1.0000      -0.257620        -7.0102
 118   1.0000      -0.257170        -6.9980
 119   1.0000      -0.255302        -6.9471
 120   1.0000      -0.255044        -6.9401
 121   1.0000      -0.234845        -6.3905
 122   1.0000      -0.233942        -6.3659
 123   1.0000      -0.231262        -6.2930
 124   1.0000      -0.228728        -6.2240
 125   1.0000      -0.220024        -5.9872
 126   1.0000      -0.217539        -5.9195
 127   1.0000      -0.212686        -5.7875
 128   1.0000      -0.211439        -5.7536
 129   1.0000      -0.191503        -5.2111
 130   1.0000      -0.187459        -5.1010
 131   1.0000      -0.185145        -5.0381
 132   1.0000      -0.184094        -5.0095
 133   1.0000      -0.178982        -4.8704
 134   1.0000      -0.158765        -4.3202
 135   1.0000      -0.151440        -4.1209
 136   1.0000      -0.146547        -3.9877
 137   1.0000      -0.135494        -3.6870
 138   1.0000      -0.133779        -3.6403
 139   1.0000      -0.131766        -3.5855
 140   1.0000      -0.121949        -3.3184
 141   1.0000      -0.120574        -3.2810
 142   1.0000      -0.112063        -3.0494
 143   1.0000      -0.107886        -2.9357
 144   1.0000      -0.099496        -2.7074
 145   1.0000      -0.098250        -2.6735
 146   1.0000      -0.096164        -2.6167
 147   1.0000      -0.094137        -2.5616
 148   1.0000      -0.070666        -1.9229
 149   1.0000      -0.068704        -1.8695
 150   1.0000      -0.065842        -1.7917
 151   1.0000      -0.050941        -1.3862
 152   1.0000      -0.042944        -1.1686
 153   1.0000      -0.037089        -1.0092
 154   1.0000      -0.036028        -0.9804
 155   1.0000      -0.030856        -0.8396
 156   1.0000      -0.025443        -0.6923
 157   1.0000      -0.015301        -0.4164
 158   1.0000       0.020913         0.5691
 159   1.0000       0.040468         1.1012
 160   0.0000       0.136161         3.7051
 161   0.0000       0.137730         3.7478
 162   0.0000       0.155650         4.2354
 163   0.0000       0.161916         4.4059
 164   0.0000       0.163220         4.4414

MULLIKEN ATOMIC CHARGES AND SPIN POPULATIONS
--------------------------------------------
   0 V :    0.462675    1.216460
   1 S :   -0.308835   -0.021708
   2 S :   -0.302402   -0.023827
   3 S :   -0.277020   -0.024052
   4 S :   -0.254292   -0.027274
   5 O :   -0.470840   -0.152266
   6 C :   -0.064572    0.005680
   7 C :   -0.096865    0.012481
   8 C :   -0.082623    0.006955
   9 C :   -0.089216    0.007574
  10 S :    0.095813   -0.000841
  11 S :    0.102231   -0.000379
  12 S :    0.100870   -0.000284
  13 S :    0.098089   -0.000370
  14 C :   -0.198634    0.001544
  15 C :   -0.221524    0.000918
  16 C :   -0.206982   -0.000030
  17 C :   -0.175896   -0.000378
  18 S :    0.008498   -0.000124
  19 S :    0.008043   -0.000121
  20 S :    0.008016   -0.000072
  21 S :    0.008233   -0.000078
  22 C :   -0.305128    0.000013
  23 C :   -0.295859    0.000001
  24 C :   -0.159084   -0.000025
  25 H :    0.147495   -0.000003
  26 H :    0.115779   -0.000002
  27 H :    0.083830    0.000001
  28 H :    0.093236    0.000000
  29 H :    0.111725   -0.000005
  30 H :    0.138993    0.000000
  31 C :   -0.310547    0.000202
  32 C :   -0.292196    0.000203
  33 C :   -0.157536   -0.000243
  34 H :    0.134635   -0.000015
  35 H :    0.109002    0.000023
  36 H :    0.092586    0.000025
  37 H :    0.083225    0.000016
  38 H :    0.116342    0.000024
  39 H :    0.150735   -0.000021
Sum of atomic charges         :   -2.0000000

LOEWDIN ATOMIC CHARGES AND SPIN POPULATIONS
-------------------------------------------
   0 V :   -0.154769    1.169032
   1 S :    0.058004   -0.014562
   2 S :    0.056624   -0.015621
   3 S :    0.096923   -0.014972
   4 S :    0.120746   -0.016458
   5 O :   -0.330367   -0.136954
   6 C :   -0.547388    0.005999
   7 C :   -0.548750    0.011374
   8 C :   -0.554314    0.007245
   9 C :   -0.554250    0.007838
  10 S :    0.465446   -0.001117
  11 S :    0.473980   -0.000745
  12 S :    0.473068   -0.000733
  13 S :    0.469478   -0.000798
  14 C :   -0.462971    0.000188
  15 C :   -0.467559   -0.000103
  16 C :   -0.620104    0.000514
  17 C :   -0.622354    0.000099
  18 S :    0.355523   -0.000095
  19 S :    0.353199   -0.000087
  20 S :    0.361726   -0.000079
  21 S :    0.361158   -0.000075
  22 C :   -0.282686   -0.000005
  23 C :   -0.283560   -0.000011
  24 C :   -0.176715   -0.000000
  25 H :    0.064658   -0.000001
  26 H :    0.053557   -0.000001
  27 H :    0.057882   -0.000001
  28 H :    0.060537   -0.000000
  29 H :    0.053890   -0.000002
  30 H :    0.061012   -0.000001
  31 C :   -0.283119    0.000039
  32 C :   -0.285853    0.000062
  33 C :   -0.177037    0.000006
  34 H :    0.060071    0.000000
  35 H :    0.055015    0.000010
  36 H :    0.060272    0.000005
  37 H :    0.057893    0.000003
  38 H :    0.053919    0.000010
  39 H :    0.067217   -0.000001

  Mayer bond orders larger than 0.100000
B(  0-V ,  1-S ) :   0.7379 B(  0-V ,  2-S ) :   0.7359 B(  0-V ,  3-S ) :   0.7907
B(  0-V ,  4-S ) :   0.8369 B(  0-V ,  5-O ) :   2.1444 B(  1-S ,  8-C ) :   1.1113
B(  2-S ,  6-C ) :   1.1114 B(  3-S ,  9-C ) :   1.1008 B(  4-S ,  7-C ) :   1.0976
B(  6-C ,  7-C ) :   1.6848 B(  6-C , 10-S ) :   0.9255 B(  7-C , 11-S ) :   0.9429
B(  8-C ,  9-C ) :   1.6957 B(  8-C , 13-S ) :   0.9329 B(  9-C , 12-S ) :   0.9408
B( 10-S , 14-C ) :   1.2450 B( 11-S , 14-C ) :   1.2413 B( 12-S , 15-C ) :   1.2470
B( 13-S , 15-C ) :   1.2482 B( 14-C , 16-C ) :   1.4569 B( 15-C , 17-C ) :   1.4524
B( 16-C , 18-S ) :   1.0835 B( 16-C , 19-S ) :   1.0968 B( 17-C , 20-S ) :   1.0800
B( 17-C , 21-S ) :   1.0904 B( 18-S , 32-C ) :   0.9972 B( 19-S , 31-C ) :   0.9797
B( 20-S , 23-C ) :   0.9940 B( 21-S , 22-C ) :   0.9852 B( 22-C , 24-C ) :   0.9092
B( 22-C , 25-H ) :   0.9674 B( 22-C , 26-H ) :   0.9647 B( 23-C , 24-C ) :   0.9173
B( 23-C , 29-H ) :   0.9659 B( 23-C , 30-H ) :   0.9640 B( 24-C , 27-H ) :   0.9618
B( 24-C , 28-H ) :   0.9715 B( 31-C , 33-C ) :   0.9057 B( 31-C , 38-H ) :   0.9638
B( 31-C , 39-H ) :   0.9679 B( 32-C , 33-C ) :   0.9177 B( 32-C , 34-H ) :   0.9626
B( 32-C , 35-H ) :   0.9660 B( 33-C , 36-H ) :   0.9726 B( 33-C , 37-H ) :   0.9627

FINAL SINGLE POINT ENERGY     -6337.700457903584

DIPOLE MOMENT
-------------
                                X             Y             Z
Electronic contribution:     12.11074       2.37881      -5.47666
Nuclear contribution   :    -13.38724      -2.67063       6.29368
                        -----------------------------------------
Total Dipole Moment    :     -1.27650      -0.29182       0.81702
                        -----------------------------------------
Magnitude (a.u.)       :      1.54342
Magnitude (Debye)      :      3.92306

Rotational constants in cm-1:     0.010763     0.000804     0.000783
Rotational constants in MHz :   322.653334    24.111148    23.482026

                             ****ORCA TERMINATED NORMALLY****
TOTAL RUN TIME: 0 days 1 hours 1 minutes 51 seconds 86 msec
