                         Program Version 5.0.4 -  RELEASE  -
|  1> ! nofrozencore ReducedPop printbasis
|  2> ! B3LYP TZVP
|  3>
|  4> %basis
|  5> newgto V "CP(PPP)" end
|  6> end
|  7>
|  8> %pal
|  9> nprocs 6
| 10> end
| 11>
| 12> % sym SymThresh 1e-2 end
| 13> * xyz -2 2
| 14> V 0.2770412783871314 0.5082035842052016 -0.9420323166943957
| 15> S 1.9026314495405874 1.4731720215618331 0.5667597398752887
| 16> S 1.8019761905204785 -1.3832202033578875 -0.6454715398418955
| 17> S -1.5588017698488874 1.8231798779933126 -0.08067423573400553
| 18> S -1.6202961521740913 -0.9979486522068097 -1.1735609409904737
| 19> O 0.6041408284364576 1.0745664824374375 -2.387722898942032
| 20> C 0.701167216604939 -2.680400141003795 -1.4110776046604656
| 21> C -0.6527544137614869 -2.5294125267853826 -1.619025614731615
| 22> C 0.8165688335326872 2.875486893859917 1.2547237664258657
| 23> C -0.5423750898965921 3.0098845332534543 1.0029088595337559
| 24> S 1.3758312987540289 -4.436321301758932 -1.8917286609500163
| 25> S -1.5203807291974607 -4.115774844593636 -2.3136971108404034
| 26> S -1.3688007798334831 4.544086349159116 1.9610038881134393
| 27> S 1.5334134060030222 4.259417387487468 2.493600576852805
| 28> C -0.123048815164462 -5.092671076782274 -2.37421305566916
| 29> C 0.04839211963280577 5.036483458542841 2.750392547017204
| 30> C -0.20633446249526927 -6.361783209630812 -2.7985100322307703
| 31> C -0.010637641473387357 6.054469262578382 3.605665547334564
| 32> S 1.15921141523632 -7.332363537744557 -2.943593751778756
| 33> S -1.6703925184546742 -7.026736411308612 -3.2947293774520245
| 34> S 1.329445897106381 6.5741790918240985 4.42260810589723
| 35> S -1.4339643999358345 6.832958812964576 3.927886563960243
| 36> C -1.6156965270655965 6.494154936990191 5.74659730641343
| 37> C 0.8111629744858398 6.272748493932273 6.182002081868356
| 38> C -0.4698114373967006 6.972661766011709 6.639881924066326
| 39> H -1.7221667364102204 5.411140231179071 5.859660550011705
| 40> H -2.571380703812489 6.95963648080928 6.013445895123227
| 41> H -0.6839849447861561 6.6622925538124 7.677383591302228
| 42> H -0.3687086447512358 8.06601656842883 6.628825088546935
| 43> H 1.6823529781662985 6.575153199287091 6.774228175279063
| 44> H 0.6815273027916361 5.19239261437198 6.295664102635628
| 45> C -1.300808005753778 -7.394089283450611 -5.078825372731052
| 46> C 1.159309850634786 -7.653804533092961 -4.775275789349115
| 47> C -0.10256719771623593 -8.308065918639851 -5.340675210215614
| 48> H 1.3152392214917379 -6.691774700696966 -5.271714895690759
| 49> H 2.0481686523992204 -8.270846880106397 -4.942461884117919
| 50> H -0.2594234837196345 -9.310602863981893 -4.92322211591463
| 51> H 0.02075281240020668 -8.412879609434945 -6.431467404681082
| 52> H -2.2316557947995728 -7.820746512920718 -5.46645113491211
| 53> H -1.133726869547274 -6.434699610244706 -5.57670213759944
| 54> *
| 55>
| 56> % eprnmr
| 57> gtensor true
| 58> Nuclei = all H {aiso,adip,aorb,fgrad,rho}
| 59> Nuclei = all V {aiso,adip,aorb,fgrad,rho}
| 60> end
| 61>
| 62>                          ****END OF INPUT****

CARTESIAN COORDINATES (ANGSTROEM)
---------------------------------
  V      0.276384    0.504828   -0.940338
  S      1.901974    1.469797    0.568455
  S      1.801319   -1.386596   -0.643777
  S     -1.559459    1.819804   -0.078979
  S     -1.620954   -1.001324   -1.171866
  O      0.603483    1.071191   -2.386028
  C      0.700510   -2.683776   -1.409383
  C     -0.653412   -2.532788   -1.617331
  C      0.815911    2.872111    1.256419
  C     -0.543033    3.006509    1.004604
  S      1.375174   -4.439697   -1.890034
  S     -1.521038   -4.119150   -2.312002
  S     -1.369458    4.540711    1.962699
  S      1.532756    4.256042    2.495295
  C     -0.123706   -5.096046   -2.372518
  C      0.047735    5.033108    2.752087
  C     -0.206992   -6.365159   -2.796815
  C     -0.011295    6.051094    3.607360
  S      1.158554   -7.335739   -2.941899
  S     -1.671050   -7.030112   -3.293035
  S      1.328788    6.570804    4.424303
  S     -1.434622    6.829583    3.929581
  C     -1.616354    6.490780    5.748292
  C      0.810505    6.269373    6.183697
  C     -0.470469    6.969286    6.641577
  H     -1.722824    5.407765    5.861355
  H     -2.572038    6.956261    6.015141
  H     -0.684643    6.658917    7.679078
  H     -0.369366    8.062641    6.630520
  H      1.681695    6.571778    6.775923
  H      0.680870    5.189017    6.297359
  C     -1.301466   -7.397465   -5.077131
  C      1.158652   -7.657180   -4.773581
  C     -0.103225   -8.311441   -5.338980
  H      1.314582   -6.695150   -5.270020
  H      2.047511   -8.274222   -4.940767
  H     -0.260081   -9.313978   -4.921527
  H      0.020095   -8.416255   -6.429773
  H     -2.232313   -7.824122   -5.464756
  H     -1.134384   -6.438075   -5.575007

 Total Charge           Charge          ....   -2
 Multiplicity           Mult            ....    2
 Number of Electrons    NEL             ....  321
 Basis Dimension        Dim             ....  681

ORBITAL ENERGIES
----------------
                 SPIN UP ORBITALS
  NO   OCC          E(Eh)            E(eV)
   0   1.0000    -196.669594     -5351.6517
   1   1.0000     -88.732001     -2414.5205
   2   1.0000     -88.731668     -2414.5114
   3   1.0000     -88.730819     -2414.4883
   4   1.0000     -88.730610     -2414.4826
   5   1.0000     -88.726170     -2414.3618
   6   1.0000     -88.725995     -2414.3571
   7   1.0000     -88.725105     -2414.3328
   8   1.0000     -88.725029     -2414.3308
   9   1.0000     -88.651291     -2412.3243
  10   1.0000     -88.651184     -2412.3213
  11   1.0000     -88.647940     -2412.2331
  12   1.0000     -88.647270     -2412.2149
  13   1.0000     -22.045423      -599.8865
  14   1.0000     -18.887059      -513.9430
  15   1.0000     -18.551994      -504.8254
  16   1.0000     -18.546609      -504.6789
  17   1.0000     -18.546535      -504.6769
  18   1.0000     -10.067464      -273.9496
  19   1.0000     -10.066269      -273.9171
  20   1.0000     -10.061382      -273.7841
  21   1.0000     -10.061377      -273.7840
  22   1.0000     -10.061102      -273.7765
  23   1.0000     -10.061086      -273.7761
  24   1.0000     -10.053417      -273.5674
  25   1.0000     -10.052472      -273.5417
  26   1.0000     -10.043090      -273.2864
  27   1.0000     -10.042504      -273.2704
  28   1.0000     -10.036887      -273.1176
  29   1.0000     -10.035915      -273.0911
  30   1.0000     -10.030298      -272.9383
  31   1.0000     -10.026195      -272.8266
  32   1.0000      -7.784718      -211.8329
  33   1.0000      -7.784443      -211.8255
  34   1.0000      -7.783711      -211.8056
  35   1.0000      -7.783534      -211.8007
  36   1.0000      -7.782059      -211.7606
  37   1.0000      -7.781984      -211.7586
  38   1.0000      -7.781902      -211.7563
  39   1.0000      -7.781891      -211.7560
  40   1.0000      -7.702902      -209.6066
  41   1.0000      -7.702736      -209.6021
  42   1.0000      -7.700040      -209.5287
  43   1.0000      -7.699309      -209.5089
  44   1.0000      -5.749409      -156.4494
  45   1.0000      -5.749137      -156.4420
  46   1.0000      -5.748426      -156.4226
  47   1.0000      -5.748249      -156.4178
  48   1.0000      -5.746934      -156.3820
  49   1.0000      -5.746778      -156.3778
  50   1.0000      -5.746764      -156.3774
  51   1.0000      -5.746696      -156.3755
  52   1.0000      -5.745674      -156.3477
  53   1.0000      -5.745374      -156.3396
  54   1.0000      -5.744525      -156.3165
  55   1.0000      -5.744339      -156.3114
  56   1.0000      -5.743135      -156.2786
  57   1.0000      -5.742977      -156.2744
  58   1.0000      -5.742913      -156.2726
  59   1.0000      -5.742836      -156.2705
  60   1.0000      -5.740416      -156.2047
  61   1.0000      -5.740149      -156.1974
  62   1.0000      -5.739509      -156.1800
  63   1.0000      -5.739333      -156.1752
  64   1.0000      -5.736952      -156.1104
  65   1.0000      -5.736888      -156.1087
  66   1.0000      -5.736796      -156.1062
  67   1.0000      -5.736771      -156.1055
  68   1.0000      -5.669434      -154.2731
  69   1.0000      -5.669246      -154.2680
  70   1.0000      -5.666310      -154.1881
  71   1.0000      -5.665563      -154.1678
  72   1.0000      -5.661384      -154.0541
  73   1.0000      -5.661242      -154.0502
  74   1.0000      -5.659619      -154.0061
  75   1.0000      -5.659485      -154.0024
  76   1.0000      -5.658533      -153.9765
  77   1.0000      -5.657858      -153.9581
  78   1.0000      -5.656930      -153.9329
  79   1.0000      -5.656174      -153.9123
  80   1.0000      -2.439862       -66.3920
  81   1.0000      -1.481778       -40.3212
  82   1.0000      -1.469759       -39.9942
  83   1.0000      -1.469000       -39.9735
  84   1.0000      -0.736885       -20.0516
  85   1.0000      -0.728185       -19.8149
  86   1.0000      -0.683469       -18.5981
  87   1.0000      -0.682797       -18.5798
  88   1.0000      -0.647072       -17.6077
  89   1.0000      -0.632539       -17.2123
  90   1.0000      -0.631989       -17.1973
  91   1.0000      -0.619125       -16.8472
  92   1.0000      -0.616734       -16.7822
  93   1.0000      -0.570752       -15.5310
  94   1.0000      -0.567744       -15.4491
  95   1.0000      -0.563197       -15.3254
  96   1.0000      -0.563001       -15.3200
  97   1.0000      -0.498816       -13.5735
  98   1.0000      -0.497614       -13.5408
  99   1.0000      -0.492494       -13.4015
 100   1.0000      -0.490357       -13.3433
 101   1.0000      -0.474284       -12.9059
 102   1.0000      -0.465558       -12.6685
 103   1.0000      -0.449225       -12.2240
 104   1.0000      -0.444032       -12.0827
 105   1.0000      -0.419994       -11.4286
 106   1.0000      -0.408749       -11.1226
 107   1.0000      -0.357219        -9.7204
 108   1.0000      -0.355882        -9.6841
 109   1.0000      -0.326324        -8.8797
 110   1.0000      -0.325491        -8.8571
 111   1.0000      -0.319778        -8.7016
 112   1.0000      -0.313879        -8.5411
 113   1.0000      -0.295654        -8.0451
 114   1.0000      -0.293275        -7.9804
 115   1.0000      -0.285723        -7.7749
 116   1.0000      -0.284978        -7.7546
 117   1.0000      -0.269074        -7.3219
 118   1.0000      -0.265267        -7.2183
 119   1.0000      -0.263780        -7.1778
 120   1.0000      -0.258174        -7.0253
 121   1.0000      -0.251281        -6.8377
 122   1.0000      -0.246092        -6.6965
 123   1.0000      -0.225654        -6.1403
 124   1.0000      -0.223722        -6.0878
 125   1.0000      -0.222045        -6.0422
 126   1.0000      -0.220024        -5.9872
 127   1.0000      -0.204998        -5.5783
 128   1.0000      -0.198962        -5.4140
 129   1.0000      -0.193402        -5.2627
 130   1.0000      -0.192172        -5.2293
 131   1.0000      -0.183826        -5.0022
 132   1.0000      -0.180944        -4.9237
 133   1.0000      -0.179705        -4.8900
 134   1.0000      -0.153876        -4.1872
 135   1.0000      -0.150108        -4.0847
 136   1.0000      -0.147537        -4.0147
 137   1.0000      -0.131449        -3.5769
 138   1.0000      -0.128446        -3.4952
 139   1.0000      -0.127592        -3.4720
 140   1.0000      -0.121474        -3.3055
 141   1.0000      -0.113487        -3.0882
 142   1.0000      -0.109542        -2.9808
 143   1.0000      -0.108947        -2.9646
 144   1.0000      -0.099329        -2.7029
 145   1.0000      -0.093080        -2.5328
 146   1.0000      -0.091448        -2.4884
 147   1.0000      -0.090423        -2.4605
 148   1.0000      -0.078611        -2.1391
 149   1.0000      -0.060897        -1.6571
 150   1.0000      -0.058119        -1.5815
 151   1.0000      -0.056834        -1.5465
 152   1.0000      -0.046848        -1.2748
 153   1.0000      -0.043667        -1.1882
 154   1.0000      -0.034796        -0.9468
 155   1.0000      -0.027822        -0.7571
 156   1.0000      -0.026807        -0.7295
 157   1.0000      -0.015983        -0.4349
 158   1.0000      -0.012563        -0.3418
 159   1.0000       0.006927         0.1885
 160   1.0000       0.032137         0.8745
 161   0.0000       0.136931         3.7261
 162   0.0000       0.137611         3.7446
 163   0.0000       0.146724         3.9926
 164   0.0000       0.154161         4.1949
 165   0.0000       0.161528         4.3954

                 SPIN DOWN ORBITALS
  NO   OCC          E(Eh)            E(eV)
   0   1.0000    -196.669738     -5351.6556
   1   1.0000     -88.731997     -2414.5204
   2   1.0000     -88.731665     -2414.5113
   3   1.0000     -88.730822     -2414.4884
   4   1.0000     -88.730613     -2414.4827
   5   1.0000     -88.726170     -2414.3618
   6   1.0000     -88.725995     -2414.3571
   7   1.0000     -88.725105     -2414.3329
   8   1.0000     -88.725030     -2414.3308
   9   1.0000     -88.651443     -2412.3284
  10   1.0000     -88.651334     -2412.3254
  11   1.0000     -88.648077     -2412.2368
  12   1.0000     -88.647411     -2412.2187
  13   1.0000     -22.030894      -599.4911
  14   1.0000     -18.890733      -514.0430
  15   1.0000     -18.546905      -504.6869
  16   1.0000     -18.531211      -504.2599
  17   1.0000     -18.530620      -504.2438
  18   1.0000     -10.067450      -273.9492
  19   1.0000     -10.066255      -273.9167
  20   1.0000     -10.061382      -273.7841
  21   1.0000     -10.061378      -273.7840
  22   1.0000     -10.061102      -273.7765
  23   1.0000     -10.061086      -273.7761
  24   1.0000     -10.053417      -273.5674
  25   1.0000     -10.052471      -273.5417
  26   1.0000     -10.042700      -273.2758
  27   1.0000     -10.042120      -273.2600
  28   1.0000     -10.036555      -273.1085
  29   1.0000     -10.035610      -273.0828
  30   1.0000     -10.030286      -272.9379
  31   1.0000     -10.026181      -272.8263
  32   1.0000      -7.784714      -211.8328
  33   1.0000      -7.784439      -211.8254
  34   1.0000      -7.783714      -211.8056
  35   1.0000      -7.783537      -211.8008
  36   1.0000      -7.782060      -211.7606
  37   1.0000      -7.781984      -211.7586
  38   1.0000      -7.781902      -211.7563
  39   1.0000      -7.781891      -211.7560
  40   1.0000      -7.703040      -209.6104
  41   1.0000      -7.702873      -209.6058
  42   1.0000      -7.700167      -209.5322
  43   1.0000      -7.699439      -209.5124
  44   1.0000      -5.749396      -156.4490
  45   1.0000      -5.749125      -156.4416
  46   1.0000      -5.748427      -156.4227
  47   1.0000      -5.748251      -156.4179
  48   1.0000      -5.746935      -156.3821
  49   1.0000      -5.746778      -156.3778
  50   1.0000      -5.746764      -156.3774
  51   1.0000      -5.746696      -156.3756
  52   1.0000      -5.745674      -156.3477
  53   1.0000      -5.745374      -156.3396
  54   1.0000      -5.744531      -156.3166
  55   1.0000      -5.744345      -156.3116
  56   1.0000      -5.743136      -156.2787
  57   1.0000      -5.742978      -156.2744
  58   1.0000      -5.742913      -156.2726
  59   1.0000      -5.742835      -156.2705
  60   1.0000      -5.740413      -156.2046
  61   1.0000      -5.740147      -156.1973
  62   1.0000      -5.739512      -156.1800
  63   1.0000      -5.739337      -156.1753
  64   1.0000      -5.736953      -156.1104
  65   1.0000      -5.736889      -156.1087
  66   1.0000      -5.736797      -156.1062
  67   1.0000      -5.736772      -156.1055
  68   1.0000      -5.669622      -154.2783
  69   1.0000      -5.669437      -154.2732
  70   1.0000      -5.666463      -154.1923
  71   1.0000      -5.665722      -154.1721
  72   1.0000      -5.661759      -154.0643
  73   1.0000      -5.661609      -154.0602
  74   1.0000      -5.659728      -154.0090
  75   1.0000      -5.659593      -154.0054
  76   1.0000      -5.658917      -153.9870
  77   1.0000      -5.658240      -153.9685
  78   1.0000      -5.656993      -153.9346
  79   1.0000      -5.656250      -153.9144
  80   1.0000      -2.396096       -65.2011
  81   1.0000      -1.463109       -39.8132
  82   1.0000      -1.409977       -38.3674
  83   1.0000      -1.407636       -38.3037
  84   1.0000      -0.736858       -20.0509
  85   1.0000      -0.728161       -19.8143
  86   1.0000      -0.683424       -18.5969
  87   1.0000      -0.682754       -18.5787
  88   1.0000      -0.654925       -17.8214
  89   1.0000      -0.632444       -17.2097
  90   1.0000      -0.631893       -17.1947
  91   1.0000      -0.619123       -16.8472
  92   1.0000      -0.616732       -16.7821
  93   1.0000      -0.570479       -15.5235
  94   1.0000      -0.567395       -15.4396
  95   1.0000      -0.563118       -15.3232
  96   1.0000      -0.562949       -15.3186
  97   1.0000      -0.498792       -13.5728
  98   1.0000      -0.497602       -13.5405
  99   1.0000      -0.492465       -13.4006
 100   1.0000      -0.490327       -13.3425
 101   1.0000      -0.474444       -12.9103
 102   1.0000      -0.465763       -12.6740
 103   1.0000      -0.449227       -12.2241
 104   1.0000      -0.444064       -12.0836
 105   1.0000      -0.419939       -11.4271
 106   1.0000      -0.408879       -11.1262
 107   1.0000      -0.357210        -9.7202
 108   1.0000      -0.355874        -9.6838
 109   1.0000      -0.326314        -8.8795
 110   1.0000      -0.325480        -8.8568
 111   1.0000      -0.319511        -8.6943
 112   1.0000      -0.313762        -8.5379
 113   1.0000      -0.295589        -8.0434
 114   1.0000      -0.293198        -7.9783
 115   1.0000      -0.285706        -7.7745
 116   1.0000      -0.284962        -7.7542
 117   1.0000      -0.268987        -7.3195
 118   1.0000      -0.265205        -7.2166
 119   1.0000      -0.263511        -7.1705
 120   1.0000      -0.258002        -7.0206
 121   1.0000      -0.251256        -6.8370
 122   1.0000      -0.246072        -6.6960
 123   1.0000      -0.225575        -6.1382
 124   1.0000      -0.223658        -6.0860
 125   1.0000      -0.222028        -6.0417
 126   1.0000      -0.220002        -5.9866
 127   1.0000      -0.204019        -5.5516
 128   1.0000      -0.198314        -5.3964
 129   1.0000      -0.192343        -5.2339
 130   1.0000      -0.190664        -5.1882
 131   1.0000      -0.183594        -4.9958
 132   1.0000      -0.180856        -4.9213
 133   1.0000      -0.179386        -4.8813
 134   1.0000      -0.153787        -4.1848
 135   1.0000      -0.150017        -4.0822
 136   1.0000      -0.146437        -3.9847
 137   1.0000      -0.130457        -3.5499
 138   1.0000      -0.127826        -3.4783
 139   1.0000      -0.127273        -3.4633
 140   1.0000      -0.121135        -3.2962
 141   1.0000      -0.114780        -3.1233
 142   1.0000      -0.110552        -3.0083
 143   1.0000      -0.108836        -2.9616
 144   1.0000      -0.099338        -2.7031
 145   1.0000      -0.093601        -2.5470
 146   1.0000      -0.091404        -2.4872
 147   1.0000      -0.090472        -2.4619
 148   1.0000      -0.076251        -2.0749
 149   1.0000      -0.060530        -1.6471
 150   1.0000      -0.057532        -1.5655
 151   1.0000      -0.054919        -1.4944
 152   1.0000      -0.046406        -1.2628
 153   1.0000      -0.042399        -1.1537
 154   1.0000      -0.034808        -0.9472
 155   1.0000      -0.028150        -0.7660
 156   1.0000      -0.027721        -0.7543
 157   1.0000      -0.012743        -0.3468
 158   1.0000       0.006879         0.1872
 159   1.0000       0.030867         0.8399
 160   0.0000       0.136643         3.7182
 161   0.0000       0.137627         3.7450
 162   0.0000       0.141141         3.8406
 163   0.0000       0.152010         4.1364
 164   0.0000       0.159018         4.3271

MULLIKEN ATOMIC CHARGES AND SPIN POPULATIONS
--------------------------------------------
   0 V :    0.490174    1.192057
   1 S :   -0.276012   -0.028527
   2 S :   -0.283901   -0.027518
   3 S :   -0.272067   -0.029135
   4 S :   -0.278937   -0.027383
   5 O :   -0.461797   -0.142589
   6 C :   -0.078986    0.014301
   7 C :   -0.082232    0.012216
   8 C :   -0.086240    0.016409
   9 C :   -0.083930    0.015665
  10 S :    0.078695   -0.000278
  11 S :    0.079733   -0.000321
  12 S :    0.068745    0.000500
  13 S :    0.068306    0.000593
  14 C :   -0.171516    0.002742
  15 C :   -0.135916    0.002521
  16 C :   -0.235503   -0.000538
  17 C :   -0.266556   -0.000586
  18 S :    0.022840   -0.000064
  19 S :    0.023087   -0.000065
  20 S :    0.028909   -0.000036
  21 S :    0.029168   -0.000038
  22 C :   -0.317216   -0.000001
  23 C :   -0.316775   -0.000003
  24 C :   -0.144844   -0.000042
  25 H :    0.138426   -0.000004
  26 H :    0.119013   -0.000002
  27 H :    0.088905   -0.000004
  28 H :    0.089081    0.000001
  29 H :    0.118507   -0.000003
  30 H :    0.138105   -0.000003
  31 C :   -0.314593    0.000188
  32 C :   -0.315667    0.000181
  33 C :   -0.144005   -0.000261
  34 H :    0.137322   -0.000018
  35 H :    0.117208    0.000015
  36 H :    0.089150    0.000019
  37 H :    0.086698    0.000014
  38 H :    0.117100    0.000017
  39 H :    0.137522   -0.000018
Sum of atomic charges         :   -2.0000000

LOEWDIN ATOMIC CHARGES AND SPIN POPULATIONS
-------------------------------------------
   0 V :   -0.208648    1.140298
   1 S :    0.059126   -0.017571
   2 S :    0.056070   -0.017059
   3 S :    0.062302   -0.018096
   4 S :    0.061731   -0.016743
   5 O :   -0.315670   -0.127499
   6 C :   -0.465301    0.012999
   7 C :   -0.468931    0.011461
   8 C :   -0.443675    0.015575
   9 C :   -0.444382    0.014717
  10 S :    0.441940   -0.000316
  11 S :    0.443317   -0.000382
  12 S :    0.431124    0.000388
  13 S :    0.430278    0.000410
  14 C :   -0.510338    0.000581
  15 C :   -0.519343    0.000644
  16 C :   -0.704852    0.000423
  17 C :   -0.727535    0.000311
  18 S :    0.393532   -0.000057
  19 S :    0.394643   -0.000053
  20 S :    0.406209   -0.000024
  21 S :    0.405601   -0.000027
  22 C :   -0.283257   -0.000016
  23 C :   -0.283520   -0.000017
  24 C :   -0.170363   -0.000002
  25 H :    0.062196   -0.000002
  26 H :    0.053424   -0.000001
  27 H :    0.060401   -0.000003
  28 H :    0.059415   -0.000001
  29 H :    0.053356   -0.000001
  30 H :    0.062023   -0.000002
  31 C :   -0.284326    0.000024
  32 C :   -0.284053    0.000013
  33 C :   -0.171173    0.000009
  34 H :    0.061585    0.000001
  35 H :    0.053163    0.000007
  36 H :    0.059417    0.000004
  37 H :    0.059731   -0.000004
  38 H :    0.053236    0.000008
  39 H :    0.061548    0.000001

  Mayer bond orders larger than 0.100000
B(  0-V ,  1-S ) :   0.7696 B(  0-V ,  2-S ) :   0.7561 B(  0-V ,  3-S ) :   0.7633
B(  0-V ,  4-S ) :   0.7665 B(  0-V ,  5-O ) :   2.1476 B(  1-S ,  8-C ) :   1.0027
B(  2-S ,  6-C ) :   1.0340 B(  3-S ,  9-C ) :   0.9996 B(  4-S ,  7-C ) :   1.0271
B(  6-C ,  7-C ) :   1.8024 B(  6-C , 10-S ) :   0.8382 B(  7-C , 11-S ) :   0.8421
B(  8-C ,  9-C ) :   1.8401 B(  8-C , 13-S ) :   0.8115 B(  9-C , 12-S ) :   0.8123
B( 10-S , 14-C ) :   1.3255 B( 11-S , 14-C ) :   1.3236 B( 12-S , 15-C ) :   1.3335
B( 13-S , 15-C ) :   1.3334 B( 14-C , 16-C ) :   1.3793 B( 15-C , 17-C ) :   1.3659
B( 15-C , 20-S ) :  -0.1129 B( 15-C , 21-S ) :  -0.1141 B( 16-C , 18-S ) :   1.1959
B( 16-C , 19-S ) :   1.1980 B( 17-C , 20-S ) :   1.2344 B( 17-C , 21-S ) :   1.2355
B( 18-S , 32-C ) :   0.9666 B( 19-S , 31-C ) :   0.9670 B( 20-S , 23-C ) :   0.9578
B( 21-S , 22-C ) :   0.9571 B( 22-C , 24-C ) :   0.9082 B( 22-C , 25-H ) :   0.9664
B( 22-C , 26-H ) :   0.9650 B( 23-C , 24-C ) :   0.9087 B( 23-C , 29-H ) :   0.9650
B( 23-C , 30-H ) :   0.9662 B( 24-C , 27-H ) :   0.9717 B( 24-C , 28-H ) :   0.9664
B( 31-C , 33-C ) :   0.9101 B( 31-C , 38-H ) :   0.9651 B( 31-C , 39-H ) :   0.9665
B( 32-C , 33-C ) :   0.9102 B( 32-C , 34-H ) :   0.9662 B( 32-C , 35-H ) :   0.9651
B( 33-C , 36-H ) :   0.9668 B( 33-C , 37-H ) :   0.9704

FINAL SINGLE POINT ENERGY     -6337.596553057268

DIPOLE MOMENT
-------------
                                X             Y             Z
Electronic contribution:      3.84494       9.04511      -9.35500
Nuclear contribution   :     -4.29784      -9.93699      10.52798
                        -----------------------------------------
Total Dipole Moment    :     -0.45290      -0.89189       1.17298
                        -----------------------------------------
Magnitude (a.u.)       :      1.54158
Magnitude (Debye)      :      3.91838

Rotational constants in cm-1:     0.010803     0.000803     0.000782
Rotational constants in MHz :   323.853005    24.059867    23.438724

                             ****ORCA TERMINATED NORMALLY****
TOTAL RUN TIME: 0 days 1 hours 6 minutes 47 seconds 829 msec
