                         Program Version 5.0.4 -  RELEASE  -
|  1> ! nofrozencore ReducedPop printbasis
|  2> ! B3LYP TZVP
|  3>
|  4> %basis
|  5> newgto V "CP(PPP)" end
|  6> end
|  7>
|  8> %pal
|  9> nprocs 6
| 10> end
| 11>
| 12> % sym SymThresh 1e-2 end
| 13> * xyz -2 2
| 14> V 0.0904481081407583 -0.926606649864645 -0.6100905519186288
| 15> S 2.449150199757131 -0.5442737365391183 0.026156630982454354
| 16> S -0.24317646091502615 -1.606381535253414 1.746338103714091
| 17> S 0.41107584386848417 0.92200701636744 -2.22731629632727
| 18> S -2.2141855001151427 -0.05512061826899831 -0.4871508620822716
| 19> O 0.041734463763274346 -2.2758319758107906 -1.447628349450765
| 20> C -2.000537210376483 -1.5704269019381798 1.8079509441569288
| 21> C -2.790009461860342 -0.9454520727795404 0.9141770707475879
| 22> C 2.968930470811506 0.5823414368214272 -1.2116855533089967
| 23> C 2.1512916788964787 1.1681696675115505 -2.105551064505852
| 24> S -2.832184110063049 -2.353522523376287 3.194788904960997
| 25> S -4.553433675848576 -0.9715789721907063 1.2458351989280074
| 26> S 2.8982713196263177 2.3401548569916817 -3.254537594625044
| 27> S 4.691917036524112 1.0587973883345294 -1.301324124312918
| 28> C -4.4822253888220285 -1.8891255309284043 2.7515927062771666
| 29> C 4.5884359416011415 2.2057718571301566 -2.5547199415703927
| 30> C -5.586683452285842 -2.2153604718316555 3.489615631733154
| 31> C 5.643755782822284 2.947090139923403 -3.0095456698822995
| 32> S -5.4738512014183405 -3.1943427789435628 4.978248072487762
| 33> S -7.222924215523001 -1.717833074139114 2.9998337423207664
| 34> S 7.209474346898656 2.8485330323920715 -2.3690173086962547
| 35> S 5.395594198970806 4.185954304539034 -4.388550004826734
| 36> C 5.783562773102003 5.671023867284756 -3.3440924433179684
| 37> C 7.472136881867277 4.570470017694162 -1.7372557077757766
| 38> C 7.237334712391166 5.638867479925184 -2.757893529813851
| 39> H 4.926347443465921 6.103525216905924 -2.727336034916911
| 40> H 5.996739141270313 6.378491332017329 -4.221933742086963
| 41> H 7.425462824531201 6.61899948558267 -2.2973827220129226
| 42> H 7.865848509431532 5.58676283570119 -3.673885964597671
| 43> H 8.335364726395287 4.639245334144351 -0.9904234235487884
| 44> H 6.496463311694586 4.655228795297988 -1.1493763862211053
| 45> C -7.960593832073328 -3.395543765778458 2.739786033893007
| 46> C -6.4639754910596166 -4.653220123453447 4.4117681082567675
| 47> C -7.887408162229704 -4.297422162105919 3.97197876673002
| 48> H -5.915509438936383 -5.154043344358073 3.6107269790305145
| 49> H -6.4993218211161805 -5.324394294381981 5.273791631011759
| 50> H -8.411220086251477 -3.821993435041572 4.807295884025951
| 51> H -8.41771403644388 -5.232567192219256 3.7435370948742324
| 52> H -8.999086084676195 -3.220638972501388 2.4475544341479947
| 53> H -7.442099296185615 -3.8582149667671874 1.8968689637115839
| 54> *
| 55>
| 56> % eprnmr
| 57> gtensor true
| 58> Nuclei = all H {aiso,adip,aorb,fgrad,rho}
| 59> Nuclei = all V {aiso,adip,aorb,fgrad,rho}
| 60> end
| 61>
| 62>                          ****END OF INPUT****

CARTESIAN COORDINATES (ANGSTROEM)
---------------------------------
  V      0.088538   -0.924892   -0.607243
  S      2.447240   -0.542559    0.029004
  S     -0.245087   -1.604667    1.749186
  S      0.409166    0.923722   -2.224469
  S     -2.216096   -0.053406   -0.484303
  O      0.039824   -2.274117   -1.444781
  C     -2.002448   -1.568712    1.810798
  C     -2.791920   -0.943737    0.917025
  C      2.967020    0.584056   -1.208838
  C      2.149381    1.169884   -2.102704
  S     -2.834094   -2.351808    3.197636
  S     -4.555344   -0.969864    1.248683
  S      2.896361    2.341869   -3.251690
  S      4.690007    1.060512   -1.298477
  C     -4.484136   -1.887411    2.754440
  C      4.586526    2.207486   -2.551872
  C     -5.588594   -2.213646    3.492463
  C      5.641845    2.948805   -3.006698
  S     -5.475761   -3.192628    4.981096
  S     -7.224835   -1.716118    3.002681
  S      7.207564    2.850248   -2.366170
  S      5.393684    4.187669   -4.385703
  C      5.781652    5.672739   -3.341245
  C      7.470227    4.572185   -1.734408
  C      7.235424    5.640582   -2.755046
  H      4.924437    6.105240   -2.724489
  H      5.994829    6.380206   -4.219086
  H      7.423553    6.620714   -2.294535
  H      7.863938    5.588477   -3.671038
  H      8.333454    4.640960   -0.987576
  H      6.494553    4.656943   -1.146529
  C     -7.962504   -3.393829    2.742634
  C     -6.465886   -4.651505    4.414616
  C     -7.889318   -4.295708    3.974826
  H     -5.917420   -5.152329    3.613574
  H     -6.501232   -5.322680    5.276639
  H     -8.413130   -3.820279    4.810143
  H     -8.419624   -5.230853    3.746385
  H     -9.000996   -3.218924    2.450402
  H     -7.444010   -3.856500    1.899716

 Total Charge           Charge          ....   -2
 Multiplicity           Mult            ....    2
 Number of Electrons    NEL             ....  321
 Basis Dimension        Dim             ....  681

ORBITAL ENERGIES
----------------
                 SPIN UP ORBITALS
  NO   OCC          E(Eh)            E(eV)
   0   1.0000    -196.675134     -5351.8025
   1   1.0000     -88.735881     -2414.6261
   2   1.0000     -88.733382     -2414.5581
   3   1.0000     -88.733142     -2414.5516
   4   1.0000     -88.731247     -2414.5000
   5   1.0000     -88.731042     -2414.4944
   6   1.0000     -88.730496     -2414.4795
   7   1.0000     -88.730349     -2414.4755
   8   1.0000     -88.730162     -2414.4705
   9   1.0000     -88.640183     -2412.0220
  10   1.0000     -88.640012     -2412.0174
  11   1.0000     -88.639869     -2412.0135
  12   1.0000     -88.639652     -2412.0075
  13   1.0000     -22.050528      -600.0254
  14   1.0000     -18.890449      -514.0353
  15   1.0000     -18.556975      -504.9610
  16   1.0000     -18.551803      -504.8202
  17   1.0000     -18.551704      -504.8175
  18   1.0000     -10.076148      -274.1859
  19   1.0000     -10.075872      -274.1784
  20   1.0000     -10.075411      -274.1659
  21   1.0000     -10.068626      -273.9812
  22   1.0000     -10.063717      -273.8477
  23   1.0000     -10.063366      -273.8381
  24   1.0000     -10.056406      -273.6487
  25   1.0000     -10.051370      -273.5117
  26   1.0000     -10.048342      -273.4293
  27   1.0000     -10.047318      -273.4014
  28   1.0000     -10.018912      -272.6285
  29   1.0000     -10.018327      -272.6125
  30   1.0000     -10.017761      -272.5971
  31   1.0000     -10.017370      -272.5865
  32   1.0000      -7.787933      -211.9204
  33   1.0000      -7.786770      -211.8888
  34   1.0000      -7.786653      -211.8856
  35   1.0000      -7.786047      -211.8691
  36   1.0000      -7.786034      -211.8688
  37   1.0000      -7.783542      -211.8009
  38   1.0000      -7.783506      -211.8000
  39   1.0000      -7.782470      -211.7718
  40   1.0000      -7.694421      -209.3758
  41   1.0000      -7.694407      -209.3755
  42   1.0000      -7.694189      -209.3695
  43   1.0000      -7.693896      -209.3616
  44   1.0000      -5.752919      -156.5449
  45   1.0000      -5.751763      -156.5134
  46   1.0000      -5.751640      -156.5101
  47   1.0000      -5.750931      -156.4908
  48   1.0000      -5.750665      -156.4836
  49   1.0000      -5.749884      -156.4623
  50   1.0000      -5.748495      -156.4245
  51   1.0000      -5.748438      -156.4229
  52   1.0000      -5.748368      -156.4211
  53   1.0000      -5.748213      -156.4168
  54   1.0000      -5.747692      -156.4026
  55   1.0000      -5.747232      -156.3901
  56   1.0000      -5.746306      -156.3649
  57   1.0000      -5.744064      -156.3039
  58   1.0000      -5.744007      -156.3024
  59   1.0000      -5.743181      -156.2799
  60   1.0000      -5.742619      -156.2646
  61   1.0000      -5.742141      -156.2516
  62   1.0000      -5.741550      -156.2355
  63   1.0000      -5.741448      -156.2327
  64   1.0000      -5.740947      -156.2191
  65   1.0000      -5.739361      -156.1760
  66   1.0000      -5.739342      -156.1754
  67   1.0000      -5.738070      -156.1408
  68   1.0000      -5.659726      -154.0090
  69   1.0000      -5.659723      -154.0089
  70   1.0000      -5.659487      -154.0025
  71   1.0000      -5.659232      -153.9955
  72   1.0000      -5.653087      -153.8283
  73   1.0000      -5.653065      -153.8277
  74   1.0000      -5.652836      -153.8215
  75   1.0000      -5.652562      -153.8140
  76   1.0000      -5.651735      -153.7915
  77   1.0000      -5.651732      -153.7915
  78   1.0000      -5.651515      -153.7855
  79   1.0000      -5.651194      -153.7768
  80   1.0000      -2.444171       -66.5093
  81   1.0000      -1.485474       -40.4218
  82   1.0000      -1.473813       -40.1045
  83   1.0000      -1.472996       -40.0823
  84   1.0000      -0.712063       -19.3762
  85   1.0000      -0.709601       -19.3092
  86   1.0000      -0.686562       -18.6823
  87   1.0000      -0.685732       -18.6597
  88   1.0000      -0.650023       -17.6880
  89   1.0000      -0.634232       -17.2583
  90   1.0000      -0.631439       -17.1823
  91   1.0000      -0.617335       -16.7985
  92   1.0000      -0.612340       -16.6626
  93   1.0000      -0.580613       -15.7993
  94   1.0000      -0.574543       -15.6341
  95   1.0000      -0.573280       -15.5997
  96   1.0000      -0.568529       -15.4705
  97   1.0000      -0.497153       -13.5282
  98   1.0000      -0.496083       -13.4991
  99   1.0000      -0.495542       -13.4844
 100   1.0000      -0.490876       -13.3574
 101   1.0000      -0.479266       -13.0415
 102   1.0000      -0.476602       -12.9690
 103   1.0000      -0.446596       -12.1525
 104   1.0000      -0.439093       -11.9483
 105   1.0000      -0.415771       -11.3137
 106   1.0000      -0.410878       -11.1806
 107   1.0000      -0.355446        -9.6722
 108   1.0000      -0.353065        -9.6074
 109   1.0000      -0.328234        -8.9317
 110   1.0000      -0.326768        -8.8918
 111   1.0000      -0.319714        -8.6999
 112   1.0000      -0.315198        -8.5770
 113   1.0000      -0.304426        -8.2838
 114   1.0000      -0.303572        -8.2606
 115   1.0000      -0.292525        -7.9600
 116   1.0000      -0.280667        -7.6373
 117   1.0000      -0.260267        -7.0822
 118   1.0000      -0.257593        -7.0095
 119   1.0000      -0.256384        -6.9766
 120   1.0000      -0.255139        -6.9427
 121   1.0000      -0.234501        -6.3811
 122   1.0000      -0.232373        -6.3232
 123   1.0000      -0.230739        -6.2787
 124   1.0000      -0.221801        -6.0355
 125   1.0000      -0.219038        -5.9603
 126   1.0000      -0.217789        -5.9263
 127   1.0000      -0.214172        -5.8279
 128   1.0000      -0.205975        -5.6049
 129   1.0000      -0.193459        -5.2643
 130   1.0000      -0.189778        -5.1641
 131   1.0000      -0.186154        -5.0655
 132   1.0000      -0.182759        -4.9731
 133   1.0000      -0.175910        -4.7868
 134   1.0000      -0.159818        -4.3489
 135   1.0000      -0.150590        -4.0978
 136   1.0000      -0.145645        -3.9632
 137   1.0000      -0.135880        -3.6975
 138   1.0000      -0.133754        -3.6396
 139   1.0000      -0.132277        -3.5994
 140   1.0000      -0.125176        -3.4062
 141   1.0000      -0.121281        -3.3002
 142   1.0000      -0.113685        -3.0935
 143   1.0000      -0.109756        -2.9866
 144   1.0000      -0.100275        -2.7286
 145   1.0000      -0.098606        -2.6832
 146   1.0000      -0.096355        -2.6219
 147   1.0000      -0.093546        -2.5455
 148   1.0000      -0.074683        -2.0322
 149   1.0000      -0.068278        -1.8579
 150   1.0000      -0.067517        -1.8372
 151   1.0000      -0.052548        -1.4299
 152   1.0000      -0.045795        -1.2461
 153   1.0000      -0.037517        -1.0209
 154   1.0000      -0.037033        -1.0077
 155   1.0000      -0.031104        -0.8464
 156   1.0000      -0.025209        -0.6860
 157   1.0000      -0.019351        -0.5266
 158   1.0000      -0.015609        -0.4247
 159   1.0000       0.020111         0.5473
 160   1.0000       0.040941         1.1141
 161   0.0000       0.133545         3.6339
 162   0.0000       0.136809         3.7228
 163   0.0000       0.155022         4.2184
 164   0.0000       0.161933         4.4064
 165   0.0000       0.166503         4.5308

                 SPIN DOWN ORBITALS
  NO   OCC          E(Eh)            E(eV)
   0   1.0000    -196.675281     -5351.8065
   1   1.0000     -88.735881     -2414.6261
   2   1.0000     -88.733382     -2414.5581
   3   1.0000     -88.733143     -2414.5516
   4   1.0000     -88.731256     -2414.5002
   5   1.0000     -88.731042     -2414.4944
   6   1.0000     -88.730503     -2414.4797
   7   1.0000     -88.730357     -2414.4758
   8   1.0000     -88.730171     -2414.4707
   9   1.0000     -88.640324     -2412.0258
  10   1.0000     -88.640147     -2412.0210
  11   1.0000     -88.640009     -2412.0173
  12   1.0000     -88.639793     -2412.0114
  13   1.0000     -22.035601      -599.6192
  14   1.0000     -18.894227      -514.1380
  15   1.0000     -18.551711      -504.8177
  16   1.0000     -18.535773      -504.3840
  17   1.0000     -18.535592      -504.3791
  18   1.0000     -10.076147      -274.1859
  19   1.0000     -10.075867      -274.1783
  20   1.0000     -10.075411      -274.1659
  21   1.0000     -10.068626      -273.9813
  22   1.0000     -10.063717      -273.8477
  23   1.0000     -10.063365      -273.8381
  24   1.0000     -10.056406      -273.6487
  25   1.0000     -10.051370      -273.5117
  26   1.0000     -10.048330      -273.4290
  27   1.0000     -10.047314      -273.4013
  28   1.0000     -10.018701      -272.6227
  29   1.0000     -10.018087      -272.6060
  30   1.0000     -10.017546      -272.5913
  31   1.0000     -10.017148      -272.5804
  32   1.0000      -7.787933      -211.9204
  33   1.0000      -7.786771      -211.8888
  34   1.0000      -7.786653      -211.8856
  35   1.0000      -7.786056      -211.8694
  36   1.0000      -7.786035      -211.8688
  37   1.0000      -7.783551      -211.8012
  38   1.0000      -7.783516      -211.8002
  39   1.0000      -7.782478      -211.7720
  40   1.0000      -7.694546      -209.3792
  41   1.0000      -7.694538      -209.3790
  42   1.0000      -7.694320      -209.3731
  43   1.0000      -7.694028      -209.3651
  44   1.0000      -5.752920      -156.5449
  45   1.0000      -5.751765      -156.5135
  46   1.0000      -5.751641      -156.5101
  47   1.0000      -5.750932      -156.4908
  48   1.0000      -5.750678      -156.4839
  49   1.0000      -5.749885      -156.4623
  50   1.0000      -5.748506      -156.4248
  51   1.0000      -5.748448      -156.4232
  52   1.0000      -5.748370      -156.4211
  53   1.0000      -5.748214      -156.4169
  54   1.0000      -5.747700      -156.4029
  55   1.0000      -5.747232      -156.3901
  56   1.0000      -5.746320      -156.3653
  57   1.0000      -5.744078      -156.3043
  58   1.0000      -5.744021      -156.3028
  59   1.0000      -5.743195      -156.2803
  60   1.0000      -5.742619      -156.2646
  61   1.0000      -5.742148      -156.2518
  62   1.0000      -5.741551      -156.2355
  63   1.0000      -5.741448      -156.2328
  64   1.0000      -5.740948      -156.2191
  65   1.0000      -5.739369      -156.1762
  66   1.0000      -5.739351      -156.1757
  67   1.0000      -5.738075      -156.1410
  68   1.0000      -5.659866      -154.0128
  69   1.0000      -5.659866      -154.0128
  70   1.0000      -5.659626      -154.0062
  71   1.0000      -5.659374      -153.9994
  72   1.0000      -5.653431      -153.8377
  73   1.0000      -5.653429      -153.8376
  74   1.0000      -5.653224      -153.8321
  75   1.0000      -5.652944      -153.8244
  76   1.0000      -5.651841      -153.7944
  77   1.0000      -5.651837      -153.7943
  78   1.0000      -5.651601      -153.7879
  79   1.0000      -5.651288      -153.7794
  80   1.0000      -2.399300       -65.2883
  81   1.0000      -1.466192       -39.8971
  82   1.0000      -1.411466       -38.4079
  83   1.0000      -1.411272       -38.4027
  84   1.0000      -0.712048       -19.3758
  85   1.0000      -0.709575       -19.3085
  86   1.0000      -0.686521       -18.6812
  87   1.0000      -0.685677       -18.6582
  88   1.0000      -0.658124       -17.9085
  89   1.0000      -0.634181       -17.2569
  90   1.0000      -0.631364       -17.1803
  91   1.0000      -0.617335       -16.7985
  92   1.0000      -0.612336       -16.6625
  93   1.0000      -0.580566       -15.7980
  94   1.0000      -0.574511       -15.6332
  95   1.0000      -0.573199       -15.5975
  96   1.0000      -0.568485       -15.4693
  97   1.0000      -0.497169       -13.5287
  98   1.0000      -0.496125       -13.5002
  99   1.0000      -0.495573       -13.4852
 100   1.0000      -0.490962       -13.3598
 101   1.0000      -0.479450       -13.0465
 102   1.0000      -0.476818       -12.9749
 103   1.0000      -0.446622       -12.1532
 104   1.0000      -0.439137       -11.9495
 105   1.0000      -0.415768       -11.3136
 106   1.0000      -0.410979       -11.1833
 107   1.0000      -0.355437        -9.6719
 108   1.0000      -0.353060        -9.6072
 109   1.0000      -0.328228        -8.9315
 110   1.0000      -0.326754        -8.8914
 111   1.0000      -0.319640        -8.6979
 112   1.0000      -0.315222        -8.5776
 113   1.0000      -0.304370        -8.2823
 114   1.0000      -0.303547        -8.2599
 115   1.0000      -0.292520        -7.9599
 116   1.0000      -0.280662        -7.6372
 117   1.0000      -0.260145        -7.0789
 118   1.0000      -0.257501        -7.0069
 119   1.0000      -0.256333        -6.9752
 120   1.0000      -0.255097        -6.9415
 121   1.0000      -0.234472        -6.3803
 122   1.0000      -0.232341        -6.3223
 123   1.0000      -0.230699        -6.2776
 124   1.0000      -0.221586        -6.0297
 125   1.0000      -0.218710        -5.9514
 126   1.0000      -0.217738        -5.9250
 127   1.0000      -0.214002        -5.8233
 128   1.0000      -0.205852        -5.6015
 129   1.0000      -0.191750        -5.2178
 130   1.0000      -0.189679        -5.1614
 131   1.0000      -0.185819        -5.0564
 132   1.0000      -0.182570        -4.9680
 133   1.0000      -0.175753        -4.7825
 134   1.0000      -0.159213        -4.3324
 135   1.0000      -0.150420        -4.0931
 136   1.0000      -0.145530        -3.9601
 137   1.0000      -0.135270        -3.6809
 138   1.0000      -0.133444        -3.6312
 139   1.0000      -0.131988        -3.5916
 140   1.0000      -0.124639        -3.3916
 141   1.0000      -0.120956        -3.2914
 142   1.0000      -0.115474        -3.1422
 143   1.0000      -0.111347        -3.0299
 144   1.0000      -0.100281        -2.7288
 145   1.0000      -0.098873        -2.6905
 146   1.0000      -0.096466        -2.6250
 147   1.0000      -0.093738        -2.5507
 148   1.0000      -0.070871        -1.9285
 149   1.0000      -0.068262        -1.8575
 150   1.0000      -0.067523        -1.8374
 151   1.0000      -0.049956        -1.3594
 152   1.0000      -0.044852        -1.2205
 153   1.0000      -0.037342        -1.0161
 154   1.0000      -0.036682        -0.9982
 155   1.0000      -0.031114        -0.8466
 156   1.0000      -0.026255        -0.7144
 157   1.0000      -0.015845        -0.4312
 158   1.0000       0.020408         0.5553
 159   1.0000       0.039838         1.0840
 160   0.0000       0.133562         3.6344
 161   0.0000       0.136817         3.7230
 162   0.0000       0.153804         4.1852
 163   0.0000       0.157902         4.2967
 164   0.0000       0.162751         4.4287

MULLIKEN ATOMIC CHARGES AND SPIN POPULATIONS
--------------------------------------------
   0 V :    0.470873    1.210408
   1 S :   -0.290179   -0.021883
   2 S :   -0.289693   -0.025173
   3 S :   -0.287376   -0.023753
   4 S :   -0.285335   -0.025758
   5 O :   -0.467433   -0.146561
   6 C :   -0.076953    0.009771
   7 C :   -0.084904    0.007984
   8 C :   -0.097142    0.007510
   9 C :   -0.071864    0.007596
  10 S :    0.098827   -0.000578
  11 S :    0.101899   -0.000632
  12 S :    0.079861   -0.000325
  13 S :    0.125910   -0.000425
  14 C :   -0.213855    0.001517
  15 C :   -0.208530    0.000982
  16 C :   -0.191359   -0.000073
  17 C :   -0.204833   -0.000390
  18 S :    0.008121   -0.000115
  19 S :    0.010043   -0.000113
  20 S :    0.040718   -0.000055
  21 S :   -0.009141   -0.000098
  22 C :   -0.290978   -0.000007
  23 C :   -0.325211    0.000005
  24 C :   -0.141707   -0.000012
  25 H :    0.147524   -0.000000
  26 H :    0.080335   -0.000005
  27 H :    0.083653   -0.000001
  28 H :    0.090701   -0.000001
  29 H :    0.133516   -0.000003
  30 H :    0.136770   -0.000002
  31 C :   -0.300426    0.000199
  32 C :   -0.300030    0.000189
  33 C :   -0.157620   -0.000240
  34 H :    0.142344   -0.000017
  35 H :    0.112476    0.000018
  36 H :    0.092209    0.000023
  37 H :    0.082626    0.000015
  38 H :    0.114362    0.000021
  39 H :    0.141800   -0.000019
Sum of atomic charges         :   -2.0000000

LOEWDIN ATOMIC CHARGES AND SPIN POPULATIONS
-------------------------------------------
   0 V :   -0.155834    1.163808
   1 S :    0.082519   -0.014001
   2 S :    0.079385   -0.016033
   3 S :    0.080325   -0.015575
   4 S :    0.083345   -0.016385
   5 O :   -0.318839   -0.131485
   6 C :   -0.549826    0.009132
   7 C :   -0.552214    0.007877
   8 C :   -0.557202    0.007968
   9 C :   -0.546849    0.007824
  10 S :    0.470092   -0.000898
  11 S :    0.473492   -0.000951
  12 S :    0.440050   -0.000753
  13 S :    0.508634   -0.000909
  14 C :   -0.465098    0.000158
  15 C :   -0.466012   -0.000089
  16 C :   -0.622610    0.000478
  17 C :   -0.628399    0.000087
  18 S :    0.357680   -0.000092
  19 S :    0.361218   -0.000086
  20 S :    0.393837   -0.000060
  21 S :    0.327233   -0.000099
  22 C :   -0.300645   -0.000008
  23 C :   -0.308313   -0.000004
  24 C :   -0.180100   -0.000002
  25 H :    0.069408   -0.000001
  26 H :    0.055940   -0.000004
  27 H :    0.060037   -0.000001
  28 H :    0.059075   -0.000001
  29 H :    0.068051   -0.000000
  30 H :    0.076442   -0.000002
  31 C :   -0.284237    0.000045
  32 C :   -0.283613    0.000036
  33 C :   -0.176319    0.000006
  34 H :    0.061987   -0.000001
  35 H :    0.053362    0.000008
  36 H :    0.060236    0.000004
  37 H :    0.057803    0.000002
  38 H :    0.053812    0.000009
  39 H :    0.062149   -0.000001

  Mayer bond orders larger than 0.100000
B(  0-V ,  1-S ) :   0.7701 B(  0-V ,  2-S ) :   0.7718 B(  0-V ,  3-S ) :   0.7647
B(  0-V ,  4-S ) :   0.7790 B(  0-V ,  5-O ) :   2.1489 B(  1-S ,  8-C ) :   1.1088
B(  2-S ,  6-C ) :   1.1039 B(  3-S ,  9-C ) :   1.1035 B(  4-S ,  7-C ) :   1.1047
B(  6-C ,  7-C ) :   1.6848 B(  6-C , 10-S ) :   0.9352 B(  7-C , 11-S ) :   0.9388
B(  8-C ,  9-C ) :   1.6947 B(  8-C , 13-S ) :   0.9370 B(  9-C , 12-S ) :   0.9341
B( 10-S , 14-C ) :   1.2463 B( 11-S , 14-C ) :   1.2508 B( 12-S , 15-C ) :   1.1898
B( 13-S , 15-C ) :   1.3088 B( 14-C , 16-C ) :   1.4512 B( 15-C , 17-C ) :   1.4489
B( 16-C , 18-S ) :   1.0851 B( 16-C , 19-S ) :   1.0927 B( 17-C , 20-S ) :   1.1915
B( 17-C , 21-S ) :   1.0030 B( 18-S , 32-C ) :   0.9945 B( 19-S , 31-C ) :   0.9889
B( 20-S , 23-C ) :   0.9175 B( 21-S , 22-C ) :   1.0384 B( 22-C , 24-C ) :   0.8962
B( 22-C , 25-H ) :   0.9301 B( 22-C , 26-H ) :   0.9828 B( 23-C , 24-C ) :   0.9093
B( 23-C , 29-H ) :   0.9367 B( 23-C , 30-H ) :   0.9926 B( 24-C , 27-H ) :   0.9670
B( 24-C , 28-H ) :   0.9692 B( 31-C , 33-C ) :   0.9137 B( 31-C , 38-H ) :   0.9646
B( 31-C , 39-H ) :   0.9671 B( 32-C , 33-C ) :   0.9132 B( 32-C , 34-H ) :   0.9644
B( 32-C , 35-H ) :   0.9664 B( 33-C , 36-H ) :   0.9718 B( 33-C , 37-H ) :   0.9624

FINAL SINGLE POINT ENERGY     -6337.668052839082

DIPOLE MOMENT
-------------
                                X             Y             Z
Electronic contribution:      4.27599     -10.12812      -8.13510
Nuclear contribution   :     -4.79648      11.14968       9.11661
                        -----------------------------------------
Total Dipole Moment    :     -0.52050       1.02155       0.98150
                        -----------------------------------------
Magnitude (a.u.)       :      1.50925
Magnitude (Debye)      :      3.83621

Rotational constants in cm-1:     0.010758     0.000804     0.000783
Rotational constants in MHz :   322.527075    24.115490    23.486349

                             ****ORCA TERMINATED NORMALLY****
TOTAL RUN TIME: 0 days 1 hours 6 minutes 12 seconds 83 msec
