                         Program Version 5.0.4 -  RELEASE  -
|  1> ! nofrozencore ReducedPop printbasis
|  2> ! B3LYP TZVP
|  3>
|  4> %basis
|  5> newgto V "CP(PPP)" end
|  6> end
|  7>
|  8> %pal
|  9> nprocs 8
| 10> end
| 11>
| 12> % sym SymThresh 1e-2 end
| 13> * xyz -2 2
| 14> V 0.8732270194607232 -0.6804856666452439 0.1156947436667717
| 15> S 1.7808454083646583 0.9937586569457485 -1.4629626640590987
| 16> S 1.0720681746267757 1.0975196503508342 1.826379887584233
| 17> S -0.36886596917675196 -1.5808330930134693 -1.8279249221515534
| 18> S -1.113670758235634 -1.412376246013087 1.3813487375351121
| 19> O 2.043354944125047 -1.705893096976654 0.43759957897046364
| 20> C 0.09685636284037057 0.3977393427844095 3.0975007361869604
| 21> C -0.8041835539156355 -0.6318450984357393 2.9131405403969697
| 22> C 1.2084791619364916 0.35487920766126213 -3.000132257270167
| 23> C 0.35282516503837186 -0.6652369128810095 -3.1439987717482
| 24> S 0.1786882154671626 1.0738899989398663 4.752524718312057
| 25> S -1.7531086899757404 -1.1114429286776593 4.350133923123054
| 26> S -0.11857973008731479 -1.0885140124289259 -4.8260110519450015
| 27> S 1.7683233959825726 1.1507670107716197 -4.512013481284648
| 28> C -1.0573998317330147 0.05316022633740456 5.455606800838541
| 29> C 0.804640097543396 0.18386424070342358 -5.640137699959541
| 30> C -1.457350495813688 0.1493960628517042 6.825784915167413
| 31> C 0.7839769043761899 0.3880805820710575 -6.9809840078649446
| 32> S -0.6913733353515374 1.3014881379732846 7.921818998675033
| 33> S -2.7158527730639266 -0.9021747307259134 7.47849637584472
| 34> S 1.7304268046566154 1.6876089604821616 -7.756576827507042
| 35> S -0.22267561784838577 -0.6020072899700781 -8.073937068685929
| 36> C -1.3433213521928056 0.7335972731923851 -8.69986225611352
| 37> C 0.32582541427962375 2.687101345230325 -8.434521463275667
| 38> C -0.5946932437934777 1.8936593170219114 -9.376165981166476
| 39> H -1.9029474865486455 1.117991265939682 -7.843806081096522
| 40> H -1.9736365336687107 0.24327378728681778 -9.445744169372855
| 41> H -1.3494450050275169 2.5916888849642468 -9.764540762080932
| 42> H 0.007895649646704162 1.4893587438258993 -10.195544480593274
| 43> H 0.8031069120020822 3.486694284461995 -9.006189771902852
| 44> H -0.25738372545283705 3.050163652214172 -7.584991131797685
| 45> C -1.680006648296243 -1.7641796519593775 8.741468033727452
| 46> C 0.01029036897521239 0.06853754954711085 9.1056305901215
| 47> C -0.9952740698106355 -0.8571815795176992 9.7125562075029
| 48> H 0.9700501136301068 -0.36277343154803077 8.700094355213055
| 49> H 0.7191183071851948 0.614097162529148 9.7906169678991
| 50> H -1.705659240913326 -0.33454040415376946 10.385113224146552
| 51> H -0.5576745753646631 -1.428463654192053 10.556166260058815
| 52> H -2.277605356849192 -2.6311792391699353 9.144151519559154
| 53> H -1.0879021124566877 -2.5963445293703282 8.261266594912613
| 54> *
| 55>
| 56> % eprnmr
| 57> gtensor true
| 58> Nuclei = all H {aiso,adip,aorb,fgrad,rho}
| 59> Nuclei = all V {aiso,adip,aorb,fgrad,rho}
| 60> end
| 61>
| 62>                          ****END OF INPUT****

CARTESIAN COORDINATES (ANGSTROEM)
---------------------------------
  V      0.870529   -0.678491    0.117549
  S      1.778147    0.995753   -1.461108
  S      1.069370    1.099514    1.828234
  S     -0.371564   -1.578838   -1.826070
  S     -1.116369   -1.410381    1.383203
  O      2.040657   -1.703898    0.439454
  C      0.094158    0.399734    3.099355
  C     -0.806882   -0.629850    2.914995
  C      1.205781    0.356874   -2.998278
  C      0.350127   -0.663242   -3.142144
  S      0.175990    1.075885    4.754379
  S     -1.755807   -1.109448    4.351988
  S     -0.121278   -1.086519   -4.824157
  S      1.765625    1.152762   -4.510159
  C     -1.060098    0.055155    5.457461
  C      0.801942    0.185859   -5.638283
  C     -1.460049    0.151391    6.827639
  C      0.781279    0.390075   -6.979129
  S     -0.694071    1.303483    7.923674
  S     -2.718551   -0.900180    7.480351
  S      1.727729    1.689604   -7.754722
  S     -0.225374   -0.600013   -8.072083
  C     -1.346019    0.735592   -8.698008
  C      0.323127    2.689096   -8.432667
  C     -0.597391    1.895654   -9.374311
  H     -1.905646    1.119986   -7.841952
  H     -1.976335    0.245269   -9.443890
  H     -1.352143    2.593684   -9.762686
  H      0.005198    1.491354  -10.193690
  H      0.800409    3.488689   -9.004335
  H     -0.260082    3.052158   -7.583137
  C     -1.682705   -1.762185    8.743323
  C      0.007592    0.070532    9.107485
  C     -0.997972   -0.855187    9.714411
  H      0.967352   -0.360779    8.701949
  H      0.716420    0.616092    9.792472
  H     -1.708357   -0.332546   10.386968
  H     -0.560373   -1.426469   10.558021
  H     -2.280303   -2.629184    9.146006
  H     -1.090600   -2.594350    8.263121

 Total Charge           Charge          ....   -2
 Multiplicity           Mult            ....    2
 Number of Electrons    NEL             ....  321
 Basis Dimension        Dim             ....  681

ORBITAL ENERGIES
----------------
                 SPIN UP ORBITALS
  NO   OCC          E(Eh)            E(eV)
   0   1.0000    -196.675821     -5351.8212
   1   1.0000     -88.733797     -2414.5694
   2   1.0000     -88.733710     -2414.5670
   3   1.0000     -88.732369     -2414.5305
   4   1.0000     -88.732158     -2414.5248
   5   1.0000     -88.731624     -2414.5102
   6   1.0000     -88.731582     -2414.5091
   7   1.0000     -88.730210     -2414.4718
   8   1.0000     -88.730127     -2414.4695
   9   1.0000     -88.640869     -2412.0407
  10   1.0000     -88.640669     -2412.0352
  11   1.0000     -88.640306     -2412.0254
  12   1.0000     -88.639756     -2412.0104
  13   1.0000     -22.051173      -600.0429
  14   1.0000     -18.891201      -514.0557
  15   1.0000     -18.557602      -504.9780
  16   1.0000     -18.552468      -504.8383
  17   1.0000     -18.552366      -504.8356
  18   1.0000     -10.077395      -274.2199
  19   1.0000     -10.075892      -274.1790
  20   1.0000     -10.064746      -273.8757
  21   1.0000     -10.064711      -273.8747
  22   1.0000     -10.064623      -273.8723
  23   1.0000     -10.064541      -273.8701
  24   1.0000     -10.055719      -273.6300
  25   1.0000     -10.051239      -273.5081
  26   1.0000     -10.049222      -273.4532
  27   1.0000     -10.044968      -273.3375
  28   1.0000     -10.021829      -272.7078
  29   1.0000     -10.021033      -272.6862
  30   1.0000     -10.017814      -272.5986
  31   1.0000     -10.016981      -272.5759
  32   1.0000      -7.787277      -211.9026
  33   1.0000      -7.787182      -211.9000
  34   1.0000      -7.785831      -211.8632
  35   1.0000      -7.785675      -211.8590
  36   1.0000      -7.784941      -211.8390
  37   1.0000      -7.784895      -211.8378
  38   1.0000      -7.783430      -211.7979
  39   1.0000      -7.783387      -211.7967
  40   1.0000      -7.695364      -209.4015
  41   1.0000      -7.695077      -209.3937
  42   1.0000      -7.694532      -209.3789
  43   1.0000      -7.694087      -209.3667
  44   1.0000      -5.752263      -156.5270
  45   1.0000      -5.752168      -156.5244
  46   1.0000      -5.750589      -156.4815
  47   1.0000      -5.750428      -156.4771
  48   1.0000      -5.749958      -156.4643
  49   1.0000      -5.749919      -156.4632
  50   1.0000      -5.748846      -156.4341
  51   1.0000      -5.748758      -156.4317
  52   1.0000      -5.748408      -156.4221
  53   1.0000      -5.748369      -156.4211
  54   1.0000      -5.746492      -156.3700
  55   1.0000      -5.746452      -156.3689
  56   1.0000      -5.746269      -156.3639
  57   1.0000      -5.746113      -156.3597
  58   1.0000      -5.743968      -156.3013
  59   1.0000      -5.743914      -156.2999
  60   1.0000      -5.742068      -156.2496
  61   1.0000      -5.741973      -156.2470
  62   1.0000      -5.741893      -156.2449
  63   1.0000      -5.741728      -156.2404
  64   1.0000      -5.739767      -156.1870
  65   1.0000      -5.739716      -156.1856
  66   1.0000      -5.739203      -156.1717
  67   1.0000      -5.739156      -156.1704
  68   1.0000      -5.660573      -154.0320
  69   1.0000      -5.660313      -154.0250
  70   1.0000      -5.659859      -154.0126
  71   1.0000      -5.659404      -154.0002
  72   1.0000      -5.653987      -153.8528
  73   1.0000      -5.653721      -153.8456
  74   1.0000      -5.653228      -153.8322
  75   1.0000      -5.652776      -153.8199
  76   1.0000      -5.652761      -153.8194
  77   1.0000      -5.652467      -153.8114
  78   1.0000      -5.651841      -153.7944
  79   1.0000      -5.651382      -153.7819
  80   1.0000      -2.444716       -66.5241
  81   1.0000      -1.485957       -40.4349
  82   1.0000      -1.474372       -40.1197
  83   1.0000      -1.473553       -40.0974
  84   1.0000      -0.710432       -19.3318
  85   1.0000      -0.707477       -19.2514
  86   1.0000      -0.687185       -18.6993
  87   1.0000      -0.685723       -18.6595
  88   1.0000      -0.650764       -17.7082
  89   1.0000      -0.632469       -17.2104
  90   1.0000      -0.627612       -17.0782
  91   1.0000      -0.617713       -16.8088
  92   1.0000      -0.615106       -16.7379
  93   1.0000      -0.579104       -15.7582
  94   1.0000      -0.574152       -15.6235
  95   1.0000      -0.574017       -15.6198
  96   1.0000      -0.572989       -15.5918
  97   1.0000      -0.498708       -13.5705
  98   1.0000      -0.497396       -13.5348
  99   1.0000      -0.495539       -13.4843
 100   1.0000      -0.492746       -13.4083
 101   1.0000      -0.483160       -13.1474
 102   1.0000      -0.477929       -13.0051
 103   1.0000      -0.452408       -12.3106
 104   1.0000      -0.444585       -12.0978
 105   1.0000      -0.416161       -11.3243
 106   1.0000      -0.406795       -11.0694
 107   1.0000      -0.359401        -9.7798
 108   1.0000      -0.345677        -9.4063
 109   1.0000      -0.340462        -9.2644
 110   1.0000      -0.325116        -8.8469
 111   1.0000      -0.319925        -8.7056
 112   1.0000      -0.315184        -8.5766
 113   1.0000      -0.306347        -8.3361
 114   1.0000      -0.297501        -8.0954
 115   1.0000      -0.293766        -7.9938
 116   1.0000      -0.286710        -7.8018
 117   1.0000      -0.258385        -7.0310
 118   1.0000      -0.256670        -6.9843
 119   1.0000      -0.252458        -6.8697
 120   1.0000      -0.251292        -6.8380
 121   1.0000      -0.233474        -6.3532
 122   1.0000      -0.231133        -6.2895
 123   1.0000      -0.227396        -6.1878
 124   1.0000      -0.220947        -6.0123
 125   1.0000      -0.219965        -5.9856
 126   1.0000      -0.215198        -5.8558
 127   1.0000      -0.213194        -5.8013
 128   1.0000      -0.199892        -5.4393
 129   1.0000      -0.192853        -5.2478
 130   1.0000      -0.187747        -5.1089
 131   1.0000      -0.184638        -5.0243
 132   1.0000      -0.178529        -4.8580
 133   1.0000      -0.178041        -4.8447
 134   1.0000      -0.159627        -4.3437
 135   1.0000      -0.150634        -4.0990
 136   1.0000      -0.145699        -3.9647
 137   1.0000      -0.135936        -3.6990
 138   1.0000      -0.135289        -3.6814
 139   1.0000      -0.131937        -3.5902
 140   1.0000      -0.124752        -3.3947
 141   1.0000      -0.122729        -3.3396
 142   1.0000      -0.114553        -3.1171
 143   1.0000      -0.109644        -2.9836
 144   1.0000      -0.101944        -2.7740
 145   1.0000      -0.098536        -2.6813
 146   1.0000      -0.097500        -2.6531
 147   1.0000      -0.091795        -2.4979
 148   1.0000      -0.074650        -2.0313
 149   1.0000      -0.067917        -1.8481
 150   1.0000      -0.067362        -1.8330
 151   1.0000      -0.053291        -1.4501
 152   1.0000      -0.046018        -1.2522
 153   1.0000      -0.037904        -1.0314
 154   1.0000      -0.036944        -1.0053
 155   1.0000      -0.027683        -0.7533
 156   1.0000      -0.026001        -0.7075
 157   1.0000      -0.019696        -0.5360
 158   1.0000      -0.016744        -0.4556
 159   1.0000       0.021177         0.5762
 160   1.0000       0.041912         1.1405
 161   0.0000       0.134049         3.6477
 162   0.0000       0.137256         3.7349
 163   0.0000       0.157741         4.2923
 164   0.0000       0.161939         4.4066
 165   0.0000       0.168220         4.5775

                 SPIN DOWN ORBITALS
  NO   OCC          E(Eh)            E(eV)
   0   1.0000    -196.675966     -5351.8251
   1   1.0000     -88.733798     -2414.5694
   2   1.0000     -88.733711     -2414.5670
   3   1.0000     -88.732379     -2414.5308
   4   1.0000     -88.732168     -2414.5250
   5   1.0000     -88.731625     -2414.5103
   6   1.0000     -88.731583     -2414.5091
   7   1.0000     -88.730218     -2414.4720
   8   1.0000     -88.730135     -2414.4697
   9   1.0000     -88.641003     -2412.0443
  10   1.0000     -88.640805     -2412.0389
  11   1.0000     -88.640440     -2412.0290
  12   1.0000     -88.639892     -2412.0141
  13   1.0000     -22.036311      -599.6385
  14   1.0000     -18.894845      -514.1549
  15   1.0000     -18.552402      -504.8365
  16   1.0000     -18.536480      -504.4033
  17   1.0000     -18.536308      -504.3986
  18   1.0000     -10.077397      -274.2199
  19   1.0000     -10.075891      -274.1789
  20   1.0000     -10.064746      -273.8757
  21   1.0000     -10.064711      -273.8747
  22   1.0000     -10.064620      -273.8722
  23   1.0000     -10.064539      -273.8700
  24   1.0000     -10.055719      -273.6300
  25   1.0000     -10.051239      -273.5081
  26   1.0000     -10.049218      -273.4531
  27   1.0000     -10.044938      -273.3367
  28   1.0000     -10.021592      -272.7014
  29   1.0000     -10.020817      -272.6803
  30   1.0000     -10.017601      -272.5928
  31   1.0000     -10.016769      -272.5702
  32   1.0000      -7.787278      -211.9026
  33   1.0000      -7.787182      -211.9000
  34   1.0000      -7.785842      -211.8635
  35   1.0000      -7.785686      -211.8593
  36   1.0000      -7.784942      -211.8390
  37   1.0000      -7.784897      -211.8378
  38   1.0000      -7.783439      -211.7981
  39   1.0000      -7.783396      -211.7970
  40   1.0000      -7.695489      -209.4049
  41   1.0000      -7.695204      -209.3971
  42   1.0000      -7.694657      -209.3822
  43   1.0000      -7.694213      -209.3702
  44   1.0000      -5.752263      -156.5270
  45   1.0000      -5.752169      -156.5245
  46   1.0000      -5.750601      -156.4818
  47   1.0000      -5.750440      -156.4774
  48   1.0000      -5.749960      -156.4644
  49   1.0000      -5.749921      -156.4633
  50   1.0000      -5.748847      -156.4341
  51   1.0000      -5.748759      -156.4317
  52   1.0000      -5.748418      -156.4224
  53   1.0000      -5.748380      -156.4214
  54   1.0000      -5.746495      -156.3701
  55   1.0000      -5.746454      -156.3690
  56   1.0000      -5.746284      -156.3643
  57   1.0000      -5.746127      -156.3601
  58   1.0000      -5.743982      -156.3017
  59   1.0000      -5.743928      -156.3002
  60   1.0000      -5.742069      -156.2496
  61   1.0000      -5.741974      -156.2471
  62   1.0000      -5.741906      -156.2452
  63   1.0000      -5.741742      -156.2407
  64   1.0000      -5.739768      -156.1870
  65   1.0000      -5.739717      -156.1856
  66   1.0000      -5.739209      -156.1718
  67   1.0000      -5.739162      -156.1705
  68   1.0000      -5.660705      -154.0356
  69   1.0000      -5.660450      -154.0287
  70   1.0000      -5.659999      -154.0164
  71   1.0000      -5.659544      -154.0040
  72   1.0000      -5.654360      -153.8630
  73   1.0000      -5.654090      -153.8556
  74   1.0000      -5.653572      -153.8415
  75   1.0000      -5.653114      -153.8291
  76   1.0000      -5.652857      -153.8221
  77   1.0000      -5.652554      -153.8138
  78   1.0000      -5.651944      -153.7972
  79   1.0000      -5.651485      -153.7847
  80   1.0000      -2.400056       -65.3089
  81   1.0000      -1.466937       -39.9174
  82   1.0000      -1.412234       -38.4288
  83   1.0000      -1.412029       -38.4233
  84   1.0000      -0.710416       -19.3314
  85   1.0000      -0.707446       -19.2506
  86   1.0000      -0.687134       -18.6979
  87   1.0000      -0.685679       -18.6583
  88   1.0000      -0.658558       -17.9203
  89   1.0000      -0.632408       -17.2087
  90   1.0000      -0.627543       -17.0763
  91   1.0000      -0.617715       -16.8089
  92   1.0000      -0.615103       -16.7378
  93   1.0000      -0.579078       -15.7575
  94   1.0000      -0.574127       -15.6228
  95   1.0000      -0.573936       -15.6176
  96   1.0000      -0.572915       -15.5898
  97   1.0000      -0.498748       -13.5716
  98   1.0000      -0.497416       -13.5354
  99   1.0000      -0.495585       -13.4855
 100   1.0000      -0.492757       -13.4086
 101   1.0000      -0.483346       -13.1525
 102   1.0000      -0.478152       -13.0112
 103   1.0000      -0.452439       -12.3115
 104   1.0000      -0.444623       -12.0988
 105   1.0000      -0.416181       -11.3249
 106   1.0000      -0.406859       -11.0712
 107   1.0000      -0.359397        -9.7797
 108   1.0000      -0.345673        -9.4062
 109   1.0000      -0.340432        -9.2636
 110   1.0000      -0.325104        -8.8465
 111   1.0000      -0.319841        -8.7033
 112   1.0000      -0.315209        -8.5773
 113   1.0000      -0.306310        -8.3351
 114   1.0000      -0.297495        -8.0953
 115   1.0000      -0.293763        -7.9937
 116   1.0000      -0.286660        -7.8004
 117   1.0000      -0.258274        -7.0280
 118   1.0000      -0.256593        -6.9823
 119   1.0000      -0.252392        -6.8679
 120   1.0000      -0.251188        -6.8352
 121   1.0000      -0.233434        -6.3521
 122   1.0000      -0.231107        -6.2887
 123   1.0000      -0.227354        -6.1866
 124   1.0000      -0.220750        -6.0069
 125   1.0000      -0.219961        -5.9855
 126   1.0000      -0.214730        -5.8431
 127   1.0000      -0.213107        -5.7989
 128   1.0000      -0.199807        -5.4370
 129   1.0000      -0.190909        -5.1949
 130   1.0000      -0.187664        -5.1066
 131   1.0000      -0.184395        -5.0176
 132   1.0000      -0.178463        -4.8562
 133   1.0000      -0.177895        -4.8408
 134   1.0000      -0.159013        -4.3270
 135   1.0000      -0.150468        -4.0945
 136   1.0000      -0.145633        -3.9629
 137   1.0000      -0.135442        -3.6856
 138   1.0000      -0.135054        -3.6750
 139   1.0000      -0.131060        -3.5663
 140   1.0000      -0.124470        -3.3870
 141   1.0000      -0.122406        -3.3308
 142   1.0000      -0.116119        -3.1598
 143   1.0000      -0.111065        -3.0222
 144   1.0000      -0.102062        -2.7773
 145   1.0000      -0.098759        -2.6874
 146   1.0000      -0.097521        -2.6537
 147   1.0000      -0.091976        -2.5028
 148   1.0000      -0.070767        -1.9257
 149   1.0000      -0.067907        -1.8478
 150   1.0000      -0.067361        -1.8330
 151   1.0000      -0.050762        -1.3813
 152   1.0000      -0.045064        -1.2262
 153   1.0000      -0.037275        -1.0143
 154   1.0000      -0.036964        -1.0058
 155   1.0000      -0.027538        -0.7493
 156   1.0000      -0.026998        -0.7347
 157   1.0000      -0.016934        -0.4608
 158   1.0000       0.021518         0.5855
 159   1.0000       0.040822         1.1108
 160   0.0000       0.134029         3.6471
 161   0.0000       0.137244         3.7346
 162   0.0000       0.154929         4.2158
 163   0.0000       0.158312         4.3079
 164   0.0000       0.162691         4.4271

MULLIKEN ATOMIC CHARGES AND SPIN POPULATIONS
--------------------------------------------
   0 V :    0.469017    1.206236
   1 S :   -0.291597   -0.022342
   2 S :   -0.282496   -0.024459
   3 S :   -0.289822   -0.023283
   4 S :   -0.278248   -0.024934
   5 O :   -0.467230   -0.143619
   6 C :   -0.089450    0.009517
   7 C :   -0.095729    0.007534
   8 C :   -0.081875    0.007761
   9 C :   -0.082197    0.007433
  10 S :    0.116549   -0.000733
  11 S :    0.118015   -0.000751
  12 S :    0.097588   -0.000403
  13 S :    0.096701   -0.000357
  14 C :   -0.196109    0.000944
  15 C :   -0.215151    0.001039
  16 C :   -0.223867    0.001055
  17 C :   -0.183700   -0.000440
  18 S :    0.022631   -0.000167
  19 S :    0.023089   -0.000162
  20 S :    0.007786   -0.000072
  21 S :    0.007805   -0.000075
  22 C :   -0.301930    0.000001
  23 C :   -0.301781   -0.000001
  24 C :   -0.163172   -0.000013
  25 H :    0.144683   -0.000001
  26 H :    0.116143   -0.000004
  27 H :    0.086060   -0.000000
  28 H :    0.091629   -0.000001
  29 H :    0.115762   -0.000004
  30 H :    0.144497   -0.000001
  31 C :   -0.308512    0.000221
  32 C :   -0.309161    0.000218
  33 C :   -0.121345   -0.000215
  34 H :    0.127625   -0.000013
  35 H :    0.103745    0.000030
  36 H :    0.094620    0.000026
  37 H :    0.068736    0.000016
  38 H :    0.103533    0.000032
  39 H :    0.127158   -0.000011
Sum of atomic charges         :   -2.0000000

LOEWDIN ATOMIC CHARGES AND SPIN POPULATIONS
-------------------------------------------
   0 V :   -0.156405    1.160112
   1 S :    0.079060   -0.014391
   2 S :    0.087113   -0.015470
   3 S :    0.080368   -0.015171
   4 S :    0.091023   -0.015719
   5 O :   -0.318913   -0.128755
   6 C :   -0.556681    0.008908
   7 C :   -0.558842    0.007537
   8 C :   -0.550908    0.008127
   9 C :   -0.550913    0.007669
  10 S :    0.489549   -0.001059
  11 S :    0.490558   -0.001101
  12 S :    0.468538   -0.000823
  13 S :    0.467767   -0.000828
  14 C :   -0.475566   -0.000019
  15 C :   -0.463487   -0.000078
  16 C :   -0.646943    0.001120
  17 C :   -0.618159    0.000090
  18 S :    0.368303   -0.000103
  19 S :    0.369662   -0.000098
  20 S :    0.357372   -0.000076
  21 S :    0.356978   -0.000078
  22 C :   -0.282216   -0.000008
  23 C :   -0.282371   -0.000009
  24 C :   -0.178254   -0.000001
  25 H :    0.063733   -0.000001
  26 H :    0.054774   -0.000002
  27 H :    0.058264   -0.000001
  28 H :    0.059970   -0.000001
  29 H :    0.054733   -0.000002
  30 H :    0.063559   -0.000001
  31 C :   -0.312360    0.000098
  32 C :   -0.311601    0.000089
  33 C :   -0.175574    0.000004
  34 H :    0.066079   -0.000001
  35 H :    0.059448    0.000016
  36 H :    0.064860    0.000005
  37 H :    0.061731    0.000004
  38 H :    0.059680    0.000016
  39 H :    0.066071   -0.000000

  Mayer bond orders larger than 0.100000
B(  0-V ,  1-S ) :   0.7738 B(  0-V ,  2-S ) :   0.7697 B(  0-V ,  3-S ) :   0.7671
B(  0-V ,  4-S ) :   0.7770 B(  0-V ,  5-O ) :   2.1491 B(  1-S ,  8-C ) :   1.1018
B(  2-S ,  6-C ) :   1.1142 B(  3-S ,  9-C ) :   1.1043 B(  4-S ,  7-C ) :   1.1146
B(  6-C ,  7-C ) :   1.6358 B(  6-C , 10-S ) :   0.9483 B(  7-C , 11-S ) :   0.9522
B(  8-C ,  9-C ) :   1.7074 B(  8-C , 13-S ) :   0.9315 B(  9-C , 12-S ) :   0.9333
B( 10-S , 14-C ) :   1.2526 B( 11-S , 14-C ) :   1.2524 B( 12-S , 15-C ) :   1.2460
B( 13-S , 15-C ) :   1.2461 B( 14-C , 16-C ) :   1.3929 B( 15-C , 17-C ) :   1.4606
B( 16-C , 18-S ) :   1.0757 B( 16-C , 19-S ) :   1.0769 B( 17-C , 20-S ) :   1.0897
B( 17-C , 21-S ) :   1.0901 B( 18-S , 32-C ) :   1.0068 B( 19-S , 31-C ) :   1.0072
B( 20-S , 23-C ) :   0.9925 B( 21-S , 22-C ) :   0.9918 B( 22-C , 24-C ) :   0.9087
B( 22-C , 25-H ) :   0.9654 B( 22-C , 26-H ) :   0.9662 B( 23-C , 24-C ) :   0.9088
B( 23-C , 29-H ) :   0.9662 B( 23-C , 30-H ) :   0.9651 B( 24-C , 27-H ) :   0.9636
B( 24-C , 28-H ) :   0.9703 B( 31-C , 33-C ) :   0.9573 B( 31-C , 38-H ) :   0.9525
B( 31-C , 39-H ) :   0.9489 B( 32-C , 33-C ) :   0.9567 B( 32-C , 34-H ) :   0.9490
B( 32-C , 35-H ) :   0.9527 B( 33-C , 36-H ) :   0.9703 B( 33-C , 37-H ) :   0.9476

FINAL SINGLE POINT ENERGY     -6337.657913748776

DIPOLE MOMENT
-------------
                                X             Y             Z
Electronic contribution:     10.91528      -7.20462      -2.42811
Nuclear contribution   :    -12.09070       8.03202       2.31625
                        -----------------------------------------
Total Dipole Moment    :     -1.17543       0.82740      -0.11187
                        -----------------------------------------
Magnitude (a.u.)       :      1.44178
Magnitude (Debye)      :      3.66471

Rotational constants in cm-1:     0.010757     0.000804     0.000783
Rotational constants in MHz :   322.498969    24.115714    23.485917

                             ****ORCA TERMINATED NORMALLY****
TOTAL RUN TIME: 0 days 1 hours 2 minutes 6 seconds 168 msec
