                         Program Version 5.0.4 -  RELEASE  -
|  1> ! nofrozencore ReducedPop printbasis
|  2> ! B3LYP TZVP
|  3>
|  4> %basis
|  5> newgto V "CP(PPP)" end
|  6> end
|  7>
|  8> %pal
|  9> nprocs 8
| 10> end
| 11>
| 12> % sym SymThresh 1e-2 end
| 13> * xyz -2 2
| 14> V 0.036649708764691216 0.8376350517231702 -0.7321154911147456
| 15> S 2.2249137070359897 -0.2429902885733613 -1.1358636425801316
| 16> S -0.9362317822139019 -1.1262364172541826 -1.882668024981846
| 17> S 1.0679552765007183 1.756676357551778 1.3227541612631173
| 18> S -2.0180586973284913 0.8185182985128886 0.6327383553265908
| 19> O -0.09326126222118414 2.037079761945751 -1.7658947799291307
| 20> C -2.6208395756480836 -0.9225687294344078 -1.420356152856584
| 21> C -3.053571385334333 -0.14544336567782015 -0.4096594726582887
| 22> C 3.2115231932621504 0.5115561211545067 0.10811946991470266
| 23> C 2.7500605343145588 1.3066573311641119 1.0907683937640502
| 24> S -3.876714921408 -1.8649031751929177 -2.293721739146434
| 25> S -4.815868321773663 -0.17599343206412926 -0.07189149263450388
| 26> S 3.9608946310159294 1.906817166197343 2.2722352667182855
| 27> S 4.976765789408356 0.17246507127104757 0.1197535830282242
| 28> C -5.261372908444064 -1.3321622035352882 -1.3320936583228136
| 29> C 5.360170285088128 1.0727501778633761 1.5965257783215876
| 30> C -6.543473403693446 -1.7583544452234203 -1.5454488937100226
| 31> C 6.614168414194214 1.1174598827858215 2.1401394422688638
| 32> S -6.958901250879224 -2.882384244939149 -2.8644686223746887
| 33> S -7.900708292424813 -1.1907539091994643 -0.5396487447034342
| 34> S 7.9928537412951055 0.2605146076914829 1.4268003930705186
| 35> S 6.942267356624902 2.025705795803365 3.64886173756008
| 36> C 7.483644386479618 0.5749269120253875 4.699800705834457
| 37> C 8.336126206224236 -0.9195963959618892 2.7861336679695436
| 38> C 8.621826163770839 -0.1824922784301766 4.171917970692613
| 39> H 6.526779609216161 0.04516907724076102 4.7965026516828235
| 40> H 7.5804062488437145 1.2340243314458992 5.609350288341125
| 41> H 9.007965895870727 -1.1256033792015738 4.68563251765969
| 42> H 9.429171454551415 0.5718727825193634 4.163725648492745
| 43> H 9.270312472066367 -1.5528844844557408 2.738649357995179
| 44> H 7.528883394972539 -1.6395530683968664 3.0201419961649503
| 45> C -8.877936625317842 -0.32865410783827403 -1.8544752256849
| 46> C -8.071553199330365 -1.762395791345079 -3.832215895634521
| 47> C -9.261127853298706 -1.2320724944849175 -3.028131093682966
| 48> H -7.468887785479426 -0.9391499788604033 -4.222448432474189
| 49> H -8.422368587754088 -2.3596427529423796 -4.677611483302747
| 50> H -9.853534096247802 -2.07494458677451 -2.6583605825354404
| 51> H -9.902797233035095 -0.655532017240858 -3.7091352500211734
| 52> H -9.774328155019617 0.0428466258003027 -1.351565031575741
| 53> H -8.29765730266014 0.5307815403086823 -2.1977164451794966
| 54> *
| 55>
| 56> % eprnmr
| 57> gtensor true
| 58> Nuclei = all H {aiso,adip,aorb,fgrad,rho}
| 59> Nuclei = all V {aiso,adip,aorb,fgrad,rho}
| 60> end
| 61>
| 62>                          ****END OF INPUT****

CARTESIAN COORDINATES (ANGSTROEM)
---------------------------------
  V      0.034539    0.834737   -0.730757
  S      2.222803   -0.245888   -1.134505
  S     -0.938343   -1.129134   -1.881310
  S      1.065844    1.753779    1.324112
  S     -2.020170    0.815621    0.634097
  O     -0.095372    2.034182   -1.764537
  C     -2.622951   -0.925466   -1.418998
  C     -3.055682   -0.148341   -0.408301
  C      3.209412    0.508658    0.109478
  C      2.747949    1.303760    1.092127
  S     -3.878826   -1.867801   -2.292363
  S     -4.817979   -0.178891   -0.070533
  S      3.958784    1.903919    2.273594
  S      4.974655    0.169567    0.121112
  C     -5.263484   -1.335060   -1.330735
  C      5.358059    1.069852    1.597884
  C     -6.545584   -1.761252   -1.544091
  C      6.612057    1.114562    2.141498
  S     -6.961012   -2.885282   -2.863110
  S     -7.902819   -1.193652   -0.538290
  S      7.990743    0.257617    1.428159
  S      6.940156    2.022808    3.650220
  C      7.481533    0.572029    4.701159
  C      8.334015   -0.922494    2.787492
  C      8.619715   -0.185390    4.173276
  H      6.524669    0.042271    4.797861
  H      7.578295    1.231127    5.610709
  H      9.005855   -1.128501    4.686991
  H      9.427060    0.568975    4.165084
  H      9.268201   -1.555782    2.740008
  H      7.526772   -1.642451    3.021500
  C     -8.880048   -0.331552   -1.853117
  C     -8.073664   -1.765293   -3.830858
  C     -9.263239   -1.234970   -3.026773
  H     -7.470999   -0.942048   -4.221090
  H     -8.424480   -2.362540   -4.676253
  H     -9.855645   -2.077842   -2.657002
  H     -9.904908   -0.658430   -3.707777
  H     -9.776439    0.039949   -1.350207
  H     -8.299768    0.527884   -2.196358

 Total Charge           Charge          ....   -2
 Multiplicity           Mult            ....    2
 Number of Electrons    NEL             ....  321
 Basis Dimension        Dim             ....  681

ORBITAL ENERGIES
----------------
                 SPIN UP ORBITALS
  NO   OCC          E(Eh)            E(eV)
   0   1.0000    -196.675015     -5351.7992
   1   1.0000     -88.737245     -2414.6632
   2   1.0000     -88.733240     -2414.5542
   3   1.0000     -88.733197     -2414.5530
   4   1.0000     -88.733002     -2414.5477
   5   1.0000     -88.731565     -2414.5086
   6   1.0000     -88.730236     -2414.4725
   7   1.0000     -88.730208     -2414.4717
   8   1.0000     -88.730079     -2414.4682
   9   1.0000     -88.640200     -2412.0225
  10   1.0000     -88.639750     -2412.0102
  11   1.0000     -88.639569     -2412.0053
  12   1.0000     -88.639525     -2412.0041
  13   1.0000     -22.050413      -600.0222
  14   1.0000     -18.890298      -514.0311
  15   1.0000     -18.556861      -504.9579
  16   1.0000     -18.551687      -504.8171
  17   1.0000     -18.551588      -504.8144
  18   1.0000     -10.076730      -274.2018
  19   1.0000     -10.075814      -274.1769
  20   1.0000     -10.072600      -274.0894
  21   1.0000     -10.064699      -273.8744
  22   1.0000     -10.063516      -273.8422
  23   1.0000     -10.063439      -273.8401
  24   1.0000     -10.057182      -273.6698
  25   1.0000     -10.051330      -273.5106
  26   1.0000     -10.049124      -273.4506
  27   1.0000     -10.048295      -273.4280
  28   1.0000     -10.018489      -272.6169
  29   1.0000     -10.018231      -272.6099
  30   1.0000     -10.017692      -272.5953
  31   1.0000     -10.017293      -272.5844
  32   1.0000      -7.790539      -211.9913
  33   1.0000      -7.786667      -211.8860
  34   1.0000      -7.786656      -211.8857
  35   1.0000      -7.786498      -211.8814
  36   1.0000      -7.784903      -211.8380
  37   1.0000      -7.783493      -211.7996
  38   1.0000      -7.783418      -211.7976
  39   1.0000      -7.783375      -211.7964
  40   1.0000      -7.694459      -209.3769
  41   1.0000      -7.694081      -209.3666
  42   1.0000      -7.693955      -209.3632
  43   1.0000      -7.693791      -209.3587
  44   1.0000      -5.755635      -156.6188
  45   1.0000      -5.752083      -156.5221
  46   1.0000      -5.751656      -156.5105
  47   1.0000      -5.751642      -156.5101
  48   1.0000      -5.751414      -156.5039
  49   1.0000      -5.749847      -156.4613
  50   1.0000      -5.748433      -156.4228
  51   1.0000      -5.748366      -156.4210
  52   1.0000      -5.748314      -156.4196
  53   1.0000      -5.748250      -156.4178
  54   1.0000      -5.748228      -156.4172
  55   1.0000      -5.748103      -156.4138
  56   1.0000      -5.745380      -156.3397
  57   1.0000      -5.745264      -156.3366
  58   1.0000      -5.744011      -156.3025
  59   1.0000      -5.743947      -156.3007
  60   1.0000      -5.743885      -156.2991
  61   1.0000      -5.741461      -156.2331
  62   1.0000      -5.741456      -156.2330
  63   1.0000      -5.741291      -156.2285
  64   1.0000      -5.740755      -156.2139
  65   1.0000      -5.739316      -156.1747
  66   1.0000      -5.739228      -156.1723
  67   1.0000      -5.739201      -156.1716
  68   1.0000      -5.659784      -154.0105
  69   1.0000      -5.659377      -153.9995
  70   1.0000      -5.659254      -153.9961
  71   1.0000      -5.659118      -153.9924
  72   1.0000      -5.653131      -153.8295
  73   1.0000      -5.652730      -153.8186
  74   1.0000      -5.652609      -153.8153
  75   1.0000      -5.652454      -153.8111
  76   1.0000      -5.651784      -153.7929
  77   1.0000      -5.651401      -153.7824
  78   1.0000      -5.651253      -153.7784
  79   1.0000      -5.651082      -153.7738
  80   1.0000      -2.444056       -66.5061
  81   1.0000      -1.485365       -40.4188
  82   1.0000      -1.473694       -40.1013
  83   1.0000      -1.472883       -40.0792
  84   1.0000      -0.710749       -19.3405
  85   1.0000      -0.709536       -19.3075
  86   1.0000      -0.686624       -18.6840
  87   1.0000      -0.685666       -18.6579
  88   1.0000      -0.649906       -17.6848
  89   1.0000      -0.632621       -17.2145
  90   1.0000      -0.631373       -17.1805
  91   1.0000      -0.617746       -16.8097
  92   1.0000      -0.617301       -16.7976
  93   1.0000      -0.575357       -15.6563
  94   1.0000      -0.574450       -15.6316
  95   1.0000      -0.573912       -15.6170
  96   1.0000      -0.572938       -15.5904
  97   1.0000      -0.498017       -13.5517
  98   1.0000      -0.496415       -13.5081
  99   1.0000      -0.495906       -13.4943
 100   1.0000      -0.494654       -13.4602
 101   1.0000      -0.480268       -13.0687
 102   1.0000      -0.477516       -12.9939
 103   1.0000      -0.446728       -12.1561
 104   1.0000      -0.442769       -12.0483
 105   1.0000      -0.416369       -11.3300
 106   1.0000      -0.411249       -11.1906
 107   1.0000      -0.355396        -9.6708
 108   1.0000      -0.354549        -9.6478
 109   1.0000      -0.332675        -9.0525
 110   1.0000      -0.326720        -8.8905
 111   1.0000      -0.318363        -8.6631
 112   1.0000      -0.313872        -8.5409
 113   1.0000      -0.305024        -8.3001
 114   1.0000      -0.303808        -8.2670
 115   1.0000      -0.292505        -7.9595
 116   1.0000      -0.284019        -7.7286
 117   1.0000      -0.261001        -7.1022
 118   1.0000      -0.257144        -6.9972
 119   1.0000      -0.256527        -6.9805
 120   1.0000      -0.252741        -6.8774
 121   1.0000      -0.236820        -6.4442
 122   1.0000      -0.234393        -6.3781
 123   1.0000      -0.230717        -6.2781
 124   1.0000      -0.223519        -6.0823
 125   1.0000      -0.218838        -5.9549
 126   1.0000      -0.216657        -5.8955
 127   1.0000      -0.214052        -5.8246
 128   1.0000      -0.210632        -5.7316
 129   1.0000      -0.193318        -5.2604
 130   1.0000      -0.186140        -5.0651
 131   1.0000      -0.184918        -5.0319
 132   1.0000      -0.181218        -4.9312
 133   1.0000      -0.179566        -4.8862
 134   1.0000      -0.159638        -4.3440
 135   1.0000      -0.151889        -4.1331
 136   1.0000      -0.147055        -4.0016
 137   1.0000      -0.135822        -3.6959
 138   1.0000      -0.133484        -3.6323
 139   1.0000      -0.132958        -3.6180
 140   1.0000      -0.125144        -3.4053
 141   1.0000      -0.121184        -3.2976
 142   1.0000      -0.113592        -3.0910
 143   1.0000      -0.109763        -2.9868
 144   1.0000      -0.099976        -2.7205
 145   1.0000      -0.098304        -2.6750
 146   1.0000      -0.097535        -2.6541
 147   1.0000      -0.094867        -2.5815
 148   1.0000      -0.074633        -2.0309
 149   1.0000      -0.068296        -1.8584
 150   1.0000      -0.067467        -1.8359
 151   1.0000      -0.052440        -1.4270
 152   1.0000      -0.045712        -1.2439
 153   1.0000      -0.037726        -1.0266
 154   1.0000      -0.037238        -1.0133
 155   1.0000      -0.031464        -0.8562
 156   1.0000      -0.025123        -0.6836
 157   1.0000      -0.019224        -0.5231
 158   1.0000      -0.015537        -0.4228
 159   1.0000       0.020231         0.5505
 160   1.0000       0.041096         1.1183
 161   0.0000       0.135450         3.6858
 162   0.0000       0.136853         3.7240
 163   0.0000       0.148626         4.0443
 164   0.0000       0.161980         4.4077
 165   0.0000       0.170360         4.6357

                 SPIN DOWN ORBITALS
  NO   OCC          E(Eh)            E(eV)
   0   1.0000    -196.675162     -5351.8032
   1   1.0000     -88.737245     -2414.6632
   2   1.0000     -88.733241     -2414.5542
   3   1.0000     -88.733198     -2414.5531
   4   1.0000     -88.733002     -2414.5477
   5   1.0000     -88.731573     -2414.5088
   6   1.0000     -88.730245     -2414.4727
   7   1.0000     -88.730216     -2414.4719
   8   1.0000     -88.730088     -2414.4684
   9   1.0000     -88.640337     -2412.0262
  10   1.0000     -88.639890     -2412.0140
  11   1.0000     -88.639708     -2412.0091
  12   1.0000     -88.639667     -2412.0080
  13   1.0000     -22.035480      -599.6159
  14   1.0000     -18.894088      -514.1343
  15   1.0000     -18.551591      -504.8145
  16   1.0000     -18.535653      -504.3807
  17   1.0000     -18.535471      -504.3758
  18   1.0000     -10.076729      -274.2017
  19   1.0000     -10.075809      -274.1767
  20   1.0000     -10.072600      -274.0894
  21   1.0000     -10.064700      -273.8744
  22   1.0000     -10.063515      -273.8422
  23   1.0000     -10.063438      -273.8401
  24   1.0000     -10.057182      -273.6698
  25   1.0000     -10.051330      -273.5106
  26   1.0000     -10.049120      -273.4505
  27   1.0000     -10.048284      -273.4277
  28   1.0000     -10.018275      -272.6111
  29   1.0000     -10.017993      -272.6034
  30   1.0000     -10.017481      -272.5895
  31   1.0000     -10.017069      -272.5783
  32   1.0000      -7.790539      -211.9914
  33   1.0000      -7.786668      -211.8860
  34   1.0000      -7.786657      -211.8857
  35   1.0000      -7.786499      -211.8814
  36   1.0000      -7.784912      -211.8382
  37   1.0000      -7.783502      -211.7999
  38   1.0000      -7.783427      -211.7978
  39   1.0000      -7.783385      -211.7967
  40   1.0000      -7.694586      -209.3803
  41   1.0000      -7.694211      -209.3701
  42   1.0000      -7.694084      -209.3667
  43   1.0000      -7.693923      -209.3623
  44   1.0000      -5.755636      -156.6188
  45   1.0000      -5.752083      -156.5221
  46   1.0000      -5.751657      -156.5105
  47   1.0000      -5.751643      -156.5102
  48   1.0000      -5.751415      -156.5040
  49   1.0000      -5.749857      -156.4616
  50   1.0000      -5.748443      -156.4231
  51   1.0000      -5.748376      -156.4213
  52   1.0000      -5.748324      -156.4199
  53   1.0000      -5.748251      -156.4179
  54   1.0000      -5.748229      -156.4173
  55   1.0000      -5.748104      -156.4139
  56   1.0000      -5.745394      -156.3401
  57   1.0000      -5.745265      -156.3366
  58   1.0000      -5.744025      -156.3029
  59   1.0000      -5.743961      -156.3011
  60   1.0000      -5.743899      -156.2994
  61   1.0000      -5.741462      -156.2331
  62   1.0000      -5.741457      -156.2330
  63   1.0000      -5.741291      -156.2285
  64   1.0000      -5.740761      -156.2140
  65   1.0000      -5.739324      -156.1749
  66   1.0000      -5.739234      -156.1725
  67   1.0000      -5.739210      -156.1719
  68   1.0000      -5.659925      -154.0144
  69   1.0000      -5.659516      -154.0033
  70   1.0000      -5.659396      -154.0000
  71   1.0000      -5.659260      -153.9963
  72   1.0000      -5.653481      -153.8390
  73   1.0000      -5.653118      -153.8292
  74   1.0000      -5.652968      -153.8251
  75   1.0000      -5.652838      -153.8215
  76   1.0000      -5.651889      -153.7957
  77   1.0000      -5.651487      -153.7848
  78   1.0000      -5.651359      -153.7813
  79   1.0000      -5.651176      -153.7763
  80   1.0000      -2.399171       -65.2848
  81   1.0000      -1.466062       -39.8936
  82   1.0000      -1.411319       -38.4039
  83   1.0000      -1.411153       -38.3994
  84   1.0000      -0.710735       -19.3401
  85   1.0000      -0.709510       -19.3068
  86   1.0000      -0.686581       -18.6828
  87   1.0000      -0.685610       -18.6564
  88   1.0000      -0.658037       -17.9061
  89   1.0000      -0.632567       -17.2130
  90   1.0000      -0.631297       -17.1785
  91   1.0000      -0.617745       -16.8097
  92   1.0000      -0.617301       -16.7976
  93   1.0000      -0.575326       -15.6554
  94   1.0000      -0.574420       -15.6307
  95   1.0000      -0.573848       -15.6152
  96   1.0000      -0.572861       -15.5883
  97   1.0000      -0.498043       -13.5524
  98   1.0000      -0.496442       -13.5089
  99   1.0000      -0.495948       -13.4954
 100   1.0000      -0.494693       -13.4613
 101   1.0000      -0.480458       -13.0739
 102   1.0000      -0.477768       -13.0007
 103   1.0000      -0.446751       -12.1567
 104   1.0000      -0.442813       -12.0496
 105   1.0000      -0.416366       -11.3299
 106   1.0000      -0.411357       -11.1936
 107   1.0000      -0.355386        -9.6706
 108   1.0000      -0.354543        -9.6476
 109   1.0000      -0.332671        -9.0524
 110   1.0000      -0.326705        -8.8901
 111   1.0000      -0.318290        -8.6611
 112   1.0000      -0.313893        -8.5415
 113   1.0000      -0.304972        -8.2987
 114   1.0000      -0.303777        -8.2662
 115   1.0000      -0.292499        -7.9593
 116   1.0000      -0.284001        -7.7281
 117   1.0000      -0.260910        -7.0997
 118   1.0000      -0.257063        -6.9950
 119   1.0000      -0.256465        -6.9788
 120   1.0000      -0.252711        -6.8766
 121   1.0000      -0.236722        -6.4415
 122   1.0000      -0.234375        -6.3777
 123   1.0000      -0.230677        -6.2770
 124   1.0000      -0.223465        -6.0808
 125   1.0000      -0.218443        -5.9441
 126   1.0000      -0.216514        -5.8917
 127   1.0000      -0.213901        -5.8205
 128   1.0000      -0.210536        -5.7290
 129   1.0000      -0.191595        -5.2136
 130   1.0000      -0.185849        -5.0572
 131   1.0000      -0.184615        -5.0236
 132   1.0000      -0.181159        -4.9296
 133   1.0000      -0.179454        -4.8832
 134   1.0000      -0.159016        -4.3270
 135   1.0000      -0.151717        -4.1284
 136   1.0000      -0.146975        -3.9994
 137   1.0000      -0.135201        -3.6790
 138   1.0000      -0.133245        -3.6258
 139   1.0000      -0.132590        -3.6079
 140   1.0000      -0.124600        -3.3905
 141   1.0000      -0.120859        -3.2887
 142   1.0000      -0.115393        -3.1400
 143   1.0000      -0.111350        -3.0300
 144   1.0000      -0.099971        -2.7203
 145   1.0000      -0.098631        -2.6839
 146   1.0000      -0.097512        -2.6534
 147   1.0000      -0.095195        -2.5904
 148   1.0000      -0.070800        -1.9266
 149   1.0000      -0.068279        -1.8580
 150   1.0000      -0.067471        -1.8360
 151   1.0000      -0.049846        -1.3564
 152   1.0000      -0.044775        -1.2184
 153   1.0000      -0.037769        -1.0277
 154   1.0000      -0.036677        -0.9980
 155   1.0000      -0.031517        -0.8576
 156   1.0000      -0.026151        -0.7116
 157   1.0000      -0.015748        -0.4285
 158   1.0000       0.020529         0.5586
 159   1.0000       0.039990         1.0882
 160   0.0000       0.135443         3.6856
 161   0.0000       0.136862         3.7242
 162   0.0000       0.148464         4.0399
 163   0.0000       0.156338         4.2542
 164   0.0000       0.162682         4.4268

MULLIKEN ATOMIC CHARGES AND SPIN POPULATIONS
--------------------------------------------
   0 V :    0.471108    1.210752
   1 S :   -0.289604   -0.022432
   2 S :   -0.289654   -0.025227
   3 S :   -0.289099   -0.023304
   4 S :   -0.285685   -0.025753
   5 O :   -0.467730   -0.146806
   6 C :   -0.077438    0.009662
   7 C :   -0.084175    0.008103
   8 C :   -0.082486    0.007759
   9 C :   -0.086560    0.007366
  10 S :    0.099709   -0.000584
  11 S :    0.101000   -0.000628
  12 S :    0.102028   -0.000390
  13 S :    0.099133   -0.000343
  14 C :   -0.213746    0.001512
  15 C :   -0.210708    0.000984
  16 C :   -0.191497   -0.000069
  17 C :   -0.192482   -0.000398
  18 S :    0.009210   -0.000113
  19 S :    0.009085   -0.000112
  20 S :    0.031707   -0.000068
  21 S :   -0.016327   -0.000071
  22 C :   -0.288029   -0.000003
  23 C :   -0.294237   -0.000001
  24 C :   -0.140250   -0.000011
  25 H :    0.148945   -0.000001
  26 H :    0.099053   -0.000007
  27 H :    0.072209   -0.000001
  28 H :    0.086063   -0.000001
  29 H :    0.103592   -0.000003
  30 H :    0.139414   -0.000001
  31 C :   -0.300232    0.000194
  32 C :   -0.300995    0.000190
  33 C :   -0.157317   -0.000239
  34 H :    0.142050   -0.000018
  35 H :    0.113564    0.000019
  36 H :    0.092219    0.000023
  37 H :    0.082587    0.000015
  38 H :    0.113452    0.000020
  39 H :    0.142122   -0.000018
Sum of atomic charges         :   -2.0000000

LOEWDIN ATOMIC CHARGES AND SPIN POPULATIONS
-------------------------------------------
   0 V :   -0.155871    1.164099
   1 S :    0.080953   -0.014456
   2 S :    0.079412   -0.016095
   3 S :    0.081038   -0.015195
   4 S :    0.083248   -0.016343
   5 O :   -0.318985   -0.131711
   6 C :   -0.549961    0.009046
   7 C :   -0.552103    0.007965
   8 C :   -0.551323    0.008127
   9 C :   -0.553048    0.007674
  10 S :    0.471291   -0.000901
  11 S :    0.472255   -0.000949
  12 S :    0.474498   -0.000819
  13 S :    0.469582   -0.000832
  14 C :   -0.465082    0.000164
  15 C :   -0.464840   -0.000082
  16 C :   -0.622677    0.000471
  17 C :   -0.623291    0.000084
  18 S :    0.358842   -0.000089
  19 S :    0.360060   -0.000087
  20 S :    0.377972   -0.000072
  21 S :    0.344639   -0.000075
  22 C :   -0.281688   -0.000011
  23 C :   -0.303382   -0.000007
  24 C :   -0.187519   -0.000001
  25 H :    0.062710   -0.000001
  26 H :    0.055128   -0.000003
  27 H :    0.064369   -0.000002
  28 H :    0.063084   -0.000001
  29 H :    0.061437   -0.000002
  30 H :    0.064140   -0.000002
  31 C :   -0.284006    0.000043
  32 C :   -0.283851    0.000036
  33 C :   -0.176303    0.000007
  34 H :    0.062105   -0.000001
  35 H :    0.053557    0.000008
  36 H :    0.060239    0.000005
  37 H :    0.057790    0.000002
  38 H :    0.053582    0.000009
  39 H :    0.061999   -0.000000

  Mayer bond orders larger than 0.100000
B(  0-V ,  1-S ) :   0.7713 B(  0-V ,  2-S ) :   0.7717 B(  0-V ,  3-S ) :   0.7642
B(  0-V ,  4-S ) :   0.7790 B(  0-V ,  5-O ) :   2.1486 B(  1-S ,  8-C ) :   1.1047
B(  2-S ,  6-C ) :   1.1042 B(  3-S ,  9-C ) :   1.1063 B(  4-S ,  7-C ) :   1.1044
B(  6-C ,  7-C ) :   1.6844 B(  6-C , 10-S ) :   0.9351 B(  7-C , 11-S ) :   0.9390
B(  8-C ,  9-C ) :   1.6972 B(  8-C , 13-S ) :   0.9345 B(  9-C , 12-S ) :   0.9359
B( 10-S , 14-C ) :   1.2485 B( 11-S , 14-C ) :   1.2484 B( 12-S , 15-C ) :   1.2482
B( 13-S , 15-C ) :   1.2465 B( 14-C , 16-C ) :   1.4514 B( 15-C , 17-C ) :   1.4512
B( 16-C , 18-S ) :   1.0881 B( 16-C , 19-S ) :   1.0895 B( 17-C , 20-S ) :   1.0869
B( 17-C , 21-S ) :   1.0763 B( 18-S , 32-C ) :   0.9919 B( 19-S , 31-C ) :   0.9918
B( 20-S , 23-C ) :   0.9836 B( 21-S , 22-C ) :   0.9610 B( 22-C , 24-C ) :   0.9453
B( 22-C , 25-H ) :   0.9720 B( 22-C , 26-H ) :   0.9655 B( 23-C , 24-C ) :   0.8721
B( 23-C , 29-H ) :   0.9640 B( 23-C , 30-H ) :   0.9590 B( 24-C , 27-H ) :   0.9623
B( 24-C , 28-H ) :   0.9643 B( 31-C , 33-C ) :   0.9136 B( 31-C , 38-H ) :   0.9655
B( 31-C , 39-H ) :   0.9659 B( 32-C , 33-C ) :   0.9133 B( 32-C , 34-H ) :   0.9657
B( 32-C , 35-H ) :   0.9655 B( 33-C , 36-H ) :   0.9717 B( 33-C , 37-H ) :   0.9624

FINAL SINGLE POINT ENERGY     -6337.675268784620

DIPOLE MOMENT
-------------
                                X             Y             Z
Electronic contribution:      3.80097      10.18964      -8.31052
Nuclear contribution   :     -4.30873     -11.27808       9.16307
                        -----------------------------------------
Total Dipole Moment    :     -0.50776      -1.08845       0.85255
                        -----------------------------------------
Magnitude (a.u.)       :      1.47288
Magnitude (Debye)      :      3.74376

Rotational constants in cm-1:     0.010760     0.000804     0.000783
Rotational constants in MHz :   322.568236    24.115795    23.486771

                             ****ORCA TERMINATED NORMALLY****
TOTAL RUN TIME: 0 days 1 hours 2 minutes 3 seconds 151 msec
