                         Program Version 5.0.4 -  RELEASE  -
|  1> ! nofrozencore ReducedPop printbasis
|  2> ! B3LYP TZVP
|  3>
|  4> %basis
|  5> newgto V "CP(PPP)" end
|  6> end
|  7>
|  8> %pal
|  9> nprocs 6
| 10> end
| 11>
| 12> % sym SymThresh 1e-2 end
| 13> * xyz -2 2
| 14> V 0.03643224353411428 0.9497365154390409 -0.5793466828400585
| 15> S 1.6839765875765573 1.4178788687789103 1.2054152510455696
| 16> S 1.755498816494627 -0.5676703892542637 -1.5117378922521185
| 17> S -1.6884408091557415 1.3394868349387998 1.153828589768057
| 18> S -1.6009768295336024 -0.6721744535214944 -1.4587517167436737
| 19> O 0.01982465024574981 2.2102786345918712 -1.5463008767669792
| 20> C 0.7581436208129584 -1.4648777392132575 -2.648945766951085
| 21> C -0.587458186205545 -1.5091082871143786 -2.625053203235469
| 22> C 0.635326554743585 1.989705520705344 2.495812403736171
| 23> C -0.7097006769313391 1.9553032358838045 2.475624268409995
| 24> S 1.5651594462579632 -2.467041871141387 -3.902797208733586
| 25> S -1.3767829287242017 -2.57277543327839 -3.835876287736325
| 26> S -1.5484640091544157 2.550733353066467 3.9478952544906427
| 27> S 1.3950937643012242 2.633031037167506 3.991356103498465
| 28> C 0.1001963317999632 -3.164051535156597 -4.605087674236943
| 29> C -0.09962857902901164 2.911401569400255 4.893432252488573
| 30> C 0.10519980882679264 -4.057211389297232 -5.641395842416718
| 31> C -0.13231741470791542 3.367061430995153 6.182293581836023
| 32> S 1.6152050077107394 -4.585160560281232 -6.427088752329211
| 33> S -1.4043836769612954 -4.732023187529114 -6.306045764153673
| 34> S 1.3569843519702653 3.714457111895638 7.096929763822575
| 35> S -1.667067724375697 3.6112179296264317 7.05539567833778
| 36> C -1.4151259866596495 2.356816604633673 8.3938907391617
| 37> C 1.1545176211655572 2.448742698721015 8.433203515480622
| 38> C -0.14935564600187462 2.5886319968956726 9.222309556948643
| 39> H -1.403889270281755 1.3787037642474635 7.938483127326255
| 40> H -2.310432481422674 2.4286837142733466 9.03500167414658
| 41> H -0.13527270993371654 1.85438128222413 10.038311104827097
| 42> H -0.19272662062213483 3.587853465136396 9.682410608494216
| 43> H 2.022547593820338 2.5884943757600545 9.101644000818487
| 44> H 1.2288841197133535 1.471813758756073 7.983772934427535
| 45> C -1.2980669139107084 -4.082413646990583 -8.034242709798688
| 46> C 1.304070753090531 -3.9498994058749757 -8.136427799018707
| 47> C -0.0004921248458867103 -4.465006159403708 -8.754325568147502
| 48> H 1.2600860561755882 -2.484825914343876 -8.031638566865915
| 49> H 1.9290761825274594 -4.131153481358159 -8.569359206813404
| 50> H 0.04474657250235894 -5.3806703025122005 -8.808188765477643
| 51> H -0.062497225422070715 -4.05991400840431 -9.805750214306807
| 52> H -1.938330499849632 -4.334476098041482 -8.41855208731613
| 53> H -1.3990890347320533 -2.6296625332326173 -7.934011078235847
| 54> *
| 55>
| 56> % eprnmr
| 57> gtensor true
| 58> Nuclei = all H {aiso,adip,aorb,fgrad,rho}
| 59> Nuclei = all V {aiso,adip,aorb,fgrad,rho}
| 60> end
| 61>
| 62>                          ****END OF INPUT****

CARTESIAN COORDINATES (ANGSTROEM)
---------------------------------
  V      0.036528    0.945911   -0.579573
  S      1.684073    1.414053    1.205189
  S      1.755595   -0.571496   -1.511964
  S     -1.688345    1.335661    1.153602
  S     -1.600881   -0.676000   -1.458978
  O      0.019921    2.206453   -1.546527
  C      0.758240   -1.468704   -2.649172
  C     -0.587362   -1.512934   -2.625280
  C      0.635423    1.985880    2.495586
  C     -0.709605    1.951477    2.475398
  S      1.565255   -2.470868   -3.903024
  S     -1.376687   -2.576601   -3.836103
  S     -1.548368    2.546908    3.947669
  S      1.395190    2.629205    3.991130
  C      0.100292   -3.167877   -4.605314
  C     -0.099533    2.907576    4.893206
  C      0.105296   -4.061037   -5.641622
  C     -0.132221    3.363236    6.182067
  S      1.615301   -4.588986   -6.427315
  S     -1.404288   -4.735849   -6.306272
  S      1.357080    3.710631    7.096703
  S     -1.666972    3.607392    7.055169
  C     -1.415030    2.352991    8.393664
  C      1.154614    2.444917    8.432977
  C     -0.149260    2.584806    9.222083
  H     -1.403793    1.374878    7.938257
  H     -2.310336    2.424858    9.034775
  H     -0.135177    1.850555   10.038085
  H     -0.192631    3.584028    9.682184
  H      2.022644    2.584669    9.101418
  H      1.228980    1.467988    7.983546
  C     -1.297971   -4.086239   -8.034469
  C      1.304167   -3.953725   -8.136654
  C     -0.000396   -4.468832   -8.754552
  H      1.260182   -2.488652   -8.031865
  H      1.929172   -4.134979   -8.569586
  H      0.044843   -5.384496   -8.808415
  H     -0.062401   -4.063740   -9.805977
  H     -1.938234   -4.338302   -8.418779
  H     -1.398993   -2.633488   -7.934238

 Total Charge           Charge          ....   -2
 Multiplicity           Mult            ....    2
 Number of Electrons    NEL             ....  321
 Basis Dimension        Dim             ....  681

ORBITAL ENERGIES
----------------
                 SPIN UP ORBITALS
  NO   OCC          E(Eh)            E(eV)
   0   1.0000    -196.674676     -5351.7900
   1   1.0000     -88.737667     -2414.6747
   2   1.0000     -88.737538     -2414.6712
   3   1.0000     -88.733014     -2414.5481
   4   1.0000     -88.732933     -2414.5459
   5   1.0000     -88.730804     -2414.4879
   6   1.0000     -88.730613     -2414.4827
   7   1.0000     -88.729937     -2414.4643
   8   1.0000     -88.729856     -2414.4621
   9   1.0000     -88.639700     -2412.0089
  10   1.0000     -88.639556     -2412.0049
  11   1.0000     -88.639506     -2412.0036
  12   1.0000     -88.639060     -2411.9914
  13   1.0000     -22.050060      -600.0126
  14   1.0000     -18.889919      -514.0208
  15   1.0000     -18.556503      -504.9481
  16   1.0000     -18.551336      -504.8075
  17   1.0000     -18.551238      -504.8049
  18   1.0000     -10.077381      -274.2195
  19   1.0000     -10.075678      -274.1731
  20   1.0000     -10.062936      -273.8264
  21   1.0000     -10.062907      -273.8256
  22   1.0000     -10.061770      -273.7947
  23   1.0000     -10.061614      -273.7904
  24   1.0000     -10.051416      -273.5129
  25   1.0000     -10.050761      -273.4951
  26   1.0000     -10.048239      -273.4265
  27   1.0000     -10.041649      -273.2472
  28   1.0000     -10.018426      -272.6152
  29   1.0000     -10.017712      -272.5958
  30   1.0000     -10.017493      -272.5899
  31   1.0000     -10.016918      -272.5742
  32   1.0000      -7.790922      -212.0018
  33   1.0000      -7.790806      -211.9986
  34   1.0000      -7.786473      -211.8807
  35   1.0000      -7.786388      -211.8784
  36   1.0000      -7.784051      -211.8148
  37   1.0000      -7.783913      -211.8110
  38   1.0000      -7.783199      -211.7916
  39   1.0000      -7.783155      -211.7904
  40   1.0000      -7.694006      -209.3646
  41   1.0000      -7.693874      -209.3610
  42   1.0000      -7.693724      -209.3569
  43   1.0000      -7.693453      -209.3495
  44   1.0000      -5.755891      -156.6258
  45   1.0000      -5.755779      -156.6227
  46   1.0000      -5.752448      -156.5321
  47   1.0000      -5.752324      -156.5287
  48   1.0000      -5.751463      -156.5053
  49   1.0000      -5.751378      -156.5030
  50   1.0000      -5.749017      -156.4387
  51   1.0000      -5.748876      -156.4349
  52   1.0000      -5.748149      -156.4151
  53   1.0000      -5.748108      -156.4140
  54   1.0000      -5.748044      -156.4122
  55   1.0000      -5.747962      -156.4100
  56   1.0000      -5.745849      -156.3525
  57   1.0000      -5.745734      -156.3494
  58   1.0000      -5.744559      -156.3174
  59   1.0000      -5.744414      -156.3135
  60   1.0000      -5.743718      -156.2945
  61   1.0000      -5.743666      -156.2931
  62   1.0000      -5.741267      -156.2278
  63   1.0000      -5.741182      -156.2255
  64   1.0000      -5.739862      -156.1896
  65   1.0000      -5.739720      -156.1857
  66   1.0000      -5.739013      -156.1665
  67   1.0000      -5.738970      -156.1653
  68   1.0000      -5.659307      -153.9976
  69   1.0000      -5.659182      -153.9942
  70   1.0000      -5.659058      -153.9908
  71   1.0000      -5.658747      -153.9823
  72   1.0000      -5.652665      -153.8168
  73   1.0000      -5.652524      -153.8130
  74   1.0000      -5.652408      -153.8098
  75   1.0000      -5.652112      -153.8018
  76   1.0000      -5.651324      -153.7803
  77   1.0000      -5.651188      -153.7766
  78   1.0000      -5.651024      -153.7722
  79   1.0000      -5.650750      -153.7647
  80   1.0000      -2.443710       -66.4967
  81   1.0000      -1.485010       -40.4092
  82   1.0000      -1.473358       -40.0921
  83   1.0000      -1.472537       -40.0698
  84   1.0000      -0.715179       -19.4610
  85   1.0000      -0.709411       -19.3041
  86   1.0000      -0.692939       -18.8558
  87   1.0000      -0.685366       -18.6498
  88   1.0000      -0.649497       -17.6737
  89   1.0000      -0.638592       -17.3770
  90   1.0000      -0.638089       -17.3633
  91   1.0000      -0.631034       -17.1713
  92   1.0000      -0.617024       -16.7901
  93   1.0000      -0.576315       -15.6823
  94   1.0000      -0.575716       -15.6660
  95   1.0000      -0.574311       -15.6278
  96   1.0000      -0.572718       -15.5845
  97   1.0000      -0.518597       -14.1117
  98   1.0000      -0.512780       -13.9535
  99   1.0000      -0.495785       -13.4910
 100   1.0000      -0.495671       -13.4879
 101   1.0000      -0.481588       -13.1047
 102   1.0000      -0.477738       -12.9999
 103   1.0000      -0.471293       -12.8245
 104   1.0000      -0.446250       -12.1431
 105   1.0000      -0.417890       -11.3714
 106   1.0000      -0.411860       -11.2073
 107   1.0000      -0.360285        -9.8039
 108   1.0000      -0.354971        -9.6593
 109   1.0000      -0.341805        -9.3010
 110   1.0000      -0.325698        -8.8627
 111   1.0000      -0.319661        -8.6984
 112   1.0000      -0.314939        -8.5699
 113   1.0000      -0.307734        -8.3739
 114   1.0000      -0.303503        -8.2587
 115   1.0000      -0.293942        -7.9986
 116   1.0000      -0.274044        -7.4571
 117   1.0000      -0.266175        -7.2430
 118   1.0000      -0.257478        -7.0063
 119   1.0000      -0.256123        -6.9695
 120   1.0000      -0.255335        -6.9480
 121   1.0000      -0.234903        -6.3920
 122   1.0000      -0.234329        -6.3764
 123   1.0000      -0.231539        -6.3005
 124   1.0000      -0.229347        -6.2408
 125   1.0000      -0.220031        -5.9874
 126   1.0000      -0.217615        -5.9216
 127   1.0000      -0.211937        -5.7671
 128   1.0000      -0.202068        -5.4985
 129   1.0000      -0.192980        -5.2512
 130   1.0000      -0.187222        -5.0946
 131   1.0000      -0.183449        -4.9919
 132   1.0000      -0.180972        -4.9245
 133   1.0000      -0.176850        -4.8123
 134   1.0000      -0.159178        -4.3314
 135   1.0000      -0.151312        -4.1174
 136   1.0000      -0.146441        -3.9848
 137   1.0000      -0.136927        -3.7260
 138   1.0000      -0.134236        -3.6527
 139   1.0000      -0.132706        -3.6111
 140   1.0000      -0.125074        -3.4034
 141   1.0000      -0.120914        -3.2902
 142   1.0000      -0.113211        -3.0806
 143   1.0000      -0.109666        -2.9842
 144   1.0000      -0.099633        -2.7111
 145   1.0000      -0.097983        -2.6663
 146   1.0000      -0.097791        -2.6610
 147   1.0000      -0.095060        -2.5867
 148   1.0000      -0.074326        -2.0225
 149   1.0000      -0.068594        -1.8665
 150   1.0000      -0.067165        -1.8276
 151   1.0000      -0.052178        -1.4198
 152   1.0000      -0.045411        -1.2357
 153   1.0000      -0.037706        -1.0260
 154   1.0000      -0.036903        -1.0042
 155   1.0000      -0.031481        -0.8566
 156   1.0000      -0.024752        -0.6735
 157   1.0000      -0.018905        -0.5144
 158   1.0000      -0.015259        -0.4152
 159   1.0000       0.020538         0.5589
 160   1.0000       0.041432         1.1274
 161   0.0000       0.133762         3.6399
 162   0.0000       0.137269         3.7353
 163   0.0000       0.149512         4.0684
 164   0.0000       0.152669         4.1543
 165   0.0000       0.162334         4.4173

                 SPIN DOWN ORBITALS
  NO   OCC          E(Eh)            E(eV)
   0   1.0000    -196.674823     -5351.7940
   1   1.0000     -88.737668     -2414.6747
   2   1.0000     -88.737539     -2414.6712
   3   1.0000     -88.733014     -2414.5481
   4   1.0000     -88.732934     -2414.5459
   5   1.0000     -88.730812     -2414.4882
   6   1.0000     -88.730622     -2414.4830
   7   1.0000     -88.729945     -2414.4646
   8   1.0000     -88.729864     -2414.4623
   9   1.0000     -88.639839     -2412.0127
  10   1.0000     -88.639693     -2412.0087
  11   1.0000     -88.639647     -2412.0074
  12   1.0000     -88.639199     -2411.9952
  13   1.0000     -22.035124      -599.6062
  14   1.0000     -18.893721      -514.1243
  15   1.0000     -18.551229      -504.8046
  16   1.0000     -18.535302      -504.3712
  17   1.0000     -18.535117      -504.3662
  18   1.0000     -10.077375      -274.2193
  19   1.0000     -10.075678      -274.1731
  20   1.0000     -10.062936      -273.8264
  21   1.0000     -10.062907      -273.8256
  22   1.0000     -10.061769      -273.7946
  23   1.0000     -10.061613      -273.7904
  24   1.0000     -10.051416      -273.5129
  25   1.0000     -10.050749      -273.4948
  26   1.0000     -10.048235      -273.4264
  27   1.0000     -10.041649      -273.2472
  28   1.0000     -10.018188      -272.6087
  29   1.0000     -10.017498      -272.5900
  30   1.0000     -10.017270      -272.5838
  31   1.0000     -10.016706      -272.5684
  32   1.0000      -7.790923      -212.0018
  33   1.0000      -7.790807      -211.9986
  34   1.0000      -7.786473      -211.8807
  35   1.0000      -7.786388      -211.8784
  36   1.0000      -7.784061      -211.8151
  37   1.0000      -7.783922      -211.8113
  38   1.0000      -7.783208      -211.7919
  39   1.0000      -7.783165      -211.7907
  40   1.0000      -7.694137      -209.3681
  41   1.0000      -7.694002      -209.3644
  42   1.0000      -7.693856      -209.3605
  43   1.0000      -7.693582      -209.3530
  44   1.0000      -5.755893      -156.6258
  45   1.0000      -5.755781      -156.6228
  46   1.0000      -5.752450      -156.5321
  47   1.0000      -5.752326      -156.5287
  48   1.0000      -5.751463      -156.5053
  49   1.0000      -5.751379      -156.5030
  50   1.0000      -5.749027      -156.4390
  51   1.0000      -5.748886      -156.4351
  52   1.0000      -5.748160      -156.4154
  53   1.0000      -5.748119      -156.4143
  54   1.0000      -5.748044      -156.4122
  55   1.0000      -5.747963      -156.4100
  56   1.0000      -5.745850      -156.3525
  57   1.0000      -5.745735      -156.3494
  58   1.0000      -5.744574      -156.3178
  59   1.0000      -5.744428      -156.3138
  60   1.0000      -5.743732      -156.2949
  61   1.0000      -5.743680      -156.2935
  62   1.0000      -5.741268      -156.2278
  63   1.0000      -5.741183      -156.2255
  64   1.0000      -5.739870      -156.1898
  65   1.0000      -5.739730      -156.1860
  66   1.0000      -5.739019      -156.1666
  67   1.0000      -5.738976      -156.1655
  68   1.0000      -5.659445      -154.0013
  69   1.0000      -5.659324      -153.9980
  70   1.0000      -5.659200      -153.9947
  71   1.0000      -5.658889      -153.9862
  72   1.0000      -5.653052      -153.8274
  73   1.0000      -5.652875      -153.8225
  74   1.0000      -5.652790      -153.8202
  75   1.0000      -5.652473      -153.8116
  76   1.0000      -5.651409      -153.7827
  77   1.0000      -5.651293      -153.7795
  78   1.0000      -5.651117      -153.7747
  79   1.0000      -5.650856      -153.7676
  80   1.0000      -2.398813       -65.2750
  81   1.0000      -1.465691       -39.8835
  82   1.0000      -1.410967       -38.3944
  83   1.0000      -1.410807       -38.3900
  84   1.0000      -0.715165       -19.4606
  85   1.0000      -0.709396       -19.3036
  86   1.0000      -0.692879       -18.8542
  87   1.0000      -0.685324       -18.6486
  88   1.0000      -0.657646       -17.8955
  89   1.0000      -0.638587       -17.3768
  90   1.0000      -0.638025       -17.3616
  91   1.0000      -0.630976       -17.1697
  92   1.0000      -0.617026       -16.7901
  93   1.0000      -0.576228       -15.6800
  94   1.0000      -0.575684       -15.6652
  95   1.0000      -0.574288       -15.6272
  96   1.0000      -0.572653       -15.5827
  97   1.0000      -0.518601       -14.1118
  98   1.0000      -0.512781       -13.9535
  99   1.0000      -0.495812       -13.4917
 100   1.0000      -0.495716       -13.4891
 101   1.0000      -0.481820       -13.1110
 102   1.0000      -0.477985       -13.0066
 103   1.0000      -0.471328       -12.8255
 104   1.0000      -0.446285       -12.1440
 105   1.0000      -0.417894       -11.3715
 106   1.0000      -0.411975       -11.2104
 107   1.0000      -0.360285        -9.8038
 108   1.0000      -0.354966        -9.6591
 109   1.0000      -0.341780        -9.3003
 110   1.0000      -0.325688        -8.8624
 111   1.0000      -0.319584        -8.6963
 112   1.0000      -0.314967        -8.5707
 113   1.0000      -0.307705        -8.3731
 114   1.0000      -0.303467        -8.2578
 115   1.0000      -0.293937        -7.9984
 116   1.0000      -0.274042        -7.4571
 117   1.0000      -0.266073        -7.2402
 118   1.0000      -0.257393        -7.0040
 119   1.0000      -0.256043        -6.9673
 120   1.0000      -0.255296        -6.9470
 121   1.0000      -0.234862        -6.3909
 122   1.0000      -0.234290        -6.3753
 123   1.0000      -0.231503        -6.2995
 124   1.0000      -0.229311        -6.2399
 125   1.0000      -0.219674        -5.9776
 126   1.0000      -0.217357        -5.9146
 127   1.0000      -0.211775        -5.7627
 128   1.0000      -0.201998        -5.4966
 129   1.0000      -0.191105        -5.2002
 130   1.0000      -0.187149        -5.0926
 131   1.0000      -0.183229        -4.9859
 132   1.0000      -0.180797        -4.9198
 133   1.0000      -0.176727        -4.8090
 134   1.0000      -0.158557        -4.3146
 135   1.0000      -0.151143        -4.1128
 136   1.0000      -0.146362        -3.9827
 137   1.0000      -0.136401        -3.7117
 138   1.0000      -0.133846        -3.6421
 139   1.0000      -0.132488        -3.6052
 140   1.0000      -0.124416        -3.3855
 141   1.0000      -0.120587        -3.2813
 142   1.0000      -0.115021        -3.1299
 143   1.0000      -0.111244        -3.0271
 144   1.0000      -0.099621        -2.7108
 145   1.0000      -0.098321        -2.6755
 146   1.0000      -0.097806        -2.6614
 147   1.0000      -0.095387        -2.5956
 148   1.0000      -0.070490        -1.9181
 149   1.0000      -0.068592        -1.8665
 150   1.0000      -0.067158        -1.8275
 151   1.0000      -0.049590        -1.3494
 152   1.0000      -0.044476        -1.2103
 153   1.0000      -0.037762        -1.0276
 154   1.0000      -0.036331        -0.9886
 155   1.0000      -0.031524        -0.8578
 156   1.0000      -0.025793        -0.7019
 157   1.0000      -0.015468        -0.4209
 158   1.0000       0.020826         0.5667
 159   1.0000       0.040332         1.0975
 160   0.0000       0.133762         3.6399
 161   0.0000       0.137259         3.7350
 162   0.0000       0.149493         4.0679
 163   0.0000       0.152854         4.1594
 164   0.0000       0.156361         4.2548

MULLIKEN ATOMIC CHARGES AND SPIN POPULATIONS
--------------------------------------------
   0 V :    0.471471    1.211011
   1 S :   -0.291107   -0.022483
   2 S :   -0.289328   -0.025119
   3 S :   -0.289148   -0.023436
   4 S :   -0.285151   -0.025596
   5 O :   -0.467199   -0.147104
   6 C :   -0.077194    0.009644
   7 C :   -0.084112    0.008037
   8 C :   -0.083987    0.007764
   9 C :   -0.084553    0.007410
  10 S :    0.101912   -0.000587
  11 S :    0.103557   -0.000628
  12 S :    0.100096   -0.000392
  13 S :    0.099196   -0.000345
  14 C :   -0.211213    0.001501
  15 C :   -0.211670    0.001001
  16 C :   -0.181751   -0.000047
  17 C :   -0.191587   -0.000407
  18 S :    0.014886   -0.000112
  19 S :    0.014481   -0.000111
  20 S :    0.008327   -0.000068
  21 S :    0.008427   -0.000071
  22 C :   -0.301377   -0.000001
  23 C :   -0.300253   -0.000001
  24 C :   -0.156592   -0.000012
  25 H :    0.146345   -0.000001
  26 H :    0.110660   -0.000004
  27 H :    0.084090   -0.000000
  28 H :    0.091031   -0.000001
  29 H :    0.110026   -0.000005
  30 H :    0.146024   -0.000001
  31 C :   -0.332284    0.000167
  32 C :   -0.335804    0.000163
  33 C :   -0.193621   -0.000189
  34 H :    0.059389   -0.000016
  35 H :    0.222093    0.000012
  36 H :    0.128249    0.000021
  37 H :    0.067348    0.000008
  38 H :    0.218540    0.000014
  39 H :    0.061783   -0.000015
Sum of atomic charges         :   -2.0000000

LOEWDIN ATOMIC CHARGES AND SPIN POPULATIONS
-------------------------------------------
   0 V :   -0.155703    1.164335
   1 S :    0.079947   -0.014488
   2 S :    0.079658   -0.016005
   3 S :    0.081301   -0.015288
   4 S :    0.083585   -0.016230
   5 O :   -0.318422   -0.131993
   6 C :   -0.549531    0.009033
   7 C :   -0.551677    0.007947
   8 C :   -0.552402    0.008139
   9 C :   -0.552385    0.007674
  10 S :    0.473554   -0.000906
  11 S :    0.474693   -0.000953
  12 S :    0.471382   -0.000821
  13 S :    0.470612   -0.000827
  14 C :   -0.461423    0.000167
  15 C :   -0.465147   -0.000080
  16 C :   -0.617114    0.000472
  17 C :   -0.622374    0.000085
  18 S :    0.371966   -0.000087
  19 S :    0.372698   -0.000085
  20 S :    0.358995   -0.000073
  21 S :    0.358575   -0.000075
  22 C :   -0.282708   -0.000008
  23 C :   -0.282759   -0.000009
  24 C :   -0.176604   -0.000002
  25 H :    0.060059   -0.000001
  26 H :    0.055410   -0.000002
  27 H :    0.057754   -0.000001
  28 H :    0.061082   -0.000001
  29 H :    0.055501   -0.000002
  30 H :    0.059685   -0.000001
  31 C :   -0.211332    0.000047
  32 C :   -0.207958    0.000040
  33 C :   -0.133823    0.000005
  34 H :    0.069529   -0.000008
  35 H :   -0.059300    0.000004
  36 H :    0.022134    0.000003
  37 H :    0.067428    0.000000
  38 H :   -0.055508    0.000004
  39 H :    0.070623   -0.000007

  Mayer bond orders larger than 0.100000
B(  0-V ,  1-S ) :   0.7719 B(  0-V ,  2-S ) :   0.7703 B(  0-V ,  3-S ) :   0.7653
B(  0-V ,  4-S ) :   0.7776 B(  0-V ,  5-O ) :   2.1492 B(  1-S ,  8-C ) :   1.1035
B(  2-S ,  6-C ) :   1.1044 B(  3-S ,  9-C ) :   1.1063 B(  4-S ,  7-C ) :   1.1048
B(  6-C ,  7-C ) :   1.6845 B(  6-C , 10-S ) :   0.9353 B(  7-C , 11-S ) :   0.9392
B(  8-C ,  9-C ) :   1.6983 B(  8-C , 13-S ) :   0.9337 B(  9-C , 12-S ) :   0.9355
B( 10-S , 14-C ) :   1.2484 B( 11-S , 14-C ) :   1.2485 B( 12-S , 15-C ) :   1.2468
B( 13-S , 15-C ) :   1.2468 B( 14-C , 16-C ) :   1.4560 B( 15-C , 17-C ) :   1.4529
B( 16-C , 18-S ) :   1.0866 B( 16-C , 19-S ) :   1.0878 B( 17-C , 20-S ) :   1.0882
B( 17-C , 21-S ) :   1.0888 B( 18-S , 32-C ) :   0.9999 B( 19-S , 31-C ) :   0.9993
B( 20-S , 23-C ) :   0.9916 B( 21-S , 22-C ) :   0.9910 B( 22-C , 24-C ) :   0.9123
B( 22-C , 25-H ) :   0.9662 B( 22-C , 26-H ) :   0.9651 B( 23-C , 24-C ) :   0.9131
B( 23-C , 29-H ) :   0.9652 B( 23-C , 30-H ) :   0.9661 B( 24-C , 27-H ) :   0.9628
B( 24-C , 28-H ) :   0.9718 B( 31-C , 33-C ) :   0.9154 B( 31-C , 38-H ) :   0.9538
B( 31-C , 39-H ) :   0.9456 B( 32-C , 33-C ) :   0.9146 B( 32-C , 34-H ) :   0.9448
B( 32-C , 35-H ) :   0.9528 B( 33-C , 36-H ) :   0.9704 B( 33-C , 37-H ) :   0.9561

FINAL SINGLE POINT ENERGY     -6337.376204573637

DIPOLE MOMENT
-------------
                                X             Y             Z
Electronic contribution:      0.97908      11.69094      -4.13503
Nuclear contribution   :     -1.06777     -13.48343       4.70050
                        -----------------------------------------
Total Dipole Moment    :     -0.08869      -1.79249       0.56548
                        -----------------------------------------
Magnitude (a.u.)       :      1.88166
Magnitude (Debye)      :      4.78281

Rotational constants in cm-1:     0.010759     0.000804     0.000783
Rotational constants in MHz :   322.548124    24.114840    23.487488

                             ****ORCA TERMINATED NORMALLY****
TOTAL RUN TIME: 0 days 1 hours 6 minutes 57 seconds 289 msec
