                         Program Version 5.0.4 -  RELEASE  -
|  1> ! nofrozencore ReducedPop printbasis
|  2> ! B3LYP TZVP
|  3>
|  4> %basis
|  5> newgto V "CP(PPP)" end
|  6> end
|  7>
|  8> %pal
|  9> nprocs 6
| 10> end
| 11>
| 12> % sym SymThresh 1e-2 end
| 13> * xyz -2 2
| 14> V -1.0566148363890995 0.2981873335019587 0.18334235580036648
| 15> S -0.8195642265156494 -1.6007823298163664 1.7507097328579315
| 16> S 0.36627281915527266 1.5493851686016713 1.7761292371430122
| 17> S -1.1902001461347629 -1.4169094976296848 -1.597548339029709
| 18> S 0.05037178766033231 1.6392291354221014 -1.5663019113737977
| 19> O -2.519869590643574 0.8865998454493289 0.375517737513172
| 20> C 0.7942767103366565 2.920199574038846 0.76086592869317
| 21> C 0.6705835880420233 2.9542971166385805 -0.5793841024188103
| 22> C -1.1580100467248993 -2.9620987075457568 0.6904598181139507
| 23> C -1.3027287625958992 -2.888284135949832 -0.6452998429155918
| 24> S 1.522722985972992 4.37128189277381 1.530079090254586
| 25> S 1.264774745027647 4.434171286132132 -1.4025714591790186
| 26> S -1.5886010767176408 -4.437933585825382 -1.5069609694572765
| 27> S -1.2787701711879322 -4.600685101171436 1.417209982419033
| 28> C 1.815026857880936 5.285330472296855 0.04522099751389299
| 29> C -1.4968957512009482 -5.493864901600257 -0.09279148205705062
| 30> C 2.3943106780638477 6.524142482762118 0.01729406328712782
| 31> C -1.59469874938586 -6.856292051791226 -0.15918492816096608
| 32> S 2.8836406122636715 7.372655750185388 1.5060948673635768
| 33> S 2.6694209648165628 7.397251282631473 -1.511668467919747
| 34> S -1.493145523678668 -7.880192818241626 1.2956180668014956
| 35> S -1.7927591953439204 -7.710912396164858 -1.7108427842244702
| 36> C -0.20616607212238763 -8.667795368150161 -1.6988099436738715
| 37> C 0.04635137185824205 -8.817286321249327 0.8656271413728628
| 38> C -0.07873881304812402 -9.534222932018636 -0.4628879409832644
| 39> H 0.5911796566945469 -7.97935830859335 -1.7650651017233792
| 40> H -0.21769808791927747 -9.231872858247199 -2.5588160287142556
| 41> H 1.3895283698551806 -10.47311584376378 -0.6617348594479932
| 42> H -1.0117038363439577 -10.372589560366261 -0.4205002987082383
| 43> H 0.1916319544371292 -9.477695135008364 1.6408856499897755
| 44> H 0.8522247207090455 -8.136000438878005 0.8555544181799875
| 45> C 1.5752669435404432 8.857112178327997 -1.1977783194371299
| 46> C 1.7517479118935368 8.831911075766321 1.3688573391269812
| 47> C 1.9310917876464224 9.627407765975336 0.07468394122759842
| 48> H 0.7258362602224144 8.47499253852273 1.4661385412696677
| 49> H 1.9786509113244422 9.45660499556872 2.2325558505093803
| 50> H 2.97051617558258 9.985827577781988 0.007207892335950268
| 51> H 1.267057034705531 10.53776055679722 0.12913943593233473
| 52> H 1.6880054586293385 9.496738160903469 -2.0729362585063673
| 53> H 0.5437306151169644 8.504893113540538 -1.1632239257822468
| 54> *
| 55>
| 56> % eprnmr
| 57> gtensor true
| 58> Nuclei = all H {aiso,adip,aorb,fgrad,rho}
| 59> Nuclei = all V {aiso,adip,aorb,fgrad,rho}
| 60> end
| 61>
| 62>                          ****END OF INPUT****

CARTESIAN COORDINATES (ANGSTROEM)
---------------------------------
  V     -1.053006    0.299441    0.183016
  S     -0.815956   -1.599529    1.750383
  S      0.369881    1.550639    1.775802
  S     -1.186592   -1.415656   -1.597875
  S      0.053980    1.640483   -1.566629
  O     -2.516261    0.887853    0.375191
  C      0.797885    2.921453    0.760539
  C      0.674192    2.955550   -0.579711
  C     -1.154402   -2.960845    0.690133
  C     -1.299120   -2.887031   -0.645627
  S      1.526331    4.372535    1.529752
  S      1.268383    4.435425   -1.402898
  S     -1.584993   -4.436680   -1.507288
  S     -1.275162   -4.599432    1.416883
  C      1.818635    5.286584    0.044894
  C     -1.493287   -5.492612   -0.093118
  C      2.397919    6.525396    0.016967
  C     -1.591090   -6.855039   -0.159512
  S      2.887249    7.373909    1.505768
  S      2.673029    7.398505   -1.511995
  S     -1.489537   -7.878939    1.295291
  S     -1.789151   -7.709659   -1.711170
  C     -0.202558   -8.666542   -1.699137
  C      0.049960   -8.816033    0.865300
  C     -0.075130   -9.532970   -0.463215
  H      0.594788   -7.978105   -1.765392
  H     -0.214090   -9.230619   -2.559143
  H      1.393137  -10.471862   -0.662062
  H     -1.008095  -10.371336   -0.420827
  H      0.195240   -9.476442    1.640559
  H      0.855833   -8.134747    0.855228
  C      1.578875    8.858366   -1.198105
  C      1.755356    8.833164    1.368531
  C      1.934700    9.628661    0.074357
  H      0.729445    8.476246    1.465812
  H      1.982259    9.457858    2.232229
  H      2.974125    9.987081    0.006881
  H      1.270665   10.539014    0.128813
  H      1.691614    9.497992   -2.073263
  H      0.547339    8.506146   -1.163551

 Total Charge           Charge          ....   -2
 Multiplicity           Mult            ....    2
 Number of Electrons    NEL             ....  321
 Basis Dimension        Dim             ....  681

ORBITAL ENERGIES
----------------
                 SPIN UP ORBITALS
  NO   OCC          E(Eh)            E(eV)
   0   1.0000    -196.677383     -5351.8637
   1   1.0000     -88.742047     -2414.7939
   2   1.0000     -88.741979     -2414.7920
   3   1.0000     -88.735523     -2414.6163
   4   1.0000     -88.735454     -2414.6145
   5   1.0000     -88.734387     -2414.5854
   6   1.0000     -88.734384     -2414.5853
   7   1.0000     -88.731685     -2414.5119
   8   1.0000     -88.731502     -2414.5069
   9   1.0000     -88.643217     -2412.1046
  10   1.0000     -88.642758     -2412.0921
  11   1.0000     -88.641717     -2412.0637
  12   1.0000     -88.641489     -2412.0576
  13   1.0000     -22.052767      -600.0863
  14   1.0000     -18.892646      -514.0950
  15   1.0000     -18.559210      -505.0218
  16   1.0000     -18.554043      -504.8812
  17   1.0000     -18.553948      -504.8786
  18   1.0000     -10.110535      -275.1216
  19   1.0000     -10.081660      -274.3359
  20   1.0000     -10.077158      -274.2134
  21   1.0000     -10.064204      -273.8609
  22   1.0000     -10.064142      -273.8592
  23   1.0000     -10.061310      -273.7822
  24   1.0000     -10.061270      -273.7811
  25   1.0000     -10.055888      -273.6346
  26   1.0000     -10.055003      -273.6105
  27   1.0000     -10.049595      -273.4634
  28   1.0000     -10.022362      -272.7223
  29   1.0000     -10.021568      -272.7007
  30   1.0000     -10.019902      -272.6554
  31   1.0000     -10.018970      -272.6300
  32   1.0000      -7.795449      -212.1249
  33   1.0000      -7.795384      -212.1232
  34   1.0000      -7.788739      -211.9424
  35   1.0000      -7.788705      -211.9414
  36   1.0000      -7.787850      -211.9182
  37   1.0000      -7.787828      -211.9176
  38   1.0000      -7.784928      -211.8387
  39   1.0000      -7.784795      -211.8350
  40   1.0000      -7.697475      -209.4589
  41   1.0000      -7.697065      -209.4478
  42   1.0000      -7.696025      -209.4195
  43   1.0000      -7.695730      -209.4115
  44   1.0000      -5.760492      -156.7510
  45   1.0000      -5.760431      -156.7493
  46   1.0000      -5.756951      -156.6546
  47   1.0000      -5.756886      -156.6528
  48   1.0000      -5.753681      -156.5656
  49   1.0000      -5.753648      -156.5647
  50   1.0000      -5.752839      -156.5427
  51   1.0000      -5.752812      -156.5420
  52   1.0000      -5.750234      -156.4718
  53   1.0000      -5.750169      -156.4701
  54   1.0000      -5.749877      -156.4621
  55   1.0000      -5.749740      -156.4584
  56   1.0000      -5.749419      -156.4496
  57   1.0000      -5.749414      -156.4495
  58   1.0000      -5.749240      -156.4448
  59   1.0000      -5.749201      -156.4437
  60   1.0000      -5.745445      -156.3415
  61   1.0000      -5.745306      -156.3377
  62   1.0000      -5.744589      -156.3182
  63   1.0000      -5.744554      -156.3173
  64   1.0000      -5.742642      -156.2652
  65   1.0000      -5.742618      -156.2646
  66   1.0000      -5.740751      -156.2138
  67   1.0000      -5.740616      -156.2101
  68   1.0000      -5.662817      -154.0931
  69   1.0000      -5.662395      -154.0816
  70   1.0000      -5.661328      -154.0526
  71   1.0000      -5.661059      -154.0452
  72   1.0000      -5.656121      -153.9109
  73   1.0000      -5.655720      -153.9000
  74   1.0000      -5.654796      -153.8748
  75   1.0000      -5.654678      -153.8716
  76   1.0000      -5.654402      -153.8641
  77   1.0000      -5.654381      -153.8635
  78   1.0000      -5.653351      -153.8355
  79   1.0000      -5.653026      -153.8267
  80   1.0000      -2.446415       -66.5703
  81   1.0000      -1.487703       -40.4825
  82   1.0000      -1.476054       -40.1655
  83   1.0000      -1.475250       -40.1436
  84   1.0000      -0.716793       -19.5049
  85   1.0000      -0.710767       -19.3409
  86   1.0000      -0.691250       -18.8099
  87   1.0000      -0.686737       -18.6871
  88   1.0000      -0.652200       -17.7473
  89   1.0000      -0.633048       -17.2261
  90   1.0000      -0.632167       -17.2021
  91   1.0000      -0.631493       -17.1838
  92   1.0000      -0.618752       -16.8371
  93   1.0000      -0.579709       -15.7747
  94   1.0000      -0.575948       -15.6724
  95   1.0000      -0.574602       -15.6357
  96   1.0000      -0.573607       -15.6086
  97   1.0000      -0.508073       -13.8254
  98   1.0000      -0.497477       -13.5370
  99   1.0000      -0.496913       -13.5217
 100   1.0000      -0.492175       -13.3928
 101   1.0000      -0.484330       -13.1793
 102   1.0000      -0.479742       -13.0544
 103   1.0000      -0.447234       -12.1699
 104   1.0000      -0.443478       -12.0676
 105   1.0000      -0.419844       -11.4245
 106   1.0000      -0.413758       -11.2589
 107   1.0000      -0.362926        -9.8757
 108   1.0000      -0.356565        -9.7026
 109   1.0000      -0.328750        -8.9457
 110   1.0000      -0.326875        -8.8947
 111   1.0000      -0.323458        -8.8017
 112   1.0000      -0.317474        -8.6389
 113   1.0000      -0.306601        -8.3430
 114   1.0000      -0.303284        -8.2528
 115   1.0000      -0.294005        -8.0003
 116   1.0000      -0.276781        -7.5316
 117   1.0000      -0.269973        -7.3463
 118   1.0000      -0.258465        -7.0332
 119   1.0000      -0.258261        -7.0276
 120   1.0000      -0.255818        -6.9612
 121   1.0000      -0.245123        -6.6701
 122   1.0000      -0.235304        -6.4030
 123   1.0000      -0.232310        -6.3215
 124   1.0000      -0.229749        -6.2518
 125   1.0000      -0.220954        -6.0125
 126   1.0000      -0.218616        -5.9489
 127   1.0000      -0.215250        -5.8572
 128   1.0000      -0.211473        -5.7545
 129   1.0000      -0.195737        -5.3263
 130   1.0000      -0.189000        -5.1429
 131   1.0000      -0.187042        -5.0897
 132   1.0000      -0.182116        -4.9556
 133   1.0000      -0.168311        -4.5800
 134   1.0000      -0.161443        -4.3931
 135   1.0000      -0.156644        -4.2625
 136   1.0000      -0.149697        -4.0735
 137   1.0000      -0.137283        -3.7357
 138   1.0000      -0.136231        -3.7070
 139   1.0000      -0.132500        -3.6055
 140   1.0000      -0.126682        -3.4472
 141   1.0000      -0.123935        -3.3725
 142   1.0000      -0.115931        -3.1546
 143   1.0000      -0.112126        -3.0511
 144   1.0000      -0.103641        -2.8202
 145   1.0000      -0.103118        -2.8060
 146   1.0000      -0.100187        -2.7262
 147   1.0000      -0.096879        -2.6362
 148   1.0000      -0.077162        -2.0997
 149   1.0000      -0.075261        -2.0480
 150   1.0000      -0.068727        -1.8702
 151   1.0000      -0.054807        -1.4914
 152   1.0000      -0.048176        -1.3109
 153   1.0000      -0.041245        -1.1223
 154   1.0000      -0.039718        -1.0808
 155   1.0000      -0.033902        -0.9225
 156   1.0000      -0.027755        -0.7552
 157   1.0000      -0.021652        -0.5892
 158   1.0000      -0.017816        -0.4848
 159   1.0000       0.017606         0.4791
 160   1.0000       0.038579         1.0498
 161   0.0000       0.082943         2.2570
 162   0.0000       0.134496         3.6598
 163   0.0000       0.135806         3.6955
 164   0.0000       0.159489         4.3399
 165   0.0000       0.167299         4.5524

                 SPIN DOWN ORBITALS
  NO   OCC          E(Eh)            E(eV)
   0   1.0000    -196.677530     -5351.8677
   1   1.0000     -88.742047     -2414.7939
   2   1.0000     -88.741979     -2414.7920
   3   1.0000     -88.735531     -2414.6166
   4   1.0000     -88.735462     -2414.6147
   5   1.0000     -88.734388     -2414.5855
   6   1.0000     -88.734384     -2414.5854
   7   1.0000     -88.731693     -2414.5121
   8   1.0000     -88.731511     -2414.5072
   9   1.0000     -88.643352     -2412.1082
  10   1.0000     -88.642895     -2412.0958
  11   1.0000     -88.641857     -2412.0676
  12   1.0000     -88.641632     -2412.0614
  13   1.0000     -22.037841      -599.6801
  14   1.0000     -18.896427      -514.1979
  15   1.0000     -18.553946      -504.8785
  16   1.0000     -18.538016      -504.4451
  17   1.0000     -18.537835      -504.4401
  18   1.0000     -10.110534      -275.1216
  19   1.0000     -10.081660      -274.3359
  20   1.0000     -10.077153      -274.2133
  21   1.0000     -10.064203      -273.8609
  22   1.0000     -10.064141      -273.8592
  23   1.0000     -10.061310      -273.7822
  24   1.0000     -10.061270      -273.7811
  25   1.0000     -10.055888      -273.6346
  26   1.0000     -10.054999      -273.6104
  27   1.0000     -10.049583      -273.4631
  28   1.0000     -10.022147      -272.7165
  29   1.0000     -10.021355      -272.6949
  30   1.0000     -10.019664      -272.6489
  31   1.0000     -10.018746      -272.6239
  32   1.0000      -7.795449      -212.1250
  33   1.0000      -7.795384      -212.1232
  34   1.0000      -7.788748      -211.9426
  35   1.0000      -7.788714      -211.9417
  36   1.0000      -7.787851      -211.9182
  37   1.0000      -7.787828      -211.9176
  38   1.0000      -7.784938      -211.8389
  39   1.0000      -7.784804      -211.8353
  40   1.0000      -7.697601      -209.4624
  41   1.0000      -7.697192      -209.4512
  42   1.0000      -7.696156      -209.4231
  43   1.0000      -7.695863      -209.4151
  44   1.0000      -5.760493      -156.7510
  45   1.0000      -5.760432      -156.7493
  46   1.0000      -5.756952      -156.6546
  47   1.0000      -5.756886      -156.6528
  48   1.0000      -5.753691      -156.5659
  49   1.0000      -5.753658      -156.5650
  50   1.0000      -5.752840      -156.5427
  51   1.0000      -5.752814      -156.5420
  52   1.0000      -5.750235      -156.4718
  53   1.0000      -5.750170      -156.4701
  54   1.0000      -5.749888      -156.4624
  55   1.0000      -5.749750      -156.4587
  56   1.0000      -5.749420      -156.4497
  57   1.0000      -5.749415      -156.4495
  58   1.0000      -5.749254      -156.4452
  59   1.0000      -5.749216      -156.4441
  60   1.0000      -5.745459      -156.3419
  61   1.0000      -5.745319      -156.3381
  62   1.0000      -5.744595      -156.3184
  63   1.0000      -5.744560      -156.3174
  64   1.0000      -5.742643      -156.2653
  65   1.0000      -5.742619      -156.2646
  66   1.0000      -5.740759      -156.2140
  67   1.0000      -5.740625      -156.2104
  68   1.0000      -5.662957      -154.0969
  69   1.0000      -5.662535      -154.0854
  70   1.0000      -5.661467      -154.0564
  71   1.0000      -5.661201      -154.0491
  72   1.0000      -5.656467      -153.9203
  73   1.0000      -5.656076      -153.9096
  74   1.0000      -5.655068      -153.8822
  75   1.0000      -5.654899      -153.8776
  76   1.0000      -5.654788      -153.8746
  77   1.0000      -5.654485      -153.8664
  78   1.0000      -5.653439      -153.8379
  79   1.0000      -5.653120      -153.8292
  80   1.0000      -2.401544       -65.3493
  81   1.0000      -1.468420       -39.9577
  82   1.0000      -1.413705       -38.4689
  83   1.0000      -1.413538       -38.4643
  84   1.0000      -0.716781       -19.5046
  85   1.0000      -0.710740       -19.3402
  86   1.0000      -0.691203       -18.8086
  87   1.0000      -0.686681       -18.6855
  88   1.0000      -0.660311       -17.9680
  89   1.0000      -0.632986       -17.2244
  90   1.0000      -0.632090       -17.2000
  91   1.0000      -0.631495       -17.1838
  92   1.0000      -0.618752       -16.8371
  93   1.0000      -0.579686       -15.7740
  94   1.0000      -0.575919       -15.6716
  95   1.0000      -0.574525       -15.6336
  96   1.0000      -0.573539       -15.6068
  97   1.0000      -0.508090       -13.8258
  98   1.0000      -0.497523       -13.5383
  99   1.0000      -0.496930       -13.5222
 100   1.0000      -0.492211       -13.3937
 101   1.0000      -0.484548       -13.1852
 102   1.0000      -0.479988       -13.0611
 103   1.0000      -0.447258       -12.1705
 104   1.0000      -0.443508       -12.0685
 105   1.0000      -0.419849       -11.4247
 106   1.0000      -0.413859       -11.2617
 107   1.0000      -0.362923        -9.8756
 108   1.0000      -0.356555        -9.7024
 109   1.0000      -0.328719        -8.9449
 110   1.0000      -0.326857        -8.8942
 111   1.0000      -0.323401        -8.8002
 112   1.0000      -0.317483        -8.6392
 113   1.0000      -0.306595        -8.3429
 114   1.0000      -0.303244        -8.2517
 115   1.0000      -0.293999        -8.0001
 116   1.0000      -0.276719        -7.5299
 117   1.0000      -0.269943        -7.3455
 118   1.0000      -0.258407        -7.0316
 119   1.0000      -0.258133        -7.0241
 120   1.0000      -0.255792        -6.9605
 121   1.0000      -0.245058        -6.6684
 122   1.0000      -0.235277        -6.4022
 123   1.0000      -0.232270        -6.3204
 124   1.0000      -0.229737        -6.2515
 125   1.0000      -0.220325        -5.9953
 126   1.0000      -0.218553        -5.9471
 127   1.0000      -0.215118        -5.8537
 128   1.0000      -0.211444        -5.7537
 129   1.0000      -0.193888        -5.2760
 130   1.0000      -0.188799        -5.1375
 131   1.0000      -0.186804        -5.0832
 132   1.0000      -0.181988        -4.9521
 133   1.0000      -0.168200        -4.5770
 134   1.0000      -0.160833        -4.3765
 135   1.0000      -0.156482        -4.2581
 136   1.0000      -0.149601        -4.0709
 137   1.0000      -0.136639        -3.7181
 138   1.0000      -0.136005        -3.7009
 139   1.0000      -0.131981        -3.5914
 140   1.0000      -0.126341        -3.4379
 141   1.0000      -0.123596        -3.3632
 142   1.0000      -0.117711        -3.2031
 143   1.0000      -0.113632        -3.0921
 144   1.0000      -0.103757        -2.8234
 145   1.0000      -0.103215        -2.8086
 146   1.0000      -0.100405        -2.7322
 147   1.0000      -0.097150        -2.6436
 148   1.0000      -0.075251        -2.0477
 149   1.0000      -0.073306        -1.9947
 150   1.0000      -0.068729        -1.8702
 151   1.0000      -0.052201        -1.4205
 152   1.0000      -0.047235        -1.2853
 153   1.0000      -0.041279        -1.1233
 154   1.0000      -0.039174        -1.0660
 155   1.0000      -0.033980        -0.9246
 156   1.0000      -0.028778        -0.7831
 157   1.0000      -0.018041        -0.4909
 158   1.0000       0.017923         0.4877
 159   1.0000       0.037457         1.0193
 160   0.0000       0.082943         2.2570
 161   0.0000       0.134486         3.6595
 162   0.0000       0.135816         3.6957
 163   0.0000       0.153584         4.1792
 164   0.0000       0.160093         4.3563

MULLIKEN ATOMIC CHARGES AND SPIN POPULATIONS
--------------------------------------------
   0 V :    0.470525    1.210389
   1 S :   -0.287459   -0.022089
   2 S :   -0.289077   -0.025429
   3 S :   -0.285531   -0.023028
   4 S :   -0.284857   -0.025899
   5 O :   -0.466574   -0.146700
   6 C :   -0.077055    0.009734
   7 C :   -0.084014    0.008084
   8 C :   -0.084695    0.007726
   9 C :   -0.085180    0.007360
  10 S :    0.100073   -0.000588
  11 S :    0.101437   -0.000629
  12 S :    0.103790   -0.000395
  13 S :    0.103008   -0.000350
  14 C :   -0.213743    0.001511
  15 C :   -0.217877    0.000981
  16 C :   -0.191372   -0.000066
  17 C :   -0.185599   -0.000377
  18 S :    0.009402   -0.000115
  19 S :    0.009671   -0.000114
  20 S :    0.014600   -0.000073
  21 S :    0.014627   -0.000075
  22 C :   -0.290018   -0.000008
  23 C :   -0.289949   -0.000010
  24 C :   -0.102616    0.000042
  25 H :    0.158287   -0.000001
  26 H :    0.144109   -0.000003
  27 H :   -0.099414   -0.000060
  28 H :    0.075167   -0.000003
  29 H :    0.143672   -0.000003
  30 H :    0.158168   -0.000000
  31 C :   -0.299101    0.000194
  32 C :   -0.299991    0.000191
  33 C :   -0.155400   -0.000233
  34 H :    0.142597   -0.000018
  35 H :    0.115175    0.000018
  36 H :    0.092223    0.000022
  37 H :    0.075483    0.000012
  38 H :    0.114968    0.000020
  39 H :    0.142539   -0.000018
Sum of atomic charges         :   -2.0000000

LOEWDIN ATOMIC CHARGES AND SPIN POPULATIONS
-------------------------------------------
   0 V :   -0.155560    1.163789
   1 S :    0.082098   -0.014186
   2 S :    0.080007   -0.016252
   3 S :    0.083440   -0.014976
   4 S :    0.083879   -0.016476
   5 O :   -0.318160   -0.131615
   6 C :   -0.549743    0.009071
   7 C :   -0.551902    0.007964
   8 C :   -0.551395    0.008143
   9 C :   -0.551376    0.007678
  10 S :    0.471565   -0.000901
  11 S :    0.472530   -0.000950
  12 S :    0.475010   -0.000823
  13 S :    0.474277   -0.000830
  14 C :   -0.465023    0.000155
  15 C :   -0.464369   -0.000082
  16 C :   -0.622303    0.000483
  17 C :   -0.622391    0.000082
  18 S :    0.359215   -0.000091
  19 S :    0.360583   -0.000088
  20 S :    0.371203   -0.000075
  21 S :    0.370860   -0.000077
  22 C :   -0.282806   -0.000009
  23 C :   -0.283024   -0.000010
  24 C :   -0.143700    0.000025
  25 H :    0.062163   -0.000001
  26 H :    0.049339   -0.000002
  27 H :   -0.029784   -0.000050
  28 H :    0.078521   -0.000001
  29 H :    0.049319   -0.000002
  30 H :    0.062005   -0.000001
  31 C :   -0.284432    0.000043
  32 C :   -0.284205    0.000037
  33 C :   -0.178305    0.000006
  34 H :    0.062012   -0.000001
  35 H :    0.053436    0.000008
  36 H :    0.060991    0.000004
  37 H :    0.060643    0.000001
  38 H :    0.053483    0.000008
  39 H :    0.061896   -0.000001

  Mayer bond orders larger than 0.100000
B(  0-V ,  1-S ) :   0.7682 B(  0-V ,  2-S ) :   0.7740 B(  0-V ,  3-S ) :   0.7616
B(  0-V ,  4-S ) :   0.7813 B(  0-V ,  5-O ) :   2.1497 B(  1-S ,  8-C ) :   1.1076
B(  2-S ,  6-C ) :   1.1035 B(  3-S ,  9-C ) :   1.1103 B(  4-S ,  7-C ) :   1.1039
B(  6-C ,  7-C ) :   1.6844 B(  6-C , 10-S ) :   0.9353 B(  7-C , 11-S ) :   0.9392
B(  8-C ,  9-C ) :   1.6916 B(  8-C , 13-S ) :   0.9354 B(  9-C , 12-S ) :   0.9372
B( 10-S , 14-C ) :   1.2481 B( 11-S , 14-C ) :   1.2479 B( 12-S , 15-C ) :   1.2512
B( 13-S , 15-C ) :   1.2514 B( 14-C , 16-C ) :   1.4528 B( 15-C , 17-C ) :   1.4515
B( 16-C , 18-S ) :   1.0877 B( 16-C , 19-S ) :   1.0895 B( 17-C , 20-S ) :   1.0828
B( 17-C , 21-S ) :   1.0834 B( 18-S , 32-C ) :   0.9906 B( 19-S , 31-C ) :   0.9908
B( 20-S , 23-C ) :   0.9462 B( 21-S , 22-C ) :   0.9454 B( 22-C , 24-C ) :   0.9396
B( 22-C , 25-H ) :   0.9647 B( 22-C , 26-H ) :   0.9645 B( 23-C , 24-C ) :   0.9404
B( 23-C , 29-H ) :   0.9647 B( 23-C , 30-H ) :   0.9645 B( 24-C , 27-H ) :   0.8492
B( 24-C , 28-H ) :   0.9487 B( 31-C , 33-C ) :   0.9153 B( 31-C , 38-H ) :   0.9656
B( 31-C , 39-H ) :   0.9657 B( 32-C , 33-C ) :   0.9147 B( 32-C , 34-H ) :   0.9657
B( 32-C , 35-H ) :   0.9656 B( 33-C , 36-H ) :   0.9706 B( 33-C , 37-H ) :   0.9594

FINAL SINGLE POINT ENERGY     -6337.608010223720

DIPOLE MOMENT
-------------
                                X             Y             Z
Electronic contribution:    -14.10317       1.31840       2.79627
Nuclear contribution   :     15.14440      -0.59452      -3.01155
                        -----------------------------------------
Total Dipole Moment    :      1.04123       0.72388      -0.21528
                        -----------------------------------------
Magnitude (a.u.)       :      1.28628
Magnitude (Debye)      :      3.26945

Rotational constants in cm-1:     0.010751     0.000804     0.000783
Rotational constants in MHz :   322.314572    24.113878    23.486758

                             ****ORCA TERMINATED NORMALLY****
TOTAL RUN TIME: 0 days 1 hours 6 minutes 44 seconds 630 msec
