                         Program Version 5.0.4 -  RELEASE  -
|  1> ! nofrozencore ReducedPop printbasis
|  2> ! B3LYP TZVP
|  3>
|  4> %basis
|  5> newgto V "CP(PPP)" end
|  6> end
|  7>
|  8> %pal
|  9> nprocs 6
| 10> end
| 11>
| 12> % sym SymThresh 1e-2 end
| 13> * xyz -2 2
| 14> V 1.1123270626205106 -0.03732837578311553 0.004681379008532662
| 15> S 0.5250293029120823 -2.020154841812731 1.3841420252521897
| 16> S 0.33198889112714536 -1.388903161546135 -1.9097741072350205
| 17> S 0.5623717775551758 1.2967769614563918 2.0025269809216955
| 18> S 0.19114925580486325 1.8972234495319893 -1.2295327375459293
| 19> O 2.693926055370905 0.0001224073364501192 -0.14229057662474623
| 20> C -0.019908528470334464 -0.1255216316326878 -3.09240511323782
| 21> C 0.2933890821596849 1.2136506371630582 -2.860597512562227
| 22> C 0.7693004895191653 -1.285834135462789 3.032797835303606
| 23> C -0.06056479061476402 0.050830945709213454 3.1513626403035713
| 24> S -0.013214206522998824 -0.5794628625368902 -4.845928286771847
| 25> S -0.15710326822993734 2.296685223087306 -4.2277509083768035
| 26> S 0.10024455160290947 0.5456394510462823 4.9286972382537195
| 27> S 0.08610970166311067 -2.3471711136436677 4.379926973912263
| 28> C -0.2420483341844005 1.0560151190251212 -5.482370885176678
| 29> C -0.12550413041772976 -1.0756395950946998 5.59100980495175
| 30> C -0.4491983519286295 1.3311624724609186 -6.806074048646058
| 31> C -0.4231439368841584 -1.3156877305877375 6.903938211478146
| 32> S -0.4829463676056178 0.04668242988902517 -8.045042905944083
| 33> S -0.6665459913249004 2.996032221660231 -7.395527143292179
| 34> S -0.6183447766839137 -2.9743112932269993 7.5363685084471586
| 35> S -0.6728228006840757 0.004079631082509862 8.069898597885222
| 36> C -2.4476379459687467 -0.33826433528714767 8.480029327241661
| 37> C -2.397592002296605 -2.8708257349418402 8.0311477856708
| 38> C -2.6940713698595755 -1.746758948726071 9.026372362572927
| 39> H -3.0371594467565273 -0.16216288142305707 7.577520474913952
| 40> H -2.7283626092226965 0.41228145827224894 9.223210782850755
| 41> H -3.750812547764182 -1.8196167129868834 9.319400114913384
| 42> H -2.0948194568953933 -1.8952380130112152 9.930171814306428
| 43> H -2.628808599135376 -3.8420207176822663 8.475820196850224
| 44> H -2.9995155765914667 -2.757409146624818 7.126711875204158
| 45> C 0.8239555132319385 3.098056074973082 -8.489847391774312
| 46> C 0.9837676179877332 0.5892686156680694 -9.035417093877925
| 47> C 0.8683741716026153 2.0176145354213437 -9.57252311378604
| 48> H 1.875062103854798 0.4789871260479876 -8.413591711044333
| 49> H 1.053623079688801 -0.12228584814250652 -9.862037347476138
| 50> H -0.023881669782809537 2.09679707804244 -10.201582734459347
| 51> H 1.7389703125116724 2.2128553663743076 -10.214279203098057
| 52> H 0.7839136572757671 4.090754347350211 -8.945237077798323
| 53> H 1.711157583614214 3.0490878223271545 -7.854533676047027
| 54> *
| 55>
| 56> % eprnmr
| 57> gtensor true
| 58> Nuclei = all H {aiso,adip,aorb,fgrad,rho}
| 59> Nuclei = all V {aiso,adip,aorb,fgrad,rho}
| 60> end
| 61>
| 62>                          ****END OF INPUT****

CARTESIAN COORDINATES (ANGSTROEM)
---------------------------------
  V      1.109203   -0.036958    0.002490
  S      0.521905   -2.019784    1.381951
  S      0.328865   -1.388533   -1.911965
  S      0.559248    1.297147    2.000336
  S      0.188025    1.897594   -1.231724
  O      2.690802    0.000493   -0.144482
  C     -0.023033   -0.125151   -3.094596
  C      0.290265    1.214021   -2.862789
  C      0.766176   -1.285464    3.030607
  C     -0.063689    0.051201    3.149172
  S     -0.016338   -0.579092   -4.848119
  S     -0.160227    2.297056   -4.229942
  S      0.097120    0.546010    4.926506
  S      0.082986   -2.346801    4.377736
  C     -0.245172    1.056386   -5.484562
  C     -0.128628   -1.075269    5.588819
  C     -0.452322    1.331533   -6.808265
  C     -0.426268   -1.315317    6.901747
  S     -0.486071    0.047053   -8.047234
  S     -0.669670    2.996403   -7.397718
  S     -0.621469   -2.973941    7.534177
  S     -0.675947    0.004450    8.067708
  C     -2.450762   -0.337894    8.477838
  C     -2.400716   -2.870455    8.028957
  C     -2.697196   -1.746388    9.024181
  H     -3.040284   -0.161792    7.575329
  H     -2.731487    0.412652    9.221020
  H     -3.753937   -1.819246    9.317209
  H     -2.097944   -1.894868    9.927981
  H     -2.631933   -3.841650    8.473629
  H     -3.002640   -2.757039    7.124521
  C      0.820831    3.098427   -8.492038
  C      0.980643    0.589639   -9.037608
  C      0.865250    2.017985   -9.574714
  H      1.871938    0.479358   -8.415783
  H      1.050499   -0.121915   -9.864228
  H     -0.027006    2.097168  -10.203774
  H      1.735846    2.213226  -10.216470
  H      0.780790    4.091125   -8.947428
  H      1.708033    3.049458   -7.856725

 Total Charge           Charge          ....   -2
 Multiplicity           Mult            ....    2
 Number of Electrons    NEL             ....  321
 Basis Dimension        Dim             ....  681

ORBITAL ENERGIES
----------------
                 SPIN UP ORBITALS
  NO   OCC          E(Eh)            E(eV)
   0   1.0000    -196.678131     -5351.8840
   1   1.0000     -88.733589     -2414.5637
   2   1.0000     -88.733442     -2414.5597
   3   1.0000     -88.730266     -2414.4733
   4   1.0000     -88.729320     -2414.4476
   5   1.0000     -88.729311     -2414.4473
   6   1.0000     -88.729283     -2414.4465
   7   1.0000     -88.721449     -2414.2334
   8   1.0000     -88.719304     -2414.1750
   9   1.0000     -88.650231     -2412.2954
  10   1.0000     -88.647928     -2412.2328
  11   1.0000     -88.645515     -2412.1671
  12   1.0000     -88.643709     -2412.1180
  13   1.0000     -22.053336      -600.1018
  14   1.0000     -18.895293      -514.1671
  15   1.0000     -18.559972      -505.0425
  16   1.0000     -18.554563      -504.8953
  17   1.0000     -18.554388      -504.8906
  18   1.0000     -10.075942      -274.1803
  19   1.0000     -10.069666      -274.0096
  20   1.0000     -10.064137      -273.8591
  21   1.0000     -10.063679      -273.8466
  22   1.0000     -10.060764      -273.7673
  23   1.0000     -10.060136      -273.7502
  24   1.0000     -10.051705      -273.5208
  25   1.0000     -10.049006      -273.4474
  26   1.0000     -10.048399      -273.4308
  27   1.0000     -10.045700      -273.3574
  28   1.0000     -10.045174      -273.3431
  29   1.0000     -10.042789      -273.2782
  30   1.0000     -10.027898      -272.8730
  31   1.0000     -10.024586      -272.7828
  32   1.0000      -7.787025      -211.8957
  33   1.0000      -7.786947      -211.8936
  34   1.0000      -7.783322      -211.7950
  35   1.0000      -7.782849      -211.7821
  36   1.0000      -7.782785      -211.7803
  37   1.0000      -7.782616      -211.7758
  38   1.0000      -7.774447      -211.5535
  39   1.0000      -7.772391      -211.4975
  40   1.0000      -7.703812      -209.6314
  41   1.0000      -7.701138      -209.5586
  42   1.0000      -7.699583      -209.5163
  43   1.0000      -7.697704      -209.4652
  44   1.0000      -5.752004      -156.5200
  45   1.0000      -5.751945      -156.5184
  46   1.0000      -5.748625      -156.4280
  47   1.0000      -5.748506      -156.4248
  48   1.0000      -5.748188      -156.4162
  49   1.0000      -5.747876      -156.4076
  50   1.0000      -5.747775      -156.4049
  51   1.0000      -5.747495      -156.3973
  52   1.0000      -5.744407      -156.3133
  53   1.0000      -5.744382      -156.3126
  54   1.0000      -5.744018      -156.3027
  55   1.0000      -5.743188      -156.2801
  56   1.0000      -5.741802      -156.2424
  57   1.0000      -5.741735      -156.2405
  58   1.0000      -5.739082      -156.1684
  59   1.0000      -5.739071      -156.1681
  60   1.0000      -5.738432      -156.1507
  61   1.0000      -5.737607      -156.1282
  62   1.0000      -5.737535      -156.1263
  63   1.0000      -5.737053      -156.1132
  64   1.0000      -5.735333      -156.0663
  65   1.0000      -5.733214      -156.0087
  66   1.0000      -5.730239      -155.9277
  67   1.0000      -5.728180      -155.8717
  68   1.0000      -5.668892      -154.2584
  69   1.0000      -5.666367      -154.1897
  70   1.0000      -5.664851      -154.1484
  71   1.0000      -5.663039      -154.0991
  72   1.0000      -5.662467      -154.0836
  73   1.0000      -5.661556      -154.0588
  74   1.0000      -5.659896      -154.0136
  75   1.0000      -5.658634      -153.9793
  76   1.0000      -5.658173      -153.9667
  77   1.0000      -5.657059      -153.9364
  78   1.0000      -5.656412      -153.9188
  79   1.0000      -5.654987      -153.8800
  80   1.0000      -2.447185       -66.5913
  81   1.0000      -1.488917       -40.5155
  82   1.0000      -1.476797       -40.1857
  83   1.0000      -1.475756       -40.1573
  84   1.0000      -0.709188       -19.2980
  85   1.0000      -0.703136       -19.1333
  86   1.0000      -0.684562       -18.6279
  87   1.0000      -0.674137       -18.3442
  88   1.0000      -0.654705       -17.8154
  89   1.0000      -0.630415       -17.1545
  90   1.0000      -0.619793       -16.8654
  91   1.0000      -0.617660       -16.8074
  92   1.0000      -0.613817       -16.7028
  93   1.0000      -0.573546       -15.6070
  94   1.0000      -0.572132       -15.5685
  95   1.0000      -0.562174       -15.2975
  96   1.0000      -0.559531       -15.2256
  97   1.0000      -0.496996       -13.5239
  98   1.0000      -0.496002       -13.4969
  99   1.0000      -0.492479       -13.4010
 100   1.0000      -0.489073       -13.3084
 101   1.0000      -0.480159       -13.0658
 102   1.0000      -0.474281       -12.9058
 103   1.0000      -0.446282       -12.1439
 104   1.0000      -0.440052       -11.9744
 105   1.0000      -0.408578       -11.1180
 106   1.0000      -0.383740       -10.4421
 107   1.0000      -0.354680        -9.6513
 108   1.0000      -0.346606        -9.4316
 109   1.0000      -0.326426        -8.8825
 110   1.0000      -0.320489        -8.7209
 111   1.0000      -0.318974        -8.6797
 112   1.0000      -0.312915        -8.5149
 113   1.0000      -0.303004        -8.2452
 114   1.0000      -0.292958        -7.9718
 115   1.0000      -0.292782        -7.9670
 116   1.0000      -0.289571        -7.8796
 117   1.0000      -0.258388        -7.0311
 118   1.0000      -0.257219        -6.9993
 119   1.0000      -0.255953        -6.9648
 120   1.0000      -0.252053        -6.8587
 121   1.0000      -0.234770        -6.3884
 122   1.0000      -0.231538        -6.3005
 123   1.0000      -0.230969        -6.2850
 124   1.0000      -0.228699        -6.2232
 125   1.0000      -0.216861        -5.9011
 126   1.0000      -0.212628        -5.7859
 127   1.0000      -0.210232        -5.7207
 128   1.0000      -0.194433        -5.2908
 129   1.0000      -0.188901        -5.1403
 130   1.0000      -0.187574        -5.1041
 131   1.0000      -0.182151        -4.9566
 132   1.0000      -0.180296        -4.9061
 133   1.0000      -0.172403        -4.6913
 134   1.0000      -0.153062        -4.1650
 135   1.0000      -0.151563        -4.1242
 136   1.0000      -0.148166        -4.0318
 137   1.0000      -0.136625        -3.7178
 138   1.0000      -0.130976        -3.5640
 139   1.0000      -0.129419        -3.5217
 140   1.0000      -0.123890        -3.3712
 141   1.0000      -0.117706        -3.2029
 142   1.0000      -0.115457        -3.1417
 143   1.0000      -0.111575        -3.0361
 144   1.0000      -0.101402        -2.7593
 145   1.0000      -0.095812        -2.6072
 146   1.0000      -0.092582        -2.5193
 147   1.0000      -0.089534        -2.4364
 148   1.0000      -0.068272        -1.8578
 149   1.0000      -0.066794        -1.8176
 150   1.0000      -0.063218        -1.7202
 151   1.0000      -0.055537        -1.5112
 152   1.0000      -0.042771        -1.1639
 153   1.0000      -0.040797        -1.1102
 154   1.0000      -0.035977        -0.9790
 155   1.0000      -0.031596        -0.8598
 156   1.0000      -0.026819        -0.7298
 157   1.0000      -0.024818        -0.6753
 158   1.0000      -0.010533        -0.2866
 159   1.0000       0.016708         0.4546
 160   1.0000       0.034581         0.9410
 161   0.0000       0.112642         3.0651
 162   0.0000       0.136107         3.7037
 163   0.0000       0.139787         3.8038
 164   0.0000       0.158130         4.3029
 165   0.0000       0.166788         4.5385

                 SPIN DOWN ORBITALS
  NO   OCC          E(Eh)            E(eV)
   0   1.0000    -196.678277     -5351.8880
   1   1.0000     -88.733590     -2414.5637
   2   1.0000     -88.733442     -2414.5597
   3   1.0000     -88.730277     -2414.4736
   4   1.0000     -88.729328     -2414.4478
   5   1.0000     -88.729312     -2414.4473
   6   1.0000     -88.729283     -2414.4465
   7   1.0000     -88.721451     -2414.2334
   8   1.0000     -88.719326     -2414.1756
   9   1.0000     -88.650309     -2412.2975
  10   1.0000     -88.648097     -2412.2374
  11   1.0000     -88.645667     -2412.1712
  12   1.0000     -88.643829     -2412.1212
  13   1.0000     -22.038463      -599.6971
  14   1.0000     -18.898953      -514.2667
  15   1.0000     -18.554777      -504.9011
  16   1.0000     -18.538549      -504.4596
  17   1.0000     -18.538324      -504.4534
  18   1.0000     -10.075936      -274.1802
  19   1.0000     -10.069649      -274.0091
  20   1.0000     -10.064136      -273.8591
  21   1.0000     -10.063678      -273.8466
  22   1.0000     -10.060764      -273.7673
  23   1.0000     -10.060137      -273.7502
  24   1.0000     -10.051704      -273.5208
  25   1.0000     -10.048994      -273.4470
  26   1.0000     -10.048399      -273.4308
  27   1.0000     -10.045695      -273.3573
  28   1.0000     -10.044789      -273.3326
  29   1.0000     -10.042753      -273.2772
  30   1.0000     -10.027680      -272.8671
  31   1.0000     -10.024380      -272.7772
  32   1.0000      -7.787026      -211.8957
  33   1.0000      -7.786947      -211.8936
  34   1.0000      -7.783334      -211.7953
  35   1.0000      -7.782850      -211.7821
  36   1.0000      -7.782785      -211.7804
  37   1.0000      -7.782626      -211.7760
  38   1.0000      -7.774450      -211.5535
  39   1.0000      -7.772414      -211.4981
  40   1.0000      -7.703883      -209.6333
  41   1.0000      -7.701297      -209.5629
  42   1.0000      -7.699724      -209.5201
  43   1.0000      -7.697819      -209.4683
  44   1.0000      -5.752005      -156.5200
  45   1.0000      -5.751946      -156.5184
  46   1.0000      -5.748627      -156.4281
  47   1.0000      -5.748507      -156.4248
  48   1.0000      -5.748204      -156.4166
  49   1.0000      -5.747876      -156.4077
  50   1.0000      -5.747775      -156.4049
  51   1.0000      -5.747504      -156.3975
  52   1.0000      -5.744408      -156.3133
  53   1.0000      -5.744382      -156.3126
  54   1.0000      -5.744036      -156.3032
  55   1.0000      -5.743201      -156.2804
  56   1.0000      -5.741802      -156.2424
  57   1.0000      -5.741735      -156.2406
  58   1.0000      -5.739090      -156.1686
  59   1.0000      -5.739080      -156.1683
  60   1.0000      -5.738441      -156.1509
  61   1.0000      -5.737608      -156.1283
  62   1.0000      -5.737536      -156.1263
  63   1.0000      -5.737080      -156.1139
  64   1.0000      -5.735341      -156.0666
  65   1.0000      -5.733248      -156.0096
  66   1.0000      -5.730227      -155.9274
  67   1.0000      -5.728208      -155.8725
  68   1.0000      -5.668985      -154.2609
  69   1.0000      -5.666535      -154.1942
  70   1.0000      -5.665002      -154.1525
  71   1.0000      -5.663153      -154.1022
  72   1.0000      -5.662768      -154.0917
  73   1.0000      -5.661506      -154.0574
  74   1.0000      -5.660304      -154.0247
  75   1.0000      -5.658790      -153.9835
  76   1.0000      -5.658550      -153.9770
  77   1.0000      -5.657197      -153.9402
  78   1.0000      -5.656800      -153.9294
  79   1.0000      -5.655003      -153.8805
  80   1.0000      -2.402540       -65.3764
  81   1.0000      -1.469922       -39.9986
  82   1.0000      -1.414870       -38.5006
  83   1.0000      -1.414066       -38.4787
  84   1.0000      -0.709166       -19.2974
  85   1.0000      -0.703125       -19.1330
  86   1.0000      -0.684510       -18.6265
  87   1.0000      -0.674087       -18.3428
  88   1.0000      -0.662530       -18.0284
  89   1.0000      -0.630338       -17.1524
  90   1.0000      -0.619707       -16.8631
  91   1.0000      -0.617660       -16.8074
  92   1.0000      -0.613818       -16.7028
  93   1.0000      -0.573518       -15.6062
  94   1.0000      -0.572053       -15.5663
  95   1.0000      -0.562117       -15.2960
  96   1.0000      -0.559407       -15.2222
  97   1.0000      -0.497048       -13.5254
  98   1.0000      -0.496022       -13.4974
  99   1.0000      -0.492490       -13.4013
 100   1.0000      -0.489099       -13.3091
 101   1.0000      -0.480357       -13.0712
 102   1.0000      -0.474480       -12.9113
 103   1.0000      -0.446306       -12.1446
 104   1.0000      -0.440076       -11.9751
 105   1.0000      -0.408606       -11.1187
 106   1.0000      -0.383727       -10.4417
 107   1.0000      -0.354673        -9.6511
 108   1.0000      -0.346596        -9.4314
 109   1.0000      -0.326415        -8.8822
 110   1.0000      -0.320474        -8.7205
 111   1.0000      -0.318889        -8.6774
 112   1.0000      -0.312873        -8.5137
 113   1.0000      -0.302966        -8.2441
 114   1.0000      -0.292952        -7.9716
 115   1.0000      -0.292745        -7.9660
 116   1.0000      -0.289563        -7.8794
 117   1.0000      -0.258320        -7.0292
 118   1.0000      -0.257112        -6.9964
 119   1.0000      -0.255896        -6.9633
 120   1.0000      -0.251989        -6.8570
 121   1.0000      -0.234751        -6.3879
 122   1.0000      -0.231498        -6.2994
 123   1.0000      -0.230951        -6.2845
 124   1.0000      -0.228658        -6.2221
 125   1.0000      -0.216727        -5.8974
 126   1.0000      -0.212216        -5.7747
 127   1.0000      -0.210172        -5.7191
 128   1.0000      -0.193426        -5.2634
 129   1.0000      -0.188815        -5.1379
 130   1.0000      -0.187423        -5.1000
 131   1.0000      -0.181751        -4.9457
 132   1.0000      -0.179282        -4.8785
 133   1.0000      -0.172173        -4.6851
 134   1.0000      -0.152616        -4.1529
 135   1.0000      -0.151243        -4.1155
 136   1.0000      -0.147996        -4.0272
 137   1.0000      -0.135808        -3.6955
 138   1.0000      -0.130399        -3.5483
 139   1.0000      -0.129133        -3.5139
 140   1.0000      -0.124129        -3.3777
 141   1.0000      -0.118707        -3.2302
 142   1.0000      -0.116117        -3.1597
 143   1.0000      -0.113024        -3.0755
 144   1.0000      -0.101185        -2.7534
 145   1.0000      -0.095642        -2.6025
 146   1.0000      -0.092662        -2.5215
 147   1.0000      -0.089122        -2.4251
 148   1.0000      -0.068056        -1.8519
 149   1.0000      -0.065135        -1.7724
 150   1.0000      -0.061640        -1.6773
 151   1.0000      -0.052975        -1.4415
 152   1.0000      -0.042156        -1.1471
 153   1.0000      -0.039785        -1.0826
 154   1.0000      -0.036060        -0.9813
 155   1.0000      -0.027851        -0.7579
 156   1.0000      -0.026287        -0.7153
 157   1.0000      -0.019980        -0.5437
 158   1.0000       0.017038         0.4636
 159   1.0000       0.033684         0.9166
 160   0.0000       0.112812         3.0698
 161   0.0000       0.136133         3.7044
 162   0.0000       0.139816         3.8046
 163   0.0000       0.153899         4.1878
 164   0.0000       0.160174         4.3586

MULLIKEN ATOMIC CHARGES AND SPIN POPULATIONS
--------------------------------------------
   0 V :    0.473113    1.202418
   1 S :   -0.275338   -0.031712
   2 S :   -0.270906   -0.026333
   3 S :   -0.252211   -0.015629
   4 S :   -0.287321   -0.024062
   5 O :   -0.466926   -0.143569
   6 C :   -0.105344    0.010061
   7 C :   -0.052616    0.008092
   8 C :   -0.066595    0.000214
   9 C :   -0.094109    0.020605
  10 S :    0.088062   -0.001170
  11 S :    0.091665   -0.000408
  12 S :    0.061422    0.000201
  13 S :    0.061780   -0.002567
  14 C :   -0.198288    0.001436
  15 C :   -0.174054    0.002919
  16 C :   -0.197458    0.000097
  17 C :   -0.226376   -0.000359
  18 S :    0.009672   -0.000121
  19 S :    0.009588   -0.000113
  20 S :    0.009512   -0.000002
  21 S :    0.009652   -0.000097
  22 C :   -0.298456    0.000019
  23 C :   -0.296641   -0.000025
  24 C :   -0.162452   -0.000039
  25 H :    0.142862   -0.000004
  26 H :    0.112094   -0.000010
  27 H :    0.081596   -0.000002
  28 H :    0.091066    0.000001
  29 H :    0.113166    0.000006
  30 H :    0.141351    0.000017
  31 C :   -0.298441    0.000133
  32 C :   -0.299516    0.000134
  33 C :   -0.160089   -0.000159
  34 H :    0.141834   -0.000008
  35 H :    0.114017    0.000007
  36 H :    0.092531    0.000020
  37 H :    0.082810    0.000006
  38 H :    0.113330    0.000019
  39 H :    0.142017   -0.000015
Sum of atomic charges         :   -2.0000000

LOEWDIN ATOMIC CHARGES AND SPIN POPULATIONS
-------------------------------------------
   0 V :   -0.173408    1.156118
   1 S :    0.078625   -0.021406
   2 S :    0.089990   -0.017777
   3 S :    0.104299   -0.006493
   4 S :    0.080304   -0.014193
   5 O :   -0.316242   -0.128771
   6 C :   -0.538953    0.008852
   7 C :   -0.548012    0.007572
   8 C :   -0.518472   -0.000594
   9 C :   -0.516873    0.019771
  10 S :    0.460066   -0.001093
  11 S :    0.467485   -0.000814
  12 S :    0.431009    0.000482
  13 S :    0.429820   -0.002708
  14 C :   -0.465704    0.000190
  15 C :   -0.472080    0.000600
  16 C :   -0.620915    0.000462
  17 C :   -0.616672    0.000079
  18 S :    0.358305   -0.000099
  19 S :    0.361003   -0.000081
  20 S :    0.358513   -0.000046
  21 S :    0.358709   -0.000107
  22 C :   -0.283139   -0.000034
  23 C :   -0.284279    0.000004
  24 C :   -0.176525   -0.000000
  25 H :    0.062433   -0.000003
  26 H :    0.053051   -0.000002
  27 H :    0.057130   -0.000004
  28 H :    0.059814   -0.000000
  29 H :    0.053521    0.000001
  30 H :    0.061663    0.000005
  31 C :   -0.283586    0.000041
  32 C :   -0.284042    0.000030
  33 C :   -0.176314    0.000005
  34 H :    0.061904   -0.000000
  35 H :    0.053755    0.000004
  36 H :    0.060292    0.000004
  37 H :    0.057805    0.000000
  38 H :    0.053565    0.000009
  39 H :    0.062155   -0.000002

  Mayer bond orders larger than 0.100000
B(  0-V ,  1-S ) :   0.7649 B(  0-V ,  2-S ) :   0.7775 B(  0-V ,  3-S ) :   0.7558
B(  0-V ,  4-S ) :   0.7923 B(  0-V ,  5-O ) :   2.1443 B(  1-S ,  8-C ) :   1.0572
B(  2-S ,  6-C ) :   1.1307 B(  3-S ,  9-C ) :   1.1066 B(  4-S ,  7-C ) :   1.0358
B(  6-C ,  7-C ) :   1.6356 B(  6-C , 10-S ) :   0.9151 B(  7-C , 11-S ) :   0.9321
B(  8-C ,  9-C ) :   1.4223 B(  8-C , 13-S ) :   0.8927 B(  9-C , 12-S ) :   0.8915
B( 10-S , 14-C ) :   1.2365 B( 11-S , 14-C ) :   1.2417 B( 12-S , 15-C ) :   1.2257
B( 13-S , 15-C ) :   1.2279 B( 14-C , 16-C ) :   1.4714 B( 15-C , 17-C ) :   1.5153
B( 16-C , 18-S ) :   1.0897 B( 16-C , 19-S ) :   1.0852 B( 17-C , 20-S ) :   1.0851
B( 17-C , 21-S ) :   1.0848 B( 18-S , 32-C ) :   0.9924 B( 19-S , 31-C ) :   0.9900
B( 20-S , 23-C ) :   0.9974 B( 21-S , 22-C ) :   0.9900 B( 22-C , 24-C ) :   0.9136
B( 22-C , 25-H ) :   0.9668 B( 22-C , 26-H ) :   0.9648 B( 23-C , 24-C ) :   0.9137
B( 23-C , 29-H ) :   0.9667 B( 23-C , 30-H ) :   0.9658 B( 24-C , 27-H ) :   0.9624
B( 24-C , 28-H ) :   0.9712 B( 31-C , 33-C ) :   0.9137 B( 31-C , 38-H ) :   0.9654
B( 31-C , 39-H ) :   0.9660 B( 32-C , 33-C ) :   0.9131 B( 32-C , 34-H ) :   0.9658
B( 32-C , 35-H ) :   0.9659 B( 33-C , 36-H ) :   0.9716 B( 33-C , 37-H ) :   0.9625

FINAL SINGLE POINT ENERGY     -6337.606317566508

DIPOLE MOMENT
-------------
                                X             Y             Z
Electronic contribution:     13.16575      -1.50958       2.94840
Nuclear contribution   :    -14.57535       1.81583      -3.65744
                        -----------------------------------------
Total Dipole Moment    :     -1.40960       0.30624      -0.70904
                        -----------------------------------------
Magnitude (a.u.)       :      1.60732
Magnitude (Debye)      :      4.08549

Rotational constants in cm-1:     0.010728     0.000804     0.000783
Rotational constants in MHz :   321.620338    24.110282    23.486861

                             ****ORCA TERMINATED NORMALLY****
TOTAL RUN TIME: 0 days 1 hours 6 minutes 27 seconds 69 msec
