                         Program Version 5.0.4 -  RELEASE  -
|  1> ! nofrozencore ReducedPop printbasis
|  2> ! B3LYP TZVP
|  3>
|  4> %basis
|  5> newgto V "CP(PPP)" end
|  6> end
|  7>
|  8> %pal
|  9> nprocs 6
| 10> end
| 11>
| 12> % sym SymThresh 1e-2 end
| 13> * xyz -2 2
| 14> V -0.33992847220295325 -0.6867516540416236 0.8073183721611072
| 15> S -0.3815901411044003 1.4887979988148201 1.9842785344230056
| 16> S -2.3516610711226913 0.13138874407667642 -0.3824429807069643
| 17> S 2.1198132644517242 -0.5820041392962733 1.0694816112292576
| 18> S 0.20289754226152 -1.8459091813892199 -1.300347177521532
| 19> O -0.8720014177968597 -1.7829173078841918 1.8268869250460613
| 20> C -2.395582259438673 -1.0522139023376702 -1.6902962400751043
| 21> C -1.3710468918589191 -1.8411255747461686 -2.06485567778806
| 22> C 1.2925817775630972 1.6256472905885935 2.5051497954004245
| 23> C 2.2905711996990155 0.801164149763526 2.13772886517727
| 24> S -3.911101043369738 -1.1643804545880763 -2.6652803271628684
| 25> S -1.6655200527383967 -2.8819010019361606 -3.4887571406544824
| 26> S 3.925773941718081 1.1937479720359694 2.766477043908062
| 27> S 1.7422231219752597 2.9957041455424216 3.577736633460284
| 28> C -3.2594055077415485 -2.4122644179986645 -3.843807405301496
| 29> C 3.479818533019666 2.661876419164568 3.638194088780651
| 30> C -3.991961864627369 -2.9102897755297934 -4.886071593316302
| 31> C 4.379658577466619 3.451843718822271 4.2986237599268105
| 32> S -5.759894420529942 -2.352262921516466 -5.148529310971517
| 33> S -3.4071049188904006 -4.064462309157227 -5.978120055176974
| 34> S 3.8774989871185994 4.930373128349717 5.164628880230917
| 35> S 6.1206051737077924 3.0864780614697467 4.312646490389438
| 36> C 6.72290748078657 4.597247903684416 3.4279164057646168
| 37> C 4.815210421777283 6.1645355493786065 4.151679674773673
| 38> C 6.324727388813182 5.907224238304485 4.108820537754161
| 39> H 6.331441707591357 4.561863437886676 2.4086917836253736
| 40> H 7.81035833162541 4.499584398630868 3.3793672335828195
| 41> H 6.796467825626383 6.735230863768549 3.5613443960138067
| 42> H 6.720159559383651 5.924849034902342 5.12930356514306
| 43> H 4.616932089564624 7.129616030951681 4.62496067755178
| 44> H 4.387940870841345 6.182530240177223 3.1465610303231464
| 45> C -4.57282127161477 -5.478887066114267 -5.707897515852423
| 46> C -6.505892045083383 -4.0221989735047075 -4.82665180623167
| 47> C -6.016745031727826 -5.113675469078319 -5.839097359100902
| 48> H -6.699305340770743 -4.2987797272971076 -3.736263677826017
| 49> H -7.5117576399175165 -3.798219664356129 -5.331518344944922
| 50> H -6.327145932235515 -4.690363334830943 -6.819571338971835
| 51> H -6.6279161984652175 -6.0117387301517295 -5.671330557104659
| 52> H -4.168563252035497 -6.466842964578114 -6.117114747515923
| 53> H -4.490443519049376 -5.514347217155273 -4.569377026072629
| 54> *
| 55>
| 56> % eprnmr
| 57> gtensor true
| 58> Nuclei = all H {aiso,adip,aorb,fgrad,rho}
| 59> Nuclei = all V {aiso,adip,aorb,fgrad,rho}
| 60> end
| 61>
| 62>                          ****END OF INPUT****

CARTESIAN COORDINATES (ANGSTROEM)
---------------------------------
  V     -0.340416   -0.685718    0.803659
  S     -0.382077    1.489832    1.980619
  S     -2.352148    0.132423   -0.386102
  S      2.119326   -0.580970    1.065822
  S      0.202410   -1.844875   -1.304007
  O     -0.872489   -1.781883    1.823228
  C     -2.396070   -1.051180   -1.693956
  C     -1.371534   -1.840091   -2.068515
  C      1.292094    1.626681    2.501490
  C      2.290084    0.802198    2.134069
  S     -3.911588   -1.163346   -2.668940
  S     -1.666007   -2.880867   -3.492417
  S      3.925287    1.194782    2.762818
  S      1.741736    2.996738    3.574077
  C     -3.259893   -2.411230   -3.847467
  C      3.479331    2.662911    3.634535
  C     -3.992449   -2.909256   -4.889731
  C      4.379171    3.452878    4.294964
  S     -5.760382   -2.351229   -5.152189
  S     -3.407592   -4.063428   -5.981779
  S      3.877012    4.931407    5.160969
  S      6.120118    3.087512    4.308987
  C      6.722420    4.598282    3.424257
  C      4.814723    6.165570    4.148020
  C      6.324240    5.908258    4.105161
  H      6.330954    4.562898    2.405032
  H      7.809871    4.500619    3.375708
  H      6.795981    6.736265    3.557685
  H      6.719672    5.925883    5.125644
  H      4.616445    7.130650    4.621301
  H      4.387454    6.183564    3.142902
  C     -4.573309   -5.477853   -5.711557
  C     -6.506379   -4.021165   -4.830311
  C     -6.017232   -5.112641   -5.842757
  H     -6.699793   -4.297746   -3.739923
  H     -7.512245   -3.797186   -5.335178
  H     -6.327633   -4.689329   -6.823231
  H     -6.628404   -6.010705   -5.674990
  H     -4.169051   -6.465809   -6.120774
  H     -4.490931   -5.513313   -4.573036

 Total Charge           Charge          ....   -2
 Multiplicity           Mult            ....    2
 Number of Electrons    NEL             ....  321
 Basis Dimension        Dim             ....  681

ORBITAL ENERGIES
----------------
                 SPIN UP ORBITALS
  NO   OCC          E(Eh)            E(eV)
   0   1.0000    -196.675137     -5351.8026
   1   1.0000     -88.736008     -2414.6295
   2   1.0000     -88.733396     -2414.5585
   3   1.0000     -88.733090     -2414.5501
   4   1.0000     -88.731049     -2414.4946
   5   1.0000     -88.730989     -2414.4930
   6   1.0000     -88.730826     -2414.4885
   7   1.0000     -88.730204     -2414.4716
   8   1.0000     -88.730176     -2414.4708
   9   1.0000     -88.640272     -2412.0244
  10   1.0000     -88.640085     -2412.0193
  11   1.0000     -88.639999     -2412.0170
  12   1.0000     -88.639545     -2412.0047
  13   1.0000     -22.050533      -600.0255
  14   1.0000     -18.890471      -514.0358
  15   1.0000     -18.556979      -504.9611
  16   1.0000     -18.551809      -504.8204
  17   1.0000     -18.551707      -504.8176
  18   1.0000     -10.076019      -274.1824
  19   1.0000     -10.075978      -274.1813
  20   1.0000     -10.075655      -274.1725
  21   1.0000     -10.068672      -273.9825
  22   1.0000     -10.063494      -273.8416
  23   1.0000     -10.063177      -273.8330
  24   1.0000     -10.056508      -273.6515
  25   1.0000     -10.051207      -273.5072
  26   1.0000     -10.048509      -273.4338
  27   1.0000     -10.047198      -273.3982
  28   1.0000     -10.019407      -272.6419
  29   1.0000     -10.018062      -272.6053
  30   1.0000     -10.017797      -272.5981
  31   1.0000     -10.017264      -272.5836
  32   1.0000      -7.788016      -211.9227
  33   1.0000      -7.786787      -211.8893
  34   1.0000      -7.786610      -211.8844
  35   1.0000      -7.786000      -211.8678
  36   1.0000      -7.785961      -211.8668
  37   1.0000      -7.783535      -211.8008
  38   1.0000      -7.783407      -211.7973
  39   1.0000      -7.782701      -211.7781
  40   1.0000      -7.694540      -209.3791
  41   1.0000      -7.694392      -209.3750
  42   1.0000      -7.694295      -209.3724
  43   1.0000      -7.693900      -209.3617
  44   1.0000      -5.753006      -156.5473
  45   1.0000      -5.751779      -156.5139
  46   1.0000      -5.751603      -156.5091
  47   1.0000      -5.750889      -156.4897
  48   1.0000      -5.750565      -156.4808
  49   1.0000      -5.749978      -156.4649
  50   1.0000      -5.748467      -156.4237
  51   1.0000      -5.748374      -156.4212
  52   1.0000      -5.748372      -156.4212
  53   1.0000      -5.748164      -156.4155
  54   1.0000      -5.747929      -156.4091
  55   1.0000      -5.747196      -156.3892
  56   1.0000      -5.746203      -156.3621
  57   1.0000      -5.744043      -156.3034
  58   1.0000      -5.743937      -156.3005
  59   1.0000      -5.743413      -156.2862
  60   1.0000      -5.742695      -156.2667
  61   1.0000      -5.742067      -156.2496
  62   1.0000      -5.741582      -156.2364
  63   1.0000      -5.741407      -156.2316
  64   1.0000      -5.740916      -156.2183
  65   1.0000      -5.739355      -156.1758
  66   1.0000      -5.739206      -156.1717
  67   1.0000      -5.738318      -156.1476
  68   1.0000      -5.659829      -154.0118
  69   1.0000      -5.659745      -154.0095
  70   1.0000      -5.659606      -154.0057
  71   1.0000      -5.659196      -153.9945
  72   1.0000      -5.653182      -153.8309
  73   1.0000      -5.653044      -153.8272
  74   1.0000      -5.652946      -153.8245
  75   1.0000      -5.652576      -153.8144
  76   1.0000      -5.651873      -153.7953
  77   1.0000      -5.651692      -153.7904
  78   1.0000      -5.651610      -153.7881
  79   1.0000      -5.651213      -153.7773
  80   1.0000      -2.444196       -66.5100
  81   1.0000      -1.485496       -40.4224
  82   1.0000      -1.473843       -40.1053
  83   1.0000      -1.473016       -40.0828
  84   1.0000      -0.712261       -19.3816
  85   1.0000      -0.709623       -19.3098
  86   1.0000      -0.686863       -18.6905
  87   1.0000      -0.685598       -18.6561
  88   1.0000      -0.650049       -17.6887
  89   1.0000      -0.634501       -17.2657
  90   1.0000      -0.631346       -17.1798
  91   1.0000      -0.617227       -16.7956
  92   1.0000      -0.612319       -16.6620
  93   1.0000      -0.580680       -15.8011
  94   1.0000      -0.574654       -15.6371
  95   1.0000      -0.573109       -15.5951
  96   1.0000      -0.568727       -15.4759
  97   1.0000      -0.497208       -13.5297
  98   1.0000      -0.495991       -13.4966
  99   1.0000      -0.495644       -13.4872
 100   1.0000      -0.490915       -13.3585
 101   1.0000      -0.479317       -13.0429
 102   1.0000      -0.476691       -12.9714
 103   1.0000      -0.446462       -12.1488
 104   1.0000      -0.439217       -11.9517
 105   1.0000      -0.415869       -11.3164
 106   1.0000      -0.410863       -11.1802
 107   1.0000      -0.355248        -9.6668
 108   1.0000      -0.353320        -9.6143
 109   1.0000      -0.328583        -8.9412
 110   1.0000      -0.326539        -8.8856
 111   1.0000      -0.319797        -8.7021
 112   1.0000      -0.315225        -8.5777
 113   1.0000      -0.304377        -8.2825
 114   1.0000      -0.303566        -8.2605
 115   1.0000      -0.292249        -7.9525
 116   1.0000      -0.280971        -7.6456
 117   1.0000      -0.260261        -7.0821
 118   1.0000      -0.257552        -7.0083
 119   1.0000      -0.256553        -6.9812
 120   1.0000      -0.255084        -6.9412
 121   1.0000      -0.234496        -6.3810
 122   1.0000      -0.232184        -6.3180
 123   1.0000      -0.230625        -6.2756
 124   1.0000      -0.222353        -6.0505
 125   1.0000      -0.219708        -5.9786
 126   1.0000      -0.217527        -5.9192
 127   1.0000      -0.212140        -5.7726
 128   1.0000      -0.207241        -5.6393
 129   1.0000      -0.193749        -5.2722
 130   1.0000      -0.188603        -5.1321
 131   1.0000      -0.187332        -5.0976
 132   1.0000      -0.182899        -4.9769
 133   1.0000      -0.175752        -4.7824
 134   1.0000      -0.159775        -4.3477
 135   1.0000      -0.150623        -4.0987
 136   1.0000      -0.146013        -3.9732
 137   1.0000      -0.134986        -3.6732
 138   1.0000      -0.134386        -3.6568
 139   1.0000      -0.132297        -3.6000
 140   1.0000      -0.125220        -3.4074
 141   1.0000      -0.121312        -3.3011
 142   1.0000      -0.113718        -3.0944
 143   1.0000      -0.109685        -2.9847
 144   1.0000      -0.100303        -2.7294
 145   1.0000      -0.098531        -2.6812
 146   1.0000      -0.096821        -2.6346
 147   1.0000      -0.093331        -2.5397
 148   1.0000      -0.074840        -2.0365
 149   1.0000      -0.068311        -1.8588
 150   1.0000      -0.067362        -1.8330
 151   1.0000      -0.052652        -1.4327
 152   1.0000      -0.045813        -1.2466
 153   1.0000      -0.037408        -1.0179
 154   1.0000      -0.037180        -1.0117
 155   1.0000      -0.031094        -0.8461
 156   1.0000      -0.025210        -0.6860
 157   1.0000      -0.019405        -0.5280
 158   1.0000      -0.015756        -0.4288
 159   1.0000       0.020075         0.5463
 160   1.0000       0.040939         1.1140
 161   0.0000       0.133093         3.6216
 162   0.0000       0.137265         3.7352
 163   0.0000       0.155194         4.2231
 164   0.0000       0.162224         4.4143
 165   0.0000       0.166166         4.5216

                 SPIN DOWN ORBITALS
  NO   OCC          E(Eh)            E(eV)
   0   1.0000    -196.675284     -5351.8066
   1   1.0000     -88.736009     -2414.6296
   2   1.0000     -88.733397     -2414.5585
   3   1.0000     -88.733091     -2414.5502
   4   1.0000     -88.731058     -2414.4948
   5   1.0000     -88.730989     -2414.4930
   6   1.0000     -88.730834     -2414.4887
   7   1.0000     -88.730212     -2414.4718
   8   1.0000     -88.730184     -2414.4711
   9   1.0000     -88.640416     -2412.0283
  10   1.0000     -88.640221     -2412.0231
  11   1.0000     -88.640137     -2412.0208
  12   1.0000     -88.639684     -2412.0084
  13   1.0000     -22.035602      -599.6192
  14   1.0000     -18.894251      -514.1387
  15   1.0000     -18.551713      -504.8178
  16   1.0000     -18.535775      -504.3841
  17   1.0000     -18.535592      -504.3791
  18   1.0000     -10.076013      -274.1822
  19   1.0000     -10.075978      -274.1813
  20   1.0000     -10.075654      -274.1725
  21   1.0000     -10.068670      -273.9824
  22   1.0000     -10.063494      -273.8416
  23   1.0000     -10.063177      -273.8330
  24   1.0000     -10.056508      -273.6515
  25   1.0000     -10.051207      -273.5072
  26   1.0000     -10.048505      -273.4337
  27   1.0000     -10.047187      -273.3979
  28   1.0000     -10.019164      -272.6353
  29   1.0000     -10.017848      -272.5995
  30   1.0000     -10.017579      -272.5922
  31   1.0000     -10.017053      -272.5779
  32   1.0000      -7.788017      -211.9227
  33   1.0000      -7.786788      -211.8893
  34   1.0000      -7.786611      -211.8845
  35   1.0000      -7.786001      -211.8679
  36   1.0000      -7.785971      -211.8671
  37   1.0000      -7.783544      -211.8010
  38   1.0000      -7.783417      -211.7975
  39   1.0000      -7.782710      -211.7783
  40   1.0000      -7.694667      -209.3825
  41   1.0000      -7.694526      -209.3787
  42   1.0000      -7.694423      -209.3759
  43   1.0000      -7.694029      -209.3652
  44   1.0000      -5.753008      -156.5473
  45   1.0000      -5.751780      -156.5139
  46   1.0000      -5.751604      -156.5091
  47   1.0000      -5.750890      -156.4897
  48   1.0000      -5.750578      -156.4812
  49   1.0000      -5.749980      -156.4649
  50   1.0000      -5.748478      -156.4240
  51   1.0000      -5.748383      -156.4214
  52   1.0000      -5.748374      -156.4212
  53   1.0000      -5.748165      -156.4155
  54   1.0000      -5.747938      -156.4093
  55   1.0000      -5.747197      -156.3892
  56   1.0000      -5.746216      -156.3625
  57   1.0000      -5.744057      -156.3037
  58   1.0000      -5.743952      -156.3009
  59   1.0000      -5.743427      -156.2866
  60   1.0000      -5.742696      -156.2667
  61   1.0000      -5.742076      -156.2498
  62   1.0000      -5.741583      -156.2364
  63   1.0000      -5.741408      -156.2316
  64   1.0000      -5.740916      -156.2183
  65   1.0000      -5.739361      -156.1760
  66   1.0000      -5.739212      -156.1719
  67   1.0000      -5.738326      -156.1478
  68   1.0000      -5.659966      -154.0155
  69   1.0000      -5.659888      -154.0134
  70   1.0000      -5.659749      -154.0096
  71   1.0000      -5.659337      -153.9984
  72   1.0000      -5.653560      -153.8412
  73   1.0000      -5.653433      -153.8377
  74   1.0000      -5.653299      -153.8341
  75   1.0000      -5.652935      -153.8242
  76   1.0000      -5.651956      -153.7976
  77   1.0000      -5.651788      -153.7930
  78   1.0000      -5.651716      -153.7910
  79   1.0000      -5.651319      -153.7802
  80   1.0000      -2.399315       -65.2887
  81   1.0000      -1.466209       -39.8976
  82   1.0000      -1.411470       -38.4081
  83   1.0000      -1.411294       -38.4033
  84   1.0000      -0.712235       -19.3809
  85   1.0000      -0.709608       -19.3094
  86   1.0000      -0.686811       -18.6891
  87   1.0000      -0.685555       -18.6549
  88   1.0000      -0.658157       -17.9094
  89   1.0000      -0.634436       -17.2639
  90   1.0000      -0.631288       -17.1782
  91   1.0000      -0.617229       -16.7957
  92   1.0000      -0.612311       -16.6618
  93   1.0000      -0.580610       -15.7992
  94   1.0000      -0.574630       -15.6365
  95   1.0000      -0.573046       -15.5934
  96   1.0000      -0.568681       -15.4746
  97   1.0000      -0.497221       -13.5301
  98   1.0000      -0.496038       -13.4979
  99   1.0000      -0.495675       -13.4880
 100   1.0000      -0.491003       -13.3609
 101   1.0000      -0.479498       -13.0478
 102   1.0000      -0.476907       -12.9773
 103   1.0000      -0.446493       -12.1497
 104   1.0000      -0.439256       -11.9528
 105   1.0000      -0.415869       -11.3164
 106   1.0000      -0.410963       -11.1829
 107   1.0000      -0.355244        -9.6667
 108   1.0000      -0.353309        -9.6140
 109   1.0000      -0.328573        -8.9409
 110   1.0000      -0.326529        -8.8853
 111   1.0000      -0.319724        -8.7001
 112   1.0000      -0.315249        -8.5784
 113   1.0000      -0.304321        -8.2810
 114   1.0000      -0.303542        -8.2598
 115   1.0000      -0.292245        -7.9524
 116   1.0000      -0.280965        -7.6454
 117   1.0000      -0.260137        -7.0787
 118   1.0000      -0.257457        -7.0057
 119   1.0000      -0.256501        -6.9798
 120   1.0000      -0.255048        -6.9402
 121   1.0000      -0.234457        -6.3799
 122   1.0000      -0.232159        -6.3174
 123   1.0000      -0.230583        -6.2745
 124   1.0000      -0.222071        -6.0429
 125   1.0000      -0.219533        -5.9738
 126   1.0000      -0.217386        -5.9154
 127   1.0000      -0.211966        -5.7679
 128   1.0000      -0.207140        -5.6366
 129   1.0000      -0.192081        -5.2268
 130   1.0000      -0.188294        -5.1237
 131   1.0000      -0.187242        -5.0951
 132   1.0000      -0.182653        -4.9702
 133   1.0000      -0.175569        -4.7775
 134   1.0000      -0.159150        -4.3307
 135   1.0000      -0.150461        -4.0943
 136   1.0000      -0.145912        -3.9705
 137   1.0000      -0.134253        -3.6532
 138   1.0000      -0.134134        -3.6500
 139   1.0000      -0.132059        -3.5935
 140   1.0000      -0.124686        -3.3929
 141   1.0000      -0.120987        -3.2922
 142   1.0000      -0.115511        -3.1432
 143   1.0000      -0.111295        -3.0285
 144   1.0000      -0.100324        -2.7300
 145   1.0000      -0.098797        -2.6884
 146   1.0000      -0.096864        -2.6358
 147   1.0000      -0.093586        -2.5466
 148   1.0000      -0.071134        -1.9356
 149   1.0000      -0.068190        -1.8555
 150   1.0000      -0.067351        -1.8327
 151   1.0000      -0.050070        -1.3625
 152   1.0000      -0.044886        -1.2214
 153   1.0000      -0.037301        -1.0150
 154   1.0000      -0.036761        -1.0003
 155   1.0000      -0.031113        -0.8466
 156   1.0000      -0.026250        -0.7143
 157   1.0000      -0.015983        -0.4349
 158   1.0000       0.020358         0.5540
 159   1.0000       0.039843         1.0842
 160   0.0000       0.133150         3.6232
 161   0.0000       0.137254         3.7349
 162   0.0000       0.153682         4.1819
 163   0.0000       0.158103         4.3022
 164   0.0000       0.163073         4.4374

MULLIKEN ATOMIC CHARGES AND SPIN POPULATIONS
--------------------------------------------
   0 V :    0.470853    1.210577
   1 S :   -0.290844   -0.022635
   2 S :   -0.288342   -0.025656
   3 S :   -0.289273   -0.023354
   4 S :   -0.283700   -0.024966
   5 O :   -0.467433   -0.146642
   6 C :   -0.064254    0.009762
   7 C :   -0.098073    0.007895
   8 C :   -0.083342    0.007741
   9 C :   -0.085240    0.007403
  10 S :    0.079055   -0.000557
  11 S :    0.127621   -0.000687
  12 S :    0.101146   -0.000391
  13 S :    0.098311   -0.000348
  14 C :   -0.208072    0.001519
  15 C :   -0.212126    0.000997
  16 C :   -0.207981   -0.000064
  17 C :   -0.190544   -0.000405
  18 S :   -0.008987   -0.000152
  19 S :    0.042284   -0.000089
  20 S :    0.007198   -0.000069
  21 S :    0.009457   -0.000070
  22 C :   -0.301518   -0.000000
  23 C :   -0.299404   -0.000002
  24 C :   -0.157987   -0.000011
  25 H :    0.143120   -0.000001
  26 H :    0.114745   -0.000004
  27 H :    0.083578   -0.000001
  28 H :    0.092099   -0.000001
  29 H :    0.112430   -0.000005
  30 H :    0.143081   -0.000001
  31 C :   -0.325003    0.000264
  32 C :   -0.290797    0.000164
  33 C :   -0.141053   -0.000275
  34 H :    0.146105   -0.000004
  35 H :    0.080167    0.000006
  36 H :    0.090857    0.000033
  37 H :    0.082828    0.000010
  38 H :    0.133312    0.000050
  39 H :    0.135727   -0.000028
Sum of atomic charges         :   -2.0000000

LOEWDIN ATOMIC CHARGES AND SPIN POPULATIONS
-------------------------------------------
   0 V :   -0.155542    1.163939
   1 S :    0.079933   -0.014637
   2 S :    0.077693   -0.016480
   3 S :    0.081417   -0.015210
   4 S :    0.087081   -0.015692
   5 O :   -0.318825   -0.131553
   6 C :   -0.543874    0.009084
   7 C :   -0.557277    0.007860
   8 C :   -0.552007    0.008101
   9 C :   -0.552760    0.007692
  10 S :    0.439182   -0.000872
  11 S :    0.510800   -0.001003
  12 S :    0.472881   -0.000824
  13 S :    0.469168   -0.000828
  14 C :   -0.466438    0.000181
  15 C :   -0.465188   -0.000080
  16 C :   -0.628762    0.000459
  17 C :   -0.622047    0.000085
  18 S :    0.326513   -0.000129
  19 S :    0.395381   -0.000050
  20 S :    0.357713   -0.000073
  21 S :    0.359945   -0.000074
  22 C :   -0.283498   -0.000007
  23 C :   -0.283227   -0.000009
  24 C :   -0.176086   -0.000002
  25 H :    0.062717   -0.000002
  26 H :    0.053837   -0.000002
  27 H :    0.058042   -0.000002
  28 H :    0.060185   -0.000001
  29 H :    0.053389   -0.000002
  30 H :    0.062282   -0.000002
  31 C :   -0.308676    0.000079
  32 C :   -0.301264    0.000018
  33 C :   -0.180403    0.000006
  34 H :    0.068889    0.000000
  35 H :    0.055941    0.000006
  36 H :    0.059126    0.000005
  37 H :    0.059858    0.000002
  38 H :    0.067858    0.000018
  39 H :    0.076043   -0.000002

  Mayer bond orders larger than 0.100000
B(  0-V ,  1-S ) :   0.7722 B(  0-V ,  2-S ) :   0.7709 B(  0-V ,  3-S ) :   0.7662
B(  0-V ,  4-S ) :   0.7765 B(  0-V ,  5-O ) :   2.1490 B(  1-S ,  8-C ) :   1.1034
B(  2-S ,  6-C ) :   1.1009 B(  3-S ,  9-C ) :   1.1059 B(  4-S ,  7-C ) :   1.1128
B(  6-C ,  7-C ) :   1.6808 B(  6-C , 10-S ) :   0.9332 B(  7-C , 11-S ) :   0.9408
B(  8-C ,  9-C ) :   1.6986 B(  8-C , 13-S ) :   0.9333 B(  9-C , 12-S ) :   0.9360
B( 10-S , 14-C ) :   1.1909 B( 11-S , 14-C ) :   1.3129 B( 12-S , 15-C ) :   1.2485
B( 13-S , 15-C ) :   1.2446 B( 14-C , 16-C ) :   1.4455 B( 15-C , 17-C ) :   1.4539
B( 16-C , 18-S ) :   1.0013 B( 16-C , 19-S ) :   1.1965 B( 17-C , 20-S ) :   1.0844
B( 17-C , 21-S ) :   1.0924 B( 18-S , 32-C ) :   1.0403 B( 19-S , 31-C ) :   0.9176
B( 20-S , 23-C ) :   0.9944 B( 21-S , 22-C ) :   0.9879 B( 22-C , 24-C ) :   0.9132
B( 22-C , 25-H ) :   0.9669 B( 22-C , 26-H ) :   0.9646 B( 23-C , 24-C ) :   0.9136
B( 23-C , 29-H ) :   0.9665 B( 23-C , 30-H ) :   0.9643 B( 24-C , 27-H ) :   0.9625
B( 24-C , 28-H ) :   0.9719 B( 31-C , 33-C ) :   0.9089 B( 31-C , 38-H ) :   0.9367
B( 31-C , 39-H ) :   0.9927 B( 32-C , 33-C ) :   0.8962 B( 32-C , 34-H ) :   0.9301
B( 32-C , 35-H ) :   0.9828 B( 33-C , 36-H ) :   0.9691 B( 33-C , 37-H ) :   0.9671

FINAL SINGLE POINT ENERGY     -6337.667594733341

DIPOLE MOMENT
-------------
                                X             Y             Z
Electronic contribution:     -1.92768      -6.35062      11.84721
Nuclear contribution   :      2.32724       7.11871     -13.10318
                        -----------------------------------------
Total Dipole Moment    :      0.39956       0.76810      -1.25598
                        -----------------------------------------
Magnitude (a.u.)       :      1.52548
Magnitude (Debye)      :      3.87747

Rotational constants in cm-1:     0.010757     0.000804     0.000783
Rotational constants in MHz :   322.501690    24.115760    23.486391

                             ****ORCA TERMINATED NORMALLY****
TOTAL RUN TIME: 0 days 1 hours 6 minutes 19 seconds 210 msec
