                         Program Version 5.0.4 -  RELEASE  -
|  1> ! nofrozencore ReducedPop printbasis
|  2> ! B3LYP TZVP
|  3>
|  4> %basis
|  5> newgto V "CP(PPP)" end
|  6> end
|  7>
|  8> %pal
|  9> nprocs 6
| 10> end
| 11>
| 12> % sym SymThresh 1e-2 end
| 13> * xyz -2 2
| 14> V 0.7064599945573276 0.7273174618960919 0.4506495243136154
| 15> S 1.1964126763100027 0.9777902920905948 -1.9133483214822975
| 16> S -1.4649729358981811 1.964370668311308 -0.06431036753936548
| 17> S 2.022570416708582 -1.4271427812915696 0.31365532540136437
| 18> S -0.5437974649254979 -0.4645333678797912 2.0682260553797933
| 19> O 1.614172522807794 1.7918713896849074 1.2039322458070476
| 20> C -2.2757563248497275 1.5691306251520933 1.3923334344794218
| 21> C -1.9780544847046164 0.6218763886451324 2.3016022371438645
| 22> C 2.3870478255794714 -0.3386479866293502 -2.2111111758747466
| 23> C 2.666394408059201 -1.2675538849743286 -1.2780606944484714
| 24> S -3.689170576368814 2.6484241124231382 1.5560647485706707
| 25> S -3.2411502793558746 0.603109377296257 3.6255573286644704
| 26> S 3.817380903632526 -2.596691685050882 -1.6018931370117435
| 27> S 3.297632198357012 -0.6578722261558074 -3.7607312035580134
| 28> C -4.3269354618423845 1.8026920267758535 3.0497816102712334
| 29> C 4.137877225828531 -2.095637000755701 -3.3175141558634285
| 30> C -5.420143452449421 2.0095223304729752 3.8667197529794057
| 31> C 4.9059259785287415 -2.6648716670203303 -4.3050673059446005
| 32> S -6.352573367844486 3.38522804372007 3.3972710999291977
| 33> S -5.85081125040084 1.1376580326638992 5.460229513392114
| 34> S 5.140025338233555 -2.0751950800220844 -6.037986459192349
| 35> S 5.674721820278221 -4.14860090568369 -3.8654997242405407
| 36> C 4.909913496603032 -5.335592979463468 -5.06059098373545
| 37> C 4.363245350701249 -3.5542372393839656 -6.8594696057909
| 38> C 5.020952687347678 -4.8986266919380625 -6.522715855072724
| 39> H 3.8612816822507185 -5.49850071659228 -4.782076857763816
| 40> H 5.456143355787026 -6.275254564454551 -4.9091107368123605
| 41> H 4.540928963031692 -5.669301304292382 -7.142772926176124
| 42> H 6.076871091590018 -4.862746426990804 -6.810616858264141
| 43> H 4.437616115916477 -3.362808611215587 -7.9341791974131555
| 44> H 3.305482346543711 -3.558821614829508 -6.587048086326315
| 45> C -5.727813830062346 2.609965047106547 6.603986448242806
| 46> C -6.278115712236383 4.507417558561666 4.877923421590137
| 47> C -6.564986255234342 3.8455796216360634 6.233056494850146
| 48> H -5.297946758699791 5.0238011479809845 4.90192445740949
| 49> H -7.061377542035781 5.263261432095513 4.670969511818783
| 50> H -7.631972236425949 3.5808052283572867 6.288435825492902
| 51> H -6.38000456792158 4.606831540952277 7.011840461802666
| 52> H -6.064893546885739 2.2278943566321296 7.57287603473069
| 53> H -4.668881980610626 2.8660461439295024 6.691330444903781
| 54> *
| 55>
| 56> % eprnmr
| 57> gtensor true
| 58> Nuclei = all H {aiso,adip,aorb,fgrad,rho}
| 59> Nuclei = all V {aiso,adip,aorb,fgrad,rho}
| 60> end
| 61>
| 62>                          ****END OF INPUT****

CARTESIAN COORDINATES (ANGSTROEM)
---------------------------------
  V      0.702821    0.726113    0.450586
  S      1.192774    0.976586   -1.913412
  S     -1.468612    1.963166   -0.064374
  S      2.018931   -1.428347    0.313592
  S     -0.547437   -0.465738    2.068162
  O      1.610533    1.790667    1.203869
  C     -2.279395    1.567926    1.392270
  C     -1.981694    0.620672    2.301539
  C      2.383409   -0.339852   -2.211175
  C      2.662755   -1.268758   -1.278124
  S     -3.692810    2.647220    1.556001
  S     -3.244789    0.601905    3.625494
  S      3.813742   -2.597896   -1.601957
  S      3.293993   -0.659076   -3.760795
  C     -4.330575    1.801488    3.049718
  C      4.134238   -2.096841   -3.317578
  C     -5.423783    2.008318    3.866656
  C      4.902287   -2.666076   -4.305131
  S     -6.356213    3.384024    3.397207
  S     -5.854450    1.136454    5.460166
  S      5.136386   -2.076399   -6.038050
  S      5.671083   -4.149805   -3.865563
  C      4.906274   -5.336797   -5.060655
  C      4.359606   -3.555441   -6.859533
  C      5.017314   -4.899831   -6.522780
  H      3.857643   -5.499705   -4.782141
  H      5.452504   -6.276459   -4.909174
  H      4.537290   -5.670506   -7.142837
  H      6.073232   -4.863951   -6.810681
  H      4.433977   -3.364013   -7.934243
  H      3.301843   -3.560026   -6.587112
  C     -5.731453    2.608761    6.603923
  C     -6.281755    4.506213    4.877860
  C     -6.568625    3.844375    6.232993
  H     -5.301586    5.022597    4.901861
  H     -7.065017    5.262057    4.670906
  H     -7.635611    3.579601    6.288372
  H     -6.383644    4.605627    7.011777
  H     -6.068533    2.226690    7.572812
  H     -4.672521    2.864842    6.691267

 Total Charge           Charge          ....   -2
 Multiplicity           Mult            ....    2
 Number of Electrons    NEL             ....  321
 Basis Dimension        Dim             ....  681

ORBITAL ENERGIES
----------------
                 SPIN UP ORBITALS
  NO   OCC          E(Eh)            E(eV)
   0   1.0000    -196.674495     -5351.7851
   1   1.0000     -88.742863     -2414.8161
   2   1.0000     -88.739785     -2414.7323
   3   1.0000     -88.736654     -2414.6471
   4   1.0000     -88.735244     -2414.6087
   5   1.0000     -88.727086     -2414.3868
   6   1.0000     -88.726453     -2414.3695
   7   1.0000     -88.724711     -2414.3221
   8   1.0000     -88.723883     -2414.2996
   9   1.0000     -88.645270     -2412.1604
  10   1.0000     -88.642277     -2412.0790
  11   1.0000     -88.638084     -2411.9649
  12   1.0000     -88.637551     -2411.9504
  13   1.0000     -22.049998      -600.0110
  14   1.0000     -18.890109      -514.0260
  15   1.0000     -18.556381      -504.9448
  16   1.0000     -18.551327      -504.8073
  17   1.0000     -18.551172      -504.8031
  18   1.0000     -10.075469      -274.1674
  19   1.0000     -10.075387      -274.1652
  20   1.0000     -10.069786      -274.0128
  21   1.0000     -10.066393      -273.9205
  22   1.0000     -10.065240      -273.8891
  23   1.0000     -10.061014      -273.7741
  24   1.0000     -10.056382      -273.6481
  25   1.0000     -10.051615      -273.5184
  26   1.0000     -10.050954      -273.5004
  27   1.0000     -10.048577      -273.4357
  28   1.0000     -10.019639      -272.6482
  29   1.0000     -10.019336      -272.6400
  30   1.0000     -10.017738      -272.5965
  31   1.0000     -10.016849      -272.5723
  32   1.0000      -7.794289      -212.0934
  33   1.0000      -7.791780      -212.0251
  34   1.0000      -7.788296      -211.9303
  35   1.0000      -7.787236      -211.9015
  36   1.0000      -7.781534      -211.7463
  37   1.0000      -7.781134      -211.7354
  38   1.0000      -7.778939      -211.6757
  39   1.0000      -7.778209      -211.6558
  40   1.0000      -7.698714      -209.4927
  41   1.0000      -7.695668      -209.4098
  42   1.0000      -7.693312      -209.3457
  43   1.0000      -7.692969      -209.3363
  44   1.0000      -5.759474      -156.7233
  45   1.0000      -5.756854      -156.6520
  46   1.0000      -5.756201      -156.6342
  47   1.0000      -5.754034      -156.5752
  48   1.0000      -5.753672      -156.5654
  49   1.0000      -5.752790      -156.5414
  50   1.0000      -5.748906      -156.4357
  51   1.0000      -5.748692      -156.4299
  52   1.0000      -5.747669      -156.4020
  53   1.0000      -5.746635      -156.3739
  54   1.0000      -5.746445      -156.3687
  55   1.0000      -5.746138      -156.3604
  56   1.0000      -5.743716      -156.2945
  57   1.0000      -5.743582      -156.2908
  58   1.0000      -5.742842      -156.2707
  59   1.0000      -5.742750      -156.2682
  60   1.0000      -5.742736      -156.2678
  61   1.0000      -5.742373      -156.2579
  62   1.0000      -5.739440      -156.1781
  63   1.0000      -5.738681      -156.1575
  64   1.0000      -5.736363      -156.0944
  65   1.0000      -5.736001      -156.0845
  66   1.0000      -5.734891      -156.0543
  67   1.0000      -5.734169      -156.0347
  68   1.0000      -5.664559      -154.1405
  69   1.0000      -5.661433      -154.0554
  70   1.0000      -5.658255      -153.9690
  71   1.0000      -5.657835      -153.9575
  72   1.0000      -5.657082      -153.9370
  73   1.0000      -5.655891      -153.9046
  74   1.0000      -5.654191      -153.8583
  75   1.0000      -5.652827      -153.8213
  76   1.0000      -5.652132      -153.8023
  77   1.0000      -5.651803      -153.7934
  78   1.0000      -5.650643      -153.7618
  79   1.0000      -5.650345      -153.7537
  80   1.0000      -2.443936       -66.5029
  81   1.0000      -1.485153       -40.4131
  82   1.0000      -1.473831       -40.1050
  83   1.0000      -1.472902       -40.0797
  84   1.0000      -0.708646       -19.2832
  85   1.0000      -0.706648       -19.2289
  86   1.0000      -0.683693       -18.6042
  87   1.0000      -0.682123       -18.5615
  88   1.0000      -0.649778       -17.6814
  89   1.0000      -0.634065       -17.2538
  90   1.0000      -0.632726       -17.2174
  91   1.0000      -0.615399       -16.7459
  92   1.0000      -0.614665       -16.7259
  93   1.0000      -0.581638       -15.8272
  94   1.0000      -0.580394       -15.7933
  95   1.0000      -0.564911       -15.3720
  96   1.0000      -0.563207       -15.3256
  97   1.0000      -0.502405       -13.6711
  98   1.0000      -0.499906       -13.6031
  99   1.0000      -0.493189       -13.4204
 100   1.0000      -0.492512       -13.4019
 101   1.0000      -0.477348       -12.9893
 102   1.0000      -0.475285       -12.9332
 103   1.0000      -0.445266       -12.1163
 104   1.0000      -0.442090       -12.0299
 105   1.0000      -0.414270       -11.2729
 106   1.0000      -0.409453       -11.1418
 107   1.0000      -0.353430        -9.6173
 108   1.0000      -0.352488        -9.5917
 109   1.0000      -0.324598        -8.8328
 110   1.0000      -0.321998        -8.7620
 111   1.0000      -0.316629        -8.6159
 112   1.0000      -0.312548        -8.5049
 113   1.0000      -0.304879        -8.2962
 114   1.0000      -0.302874        -8.2416
 115   1.0000      -0.291169        -7.9231
 116   1.0000      -0.290943        -7.9169
 117   1.0000      -0.262322        -7.1381
 118   1.0000      -0.257463        -7.0059
 119   1.0000      -0.256565        -6.9815
 120   1.0000      -0.253888        -6.9087
 121   1.0000      -0.233012        -6.3406
 122   1.0000      -0.231136        -6.2895
 123   1.0000      -0.229988        -6.2583
 124   1.0000      -0.228822        -6.2266
 125   1.0000      -0.217606        -5.9214
 126   1.0000      -0.214245        -5.8299
 127   1.0000      -0.213077        -5.7981
 128   1.0000      -0.210365        -5.7243
 129   1.0000      -0.194047        -5.2803
 130   1.0000      -0.188415        -5.1270
 131   1.0000      -0.186332        -5.0704
 132   1.0000      -0.180901        -4.9226
 133   1.0000      -0.176486        -4.8024
 134   1.0000      -0.160187        -4.3589
 135   1.0000      -0.150938        -4.1072
 136   1.0000      -0.147379        -4.0104
 137   1.0000      -0.138072        -3.7571
 138   1.0000      -0.134761        -3.6670
 139   1.0000      -0.131059        -3.5663
 140   1.0000      -0.125431        -3.4131
 141   1.0000      -0.119703        -3.2573
 142   1.0000      -0.113882        -3.0989
 143   1.0000      -0.109377        -2.9763
 144   1.0000      -0.099045        -2.6952
 145   1.0000      -0.097782        -2.6608
 146   1.0000      -0.093742        -2.5508
 147   1.0000      -0.089811        -2.4439
 148   1.0000      -0.074117        -2.0168
 149   1.0000      -0.071142        -1.9359
 150   1.0000      -0.067945        -1.8489
 151   1.0000      -0.052824        -1.4374
 152   1.0000      -0.045555        -1.2396
 153   1.0000      -0.037214        -1.0126
 154   1.0000      -0.034028        -0.9260
 155   1.0000      -0.028173        -0.7666
 156   1.0000      -0.025687        -0.6990
 157   1.0000      -0.018734        -0.5098
 158   1.0000      -0.015980        -0.4349
 159   1.0000       0.019532         0.5315
 160   1.0000       0.040304         1.0967
 161   0.0000       0.135305         3.6818
 162   0.0000       0.136664         3.7188
 163   0.0000       0.157093         4.2747
 164   0.0000       0.158171         4.3040
 165   0.0000       0.161549         4.3960

                 SPIN DOWN ORBITALS
  NO   OCC          E(Eh)            E(eV)
   0   1.0000    -196.674641     -5351.7891
   1   1.0000     -88.742864     -2414.8161
   2   1.0000     -88.739786     -2414.7323
   3   1.0000     -88.736663     -2414.6474
   4   1.0000     -88.735252     -2414.6090
   5   1.0000     -88.727086     -2414.3868
   6   1.0000     -88.726453     -2414.3695
   7   1.0000     -88.724719     -2414.3223
   8   1.0000     -88.723888     -2414.2997
   9   1.0000     -88.645399     -2412.1639
  10   1.0000     -88.642407     -2412.0825
  11   1.0000     -88.638226     -2411.9687
  12   1.0000     -88.637699     -2411.9544
  13   1.0000     -22.035171      -599.6075
  14   1.0000     -18.893857      -514.1280
  15   1.0000     -18.551154      -504.8026
  16   1.0000     -18.535359      -504.3728
  17   1.0000     -18.535211      -504.3687
  18   1.0000     -10.075473      -274.1675
  19   1.0000     -10.075383      -274.1651
  20   1.0000     -10.069786      -274.0128
  21   1.0000     -10.066393      -273.9205
  22   1.0000     -10.065238      -273.8891
  23   1.0000     -10.061014      -273.7741
  24   1.0000     -10.056382      -273.6481
  25   1.0000     -10.051615      -273.5184
  26   1.0000     -10.050942      -273.5000
  27   1.0000     -10.048572      -273.4356
  28   1.0000     -10.019270      -272.6382
  29   1.0000     -10.019044      -272.6320
  30   1.0000     -10.017572      -272.5920
  31   1.0000     -10.016696      -272.5682
  32   1.0000      -7.794290      -212.0934
  33   1.0000      -7.791781      -212.0251
  34   1.0000      -7.788308      -211.9306
  35   1.0000      -7.787247      -211.9018
  36   1.0000      -7.781534      -211.7463
  37   1.0000      -7.781134      -211.7354
  38   1.0000      -7.778947      -211.6759
  39   1.0000      -7.778214      -211.6560
  40   1.0000      -7.698830      -209.4958
  41   1.0000      -7.695787      -209.4130
  42   1.0000      -7.693445      -209.3493
  43   1.0000      -7.693108      -209.3401
  44   1.0000      -5.759476      -156.7233
  45   1.0000      -5.756855      -156.6520
  46   1.0000      -5.756203      -156.6342
  47   1.0000      -5.754041      -156.5754
  48   1.0000      -5.753674      -156.5654
  49   1.0000      -5.752797      -156.5416
  50   1.0000      -5.748907      -156.4357
  51   1.0000      -5.748707      -156.4303
  52   1.0000      -5.747684      -156.4024
  53   1.0000      -5.746635      -156.3739
  54   1.0000      -5.746446      -156.3687
  55   1.0000      -5.746139      -156.3604
  56   1.0000      -5.743728      -156.2948
  57   1.0000      -5.743594      -156.2911
  58   1.0000      -5.742851      -156.2709
  59   1.0000      -5.742758      -156.2684
  60   1.0000      -5.742736      -156.2678
  61   1.0000      -5.742373      -156.2579
  62   1.0000      -5.739452      -156.1784
  63   1.0000      -5.738691      -156.1577
  64   1.0000      -5.736364      -156.0944
  65   1.0000      -5.736002      -156.0845
  66   1.0000      -5.734895      -156.0544
  67   1.0000      -5.734175      -156.0348
  68   1.0000      -5.664725      -154.1450
  69   1.0000      -5.661587      -154.0596
  70   1.0000      -5.658388      -153.9726
  71   1.0000      -5.657966      -153.9611
  72   1.0000      -5.657426      -153.9464
  73   1.0000      -5.655960      -153.9065
  74   1.0000      -5.654511      -153.8671
  75   1.0000      -5.652928      -153.8240
  76   1.0000      -5.652511      -153.8126
  77   1.0000      -5.652205      -153.8043
  78   1.0000      -5.650747      -153.7647
  79   1.0000      -5.650453      -153.7566
  80   1.0000      -2.399331       -65.2891
  81   1.0000      -1.466006       -39.8921
  82   1.0000      -1.412008       -38.4227
  83   1.0000      -1.411378       -38.4055
  84   1.0000      -0.708631       -19.2828
  85   1.0000      -0.706610       -19.2278
  86   1.0000      -0.683654       -18.6032
  87   1.0000      -0.682067       -18.5600
  88   1.0000      -0.657814       -17.9000
  89   1.0000      -0.633994       -17.2519
  90   1.0000      -0.632674       -17.2159
  91   1.0000      -0.615400       -16.7459
  92   1.0000      -0.614661       -16.7258
  93   1.0000      -0.581627       -15.8269
  94   1.0000      -0.580392       -15.7933
  95   1.0000      -0.564811       -15.3693
  96   1.0000      -0.563041       -15.3211
  97   1.0000      -0.502387       -13.6707
  98   1.0000      -0.499908       -13.6032
  99   1.0000      -0.493304       -13.4235
 100   1.0000      -0.492617       -13.4048
 101   1.0000      -0.477454       -12.9922
 102   1.0000      -0.475466       -12.9381
 103   1.0000      -0.445275       -12.1165
 104   1.0000      -0.442127       -12.0309
 105   1.0000      -0.414246       -11.2722
 106   1.0000      -0.409518       -11.1436
 107   1.0000      -0.353426        -9.6172
 108   1.0000      -0.352477        -9.5914
 109   1.0000      -0.324582        -8.8323
 110   1.0000      -0.321963        -8.7610
 111   1.0000      -0.316579        -8.6146
 112   1.0000      -0.312596        -8.5062
 113   1.0000      -0.304808        -8.2942
 114   1.0000      -0.302826        -8.2403
 115   1.0000      -0.291165        -7.9230
 116   1.0000      -0.290942        -7.9169
 117   1.0000      -0.262222        -7.1354
 118   1.0000      -0.257419        -7.0047
 119   1.0000      -0.256350        -6.9756
 120   1.0000      -0.253842        -6.9074
 121   1.0000      -0.232960        -6.3392
 122   1.0000      -0.231097        -6.2885
 123   1.0000      -0.229939        -6.2570
 124   1.0000      -0.228745        -6.2245
 125   1.0000      -0.217382        -5.9153
 126   1.0000      -0.214066        -5.8250
 127   1.0000      -0.212806        -5.7907
 128   1.0000      -0.210221        -5.7204
 129   1.0000      -0.192310        -5.2330
 130   1.0000      -0.188246        -5.1224
 131   1.0000      -0.185926        -5.0593
 132   1.0000      -0.180702        -4.9171
 133   1.0000      -0.176309        -4.7976
 134   1.0000      -0.159360        -4.3364
 135   1.0000      -0.150810        -4.1038
 136   1.0000      -0.147306        -4.0084
 137   1.0000      -0.137606        -3.7444
 138   1.0000      -0.134487        -3.6596
 139   1.0000      -0.130652        -3.5552
 140   1.0000      -0.124768        -3.3951
 141   1.0000      -0.119471        -3.2510
 142   1.0000      -0.115357        -3.1390
 143   1.0000      -0.111153        -3.0246
 144   1.0000      -0.099033        -2.6948
 145   1.0000      -0.098067        -2.6685
 146   1.0000      -0.093688        -2.5494
 147   1.0000      -0.089994        -2.4489
 148   1.0000      -0.071475        -1.9449
 149   1.0000      -0.069930        -1.9029
 150   1.0000      -0.067864        -1.8467
 151   1.0000      -0.050314        -1.3691
 152   1.0000      -0.044520        -1.2114
 153   1.0000      -0.036728        -0.9994
 154   1.0000      -0.034057        -0.9267
 155   1.0000      -0.028243        -0.7685
 156   1.0000      -0.025716        -0.6998
 157   1.0000      -0.016616        -0.4522
 158   1.0000       0.019813         0.5392
 159   1.0000       0.039264         1.0684
 160   0.0000       0.135308         3.6819
 161   0.0000       0.136660         3.7187
 162   0.0000       0.153012         4.1637
 163   0.0000       0.158656         4.3172
 164   0.0000       0.159601         4.3430

MULLIKEN ATOMIC CHARGES AND SPIN POPULATIONS
--------------------------------------------
   0 V :    0.468848    1.205457
   1 S :   -0.274783   -0.021656
   2 S :   -0.306858   -0.026519
   3 S :   -0.307488   -0.024284
   4 S :   -0.255446   -0.024480
   5 O :   -0.467059   -0.145620
   6 C :   -0.168078    0.004600
   7 C :    0.001503    0.016559
   8 C :   -0.011622    0.012501
   9 C :   -0.157106    0.003995
  10 S :    0.105264   -0.000801
  11 S :    0.089901   -0.000587
  12 S :    0.104461   -0.000490
  13 S :    0.091893   -0.000432
  14 C :   -0.211960    0.001672
  15 C :   -0.209369    0.000768
  16 C :   -0.171796   -0.000119
  17 C :   -0.183230   -0.000318
  18 S :   -0.005903   -0.000044
  19 S :    0.003399   -0.000170
  20 S :    0.006164   -0.000132
  21 S :    0.001632   -0.000032
  22 C :   -0.287165    0.000001
  23 C :   -0.300921   -0.000003
  24 C :   -0.159084   -0.000009
  25 H :    0.133087   -0.000001
  26 H :    0.106612   -0.000002
  27 H :    0.083296   -0.000001
  28 H :    0.089416   -0.000001
  29 H :    0.115591   -0.000007
  30 H :    0.147951   -0.000001
  31 C :   -0.291491    0.000137
  32 C :   -0.272998    0.000184
  33 C :   -0.160539   -0.000191
  34 H :    0.125748   -0.000015
  35 H :    0.102354    0.000022
  36 H :    0.085142    0.000018
  37 H :    0.083165    0.000012
  38 H :    0.113133    0.000003
  39 H :    0.144337   -0.000013
Sum of atomic charges         :   -2.0000000

LOEWDIN ATOMIC CHARGES AND SPIN POPULATIONS
-------------------------------------------
   0 V :   -0.165912    1.158070
   1 S :    0.086490   -0.013082
   2 S :    0.069794   -0.017912
   3 S :    0.073019   -0.016320
   4 S :    0.108123   -0.013338
   5 O :   -0.319081   -0.130559
   6 C :   -0.560031    0.005847
   7 C :   -0.530986    0.013899
   8 C :   -0.533812    0.010969
   9 C :   -0.560195    0.005576
  10 S :    0.455509   -0.001091
  11 S :    0.478343   -0.000581
  12 S :    0.459230   -0.000931
  13 S :    0.477106   -0.000706
  14 C :   -0.470729    0.000137
  15 C :   -0.468666   -0.000242
  16 C :   -0.620499    0.000434
  17 C :   -0.623866    0.000106
  18 S :    0.380261   -0.000032
  19 S :    0.332090   -0.000143
  20 S :    0.336368   -0.000128
  21 S :    0.379810   -0.000040
  22 C :   -0.287961   -0.000001
  23 C :   -0.280287   -0.000010
  24 C :   -0.174901   -0.000002
  25 H :    0.059055   -0.000001
  26 H :    0.054304   -0.000001
  27 H :    0.058663   -0.000001
  28 H :    0.059976   -0.000001
  29 H :    0.054163   -0.000004
  30 H :    0.064531   -0.000002
  31 C :   -0.281045    0.000011
  32 C :   -0.291479    0.000064
  33 C :   -0.171794    0.000005
  34 H :    0.057628   -0.000001
  35 H :    0.056856    0.000011
  36 H :    0.060446    0.000003
  37 H :    0.061175    0.000001
  38 H :    0.055660   -0.000001
  39 H :    0.062643   -0.000001

  Mayer bond orders larger than 0.100000
B(  0-V ,  1-S ) :   0.7993 B(  0-V ,  2-S ) :   0.7127 B(  0-V ,  3-S ) :   0.7269
B(  0-V ,  4-S ) :   0.8456 B(  0-V ,  5-O ) :   2.1470 B(  1-S ,  8-C ) :   1.0579
B(  2-S ,  6-C ) :   1.1508 B(  3-S ,  9-C ) :   1.1322 B(  4-S ,  7-C ) :   1.0233
B(  6-C ,  7-C ) :   1.6653 B(  6-C , 10-S ) :   0.9718 B(  7-C , 11-S ) :   0.9083
B(  8-C ,  9-C ) :   1.6886 B(  8-C , 13-S ) :   0.9069 B(  9-C , 12-S ) :   0.9603
B( 10-S , 14-C ) :   1.1788 B( 11-S , 14-C ) :   1.2522 B( 12-S , 15-C ) :   1.2022
B( 13-S , 15-C ) :   1.2536 B( 14-C , 16-C ) :   1.4243 B( 15-C , 17-C ) :   1.4279
B( 16-C , 18-S ) :   1.0745 B( 16-C , 19-S ) :   1.0466 B( 17-C , 20-S ) :   1.0637
B( 17-C , 21-S ) :   1.0897 B( 18-S , 32-C ) :   0.9828 B( 19-S , 31-C ) :   1.0045
B( 20-S , 23-C ) :   0.9966 B( 21-S , 22-C ) :   0.9854 B( 22-C , 24-C ) :   0.9226
B( 22-C , 25-H ) :   0.9601 B( 22-C , 26-H ) :   0.9658 B( 23-C , 24-C ) :   0.9133
B( 23-C , 29-H ) :   0.9652 B( 23-C , 30-H ) :   0.9681 B( 24-C , 27-H ) :   0.9637
B( 24-C , 28-H ) :   0.9709 B( 31-C , 33-C ) :   0.9200 B( 31-C , 38-H ) :   0.9653
B( 31-C , 39-H ) :   0.9665 B( 32-C , 33-C ) :   0.9304 B( 32-C , 34-H ) :   0.9569
B( 32-C , 35-H ) :   0.9659 B( 33-C , 36-H ) :   0.9694 B( 33-C , 37-H ) :   0.9661

FINAL SINGLE POINT ENERGY     -6337.654943356586

DIPOLE MOMENT
-------------
                                X             Y             Z
Electronic contribution:     10.91988       7.74943       2.74747
Nuclear contribution   :    -12.10955      -8.63390      -3.00722
                        -----------------------------------------
Total Dipole Moment    :     -1.18967      -0.88447      -0.25976
                        -----------------------------------------
Magnitude (a.u.)       :      1.50502
Magnitude (Debye)      :      3.82546

Rotational constants in cm-1:     0.010669     0.000804     0.000783
Rotational constants in MHz :   319.852878    24.101395    23.461168

                             ****ORCA TERMINATED NORMALLY****
TOTAL RUN TIME: 0 days 1 hours 6 minutes 32 seconds 187 msec
