                         Program Version 5.0.4 -  RELEASE  -
|  1> ! nofrozencore ReducedPop printbasis
|  2> ! B3LYP TZVP
|  3>
|  4> %basis
|  5> newgto V "CP(PPP)" end
|  6> end
|  7>
|  8> %pal
|  9> nprocs 8
| 10> end
| 11>
| 12> % sym SymThresh 1e-2 end
| 13> * xyz -2 2
| 14> V -0.04626902915642461 -0.6124753888268252 0.9282897861160335
| 15> S -1.0261800686022178 -2.17401805634075 -0.7208043185386289
| 16> S 2.1142907215656437 -1.0876618719328084 -0.18044432758623827
| 17> S -2.223642663566619 0.5639262910435389 0.8449885488651497
| 18> S 0.8555303708613343 1.655034324900152 1.294064555696186
| 19> O 0.018149409615886423 -1.377108582495406 2.3194974788410723
| 20> C 3.079896973819044 0.21890968340008968 0.481081106919583
| 21> C 2.5718729867877643 1.3174612343348566 1.0710861353165122
| 22> C -2.706356516597289 -1.6565076306910143 -0.7246862427387665
| 23> C -3.182206050213953 -0.5624883314235304 -0.10224763844747808
| 24> S 4.8623050424885355 0.17095477087427646 0.3262945603222382
| 25> S 3.742426823291566 2.580068864808803 1.5965356562375967
| 26> S -4.934150487546187 -0.22185449884234482 -0.30754956541040823
| 27> S -3.8953032516051316 -2.620039696249207 -1.6650206810682122
| 28> C 5.22809490557133 1.6934824976353213 1.0231947917805984
| 29> C -5.293621793526533 -1.5787539099553638 -1.3846187770193599
| 30> C 6.493062193141948 2.197386427603887 1.1540571644225033
| 31> C -6.5262542997976025 -1.8021840786004666 -1.9329099158973497
| 32> S 7.901345108207352 1.3515083606057767 0.6784072141645097
| 33> S 6.762019015643149 3.8669229806506076 1.9145284808867944
| 34> S -6.841186247087803 -3.179265909718267 -3.0142803071376725
| 35> S -7.902197400702389 -0.7046946422726704 -1.6329744378751314
| 36> C -8.16164906426396 -0.12419895579014072 -3.371995612234521
| 37> C -7.270077186324825 -2.2325407391894627 -4.546567699710487
| 38> C -8.435277060107635 -1.2588784100625103 -4.363638288238198
| 39> H -7.289887767858397 0.46151107287911936 -3.672285307043625
| 40> H -9.023876853289467 0.5458772596446151 -3.324520258409395
| 41> H -8.663385126369894 -0.8109288920785636 -5.3409690292287
| 42> H -9.325381686586013 -1.80874251343491 -4.0420678215574775
| 43> H -7.51106790140915 -2.98572037897081 -5.3008645929057225
| 44> H -6.373200057073288 -1.6998422383593204 -4.870605120697389
| 45> C 7.704840904021385 3.2558080422894813 3.3892435544758506
| 46> C 8.785352886257536 1.1877572763537814 2.297229480335838
| 47> C 9.011453685800744 2.4932096933488075 3.007092231164311
| 48> H 7.95850397510032 0.7343868023306469 2.9105732864569784
| 49> H 9.621381897617123 0.43653145997702664 2.23754649214667
| 50> H 9.594348727733037 3.237152886668217 2.432710724769414
| 51> H 9.564498714376054 2.2995995366259905 3.9369414814763717
| 52> H 8.145265994209428 4.244710555849759 3.708256196858593
| 53> H 7.075763904610245 2.8564241571054 4.230786385896894
| 54> *
| 55>
| 56> % eprnmr
| 57> gtensor true
| 58> Nuclei = all H {aiso,adip,aorb,fgrad,rho}
| 59> Nuclei = all V {aiso,adip,aorb,fgrad,rho}
| 60> end
| 61>
| 62>                          ****END OF INPUT****

CARTESIAN COORDINATES (ANGSTROEM)
---------------------------------
  V     -0.044043   -0.610253    0.926098
  S     -1.023954   -2.171796   -0.722996
  S      2.116516   -1.085439   -0.182636
  S     -2.221417    0.566149    0.842797
  S      0.857756    1.657257    1.291873
  O      0.020375   -1.374886    2.317305
  C      3.082123    0.221132    0.478889
  C      2.574099    1.319684    1.068894
  C     -2.704131   -1.654285   -0.726878
  C     -3.179980   -0.560266   -0.104440
  S      4.864531    0.173177    0.324103
  S      3.744652    2.582291    1.594344
  S     -4.931925   -0.219632   -0.309742
  S     -3.893078   -2.617817   -1.667213
  C      5.230321    1.695705    1.021003
  C     -5.291396   -1.576531   -1.386811
  C      6.495288    2.199609    1.151865
  C     -6.524029   -1.799962   -1.935102
  S      7.903571    1.353731    0.676215
  S      6.764245    3.869145    1.912336
  S     -6.838961   -3.177043   -3.016472
  S     -7.899972   -0.702472   -1.635166
  C     -8.159423   -0.121977   -3.374188
  C     -7.267852   -2.230318   -4.548760
  C     -8.433051   -1.256656   -4.365830
  H     -7.287662    0.463734   -3.674477
  H     -9.021651    0.548100   -3.326712
  H     -8.661159   -0.808706   -5.343161
  H     -9.323156   -1.806520   -4.044260
  H     -7.508842   -2.983498   -5.303057
  H     -6.370974   -1.697620   -4.872797
  C      7.707067    3.258030    3.387052
  C      8.787579    1.189980    2.295037
  C      9.013679    2.495432    3.004900
  H      7.960730    0.736609    2.908381
  H      9.623608    0.438754    2.235354
  H      9.596574    3.239375    2.430519
  H      9.566724    2.301822    3.934749
  H      8.147492    4.246933    3.706064
  H      7.077990    2.858647    4.228594

 Total Charge           Charge          ....   -2
 Multiplicity           Mult            ....    2
 Number of Electrons    NEL             ....  321
 Basis Dimension        Dim             ....  681

ORBITAL ENERGIES
----------------
                 SPIN UP ORBITALS
  NO   OCC          E(Eh)            E(eV)
   0   1.0000    -196.674926     -5351.7968
   1   1.0000     -88.735380     -2414.6124
   2   1.0000     -88.733167     -2414.5522
   3   1.0000     -88.733090     -2414.5501
   4   1.0000     -88.731128     -2414.4968
   5   1.0000     -88.730912     -2414.4909
   6   1.0000     -88.730443     -2414.4781
   7   1.0000     -88.730102     -2414.4688
   8   1.0000     -88.729984     -2414.4656
   9   1.0000     -88.640180     -2412.0219
  10   1.0000     -88.639840     -2412.0127
  11   1.0000     -88.639609     -2412.0064
  12   1.0000     -88.639282     -2411.9975
  13   1.0000     -22.050320      -600.0197
  14   1.0000     -18.890234      -514.0294
  15   1.0000     -18.556767      -504.9553
  16   1.0000     -18.551597      -504.8146
  17   1.0000     -18.551494      -504.8118
  18   1.0000     -10.075914      -274.1796
  19   1.0000     -10.075825      -274.1771
  20   1.0000     -10.071950      -274.0717
  21   1.0000     -10.066326      -273.9186
  22   1.0000     -10.063336      -273.8373
  23   1.0000     -10.063149      -273.8322
  24   1.0000     -10.054729      -273.6031
  25   1.0000     -10.051122      -273.5049
  26   1.0000     -10.048365      -273.4299
  27   1.0000     -10.047405      -273.4038
  28   1.0000     -10.018647      -272.6212
  29   1.0000     -10.017881      -272.6004
  30   1.0000     -10.017827      -272.5989
  31   1.0000     -10.017088      -272.5788
  32   1.0000      -7.787690      -211.9138
  33   1.0000      -7.786602      -211.8842
  34   1.0000      -7.786577      -211.8835
  35   1.0000      -7.785830      -211.8632
  36   1.0000      -7.785438      -211.8525
  37   1.0000      -7.783405      -211.7972
  38   1.0000      -7.783230      -211.7925
  39   1.0000      -7.782621      -211.7759
  40   1.0000      -7.694341      -209.3737
  41   1.0000      -7.694109      -209.3674
  42   1.0000      -7.693933      -209.3626
  43   1.0000      -7.693661      -209.3552
  44   1.0000      -5.752684      -156.5385
  45   1.0000      -5.751595      -156.5089
  46   1.0000      -5.751570      -156.5082
  47   1.0000      -5.750739      -156.4856
  48   1.0000      -5.750113      -156.4685
  49   1.0000      -5.749571      -156.4538
  50   1.0000      -5.748338      -156.4202
  51   1.0000      -5.748190      -156.4162
  52   1.0000      -5.748162      -156.4154
  53   1.0000      -5.748151      -156.4151
  54   1.0000      -5.747798      -156.4055
  55   1.0000      -5.747123      -156.3872
  56   1.0000      -5.745736      -156.3494
  57   1.0000      -5.743922      -156.3001
  58   1.0000      -5.743750      -156.2954
  59   1.0000      -5.743284      -156.2827
  60   1.0000      -5.742393      -156.2584
  61   1.0000      -5.741496      -156.2340
  62   1.0000      -5.741403      -156.2315
  63   1.0000      -5.741367      -156.2305
  64   1.0000      -5.740708      -156.2126
  65   1.0000      -5.739230      -156.1724
  66   1.0000      -5.739038      -156.1672
  67   1.0000      -5.738276      -156.1464
  68   1.0000      -5.659671      -154.0075
  69   1.0000      -5.659428      -154.0009
  70   1.0000      -5.659273      -153.9966
  71   1.0000      -5.658954      -153.9880
  72   1.0000      -5.652994      -153.8258
  73   1.0000      -5.652787      -153.8201
  74   1.0000      -5.652600      -153.8151
  75   1.0000      -5.652317      -153.8074
  76   1.0000      -5.651671      -153.7898
  77   1.0000      -5.651431      -153.7833
  78   1.0000      -5.651226      -153.7777
  79   1.0000      -5.650965      -153.7706
  80   1.0000      -2.443963       -66.5036
  81   1.0000      -1.485261       -40.4160
  82   1.0000      -1.473606       -40.0989
  83   1.0000      -1.472782       -40.0764
  84   1.0000      -0.711099       -19.3500
  85   1.0000      -0.709490       -19.3062
  86   1.0000      -0.686294       -18.6750
  87   1.0000      -0.685462       -18.6524
  88   1.0000      -0.649810       -17.6822
  89   1.0000      -0.633339       -17.2340
  90   1.0000      -0.631217       -17.1763
  91   1.0000      -0.617131       -16.7930
  92   1.0000      -0.613949       -16.7064
  93   1.0000      -0.579237       -15.7618
  94   1.0000      -0.574488       -15.6326
  95   1.0000      -0.572965       -15.5912
  96   1.0000      -0.569329       -15.4922
  97   1.0000      -0.497208       -13.5297
  98   1.0000      -0.495868       -13.4933
  99   1.0000      -0.495563       -13.4850
 100   1.0000      -0.491924       -13.3859
 101   1.0000      -0.479390       -13.0449
 102   1.0000      -0.476695       -12.9715
 103   1.0000      -0.446422       -12.1478
 104   1.0000      -0.441364       -12.0101
 105   1.0000      -0.415977       -11.3193
 106   1.0000      -0.410904       -11.1813
 107   1.0000      -0.355145        -9.6640
 108   1.0000      -0.353793        -9.6272
 109   1.0000      -0.328181        -8.9303
 110   1.0000      -0.326437        -8.8828
 111   1.0000      -0.319424        -8.6920
 112   1.0000      -0.314867        -8.5680
 113   1.0000      -0.304684        -8.2909
 114   1.0000      -0.303619        -8.2619
 115   1.0000      -0.292179        -7.9506
 116   1.0000      -0.283862        -7.7243
 117   1.0000      -0.259550        -7.0627
 118   1.0000      -0.257401        -7.0042
 119   1.0000      -0.256327        -6.9750
 120   1.0000      -0.255437        -6.9508
 121   1.0000      -0.234398        -6.3783
 122   1.0000      -0.232786        -6.3344
 123   1.0000      -0.230540        -6.2733
 124   1.0000      -0.224645        -6.1129
 125   1.0000      -0.219906        -5.9839
 126   1.0000      -0.217901        -5.9294
 127   1.0000      -0.212045        -5.7700
 128   1.0000      -0.209601        -5.7035
 129   1.0000      -0.193384        -5.2622
 130   1.0000      -0.187803        -5.1104
 131   1.0000      -0.187166        -5.0931
 132   1.0000      -0.183141        -4.9835
 133   1.0000      -0.176934        -4.8146
 134   1.0000      -0.159511        -4.3405
 135   1.0000      -0.150914        -4.1066
 136   1.0000      -0.146245        -3.9795
 137   1.0000      -0.135228        -3.6797
 138   1.0000      -0.134114        -3.6494
 139   1.0000      -0.132423        -3.6034
 140   1.0000      -0.125060        -3.4031
 141   1.0000      -0.121115        -3.2957
 142   1.0000      -0.113505        -3.0886
 143   1.0000      -0.109566        -2.9815
 144   1.0000      -0.100014        -2.7215
 145   1.0000      -0.098333        -2.6758
 146   1.0000      -0.096854        -2.6355
 147   1.0000      -0.093712        -2.5500
 148   1.0000      -0.074603        -2.0300
 149   1.0000      -0.067914        -1.8480
 150   1.0000      -0.067240        -1.8297
 151   1.0000      -0.052392        -1.4257
 152   1.0000      -0.045538        -1.2392
 153   1.0000      -0.037280        -1.0145
 154   1.0000      -0.037035        -1.0078
 155   1.0000      -0.031034        -0.8445
 156   1.0000      -0.024958        -0.6791
 157   1.0000      -0.019097        -0.5197
 158   1.0000      -0.015444        -0.4202
 159   1.0000       0.020314         0.5528
 160   1.0000       0.041157         1.1200
 161   0.0000       0.133951         3.6450
 162   0.0000       0.137383         3.7384
 163   0.0000       0.157726         4.2919
 164   0.0000       0.162321         4.4170
 165   0.0000       0.168042         4.5727

                 SPIN DOWN ORBITALS
  NO   OCC          E(Eh)            E(eV)
   0   1.0000    -196.675073     -5351.8008
   1   1.0000     -88.735381     -2414.6125
   2   1.0000     -88.733168     -2414.5522
   3   1.0000     -88.733090     -2414.5501
   4   1.0000     -88.731129     -2414.4968
   5   1.0000     -88.730921     -2414.4911
   6   1.0000     -88.730452     -2414.4783
   7   1.0000     -88.730110     -2414.4690
   8   1.0000     -88.729992     -2414.4658
   9   1.0000     -88.640322     -2412.0258
  10   1.0000     -88.639976     -2412.0164
  11   1.0000     -88.639748     -2412.0102
  12   1.0000     -88.639422     -2412.0013
  13   1.0000     -22.035393      -599.6135
  14   1.0000     -18.894011      -514.1322
  15   1.0000     -18.551503      -504.8121
  16   1.0000     -18.535566      -504.3784
  17   1.0000     -18.535382      -504.3734
  18   1.0000     -10.075908      -274.1794
  19   1.0000     -10.075824      -274.1771
  20   1.0000     -10.071949      -274.0717
  21   1.0000     -10.066324      -273.9186
  22   1.0000     -10.063336      -273.8373
  23   1.0000     -10.063149      -273.8322
  24   1.0000     -10.054729      -273.6031
  25   1.0000     -10.051122      -273.5049
  26   1.0000     -10.048361      -273.4298
  27   1.0000     -10.047394      -273.4035
  28   1.0000     -10.018419      -272.6150
  29   1.0000     -10.017668      -272.5946
  30   1.0000     -10.017594      -272.5926
  31   1.0000     -10.016876      -272.5730
  32   1.0000      -7.787691      -211.9138
  33   1.0000      -7.786603      -211.8842
  34   1.0000      -7.786577      -211.8835
  35   1.0000      -7.785831      -211.8632
  36   1.0000      -7.785448      -211.8528
  37   1.0000      -7.783415      -211.7975
  38   1.0000      -7.783240      -211.7927
  39   1.0000      -7.782630      -211.7761
  40   1.0000      -7.694473      -209.3772
  41   1.0000      -7.694237      -209.3708
  42   1.0000      -7.694063      -209.3661
  43   1.0000      -7.693791      -209.3587
  44   1.0000      -5.752685      -156.5385
  45   1.0000      -5.751596      -156.5089
  46   1.0000      -5.751571      -156.5082
  47   1.0000      -5.750740      -156.4856
  48   1.0000      -5.750125      -156.4689
  49   1.0000      -5.749573      -156.4538
  50   1.0000      -5.748349      -156.4205
  51   1.0000      -5.748201      -156.4165
  52   1.0000      -5.748163      -156.4155
  53   1.0000      -5.748152      -156.4152
  54   1.0000      -5.747807      -156.4058
  55   1.0000      -5.747124      -156.3872
  56   1.0000      -5.745750      -156.3498
  57   1.0000      -5.743937      -156.3005
  58   1.0000      -5.743764      -156.2958
  59   1.0000      -5.743297      -156.2831
  60   1.0000      -5.742394      -156.2585
  61   1.0000      -5.741504      -156.2343
  62   1.0000      -5.741404      -156.2316
  63   1.0000      -5.741368      -156.2306
  64   1.0000      -5.740709      -156.2126
  65   1.0000      -5.739236      -156.1726
  66   1.0000      -5.739044      -156.1673
  67   1.0000      -5.738285      -156.1467
  68   1.0000      -5.659811      -154.0113
  69   1.0000      -5.659571      -154.0048
  70   1.0000      -5.659413      -154.0004
  71   1.0000      -5.659096      -153.9918
  72   1.0000      -5.653385      -153.8364
  73   1.0000      -5.653137      -153.8297
  74   1.0000      -5.652977      -153.8253
  75   1.0000      -5.652678      -153.8172
  76   1.0000      -5.651760      -153.7922
  77   1.0000      -5.651536      -153.7861
  78   1.0000      -5.651316      -153.7801
  79   1.0000      -5.651072      -153.7735
  80   1.0000      -2.399089       -65.2825
  81   1.0000      -1.465980       -39.8913
  82   1.0000      -1.411235       -38.4017
  83   1.0000      -1.411080       -38.3974
  84   1.0000      -0.711071       -19.3492
  85   1.0000      -0.709475       -19.3058
  86   1.0000      -0.686239       -18.6735
  87   1.0000      -0.685419       -18.6512
  88   1.0000      -0.657910       -17.9026
  89   1.0000      -0.633272       -17.2322
  90   1.0000      -0.631159       -17.1747
  91   1.0000      -0.617133       -16.7930
  92   1.0000      -0.613942       -16.7062
  93   1.0000      -0.579181       -15.7603
  94   1.0000      -0.574465       -15.6320
  95   1.0000      -0.572900       -15.5894
  96   1.0000      -0.569269       -15.4906
  97   1.0000      -0.497225       -13.5302
  98   1.0000      -0.495913       -13.4945
  99   1.0000      -0.495593       -13.4858
 100   1.0000      -0.491992       -13.3878
 101   1.0000      -0.479573       -13.0498
 102   1.0000      -0.476929       -12.9779
 103   1.0000      -0.446451       -12.1486
 104   1.0000      -0.441404       -12.0112
 105   1.0000      -0.415975       -11.3193
 106   1.0000      -0.411009       -11.1841
 107   1.0000      -0.355140        -9.6639
 108   1.0000      -0.353781        -9.6269
 109   1.0000      -0.328169        -8.9299
 110   1.0000      -0.326427        -8.8825
 111   1.0000      -0.319347        -8.6899
 112   1.0000      -0.314892        -8.5687
 113   1.0000      -0.304631        -8.2894
 114   1.0000      -0.303594        -8.2612
 115   1.0000      -0.292174        -7.9505
 116   1.0000      -0.283855        -7.7241
 117   1.0000      -0.259417        -7.0591
 118   1.0000      -0.257306        -7.0017
 119   1.0000      -0.256286        -6.9739
 120   1.0000      -0.255403        -6.9499
 121   1.0000      -0.234358        -6.3772
 122   1.0000      -0.232764        -6.3338
 123   1.0000      -0.230498        -6.2722
 124   1.0000      -0.224543        -6.1101
 125   1.0000      -0.219588        -5.9753
 126   1.0000      -0.217742        -5.9251
 127   1.0000      -0.211858        -5.7649
 128   1.0000      -0.209502        -5.7008
 129   1.0000      -0.191768        -5.2183
 130   1.0000      -0.187472        -5.1014
 131   1.0000      -0.186976        -5.0879
 132   1.0000      -0.182924        -4.9776
 133   1.0000      -0.176788        -4.8106
 134   1.0000      -0.158887        -4.3235
 135   1.0000      -0.150746        -4.1020
 136   1.0000      -0.146158        -3.9772
 137   1.0000      -0.134437        -3.6582
 138   1.0000      -0.133957        -3.6452
 139   1.0000      -0.132155        -3.5961
 140   1.0000      -0.124498        -3.3878
 141   1.0000      -0.120790        -3.2869
 142   1.0000      -0.115288        -3.1372
 143   1.0000      -0.111161        -3.0248
 144   1.0000      -0.100025        -2.7218
 145   1.0000      -0.098607        -2.6832
 146   1.0000      -0.096872        -2.6360
 147   1.0000      -0.094003        -2.5580
 148   1.0000      -0.070871        -1.9285
 149   1.0000      -0.067819        -1.8454
 150   1.0000      -0.067230        -1.8294
 151   1.0000      -0.049808        -1.3554
 152   1.0000      -0.044604        -1.2137
 153   1.0000      -0.037243        -1.0134
 154   1.0000      -0.036530        -0.9940
 155   1.0000      -0.031054        -0.8450
 156   1.0000      -0.025991        -0.7073
 157   1.0000      -0.015642        -0.4257
 158   1.0000       0.020600         0.5606
 159   1.0000       0.040066         1.0902
 160   0.0000       0.134003         3.6464
 161   0.0000       0.137372         3.7381
 162   0.0000       0.154990         4.2175
 163   0.0000       0.159407         4.3377
 164   0.0000       0.163217         4.4414

MULLIKEN ATOMIC CHARGES AND SPIN POPULATIONS
--------------------------------------------
   0 V :    0.471155    1.210474
   1 S :   -0.291218   -0.022429
   2 S :   -0.288763   -0.024660
   3 S :   -0.288952   -0.023489
   4 S :   -0.285031   -0.026098
   5 O :   -0.467559   -0.146556
   6 C :   -0.088598    0.009588
   7 C :   -0.073685    0.008138
   8 C :   -0.084306    0.007769
   9 C :   -0.084299    0.007367
  10 S :    0.121365   -0.000651
  11 S :    0.084601   -0.000612
  12 S :    0.099302   -0.000392
  13 S :    0.099970   -0.000347
  14 C :   -0.211309    0.001533
  15 C :   -0.212131    0.000994
  16 C :   -0.202118   -0.000036
  17 C :   -0.190527   -0.000402
  18 S :    0.034513   -0.000096
  19 S :   -0.006324   -0.000145
  20 S :    0.009051   -0.000067
  21 S :    0.007410   -0.000072
  22 C :   -0.300278   -0.000001
  23 C :   -0.300925   -0.000002
  24 C :   -0.157793   -0.000011
  25 H :    0.143556   -0.000001
  26 H :    0.112934   -0.000004
  27 H :    0.083451   -0.000001
  28 H :    0.092169   -0.000001
  29 H :    0.114183   -0.000005
  30 H :    0.142814   -0.000001
  31 C :   -0.291114    0.000173
  32 C :   -0.320859    0.000255
  33 C :   -0.147438   -0.000271
  34 H :    0.137793   -0.000028
  35 H :    0.130782    0.000042
  36 H :    0.091837    0.000031
  37 H :    0.082506    0.000011
  38 H :    0.088207    0.000009
  39 H :    0.145629   -0.000006
Sum of atomic charges         :   -2.0000000

LOEWDIN ATOMIC CHARGES AND SPIN POPULATIONS
-------------------------------------------
   0 V :   -0.155882    1.163862
   1 S :    0.080074   -0.014441
   2 S :    0.081630   -0.015607
   3 S :    0.081301   -0.015369
   4 S :    0.081123   -0.016667
   5 O :   -0.318926   -0.131475
   6 C :   -0.554264    0.008984
   7 C :   -0.547377    0.007998
   8 C :   -0.552672    0.008149
   9 C :   -0.552094    0.007649
  10 S :    0.502312   -0.000955
  11 S :    0.446681   -0.000929
  12 S :    0.470124   -0.000822
  13 S :    0.471735   -0.000832
  14 C :   -0.465558    0.000180
  15 C :   -0.465145   -0.000081
  16 C :   -0.627065    0.000496
  17 C :   -0.622077    0.000085
  18 S :    0.386685   -0.000060
  19 S :    0.334722   -0.000120
  20 S :    0.360053   -0.000072
  21 S :    0.357520   -0.000076
  22 C :   -0.283133   -0.000007
  23 C :   -0.283569   -0.000009
  24 C :   -0.176096   -0.000002
  25 H :    0.062460   -0.000001
  26 H :    0.053463   -0.000002
  27 H :    0.058018   -0.000002
  28 H :    0.060172   -0.000001
  29 H :    0.053728   -0.000002
  30 H :    0.062508   -0.000002
  31 C :   -0.295012    0.000029
  32 C :   -0.301429    0.000067
  33 C :   -0.178820    0.000006
  34 H :    0.071855   -0.000002
  35 H :    0.063759    0.000016
  36 H :    0.059592    0.000005
  37 H :    0.059118    0.000002
  38 H :    0.054643    0.000006
  39 H :    0.065843    0.000000

  Mayer bond orders larger than 0.100000
B(  0-V ,  1-S ) :   0.7724 B(  0-V ,  2-S ) :   0.7697 B(  0-V ,  3-S ) :   0.7653
B(  0-V ,  4-S ) :   0.7782 B(  0-V ,  5-O ) :   2.1488 B(  1-S ,  8-C ) :   1.1033
B(  2-S ,  6-C ) :   1.1091 B(  3-S ,  9-C ) :   1.1064 B(  4-S ,  7-C ) :   1.1002
B(  6-C ,  7-C ) :   1.6820 B(  6-C , 10-S ) :   0.9381 B(  7-C , 11-S ) :   0.9388
B(  8-C ,  9-C ) :   1.6984 B(  8-C , 13-S ) :   0.9339 B(  9-C , 12-S ) :   0.9352
B( 10-S , 14-C ) :   1.2993 B( 11-S , 14-C ) :   1.2018 B( 12-S , 15-C ) :   1.2448
B( 13-S , 15-C ) :   1.2484 B( 14-C , 16-C ) :   1.4481 B( 15-C , 17-C ) :   1.4537
B( 16-C , 18-S ) :   1.1701 B( 16-C , 19-S ) :   1.0191 B( 17-C , 20-S ) :   1.0910
B( 17-C , 21-S ) :   1.0859 B( 18-S , 32-C ) :   0.9293 B( 19-S , 31-C ) :   1.0358
B( 20-S , 23-C ) :   0.9888 B( 21-S , 22-C ) :   0.9930 B( 22-C , 24-C ) :   0.9129
B( 22-C , 25-H ) :   0.9647 B( 22-C , 26-H ) :   0.9663 B( 23-C , 24-C ) :   0.9137
B( 23-C , 29-H ) :   0.9649 B( 23-C , 30-H ) :   0.9666 B( 24-C , 27-H ) :   0.9625
B( 24-C , 28-H ) :   0.9719 B( 31-C , 33-C ) :   0.9020 B( 31-C , 38-H ) :   0.9812
B( 31-C , 39-H ) :   0.9374 B( 32-C , 33-C ) :   0.9093 B( 32-C , 34-H ) :   0.9882
B( 32-C , 35-H ) :   0.9432 B( 33-C , 36-H ) :   0.9707 B( 33-C , 37-H ) :   0.9655

FINAL SINGLE POINT ENERGY     -6337.682572092444

DIPOLE MOMENT
-------------
                                X             Y             Z
Electronic contribution:     -3.48836      -8.93766       9.73454
Nuclear contribution   :      3.78485       9.86624     -10.90231
                        -----------------------------------------
Total Dipole Moment    :      0.29650       0.92858      -1.16777
                        -----------------------------------------
Magnitude (a.u.)       :      1.52114
Magnitude (Debye)      :      3.86643

Rotational constants in cm-1:     0.010759     0.000804     0.000783
Rotational constants in MHz :   322.549727    24.115751    23.486453

                             ****ORCA TERMINATED NORMALLY****
TOTAL RUN TIME: 0 days 1 hours 1 minutes 29 seconds 791 msec
