                         Program Version 5.0.4 -  RELEASE  -
|  1> ! nofrozencore ReducedPop printbasis
|  2> ! B3LYP TZVP
|  3>
|  4> %basis
|  5> newgto V "CP(PPP)" end
|  6> end
|  7>
|  8> %pal
|  9> nprocs 8
| 10> end
| 11>
| 12> % sym SymThresh 1e-2 end
| 13> * xyz -2 2
| 14> V -0.5184852428346342 -0.8685484241820589 0.4638772837761867
| 15> S -2.0538909146570394 0.9765561036789763 1.0621333064924594
| 16> S -1.4172090505138002 -0.5953967834906095 -1.8281451135147362
| 17> S 0.9581399090955737 0.0052888591600326685 2.2490276291099915
| 18> S 1.6224653618011018 -1.4662275255039616 -0.6090507387723522
| 19> O -1.165187147702601 -2.212938066331377 1.0104900392647231
| 20> C -0.19462485928393056 -1.5325178613830854 -2.7197556786469854
| 21> C 1.0242966132137288 -1.877340135503659 -2.232518566253591
| 22> C -1.2939535706784153 1.587631197089046 2.530395276418327
| 23> C -0.09139140098136203 1.2019492844503086 3.001308996577169
| 24> S -0.6154655828251723 -1.9996731850367302 -4.441153876563244
| 25> S 2.188977250485042 -2.7758539025635356 -3.3212591457297838
| 26> S 0.5008539110520195 2.014626599833936 4.498821788310296
| 27> S -2.164294504845396 2.8650053202604235 3.461526865438645
| 28> C 1.0612485479347868 -2.667586084413826 -4.762566980690248
| 29> C -0.8852814665306765 3.120391585531878 4.676816414923312
| 30> C 1.3435206978070748 -3.340786845096403 -5.92408545067851
| 31> C -0.9701181698129485 4.059237883710436 5.6668254535899365
| 32> S 0.23007465116237394 -3.403026280561864 -7.328516824665943
| 33> S 2.9385537591600093 -4.086351907706423 -6.260924714333151
| 34> S -2.386476746663686 5.1461507800960655 5.819269064889178
| 35> S 0.3433432152758275 4.28821692442073 6.864817735327622
| 36> C 0.792064509322145 6.028855411187405 6.408107731343677
| 37> C -1.5005529317026343 6.750806204257772 5.535932419955503
| 38> C -0.3576787552515895 7.034445636944628 6.5147666422037975
| 39> H 1.1775109113574356 6.006325129790692 5.385809470238712
| 40> H 1.6129518341138593 6.307202920786937 7.074430162343146
| 41> H 0.044330607379220364 8.031331135319641 6.28232860101481
| 42> H -0.7375413086039043 7.066100015769007 7.541096848994917
| 43> H -2.267858231929492 7.526722768825163 5.602357798446784
| 44> H -1.1211587613176939 6.735349814414687 4.511294652633831
| 45> C 2.4296138398729004 -5.821143398239607 -6.526327123234592
| 46> C 0.011598066403104052 -5.212420428911954 -7.470884806285334
| 47> C 1.390621274344289 -5.850487318641064 -7.648300939060854
| 48> H -0.5956114473851623 -5.619117316009401 -6.645714014504465
| 49> H -0.5438551575985194 -5.343809531075891 -8.41801316338101
| 50> H 1.8575579919100227 -5.304429720142469 -8.493271831136367
| 51> H 1.2557404885025585 -6.904582640156092 -7.982035761355212
| 52> H 3.344113857906469 -6.316907797501388 -6.901344006134824
| 53> H 2.124398203676696 -6.30729502827067 -5.585352335740002
| 54> *
| 55>
| 56> % eprnmr
| 57> gtensor true
| 58> Nuclei = all H {aiso,adip,aorb,fgrad,rho}
| 59> Nuclei = all V {aiso,adip,aorb,fgrad,rho}
| 60> end
| 61>
| 62>                          ****END OF INPUT****

CARTESIAN COORDINATES (ANGSTROEM)
---------------------------------
  V     -0.516808   -0.867223    0.460695
  S     -2.052213    0.977882    1.058951
  S     -1.415532   -0.594071   -1.831327
  S      0.959817    0.006615    2.245845
  S      1.624143   -1.464902   -0.612233
  O     -1.163510   -2.211612    1.007308
  C     -0.192947   -1.531192   -2.722938
  C      1.025974   -1.876014   -2.235701
  C     -1.292276    1.588957    2.527213
  C     -0.089714    1.203275    2.998127
  S     -0.613788   -1.998347   -4.444336
  S      2.190655   -2.774528   -3.324441
  S      0.502531    2.015952    4.495640
  S     -2.162617    2.866331    3.458345
  C      1.062926   -2.666260   -4.765749
  C     -0.883604    3.121717    4.673634
  C      1.345198   -3.339461   -5.927268
  C     -0.968441    4.060564    5.663643
  S      0.231752   -3.401700   -7.331699
  S      2.940231   -4.085026   -6.264107
  S     -2.384799    5.147477    5.816087
  S      0.345021    4.289543    6.861636
  C      0.793742    6.030181    6.404926
  C     -1.498875    6.752132    5.532750
  C     -0.356001    7.035771    6.511584
  H      1.179188    6.007651    5.382627
  H      1.614629    6.308529    7.071248
  H      0.046008    8.032657    6.279146
  H     -0.735864    7.067426    7.537915
  H     -2.266181    7.528049    5.599176
  H     -1.119481    6.736676    4.508112
  C      2.431291   -5.819818   -6.529509
  C      0.013276   -5.211095   -7.474067
  C      1.392299   -5.849162   -7.651483
  H     -0.593934   -5.617791   -6.648896
  H     -0.542178   -5.342484   -8.421195
  H      1.859235   -5.303104   -8.496454
  H      1.257418   -6.903257   -7.985218
  H      3.345791   -6.315582   -6.904526
  H      2.126076   -6.305969   -5.588535

 Total Charge           Charge          ....   -2
 Multiplicity           Mult            ....    2
 Number of Electrons    NEL             ....  321
 Basis Dimension        Dim             ....  681

ORBITAL ENERGIES
----------------
                 SPIN UP ORBITALS
  NO   OCC          E(Eh)            E(eV)
   0   1.0000    -196.672126     -5351.7206
   1   1.0000     -88.734481     -2414.5880
   2   1.0000     -88.734380     -2414.5852
   3   1.0000     -88.733685     -2414.5663
   4   1.0000     -88.733577     -2414.5634
   5   1.0000     -88.733424     -2414.5592
   6   1.0000     -88.733248     -2414.5544
   7   1.0000     -88.729342     -2414.4481
   8   1.0000     -88.729289     -2414.4467
   9   1.0000     -88.638061     -2411.9643
  10   1.0000     -88.637780     -2411.9566
  11   1.0000     -88.637631     -2411.9526
  12   1.0000     -88.637192     -2411.9406
  13   1.0000     -22.047512      -599.9433
  14   1.0000     -18.887569      -513.9569
  15   1.0000     -18.554003      -504.8801
  16   1.0000     -18.548758      -504.7374
  17   1.0000     -18.548674      -504.7351
  18   1.0000     -10.083032      -274.3732
  19   1.0000     -10.076144      -274.1858
  20   1.0000     -10.069299      -273.9995
  21   1.0000     -10.069162      -273.9958
  22   1.0000     -10.063765      -273.8490
  23   1.0000     -10.063697      -273.8471
  24   1.0000     -10.055360      -273.6202
  25   1.0000     -10.053824      -273.5785
  26   1.0000     -10.052120      -273.5321
  27   1.0000     -10.049956      -273.4732
  28   1.0000     -10.020376      -272.6683
  29   1.0000     -10.019498      -272.6444
  30   1.0000     -10.016656      -272.5671
  31   1.0000     -10.015876      -272.5458
  32   1.0000      -7.787713      -211.9145
  33   1.0000      -7.787676      -211.9134
  34   1.0000      -7.787650      -211.9127
  35   1.0000      -7.787569      -211.9105
  36   1.0000      -7.784544      -211.8282
  37   1.0000      -7.784407      -211.8245
  38   1.0000      -7.782127      -211.7624
  39   1.0000      -7.782097      -211.7616
  40   1.0000      -7.691898      -209.3072
  41   1.0000      -7.691837      -209.3055
  42   1.0000      -7.691561      -209.2980
  43   1.0000      -7.691446      -209.2949
  44   1.0000      -5.752677      -156.5383
  45   1.0000      -5.752629      -156.5370
  46   1.0000      -5.752576      -156.5356
  47   1.0000      -5.752561      -156.5351
  48   1.0000      -5.749792      -156.4598
  49   1.0000      -5.749663      -156.4563
  50   1.0000      -5.749323      -156.4470
  51   1.0000      -5.749300      -156.4464
  52   1.0000      -5.749250      -156.4451
  53   1.0000      -5.749194      -156.4435
  54   1.0000      -5.747157      -156.3881
  55   1.0000      -5.747122      -156.3872
  56   1.0000      -5.745554      -156.3445
  57   1.0000      -5.745410      -156.3406
  58   1.0000      -5.742750      -156.2682
  59   1.0000      -5.742717      -156.2673
  60   1.0000      -5.742457      -156.2602
  61   1.0000      -5.742405      -156.2588
  62   1.0000      -5.742350      -156.2573
  63   1.0000      -5.742345      -156.2571
  64   1.0000      -5.740009      -156.1936
  65   1.0000      -5.739862      -156.1896
  66   1.0000      -5.737854      -156.1349
  67   1.0000      -5.737835      -156.1344
  68   1.0000      -5.657290      -153.9427
  69   1.0000      -5.657161      -153.9392
  70   1.0000      -5.656977      -153.9342
  71   1.0000      -5.656775      -153.9287
  72   1.0000      -5.650565      -153.7597
  73   1.0000      -5.650506      -153.7581
  74   1.0000      -5.650260      -153.7514
  75   1.0000      -5.650123      -153.7477
  76   1.0000      -5.649217      -153.7230
  77   1.0000      -5.649151      -153.7212
  78   1.0000      -5.648841      -153.7128
  79   1.0000      -5.648748      -153.7103
  80   1.0000      -2.441156       -66.4272
  81   1.0000      -1.482534       -40.3418
  82   1.0000      -1.470736       -40.0208
  83   1.0000      -1.469959       -39.9996
  84   1.0000      -0.708252       -19.2725
  85   1.0000      -0.706395       -19.2220
  86   1.0000      -0.681899       -18.5554
  87   1.0000      -0.673580       -18.3290
  88   1.0000      -0.647196       -17.6111
  89   1.0000      -0.629106       -17.1188
  90   1.0000      -0.625264       -17.0143
  91   1.0000      -0.624499       -16.9935
  92   1.0000      -0.616307       -16.7706
  93   1.0000      -0.571375       -15.5479
  94   1.0000      -0.569651       -15.5010
  95   1.0000      -0.566692       -15.4205
  96   1.0000      -0.562721       -15.3124
  97   1.0000      -0.495129       -13.4731
  98   1.0000      -0.494683       -13.4610
  99   1.0000      -0.493724       -13.4349
 100   1.0000      -0.491835       -13.3835
 101   1.0000      -0.476710       -12.9719
 102   1.0000      -0.472301       -12.8520
 103   1.0000      -0.445663       -12.1271
 104   1.0000      -0.443817       -12.0769
 105   1.0000      -0.414941       -11.2911
 106   1.0000      -0.408923       -11.1274
 107   1.0000      -0.355169        -9.6646
 108   1.0000      -0.354655        -9.6507
 109   1.0000      -0.326382        -8.8813
 110   1.0000      -0.325430        -8.8554
 111   1.0000      -0.314109        -8.5473
 112   1.0000      -0.309517        -8.4224
 113   1.0000      -0.302430        -8.2295
 114   1.0000      -0.298762        -8.1297
 115   1.0000      -0.294999        -8.0273
 116   1.0000      -0.290540        -7.9060
 117   1.0000      -0.259368        -7.0578
 118   1.0000      -0.255450        -6.9512
 119   1.0000      -0.255271        -6.9463
 120   1.0000      -0.252356        -6.8670
 121   1.0000      -0.237787        -6.4705
 122   1.0000      -0.235469        -6.4074
 123   1.0000      -0.229256        -6.2384
 124   1.0000      -0.225160        -6.1269
 125   1.0000      -0.218377        -5.9423
 126   1.0000      -0.215617        -5.8672
 127   1.0000      -0.211375        -5.7518
 128   1.0000      -0.209669        -5.7054
 129   1.0000      -0.189324        -5.1518
 130   1.0000      -0.185464        -5.0467
 131   1.0000      -0.184904        -5.0315
 132   1.0000      -0.180698        -4.9170
 133   1.0000      -0.179095        -4.8734
 134   1.0000      -0.154512        -4.2045
 135   1.0000      -0.149466        -4.0672
 136   1.0000      -0.147250        -4.0069
 137   1.0000      -0.133493        -3.6325
 138   1.0000      -0.132611        -3.6085
 139   1.0000      -0.130828        -3.5600
 140   1.0000      -0.122629        -3.3369
 141   1.0000      -0.118318        -3.2196
 142   1.0000      -0.110803        -3.0151
 143   1.0000      -0.107879        -2.9355
 144   1.0000      -0.097227        -2.6457
 145   1.0000      -0.097084        -2.6418
 146   1.0000      -0.095488        -2.5984
 147   1.0000      -0.093915        -2.5555
 148   1.0000      -0.071931        -1.9574
 149   1.0000      -0.068152        -1.8545
 150   1.0000      -0.066214        -1.8018
 151   1.0000      -0.049569        -1.3488
 152   1.0000      -0.042293        -1.1509
 153   1.0000      -0.037764        -1.0276
 154   1.0000      -0.035010        -0.9527
 155   1.0000      -0.031486        -0.8568
 156   1.0000      -0.022627        -0.6157
 157   1.0000      -0.016399        -0.4462
 158   1.0000      -0.012972        -0.3530
 159   1.0000       0.021375         0.5816
 160   1.0000       0.042814         1.1650
 161   0.0000       0.127177         3.4607
 162   0.0000       0.137340         3.7372
 163   0.0000       0.154372         4.2007
 164   0.0000       0.160853         4.3770
 165   0.0000       0.170948         4.6517

                 SPIN DOWN ORBITALS
  NO   OCC          E(Eh)            E(eV)
   0   1.0000    -196.672273     -5351.7246
   1   1.0000     -88.734482     -2414.5880
   2   1.0000     -88.734381     -2414.5853
   3   1.0000     -88.733686     -2414.5664
   4   1.0000     -88.733578     -2414.5634
   5   1.0000     -88.733432     -2414.5594
   6   1.0000     -88.733257     -2414.5547
   7   1.0000     -88.729350     -2414.4484
   8   1.0000     -88.729297     -2414.4469
   9   1.0000     -88.638205     -2411.9682
  10   1.0000     -88.637926     -2411.9606
  11   1.0000     -88.637769     -2411.9563
  12   1.0000     -88.637332     -2411.9444
  13   1.0000     -22.032570      -599.5367
  14   1.0000     -18.891353      -514.0598
  15   1.0000     -18.548736      -504.7368
  16   1.0000     -18.532680      -504.2999
  17   1.0000     -18.532574      -504.2970
  18   1.0000     -10.083026      -274.3731
  19   1.0000     -10.076144      -274.1858
  20   1.0000     -10.069298      -273.9995
  21   1.0000     -10.069161      -273.9958
  22   1.0000     -10.063765      -273.8490
  23   1.0000     -10.063697      -273.8471
  24   1.0000     -10.055347      -273.6199
  25   1.0000     -10.053824      -273.5785
  26   1.0000     -10.052120      -273.5321
  27   1.0000     -10.049951      -273.4731
  28   1.0000     -10.020126      -272.6615
  29   1.0000     -10.019263      -272.6380
  30   1.0000     -10.016443      -272.5613
  31   1.0000     -10.015664      -272.5401
  32   1.0000      -7.787714      -211.9145
  33   1.0000      -7.787677      -211.9135
  34   1.0000      -7.787651      -211.9128
  35   1.0000      -7.787570      -211.9106
  36   1.0000      -7.784553      -211.8285
  37   1.0000      -7.784416      -211.8247
  38   1.0000      -7.782136      -211.7627
  39   1.0000      -7.782106      -211.7619
  40   1.0000      -7.692032      -209.3108
  41   1.0000      -7.691966      -209.3090
  42   1.0000      -7.691697      -209.3017
  43   1.0000      -7.691577      -209.2985
  44   1.0000      -5.752677      -156.5383
  45   1.0000      -5.752630      -156.5370
  46   1.0000      -5.752577      -156.5356
  47   1.0000      -5.752562      -156.5352
  48   1.0000      -5.749800      -156.4600
  49   1.0000      -5.749672      -156.4565
  50   1.0000      -5.749324      -156.4471
  51   1.0000      -5.749301      -156.4464
  52   1.0000      -5.749252      -156.4451
  53   1.0000      -5.749195      -156.4435
  54   1.0000      -5.747167      -156.3884
  55   1.0000      -5.747133      -156.3874
  56   1.0000      -5.745568      -156.3449
  57   1.0000      -5.745424      -156.3409
  58   1.0000      -5.742765      -156.2686
  59   1.0000      -5.742732      -156.2677
  60   1.0000      -5.742458      -156.2602
  61   1.0000      -5.742406      -156.2588
  62   1.0000      -5.742351      -156.2573
  63   1.0000      -5.742346      -156.2572
  64   1.0000      -5.740018      -156.1938
  65   1.0000      -5.739872      -156.1898
  66   1.0000      -5.737860      -156.1351
  67   1.0000      -5.737841      -156.1346
  68   1.0000      -5.657432      -153.9466
  69   1.0000      -5.657304      -153.9431
  70   1.0000      -5.657124      -153.9382
  71   1.0000      -5.656917      -153.9325
  72   1.0000      -5.650963      -153.7705
  73   1.0000      -5.650858      -153.7677
  74   1.0000      -5.650653      -153.7621
  75   1.0000      -5.650485      -153.7575
  76   1.0000      -5.649307      -153.7255
  77   1.0000      -5.649257      -153.7241
  78   1.0000      -5.648938      -153.7154
  79   1.0000      -5.648855      -153.7132
  80   1.0000      -2.396244       -65.2051
  81   1.0000      -1.463245       -39.8169
  82   1.0000      -1.408402       -38.3246
  83   1.0000      -1.408092       -38.3161
  84   1.0000      -0.708244       -19.2723
  85   1.0000      -0.706385       -19.2217
  86   1.0000      -0.681854       -18.5542
  87   1.0000      -0.673505       -18.3270
  88   1.0000      -0.655313       -17.8320
  89   1.0000      -0.629047       -17.1172
  90   1.0000      -0.625264       -17.0143
  91   1.0000      -0.624400       -16.9908
  92   1.0000      -0.616309       -16.7706
  93   1.0000      -0.571354       -15.5473
  94   1.0000      -0.569586       -15.4992
  95   1.0000      -0.566660       -15.4196
  96   1.0000      -0.562631       -15.3100
  97   1.0000      -0.495150       -13.4737
  98   1.0000      -0.494719       -13.4620
  99   1.0000      -0.493746       -13.4355
 100   1.0000      -0.491851       -13.3840
 101   1.0000      -0.476926       -12.9778
 102   1.0000      -0.472580       -12.8596
 103   1.0000      -0.445681       -12.1276
 104   1.0000      -0.443857       -12.0780
 105   1.0000      -0.414942       -11.2912
 106   1.0000      -0.409047       -11.1307
 107   1.0000      -0.355165        -9.6645
 108   1.0000      -0.354648        -9.6505
 109   1.0000      -0.326373        -8.8811
 110   1.0000      -0.325422        -8.8552
 111   1.0000      -0.314046        -8.5456
 112   1.0000      -0.309527        -8.4227
 113   1.0000      -0.302393        -8.2285
 114   1.0000      -0.298736        -8.1290
 115   1.0000      -0.294954        -8.0261
 116   1.0000      -0.290536        -7.9059
 117   1.0000      -0.259297        -7.0558
 118   1.0000      -0.255335        -6.9480
 119   1.0000      -0.255173        -6.9436
 120   1.0000      -0.252302        -6.8655
 121   1.0000      -0.237731        -6.4690
 122   1.0000      -0.235445        -6.4068
 123   1.0000      -0.229216        -6.2373
 124   1.0000      -0.225134        -6.1262
 125   1.0000      -0.218156        -5.9363
 126   1.0000      -0.215426        -5.8620
 127   1.0000      -0.211310        -5.7500
 128   1.0000      -0.209512        -5.7011
 129   1.0000      -0.187386        -5.0990
 130   1.0000      -0.185363        -5.0440
 131   1.0000      -0.184743        -5.0271
 132   1.0000      -0.180597        -4.9143
 133   1.0000      -0.178729        -4.8635
 134   1.0000      -0.153830        -4.1859
 135   1.0000      -0.149349        -4.0640
 136   1.0000      -0.147213        -4.0059
 137   1.0000      -0.133184        -3.6241
 138   1.0000      -0.132116        -3.5951
 139   1.0000      -0.130344        -3.5468
 140   1.0000      -0.122066        -3.3216
 141   1.0000      -0.117951        -3.2096
 142   1.0000      -0.112615        -3.0644
 143   1.0000      -0.109327        -2.9750
 144   1.0000      -0.097258        -2.6465
 145   1.0000      -0.097118        -2.6427
 146   1.0000      -0.095745        -2.6053
 147   1.0000      -0.094332        -2.5669
 148   1.0000      -0.068370        -1.8604
 149   1.0000      -0.068138        -1.8541
 150   1.0000      -0.066216        -1.8018
 151   1.0000      -0.046937        -1.2772
 152   1.0000      -0.041359        -1.1254
 153   1.0000      -0.037823        -1.0292
 154   1.0000      -0.034507        -0.9390
 155   1.0000      -0.031543        -0.8583
 156   1.0000      -0.023647        -0.6435
 157   1.0000      -0.013209        -0.3594
 158   1.0000       0.021633         0.5887
 159   1.0000       0.041718         1.1352
 160   0.0000       0.127194         3.4611
 161   0.0000       0.137322         3.7367
 162   0.0000       0.153351         4.1729
 163   0.0000       0.158917         4.3244
 164   0.0000       0.163050         4.4368

MULLIKEN ATOMIC CHARGES AND SPIN POPULATIONS
--------------------------------------------
   0 V :    0.480382    1.211527
   1 S :   -0.293950   -0.022584
   2 S :   -0.293146   -0.026573
   3 S :   -0.292100   -0.023545
   4 S :   -0.288810   -0.026970
   5 O :   -0.469536   -0.146690
   6 C :   -0.071800    0.010580
   7 C :   -0.079427    0.008876
   8 C :   -0.081837    0.007758
   9 C :   -0.082290    0.007408
  10 S :    0.075403   -0.000631
  11 S :    0.076778   -0.000649
  12 S :    0.091570   -0.000386
  13 S :    0.090618   -0.000336
  14 C :   -0.126568    0.003016
  15 C :   -0.200731    0.000986
  16 C :   -0.261781   -0.001097
  17 C :   -0.191474   -0.000419
  18 S :    0.015396   -0.000110
  19 S :    0.015806   -0.000111
  20 S :    0.008087   -0.000071
  21 S :    0.008155   -0.000074
  22 C :   -0.309272    0.000000
  23 C :   -0.308781   -0.000000
  24 C :   -0.145316   -0.000014
  25 H :    0.144511   -0.000002
  26 H :    0.115781   -0.000004
  27 H :    0.084489   -0.000000
  28 H :    0.091693   -0.000001
  29 H :    0.115445   -0.000005
  30 H :    0.144329   -0.000001
  31 C :   -0.260370    0.000166
  32 C :   -0.261005    0.000163
  33 C :   -0.229009   -0.000258
  34 H :    0.145347   -0.000010
  35 H :    0.107297    0.000011
  36 H :    0.103960    0.000042
  37 H :    0.079603    0.000005
  38 H :    0.107317    0.000012
  39 H :    0.145236   -0.000010
Sum of atomic charges         :   -2.0000000

LOEWDIN ATOMIC CHARGES AND SPIN POPULATIONS
-------------------------------------------
   0 V :   -0.155601    1.164649
   1 S :    0.076427   -0.014626
   2 S :    0.066629   -0.016948
   3 S :    0.077756   -0.015430
   4 S :    0.070764   -0.017131
   5 O :   -0.319874   -0.131629
   6 C :   -0.531086    0.009752
   7 C :   -0.533364    0.008592
   8 C :   -0.548730    0.008173
   9 C :   -0.548740    0.007702
  10 S :    0.433318   -0.000925
  11 S :    0.434330   -0.000961
  12 S :    0.460497   -0.000829
  13 S :    0.459670   -0.000833
  14 C :   -0.415758    0.000221
  15 C :   -0.455500   -0.000115
  16 C :   -0.600729    0.000503
  17 C :   -0.612078    0.000092
  18 S :    0.360676   -0.000089
  19 S :    0.362296   -0.000086
  20 S :    0.356102   -0.000076
  21 S :    0.355695   -0.000078
  22 C :   -0.283364   -0.000008
  23 C :   -0.283473   -0.000009
  24 C :   -0.173786   -0.000002
  25 H :    0.063461   -0.000002
  26 H :    0.053422   -0.000002
  27 H :    0.059241   -0.000002
  28 H :    0.060071   -0.000001
  29 H :    0.053374   -0.000002
  30 H :    0.063308   -0.000002
  31 C :   -0.286967    0.000037
  32 C :   -0.286605    0.000032
  33 C :   -0.193660    0.000011
  34 H :    0.063330   -0.000001
  35 H :    0.058598    0.000006
  36 H :    0.063873    0.000007
  37 H :    0.054638    0.000002
  38 H :    0.058657    0.000007
  39 H :    0.063183   -0.000001

  Mayer bond orders larger than 0.100000
B(  0-V ,  1-S ) :   0.7684 B(  0-V ,  2-S ) :   0.7670 B(  0-V ,  3-S ) :   0.7617
B(  0-V ,  4-S ) :   0.7744 B(  0-V ,  5-O ) :   2.1478 B(  1-S ,  8-C ) :   1.0992
B(  2-S ,  6-C ) :   1.0874 B(  3-S ,  9-C ) :   1.1020 B(  4-S ,  7-C ) :   1.0872
B(  6-C ,  7-C ) :   1.7084 B(  6-C , 10-S ) :   0.9105 B(  7-C , 11-S ) :   0.9156
B(  8-C ,  9-C ) :   1.7080 B(  8-C , 13-S ) :   0.9257 B(  9-C , 12-S ) :   0.9273
B( 10-S , 14-C ) :   1.1806 B( 11-S , 14-C ) :   1.1783 B( 12-S , 15-C ) :   1.2291
B( 13-S , 15-C ) :   1.2290 B( 14-C , 16-C ) :   1.5132 B( 15-C , 17-C ) :   1.4847
B( 16-C , 18-S ) :   1.0697 B( 16-C , 19-S ) :   1.0698 B( 17-C , 20-S ) :   1.0809
B( 17-C , 21-S ) :   1.0811 B( 18-S , 32-C ) :   1.0082 B( 19-S , 31-C ) :   1.0081
B( 20-S , 23-C ) :   0.9909 B( 21-S , 22-C ) :   0.9903 B( 22-C , 24-C ) :   0.9122
B( 22-C , 25-H ) :   0.9676 B( 22-C , 26-H ) :   0.9641 B( 23-C , 24-C ) :   0.9125
B( 23-C , 29-H ) :   0.9642 B( 23-C , 30-H ) :   0.9674 B( 24-C , 27-H ) :   0.9662
B( 24-C , 28-H ) :   0.9687 B( 31-C , 33-C ) :   0.9092 B( 31-C , 38-H ) :   0.9708
B( 31-C , 39-H ) :   0.9533 B( 32-C , 33-C ) :   0.9088 B( 32-C , 34-H ) :   0.9530
B( 32-C , 35-H ) :   0.9708 B( 33-C , 36-H ) :   0.9886 B( 33-C , 37-H ) :   0.9388

FINAL SINGLE POINT ENERGY     -6337.689001528568

DIPOLE MOMENT
-------------
                                X             Y             Z
Electronic contribution:     -7.29586      -8.58844       8.25069
Nuclear contribution   :      8.15671       9.47690      -9.31149
                        -----------------------------------------
Total Dipole Moment    :      0.86084       0.88845      -1.06080
                        -----------------------------------------
Magnitude (a.u.)       :      1.62963
Magnitude (Debye)      :      4.14219

Rotational constants in cm-1:     0.010583     0.000804     0.000782
Rotational constants in MHz :   317.276061    24.111668    23.453855

                             ****ORCA TERMINATED NORMALLY****
TOTAL RUN TIME: 0 days 1 hours 1 minutes 37 seconds 710 msec
