                         Program Version 5.0.4 -  RELEASE  -
|  1> ! nofrozencore ReducedPop printbasis
|  2> ! B3LYP TZVP
|  3>
|  4> %basis
|  5> newgto V "CP(PPP)" end
|  6> end
|  7>
|  8> %pal
|  9> nprocs 8
| 10> end
| 11>
| 12> % sym SymThresh 1e-2 end
| 13> * xyz -2 2
| 14> V 0.823794739868405 0.6215720682109064 0.41711588106803477
| 15> S 1.489856456016172 -1.6317403488883666 1.190352119390142
| 16> S 1.5230152996149706 -0.1459782650596828 -1.8298902865207205
| 17> S -0.8750593330860401 0.5443896576523188 2.216820383615733
| 18> S -0.8900892085268006 1.937249381363737 -0.7731184885908188
| 19> O 1.9553941474641763 1.6332355871319801 0.8863903479018154
| 20> C 0.7851345257950038 1.1174373568765352 -2.8057564092626497
| 21> C -0.1846737111470379 1.950044330447091 -2.3825346822624294
| 22> C 0.5530348334535691 -1.7745438107110332 2.6714784346528324
| 23> C -0.3921709099953065 -0.9076367163530817 3.078635697862163
| 24> S 1.2875495691495875 1.2881646184655495 -4.522251180998156
| 25> S -0.8444174316700385 3.095832262594535 -3.59604032133534
| 26> S -1.2460441641341262 -1.3125054070342 4.605926332335687
| 27> S 0.826892991529521 -3.2075368168752623 3.7199476998230856
| 28> C 0.1590850754111791 2.578262404815254 -4.955544090038115
| 29> C -0.4275676448879758 -2.848464501867782 4.912755016624997
| 30> C 0.07681918170314861 3.1274970206051727 -6.2056259417484405
| 31> C -0.7264162541287363 -3.6667360798421855 5.966806331857867
| 32> S 1.1471573190239626 2.6155836900124694 -7.5354882970796595
| 33> S -1.0854271914287306 4.42363111662885 -6.586704491076105
| 34> S 0.1254002334893849 -5.209002268136968 6.23342392102372
| 35> S -2.016456159567527 -3.268761231536628 7.130757960504713
| 36> C -3.137524315172739 -4.70190370595313 6.7883437961535975
| 37> C -1.316123728699105 -6.353154551240775 6.031114636323934
| 38> C -2.4715154515424804 -6.064675711547007 6.992578936461466
| 39> H -3.5136527796287216 -4.600510574252524 5.767249207591438
| 40> H -3.981556531917438 -4.583438207450722 7.4774554168331555
| 41> H -3.236686288421369 -6.8444825392913655 6.851547687025954
| 42> H -2.1161785973215226 -6.141790467314386 8.017248095470505
| 43> H -0.9165525982217387 -7.358353298896468 6.2077638826129204
| 44> H -1.6504958968493517 -6.296281239507649 4.9921930524206966
| 45> C 0.11490497312163434 5.775565063486195 -7.0105919996082084
| 46> C 2.0353464530995025 4.222311441087148 -7.81885013742103
| 47> C 1.1071596925855134 5.403704907822758 -8.115972860323474
| 48> H 2.585406805320233 4.433568028319957 -6.973961966719988
| 49> H 2.5872922435537147 4.075596616032937 -8.49191705276763
| 50> H 0.30088414053582146 5.057153152546452 -9.367624211952544
| 51> H 1.6201767953969806 6.153113261984216 -8.336855069251541
| 52> H -0.37835194162729097 6.46849160101056 -7.246497431001525
| 53> H 0.6389978966724877 6.012245685246297 -6.156162202912088
| 54> *
| 55>
| 56> % eprnmr
| 57> gtensor true
| 58> Nuclei = all H {aiso,adip,aorb,fgrad,rho}
| 59> Nuclei = all V {aiso,adip,aorb,fgrad,rho}
| 60> end
| 61>
| 62>                          ****END OF INPUT****

CARTESIAN COORDINATES (ANGSTROEM)
---------------------------------
  V      0.821722    0.620790    0.413987
  S      1.487784   -1.632523    1.187223
  S      1.520943   -0.146761   -1.833019
  S     -0.877132    0.543607    2.213692
  S     -0.892162    1.936467   -0.776247
  O      1.953321    1.632453    0.883262
  C      0.783062    1.116655   -2.808885
  C     -0.186746    1.949262   -2.385663
  C      0.550962   -1.775326    2.668350
  C     -0.394244   -0.908419    3.075507
  S      1.285477    1.287382   -4.525380
  S     -0.846490    3.095050   -3.599169
  S     -1.248117   -1.313288    4.602798
  S      0.824820   -3.208319    3.716819
  C      0.157012    2.577480   -4.958673
  C     -0.429640   -2.849247    4.909626
  C      0.074746    3.126715   -6.208755
  C     -0.728489   -3.667519    5.963678
  S      1.145085    2.614801   -7.538617
  S     -1.087500    4.422849   -6.589833
  S      0.123328   -5.209785    6.230295
  S     -2.018529   -3.269544    7.127629
  C     -3.139597   -4.702686    6.785215
  C     -1.318196   -6.353937    6.027986
  C     -2.473588   -6.065458    6.989450
  H     -3.515725   -4.601293    5.764121
  H     -3.983629   -4.584221    7.474327
  H     -3.238759   -6.845265    6.848419
  H     -2.118251   -6.142573    8.014119
  H     -0.918625   -7.359136    6.204635
  H     -1.652569   -6.297064    4.989064
  C      0.112832    5.774783   -7.013721
  C      2.033274    4.221529   -7.821979
  C      1.105087    5.402922   -8.119102
  H      2.583334    4.432786   -6.977091
  H      2.585220    4.074814   -8.495046
  H      0.298811    5.056371   -9.370753
  H      1.618104    6.152331   -8.339984
  H     -0.380425    6.467709   -7.249626
  H      0.636925    6.011463   -6.159291

 Total Charge           Charge          ....   -2
 Multiplicity           Mult            ....    2
 Number of Electrons    NEL             ....  321
 Basis Dimension        Dim             ....  681

ORBITAL ENERGIES
----------------
                 SPIN UP ORBITALS
  NO   OCC          E(Eh)            E(eV)
   0   1.0000    -196.674947     -5351.7974
   1   1.0000     -88.733222     -2414.5537
   2   1.0000     -88.733161     -2414.5521
   3   1.0000     -88.732723     -2414.5401
   4   1.0000     -88.732653     -2414.5382
   5   1.0000     -88.730703     -2414.4852
   6   1.0000     -88.730514     -2414.4800
   7   1.0000     -88.730128     -2414.4695
   8   1.0000     -88.730016     -2414.4665
   9   1.0000     -88.639938     -2412.0153
  10   1.0000     -88.639848     -2412.0129
  11   1.0000     -88.639683     -2412.0084
  12   1.0000     -88.639409     -2412.0009
  13   1.0000     -22.050350      -600.0205
  14   1.0000     -18.890268      -514.0303
  15   1.0000     -18.556800      -504.9562
  16   1.0000     -18.551622      -504.8153
  17   1.0000     -18.551524      -504.8126
  18   1.0000     -10.076059      -274.1835
  19   1.0000     -10.075863      -274.1782
  20   1.0000     -10.065671      -273.9008
  21   1.0000     -10.063620      -273.8450
  22   1.0000     -10.063568      -273.8436
  23   1.0000     -10.050709      -273.4937
  24   1.0000     -10.048868      -273.4436
  25   1.0000     -10.048405      -273.4310
  26   1.0000     -10.038277      -273.1554
  27   1.0000     -10.038204      -273.1534
  28   1.0000     -10.018536      -272.6182
  29   1.0000     -10.017921      -272.6015
  30   1.0000     -10.017599      -272.5927
  31   1.0000     -10.017128      -272.5799
  32   1.0000      -7.786684      -211.8864
  33   1.0000      -7.786604      -211.8843
  34   1.0000      -7.786104      -211.8707
  35   1.0000      -7.786057      -211.8694
  36   1.0000      -7.783927      -211.8114
  37   1.0000      -7.783795      -211.8078
  38   1.0000      -7.783381      -211.7966
  39   1.0000      -7.783323      -211.7950
  40   1.0000      -7.694239      -209.3709
  41   1.0000      -7.694123      -209.3677
  42   1.0000      -7.693936      -209.3626
  43   1.0000      -7.693729      -209.3570
  44   1.0000      -5.751676      -156.5111
  45   1.0000      -5.751597      -156.5089
  46   1.0000      -5.751087      -156.4950
  47   1.0000      -5.751049      -156.4940
  48   1.0000      -5.748860      -156.4344
  49   1.0000      -5.748732      -156.4309
  50   1.0000      -5.748331      -156.4200
  51   1.0000      -5.748268      -156.4183
  52   1.0000      -5.748251      -156.4179
  53   1.0000      -5.748174      -156.4158
  54   1.0000      -5.747727      -156.4036
  55   1.0000      -5.747679      -156.4023
  56   1.0000      -5.744438      -156.3141
  57   1.0000      -5.744301      -156.3104
  58   1.0000      -5.743903      -156.2996
  59   1.0000      -5.743839      -156.2978
  60   1.0000      -5.741479      -156.2336
  61   1.0000      -5.741404      -156.2315
  62   1.0000      -5.740883      -156.2174
  63   1.0000      -5.740817      -156.2156
  64   1.0000      -5.739773      -156.1872
  65   1.0000      -5.739627      -156.1832
  66   1.0000      -5.739192      -156.1714
  67   1.0000      -5.739136      -156.1698
  68   1.0000      -5.659543      -154.0040
  69   1.0000      -5.659429      -154.0009
  70   1.0000      -5.659273      -153.9966
  71   1.0000      -5.659040      -153.9903
  72   1.0000      -5.652887      -153.8229
  73   1.0000      -5.652797      -153.8204
  74   1.0000      -5.652602      -153.8151
  75   1.0000      -5.652406      -153.8098
  76   1.0000      -5.651573      -153.7871
  77   1.0000      -5.651447      -153.7837
  78   1.0000      -5.651224      -153.7776
  79   1.0000      -5.651051      -153.7729
  80   1.0000      -2.444000       -66.5046
  81   1.0000      -1.485312       -40.4174
  82   1.0000      -1.473634       -40.0996
  83   1.0000      -1.472818       -40.0774
  84   1.0000      -0.712992       -19.4015
  85   1.0000      -0.709532       -19.3073
  86   1.0000      -0.691191       -18.8083
  87   1.0000      -0.685506       -18.6536
  88   1.0000      -0.649861       -17.6836
  89   1.0000      -0.636568       -17.3219
  90   1.0000      -0.635470       -17.2920
  91   1.0000      -0.631275       -17.1779
  92   1.0000      -0.616993       -16.7892
  93   1.0000      -0.575507       -15.6603
  94   1.0000      -0.574749       -15.6397
  95   1.0000      -0.574490       -15.6327
  96   1.0000      -0.572912       -15.5897
  97   1.0000      -0.513479       -13.9725
  98   1.0000      -0.504447       -13.7267
  99   1.0000      -0.496042       -13.4980
 100   1.0000      -0.495681       -13.4882
 101   1.0000      -0.481431       -13.1004
 102   1.0000      -0.477837       -13.0026
 103   1.0000      -0.461060       -12.5461
 104   1.0000      -0.446212       -12.1421
 105   1.0000      -0.417091       -11.3496
 106   1.0000      -0.411542       -11.1986
 107   1.0000      -0.366765        -9.9802
 108   1.0000      -0.355252        -9.6669
 109   1.0000      -0.338689        -9.2162
 110   1.0000      -0.326148        -8.8749
 111   1.0000      -0.320289        -8.7155
 112   1.0000      -0.316010        -8.5991
 113   1.0000      -0.312265        -8.4972
 114   1.0000      -0.310688        -8.4543
 115   1.0000      -0.303765        -8.2659
 116   1.0000      -0.292057        -7.9473
 117   1.0000      -0.264981        -7.2105
 118   1.0000      -0.263461        -7.1691
 119   1.0000      -0.256779        -6.9873
 120   1.0000      -0.256505        -6.9799
 121   1.0000      -0.242459        -6.5977
 122   1.0000      -0.234781        -6.3887
 123   1.0000      -0.230275        -6.2661
 124   1.0000      -0.228243        -6.2108
 125   1.0000      -0.220034        -5.9874
 126   1.0000      -0.216791        -5.8992
 127   1.0000      -0.212053        -5.7702
 128   1.0000      -0.194696        -5.2979
 129   1.0000      -0.191202        -5.2029
 130   1.0000      -0.187217        -5.0944
 131   1.0000      -0.184943        -5.0326
 132   1.0000      -0.179781        -4.8921
 133   1.0000      -0.174624        -4.7518
 134   1.0000      -0.159558        -4.3418
 135   1.0000      -0.152509        -4.1500
 136   1.0000      -0.147331        -4.0091
 137   1.0000      -0.136466        -3.7134
 138   1.0000      -0.134428        -3.6580
 139   1.0000      -0.133108        -3.6220
 140   1.0000      -0.125332        -3.4105
 141   1.0000      -0.121134        -3.2962
 142   1.0000      -0.113552        -3.0899
 143   1.0000      -0.109867        -2.9896
 144   1.0000      -0.099808        -2.7159
 145   1.0000      -0.098169        -2.6713
 146   1.0000      -0.097364        -2.6494
 147   1.0000      -0.094585        -2.5738
 148   1.0000      -0.074538        -2.0283
 149   1.0000      -0.067565        -1.8385
 150   1.0000      -0.067123        -1.8265
 151   1.0000      -0.052383        -1.4254
 152   1.0000      -0.045624        -1.2415
 153   1.0000      -0.037510        -1.0207
 154   1.0000      -0.037126        -1.0103
 155   1.0000      -0.031330        -0.8525
 156   1.0000      -0.024992        -0.6801
 157   1.0000      -0.019156        -0.5213
 158   1.0000      -0.015500        -0.4218
 159   1.0000       0.020339         0.5535
 160   1.0000       0.041195         1.1210
 161   0.0000       0.125194         3.4067
 162   0.0000       0.137352         3.7375
 163   0.0000       0.154341         4.1998
 164   0.0000       0.162104         4.4111
 165   0.0000       0.170200         4.6314

                 SPIN DOWN ORBITALS
  NO   OCC          E(Eh)            E(eV)
   0   1.0000    -196.675093     -5351.8014
   1   1.0000     -88.733223     -2414.5537
   2   1.0000     -88.733161     -2414.5521
   3   1.0000     -88.732724     -2414.5402
   4   1.0000     -88.732654     -2414.5383
   5   1.0000     -88.730712     -2414.4854
   6   1.0000     -88.730523     -2414.4803
   7   1.0000     -88.730136     -2414.4698
   8   1.0000     -88.730024     -2414.4667
   9   1.0000     -88.640078     -2412.0191
  10   1.0000     -88.639985     -2412.0166
  11   1.0000     -88.639825     -2412.0123
  12   1.0000     -88.639548     -2412.0047
  13   1.0000     -22.035415      -599.6141
  14   1.0000     -18.894062      -514.1336
  15   1.0000     -18.551529      -504.8128
  16   1.0000     -18.535587      -504.3790
  17   1.0000     -18.535403      -504.3740
  18   1.0000     -10.076053      -274.1833
  19   1.0000     -10.075862      -274.1781
  20   1.0000     -10.065671      -273.9008
  21   1.0000     -10.063620      -273.8450
  22   1.0000     -10.063568      -273.8436
  23   1.0000     -10.050709      -273.4937
  24   1.0000     -10.048857      -273.4433
  25   1.0000     -10.048401      -273.4309
  26   1.0000     -10.038276      -273.1554
  27   1.0000     -10.038203      -273.1534
  28   1.0000     -10.018298      -272.6118
  29   1.0000     -10.017708      -272.5957
  30   1.0000     -10.017376      -272.5867
  31   1.0000     -10.016916      -272.5741
  32   1.0000      -7.786684      -211.8865
  33   1.0000      -7.786604      -211.8843
  34   1.0000      -7.786105      -211.8707
  35   1.0000      -7.786057      -211.8694
  36   1.0000      -7.783936      -211.8117
  37   1.0000      -7.783804      -211.8081
  38   1.0000      -7.783390      -211.7968
  39   1.0000      -7.783332      -211.7952
  40   1.0000      -7.694369      -209.3744
  41   1.0000      -7.694251      -209.3712
  42   1.0000      -7.694068      -209.3662
  43   1.0000      -7.693858      -209.3605
  44   1.0000      -5.751677      -156.5111
  45   1.0000      -5.751598      -156.5089
  46   1.0000      -5.751088      -156.4951
  47   1.0000      -5.751050      -156.4940
  48   1.0000      -5.748870      -156.4347
  49   1.0000      -5.748742      -156.4312
  50   1.0000      -5.748342      -156.4203
  51   1.0000      -5.748279      -156.4186
  52   1.0000      -5.748252      -156.4179
  53   1.0000      -5.748175      -156.4158
  54   1.0000      -5.747728      -156.4036
  55   1.0000      -5.747681      -156.4023
  56   1.0000      -5.744452      -156.3145
  57   1.0000      -5.744314      -156.3107
  58   1.0000      -5.743918      -156.2999
  59   1.0000      -5.743853      -156.2982
  60   1.0000      -5.741479      -156.2336
  61   1.0000      -5.741404      -156.2316
  62   1.0000      -5.740884      -156.2174
  63   1.0000      -5.740818      -156.2156
  64   1.0000      -5.739781      -156.1874
  65   1.0000      -5.739636      -156.1834
  66   1.0000      -5.739198      -156.1715
  67   1.0000      -5.739142      -156.1700
  68   1.0000      -5.659681      -154.0078
  69   1.0000      -5.659571      -154.0048
  70   1.0000      -5.659415      -154.0005
  71   1.0000      -5.659181      -153.9942
  72   1.0000      -5.653274      -153.8334
  73   1.0000      -5.653149      -153.8300
  74   1.0000      -5.652985      -153.8255
  75   1.0000      -5.652767      -153.8196
  76   1.0000      -5.651659      -153.7895
  77   1.0000      -5.651553      -153.7866
  78   1.0000      -5.651317      -153.7802
  79   1.0000      -5.651157      -153.7758
  80   1.0000      -2.399103       -65.2829
  81   1.0000      -1.466001       -39.8919
  82   1.0000      -1.411247       -38.4020
  83   1.0000      -1.411086       -38.3976
  84   1.0000      -0.712975       -19.4010
  85   1.0000      -0.709517       -19.3069
  86   1.0000      -0.691132       -18.8067
  87   1.0000      -0.685463       -18.6524
  88   1.0000      -0.657996       -17.9050
  89   1.0000      -0.636567       -17.3219
  90   1.0000      -0.635396       -17.2900
  91   1.0000      -0.631217       -17.1763
  92   1.0000      -0.616995       -16.7893
  93   1.0000      -0.575478       -15.6596
  94   1.0000      -0.574663       -15.6374
  95   1.0000      -0.574467       -15.6320
  96   1.0000      -0.572847       -15.5880
  97   1.0000      -0.513485       -13.9726
  98   1.0000      -0.504454       -13.7269
  99   1.0000      -0.496069       -13.4987
 100   1.0000      -0.495729       -13.4895
 101   1.0000      -0.481660       -13.1066
 102   1.0000      -0.478086       -13.0094
 103   1.0000      -0.461094       -12.5470
 104   1.0000      -0.446250       -12.1431
 105   1.0000      -0.417090       -11.3496
 106   1.0000      -0.411657       -11.2018
 107   1.0000      -0.366764        -9.9802
 108   1.0000      -0.355247        -9.6668
 109   1.0000      -0.338666        -9.2156
 110   1.0000      -0.326138        -8.8747
 111   1.0000      -0.320232        -8.7139
 112   1.0000      -0.316016        -8.5992
 113   1.0000      -0.312235        -8.4963
 114   1.0000      -0.310686        -8.4542
 115   1.0000      -0.303729        -8.2649
 116   1.0000      -0.292053        -7.9472
 117   1.0000      -0.264956        -7.2098
 118   1.0000      -0.263338        -7.1658
 119   1.0000      -0.256722        -6.9858
 120   1.0000      -0.256434        -6.9779
 121   1.0000      -0.242386        -6.5956
 122   1.0000      -0.234745        -6.3877
 123   1.0000      -0.230236        -6.2651
 124   1.0000      -0.228171        -6.2089
 125   1.0000      -0.219744        -5.9795
 126   1.0000      -0.216474        -5.8906
 127   1.0000      -0.211900        -5.7661
 128   1.0000      -0.194073        -5.2810
 129   1.0000      -0.189776        -5.1641
 130   1.0000      -0.187125        -5.0919
 131   1.0000      -0.184718        -5.0264
 132   1.0000      -0.179671        -4.8891
 133   1.0000      -0.174596        -4.7510
 134   1.0000      -0.158935        -4.3248
 135   1.0000      -0.152337        -4.1453
 136   1.0000      -0.147249        -4.0068
 137   1.0000      -0.135882        -3.6975
 138   1.0000      -0.134068        -3.6482
 139   1.0000      -0.132882        -3.6159
 140   1.0000      -0.124712        -3.3936
 141   1.0000      -0.120807        -3.2873
 142   1.0000      -0.115360        -3.1391
 143   1.0000      -0.111464        -3.0331
 144   1.0000      -0.099795        -2.7156
 145   1.0000      -0.098502        -2.6804
 146   1.0000      -0.097341        -2.6488
 147   1.0000      -0.094918        -2.5829
 148   1.0000      -0.070701        -1.9239
 149   1.0000      -0.067552        -1.8382
 150   1.0000      -0.067129        -1.8267
 151   1.0000      -0.049793        -1.3549
 152   1.0000      -0.044687        -1.2160
 153   1.0000      -0.037557        -1.0220
 154   1.0000      -0.036558        -0.9948
 155   1.0000      -0.031367        -0.8535
 156   1.0000      -0.026029        -0.7083
 157   1.0000      -0.015710        -0.4275
 158   1.0000       0.020629         0.5613
 159   1.0000       0.040097         1.0911
 160   0.0000       0.125199         3.4068
 161   0.0000       0.137342         3.7373
 162   0.0000       0.154365         4.2005
 163   0.0000       0.156015         4.2454
 164   0.0000       0.162807         4.4302

MULLIKEN ATOMIC CHARGES AND SPIN POPULATIONS
--------------------------------------------
   0 V :    0.470982    1.210934
   1 S :   -0.291139   -0.022539
   2 S :   -0.289271   -0.025195
   3 S :   -0.289255   -0.023447
   4 S :   -0.285078   -0.025665
   5 O :   -0.467874   -0.146859
   6 C :   -0.078088    0.009652
   7 C :   -0.084838    0.008073
   8 C :   -0.083836    0.007762
   9 C :   -0.084687    0.007380
  10 S :    0.100255   -0.000590
  11 S :    0.101482   -0.000632
  12 S :    0.100054   -0.000392
  13 S :    0.099139   -0.000346
  14 C :   -0.221332    0.001508
  15 C :   -0.211604    0.000987
  16 C :   -0.171761   -0.000049
  17 C :   -0.191243   -0.000399
  18 S :    0.004381   -0.000113
  19 S :    0.004509   -0.000112
  20 S :    0.008378   -0.000068
  21 S :    0.008312   -0.000071
  22 C :   -0.300188   -0.000001
  23 C :   -0.300009   -0.000002
  24 C :   -0.157843   -0.000011
  25 H :    0.143217   -0.000001
  26 H :    0.113014   -0.000004
  27 H :    0.082534   -0.000001
  28 H :    0.093760   -0.000001
  29 H :    0.112680   -0.000005
  30 H :    0.142998   -0.000001
  31 C :   -0.316443    0.000200
  32 C :   -0.317226    0.000196
  33 C :   -0.192064   -0.000241
  34 H :    0.144369   -0.000017
  35 H :    0.165046    0.000013
  36 H :   -0.012847    0.000036
  37 H :    0.142565    0.000026
  38 H :    0.164656    0.000014
  39 H :    0.144294   -0.000018
Sum of atomic charges         :   -2.0000000

LOEWDIN ATOMIC CHARGES AND SPIN POPULATIONS
-------------------------------------------
   0 V :   -0.155939    1.164243
   1 S :    0.079964   -0.014535
   2 S :    0.079541   -0.016063
   3 S :    0.081278   -0.015305
   4 S :    0.083438   -0.016283
   5 O :   -0.319170   -0.131753
   6 C :   -0.549941    0.009033
   7 C :   -0.552141    0.007956
   8 C :   -0.552382    0.008129
   9 C :   -0.552389    0.007666
  10 S :    0.472007   -0.000907
  11 S :    0.472926   -0.000952
  12 S :    0.471347   -0.000824
  13 S :    0.470577   -0.000830
  14 C :   -0.465512    0.000176
  15 C :   -0.465130   -0.000082
  16 C :   -0.619794    0.000470
  17 C :   -0.622142    0.000084
  18 S :    0.364368   -0.000088
  19 S :    0.365734   -0.000085
  20 S :    0.358995   -0.000073
  21 S :    0.358564   -0.000075
  22 C :   -0.283587   -0.000007
  23 C :   -0.283739   -0.000009
  24 C :   -0.175820   -0.000002
  25 H :    0.062601   -0.000001
  26 H :    0.054059   -0.000002
  27 H :    0.058418   -0.000002
  28 H :    0.059168   -0.000001
  29 H :    0.054022   -0.000002
  30 H :    0.062448   -0.000002
  31 C :   -0.234471    0.000046
  32 C :   -0.234206    0.000040
  33 C :   -0.121930    0.000014
  34 H :    0.058590   -0.000000
  35 H :    0.001085    0.000005
  36 H :    0.040735    0.000015
  37 H :    0.018845    0.000004
  38 H :    0.001121    0.000005
  39 H :    0.058460   -0.000000

  Mayer bond orders larger than 0.100000
B(  0-V ,  1-S ) :   0.7722 B(  0-V ,  2-S ) :   0.7707 B(  0-V ,  3-S ) :   0.7655
B(  0-V ,  4-S ) :   0.7781 B(  0-V ,  5-O ) :   2.1485 B(  1-S ,  8-C ) :   1.1032
B(  2-S ,  6-C ) :   1.1052 B(  3-S ,  9-C ) :   1.1062 B(  4-S ,  7-C ) :   1.1054
B(  6-C ,  7-C ) :   1.6833 B(  6-C , 10-S ) :   0.9354 B(  7-C , 11-S ) :   0.9393
B(  8-C ,  9-C ) :   1.6985 B(  8-C , 13-S ) :   0.9335 B(  9-C , 12-S ) :   0.9356
B( 10-S , 14-C ) :   1.2498 B( 11-S , 14-C ) :   1.2496 B( 12-S , 15-C ) :   1.2464
B( 13-S , 15-C ) :   1.2465 B( 14-C , 16-C ) :   1.4572 B( 15-C , 17-C ) :   1.4536
B( 16-C , 18-S ) :   1.0822 B( 16-C , 19-S ) :   1.0836 B( 17-C , 20-S ) :   1.0883
B( 17-C , 21-S ) :   1.0892 B( 18-S , 32-C ) :   0.9799 B( 19-S , 31-C ) :   0.9800
B( 20-S , 23-C ) :   0.9916 B( 21-S , 22-C ) :   0.9906 B( 22-C , 24-C ) :   0.9132
B( 22-C , 25-H ) :   0.9658 B( 22-C , 26-H ) :   0.9654 B( 23-C , 24-C ) :   0.9133
B( 23-C , 29-H ) :   0.9654 B( 23-C , 30-H ) :   0.9656 B( 24-C , 27-H ) :   0.9623
B( 24-C , 28-H ) :   0.9724 B( 31-C , 33-C ) :   0.9242 B( 31-C , 38-H ) :   0.9740
B( 31-C , 39-H ) :   0.9655 B( 32-C , 33-C ) :   0.9239 B( 32-C , 34-H ) :   0.9654
B( 32-C , 35-H ) :   0.9740 B( 33-C , 36-H ) :   0.9246 B( 33-C , 37-H ) :   0.9645

FINAL SINGLE POINT ENERGY     -6337.548572264207

DIPOLE MOMENT
-------------
                                X             Y             Z
Electronic contribution:     10.36112       5.66487       8.15853
Nuclear contribution   :    -11.33923      -6.23003      -8.75325
                        -----------------------------------------
Total Dipole Moment    :     -0.97811      -0.56516      -0.59473
                        -----------------------------------------
Magnitude (a.u.)       :      1.27664
Magnitude (Debye)      :      3.24496

Rotational constants in cm-1:     0.010762     0.000804     0.000783
Rotational constants in MHz :   322.636171    24.115839    23.487632

                             ****ORCA TERMINATED NORMALLY****
TOTAL RUN TIME: 0 days 1 hours 2 minutes 31 seconds 492 msec
