                         Program Version 5.0.4 -  RELEASE  -
|  1> ! nofrozencore ReducedPop printbasis
|  2> ! B3LYP TZVP
|  3>
|  4> %basis
|  5> newgto V "CP(PPP)" end
|  6> end
|  7>
|  8> %pal
|  9> nprocs 8
| 10> end
| 11>
| 12> % sym SymThresh 1e-2 end
| 13> * xyz -2 2
| 14> V 0.74767442884604 -0.06357696594829858 -0.822019732307295
| 15> S 1.9877133158089526 1.2776650981803657 0.8459075160580708
| 16> S 1.1363747022973931 -1.9773959761280337 0.6994909326275591
| 17> S -0.5201706833895874 2.011507040612911 -1.288203069139605
| 18> S -1.391543483552555 -1.1707690753915712 -1.3555337917673558
| 19> O 1.7233523462214577 -0.3012025190934612 -2.0536210953113407
| 20> C -0.010874223909432082 -3.1108729363151832 0.02126557222647094
| 21> C -1.0246784464400556 -2.7873793564348297 -0.7985358460452172
| 22> C 1.4032408935081275 2.8965971354205085 0.4844367078352108
| 23> C 0.4008672071396858 3.1880980825301286 -0.364682177404857
| 24> S 0.10491843693514648 -4.84778751946732 0.5001546808987912
| 25> S -2.1267962715328945 -4.128856499951797 -1.2853521009157665
| 26> S -0.04271279210595755 4.921436617123725 -0.5154401636449204
| 27> S 2.155732435392452 4.285997721471308 1.3383794098183401
| 28> C -1.329712078065227 -5.437635280848555 -0.37711732197620546
| 29> C 1.1100911909008866 5.5465186578607275 0.6704978571017882
| 30> C -1.7454442122231741 -6.731499766842225 -0.3849084914530979
| 31> C 1.1897976904255965 6.864024948989904 1.0261554619418314
| 32> S -0.8814198652948582 -7.988079791666556 0.530757990128259
| 33> S -3.2149916439729975 -7.220106300673871 -1.2602332064797688
| 34> S 2.3697072064194633 7.444658579783159 2.228307162713811
| 35> S 0.09757727309236348 8.091669483415094 0.33575895534408196
| 36> C -0.7543091649176897 8.593030895046697 1.9063725855110663
| 37> C 1.1666966333395123 8.05208323414357 3.5041598061029218
| 38> C 0.19151897504612486 9.096469221779346 2.984873916110256
| 39> H -1.342093723948918 7.743836094565328 2.261992065061712
| 40> H -1.443960870821708 9.38990766486437 1.616885936814397
| 41> H -0.41242062191064405 9.45190259036374 3.831770304444416
| 42> H 0.7512287873661886 9.955707996928037 2.6020027385026796
| 43> H 1.7837735067157134 8.483671684969394 4.2961734902542865
| 44> H 0.6379028596205025 7.18869857521908 3.913955068837679
| 45> C -2.2836701489371323 -8.464389514714 -2.392027997877984
| 46> C -0.5075425326015919 -9.043672907039802 -1.0329546177318856
| 47> C -1.584076505541236 -9.459568358497993 -1.7658918151766414
| 48> H 0.31514481403769623 -8.591426736917903 -1.6151957231166587
| 49> H -0.1532862771154452 -9.995204313404344 -0.5827918116174169
| 50> H -2.2681220834166305 -10.003546816610816 -1.1044233088754607
| 51> H -1.2374157327859094 -10.180109139462905 -2.5255703944100922
| 52> H -3.126320999416273 -9.028690164932568 -2.8465878918531176
| 53> H -1.7373127847401 -7.926839963589182 -3.1882531044145566
| 54> *
| 55>
| 56> % eprnmr
| 57> gtensor true
| 58> Nuclei = all H {aiso,adip,aorb,fgrad,rho}
| 59> Nuclei = all V {aiso,adip,aorb,fgrad,rho}
| 60> end
| 61>
| 62>                          ****END OF INPUT****

CARTESIAN COORDINATES (ANGSTROEM)
---------------------------------
  V      0.745234   -0.065563   -0.819829
  S      1.985273    1.275679    0.848098
  S      1.133935   -1.979382    0.701681
  S     -0.522611    2.009521   -1.286013
  S     -1.393984   -1.172755   -1.353344
  O      1.720912   -0.303189   -2.051431
  C     -0.013314   -3.112859    0.023456
  C     -1.027119   -2.789366   -0.796346
  C      1.400801    2.894611    0.486627
  C      0.398427    3.186112   -0.362492
  S      0.102478   -4.849774    0.502345
  S     -2.129236   -4.130843   -1.283162
  S     -0.045153    4.919450   -0.513250
  S      2.153292    4.284011    1.340570
  C     -1.332152   -5.439622   -0.374927
  C      1.107651    5.544532    0.672688
  C     -1.747884   -6.733486   -0.382718
  C      1.187358    6.862039    1.028346
  S     -0.883860   -7.990066    0.532948
  S     -3.217432   -7.222093   -1.258043
  S      2.367267    7.442672    2.230497
  S      0.095137    8.089683    0.337949
  C     -0.756749    8.591045    1.908563
  C      1.164257    8.050097    3.506350
  C      0.189079    9.094483    2.987064
  H     -1.344534    7.741850    2.264182
  H     -1.446401    9.387921    1.619076
  H     -0.414861    9.449916    3.833961
  H      0.748789    9.953722    2.604193
  H      1.781333    8.481685    4.298364
  H      0.635463    7.186712    3.916145
  C     -2.286110   -8.466376   -2.389838
  C     -0.509983   -9.045659   -1.030764
  C     -1.586517   -9.461555   -1.763702
  H      0.312705   -8.593413   -1.613005
  H     -0.155726   -9.997191   -0.580602
  H     -2.270562  -10.005533   -1.102233
  H     -1.239856  -10.182095   -2.523380
  H     -3.128761   -9.030677   -2.844398
  H     -1.739753   -7.928826   -3.186063

 Total Charge           Charge          ....   -2
 Multiplicity           Mult            ....    2
 Number of Electrons    NEL             ....  321
 Basis Dimension        Dim             ....  681

ORBITAL ENERGIES
----------------
                 SPIN UP ORBITALS
  NO   OCC          E(Eh)            E(eV)
   0   1.0000    -196.673768     -5351.7653
   1   1.0000     -88.737745     -2414.6768
   2   1.0000     -88.737660     -2414.6745
   3   1.0000     -88.733008     -2414.5479
   4   1.0000     -88.732884     -2414.5445
   5   1.0000     -88.729259     -2414.4459
   6   1.0000     -88.729200     -2414.4443
   7   1.0000     -88.726834     -2414.3799
   8   1.0000     -88.726666     -2414.3753
   9   1.0000     -88.638829     -2411.9852
  10   1.0000     -88.638394     -2411.9733
  11   1.0000     -88.638116     -2411.9658
  12   1.0000     -88.637834     -2411.9581
  13   1.0000     -22.049157      -599.9881
  14   1.0000     -18.888993      -513.9956
  15   1.0000     -18.555604      -504.9236
  16   1.0000     -18.550431      -504.7829
  17   1.0000     -18.550333      -504.7802
  18   1.0000     -10.075056      -274.1562
  19   1.0000     -10.072696      -274.0920
  20   1.0000     -10.062208      -273.8066
  21   1.0000     -10.062176      -273.8057
  22   1.0000     -10.056064      -273.6394
  23   1.0000     -10.055933      -273.6358
  24   1.0000     -10.049630      -273.4643
  25   1.0000     -10.047919      -273.4178
  26   1.0000     -10.047789      -273.4142
  27   1.0000     -10.033018      -273.0123
  28   1.0000     -10.017000      -272.5764
  29   1.0000     -10.016207      -272.5548
  30   1.0000     -10.015859      -272.5454
  31   1.0000     -10.014895      -272.5191
  32   1.0000      -7.790261      -211.9838
  33   1.0000      -7.790172      -211.9814
  34   1.0000      -7.786397      -211.8786
  35   1.0000      -7.786289      -211.8757
  36   1.0000      -7.782530      -211.7734
  37   1.0000      -7.782494      -211.7724
  38   1.0000      -7.779801      -211.6992
  39   1.0000      -7.779677      -211.6958
  40   1.0000      -7.693104      -209.3400
  41   1.0000      -7.692714      -209.3294
  42   1.0000      -7.692603      -209.3264
  43   1.0000      -7.692316      -209.3186
  44   1.0000      -5.755142      -156.6054
  45   1.0000      -5.755057      -156.6031
  46   1.0000      -5.752156      -156.5241
  47   1.0000      -5.752074      -156.5219
  48   1.0000      -5.751383      -156.5031
  49   1.0000      -5.751275      -156.5001
  50   1.0000      -5.747988      -156.4107
  51   1.0000      -5.747878      -156.4077
  52   1.0000      -5.747487      -156.3971
  53   1.0000      -5.747441      -156.3958
  54   1.0000      -5.745030      -156.3302
  55   1.0000      -5.744936      -156.3276
  56   1.0000      -5.744807      -156.3241
  57   1.0000      -5.744678      -156.3206
  58   1.0000      -5.743044      -156.2762
  59   1.0000      -5.743013      -156.2753
  60   1.0000      -5.741195      -156.2259
  61   1.0000      -5.741083      -156.2228
  62   1.0000      -5.740371      -156.2034
  63   1.0000      -5.740239      -156.1999
  64   1.0000      -5.738337      -156.1481
  65   1.0000      -5.738308      -156.1473
  66   1.0000      -5.735571      -156.0728
  67   1.0000      -5.735447      -156.0695
  68   1.0000      -5.658424      -153.9735
  69   1.0000      -5.658029      -153.9628
  70   1.0000      -5.657846      -153.9578
  71   1.0000      -5.657575      -153.9505
  72   1.0000      -5.651763      -153.7923
  73   1.0000      -5.651390      -153.7821
  74   1.0000      -5.651265      -153.7788
  75   1.0000      -5.650988      -153.7712
  76   1.0000      -5.650429      -153.7560
  77   1.0000      -5.650029      -153.7451
  78   1.0000      -5.649952      -153.7430
  79   1.0000      -5.649626      -153.7341
  80   1.0000      -2.442807       -66.4722
  81   1.0000      -1.484077       -40.3838
  82   1.0000      -1.472438       -40.0671
  83   1.0000      -1.471653       -40.0457
  84   1.0000      -0.733731       -19.9658
  85   1.0000      -0.709355       -19.3025
  86   1.0000      -0.693886       -18.8816
  87   1.0000      -0.685808       -18.6618
  88   1.0000      -0.648657       -17.6509
  89   1.0000      -0.642856       -17.4930
  90   1.0000      -0.631646       -17.1880
  91   1.0000      -0.616336       -16.7713
  92   1.0000      -0.613763       -16.7013
  93   1.0000      -0.574566       -15.6347
  94   1.0000      -0.573645       -15.6097
  95   1.0000      -0.572302       -15.5731
  96   1.0000      -0.569639       -15.5007
  97   1.0000      -0.511590       -13.9211
  98   1.0000      -0.496086       -13.4992
  99   1.0000      -0.495292       -13.4776
 100   1.0000      -0.491295       -13.3688
 101   1.0000      -0.480327       -13.0704
 102   1.0000      -0.477030       -12.9807
 103   1.0000      -0.445171       -12.1137
 104   1.0000      -0.435504       -11.8507
 105   1.0000      -0.416144       -11.3239
 106   1.0000      -0.410900       -11.1812
 107   1.0000      -0.368535       -10.0283
 108   1.0000      -0.355406        -9.6711
 109   1.0000      -0.350746        -9.5443
 110   1.0000      -0.326930        -8.8962
 111   1.0000      -0.317137        -8.6297
 112   1.0000      -0.311994        -8.4898
 113   1.0000      -0.309234        -8.4147
 114   1.0000      -0.308159        -8.3854
 115   1.0000      -0.303868        -8.2687
 116   1.0000      -0.292690        -7.9645
 117   1.0000      -0.257533        -7.0078
 118   1.0000      -0.256495        -6.9796
 119   1.0000      -0.255032        -6.9398
 120   1.0000      -0.253248        -6.8912
 121   1.0000      -0.235108        -6.3976
 122   1.0000      -0.234206        -6.3731
 123   1.0000      -0.228807        -6.2261
 124   1.0000      -0.218980        -5.9588
 125   1.0000      -0.214528        -5.8376
 126   1.0000      -0.211109        -5.7446
 127   1.0000      -0.208836        -5.6827
 128   1.0000      -0.206740        -5.6257
 129   1.0000      -0.192275        -5.2321
 130   1.0000      -0.186543        -5.0761
 131   1.0000      -0.186212        -5.0671
 132   1.0000      -0.181494        -4.9387
 133   1.0000      -0.180715        -4.9175
 134   1.0000      -0.158747        -4.3197
 135   1.0000      -0.152876        -4.1600
 136   1.0000      -0.146637        -3.9902
 137   1.0000      -0.133840        -3.6420
 138   1.0000      -0.132940        -3.6175
 139   1.0000      -0.130547        -3.5524
 140   1.0000      -0.124004        -3.3743
 141   1.0000      -0.119028        -3.2389
 142   1.0000      -0.112164        -3.0521
 143   1.0000      -0.109284        -2.9738
 144   1.0000      -0.099028        -2.6947
 145   1.0000      -0.098159        -2.6710
 146   1.0000      -0.095266        -2.5923
 147   1.0000      -0.095205        -2.5907
 148   1.0000      -0.073219        -1.9924
 149   1.0000      -0.072485        -1.9724
 150   1.0000      -0.067174        -1.8279
 151   1.0000      -0.051165        -1.3923
 152   1.0000      -0.044341        -1.2066
 153   1.0000      -0.036172        -0.9843
 154   1.0000      -0.035998        -0.9796
 155   1.0000      -0.029757        -0.8097
 156   1.0000      -0.023856        -0.6491
 157   1.0000      -0.017992        -0.4896
 158   1.0000      -0.014387        -0.3915
 159   1.0000       0.022054         0.6001
 160   1.0000       0.042907         1.1676
 161   0.0000       0.133205         3.6247
 162   0.0000       0.137797         3.7496
 163   0.0000       0.148865         4.0508
 164   0.0000       0.157502         4.2859
 165   0.0000       0.162301         4.4164

                 SPIN DOWN ORBITALS
  NO   OCC          E(Eh)            E(eV)
   0   1.0000    -196.673915     -5351.7693
   1   1.0000     -88.737746     -2414.6768
   2   1.0000     -88.737661     -2414.6745
   3   1.0000     -88.733008     -2414.5479
   4   1.0000     -88.732885     -2414.5445
   5   1.0000     -88.729267     -2414.4461
   6   1.0000     -88.729208     -2414.4445
   7   1.0000     -88.726842     -2414.3801
   8   1.0000     -88.726675     -2414.3756
   9   1.0000     -88.638966     -2411.9889
  10   1.0000     -88.638533     -2411.9771
  11   1.0000     -88.638255     -2411.9695
  12   1.0000     -88.637975     -2411.9619
  13   1.0000     -22.034216      -599.5815
  14   1.0000     -18.892786      -514.0988
  15   1.0000     -18.550330      -504.7801
  16   1.0000     -18.534387      -504.3463
  17   1.0000     -18.534210      -504.3415
  18   1.0000     -10.075055      -274.1562
  19   1.0000     -10.072693      -274.0919
  20   1.0000     -10.062209      -273.8066
  21   1.0000     -10.062176      -273.8057
  22   1.0000     -10.056063      -273.6394
  23   1.0000     -10.055932      -273.6358
  24   1.0000     -10.049630      -273.4643
  25   1.0000     -10.047908      -273.4175
  26   1.0000     -10.047785      -273.4141
  27   1.0000     -10.033018      -273.0123
  28   1.0000     -10.016787      -272.5706
  29   1.0000     -10.015995      -272.5491
  30   1.0000     -10.015623      -272.5390
  31   1.0000     -10.014674      -272.5131
  32   1.0000      -7.790261      -211.9838
  33   1.0000      -7.790173      -211.9814
  34   1.0000      -7.786397      -211.8786
  35   1.0000      -7.786290      -211.8757
  36   1.0000      -7.782539      -211.7737
  37   1.0000      -7.782503      -211.7727
  38   1.0000      -7.779811      -211.6994
  39   1.0000      -7.779687      -211.6960
  40   1.0000      -7.693232      -209.3435
  41   1.0000      -7.692843      -209.3329
  42   1.0000      -7.692733      -209.3299
  43   1.0000      -7.692447      -209.3221
  44   1.0000      -5.755143      -156.6054
  45   1.0000      -5.755058      -156.6031
  46   1.0000      -5.752157      -156.5242
  47   1.0000      -5.752075      -156.5219
  48   1.0000      -5.751384      -156.5031
  49   1.0000      -5.751276      -156.5002
  50   1.0000      -5.747988      -156.4107
  51   1.0000      -5.747879      -156.4077
  52   1.0000      -5.747497      -156.3974
  53   1.0000      -5.747452      -156.3961
  54   1.0000      -5.745031      -156.3302
  55   1.0000      -5.744937      -156.3277
  56   1.0000      -5.744817      -156.3244
  57   1.0000      -5.744689      -156.3209
  58   1.0000      -5.743058      -156.2765
  59   1.0000      -5.743027      -156.2757
  60   1.0000      -5.741195      -156.2259
  61   1.0000      -5.741083      -156.2228
  62   1.0000      -5.740385      -156.2038
  63   1.0000      -5.740254      -156.2002
  64   1.0000      -5.738343      -156.1483
  65   1.0000      -5.738315      -156.1475
  66   1.0000      -5.735578      -156.0730
  67   1.0000      -5.735456      -156.0697
  68   1.0000      -5.658566      -153.9774
  69   1.0000      -5.658170      -153.9666
  70   1.0000      -5.657983      -153.9615
  71   1.0000      -5.657716      -153.9543
  72   1.0000      -5.652113      -153.8018
  73   1.0000      -5.651750      -153.7919
  74   1.0000      -5.651652      -153.7893
  75   1.0000      -5.651369      -153.7816
  76   1.0000      -5.650534      -153.7589
  77   1.0000      -5.650135      -153.7480
  78   1.0000      -5.650038      -153.7454
  79   1.0000      -5.649719      -153.7367
  80   1.0000      -2.397894       -65.2500
  81   1.0000      -1.464757       -39.8581
  82   1.0000      -1.410041       -38.3692
  83   1.0000      -1.409892       -38.3651
  84   1.0000      -0.733730       -19.9658
  85   1.0000      -0.709341       -19.3022
  86   1.0000      -0.693830       -18.8801
  87   1.0000      -0.685765       -18.6606
  88   1.0000      -0.656756       -17.8712
  89   1.0000      -0.642812       -17.4918
  90   1.0000      -0.631589       -17.1864
  91   1.0000      -0.616338       -16.7714
  92   1.0000      -0.613763       -16.7013
  93   1.0000      -0.574481       -15.6324
  94   1.0000      -0.573622       -15.6091
  95   1.0000      -0.572236       -15.5713
  96   1.0000      -0.569613       -15.5000
  97   1.0000      -0.511599       -13.9213
  98   1.0000      -0.496126       -13.5003
  99   1.0000      -0.495314       -13.4782
 100   1.0000      -0.491326       -13.3697
 101   1.0000      -0.480553       -13.0765
 102   1.0000      -0.477289       -12.9877
 103   1.0000      -0.445204       -12.1146
 104   1.0000      -0.435529       -11.8514
 105   1.0000      -0.416145       -11.3239
 106   1.0000      -0.411011       -11.1842
 107   1.0000      -0.368530       -10.0282
 108   1.0000      -0.355402        -9.6710
 109   1.0000      -0.350743        -9.5442
 110   1.0000      -0.326921        -8.8960
 111   1.0000      -0.317068        -8.6279
 112   1.0000      -0.312009        -8.4902
 113   1.0000      -0.309233        -8.4147
 114   1.0000      -0.308102        -8.3839
 115   1.0000      -0.303833        -8.2677
 116   1.0000      -0.292686        -7.9644
 117   1.0000      -0.257446        -7.0055
 118   1.0000      -0.256351        -6.9757
 119   1.0000      -0.254986        -6.9385
 120   1.0000      -0.253199        -6.8899
 121   1.0000      -0.235095        -6.3972
 122   1.0000      -0.234176        -6.3722
 123   1.0000      -0.228766        -6.2250
 124   1.0000      -0.218695        -5.9510
 125   1.0000      -0.214126        -5.8267
 126   1.0000      -0.210991        -5.7414
 127   1.0000      -0.208770        -5.6809
 128   1.0000      -0.206693        -5.6244
 129   1.0000      -0.190503        -5.1839
 130   1.0000      -0.186468        -5.0741
 131   1.0000      -0.186066        -5.0631
 132   1.0000      -0.181225        -4.9314
 133   1.0000      -0.180590        -4.9141
 134   1.0000      -0.158126        -4.3028
 135   1.0000      -0.152673        -4.1544
 136   1.0000      -0.146540        -3.9876
 137   1.0000      -0.133175        -3.6239
 138   1.0000      -0.132643        -3.6094
 139   1.0000      -0.130333        -3.5465
 140   1.0000      -0.123426        -3.3586
 141   1.0000      -0.118727        -3.2307
 142   1.0000      -0.113988        -3.1018
 143   1.0000      -0.110695        -3.0122
 144   1.0000      -0.099219        -2.6999
 145   1.0000      -0.098245        -2.6734
 146   1.0000      -0.095548        -2.6000
 147   1.0000      -0.095440        -2.5971
 148   1.0000      -0.072492        -1.9726
 149   1.0000      -0.069365        -1.8875
 150   1.0000      -0.067166        -1.8277
 151   1.0000      -0.048568        -1.3216
 152   1.0000      -0.043401        -1.1810
 153   1.0000      -0.036194        -0.9849
 154   1.0000      -0.035445        -0.9645
 155   1.0000      -0.029825        -0.8116
 156   1.0000      -0.024888        -0.6772
 157   1.0000      -0.014593        -0.3971
 158   1.0000       0.022364         0.6086
 159   1.0000       0.041791         1.1372
 160   0.0000       0.133226         3.6253
 161   0.0000       0.137786         3.7493
 162   0.0000       0.148750         4.0477
 163   0.0000       0.157446         4.2843
 164   0.0000       0.157691         4.2910

MULLIKEN ATOMIC CHARGES AND SPIN POPULATIONS
--------------------------------------------
   0 V :    0.469074    1.211122
   1 S :   -0.291207   -0.022442
   2 S :   -0.288519   -0.025058
   3 S :   -0.289197   -0.023348
   4 S :   -0.284457   -0.025546
   5 O :   -0.468057   -0.146915
   6 C :   -0.074262    0.009474
   7 C :   -0.081626    0.007862
   8 C :   -0.084153    0.007750
   9 C :   -0.084913    0.007367
  10 S :    0.084564   -0.000595
  11 S :    0.086273   -0.000638
  12 S :    0.099388   -0.000392
  13 S :    0.098488   -0.000347
  14 C :   -0.226371    0.001604
  15 C :   -0.213463    0.000997
  16 C :   -0.163911   -0.000231
  17 C :   -0.188423   -0.000411
  18 S :    0.009133   -0.000125
  19 S :    0.009393   -0.000127
  20 S :    0.007960   -0.000069
  21 S :    0.008013   -0.000072
  22 C :   -0.299690    0.000000
  23 C :   -0.298485   -0.000001
  24 C :   -0.157043   -0.000013
  25 H :    0.143126   -0.000001
  26 H :    0.112461   -0.000004
  27 H :    0.083578   -0.000001
  28 H :    0.091671   -0.000001
  29 H :    0.111991   -0.000005
  30 H :    0.142645   -0.000001
  31 C :   -0.270444    0.000199
  32 C :   -0.271878    0.000192
  33 C :   -0.158598   -0.000264
  34 H :    0.137554   -0.000012
  35 H :    0.090872    0.000013
  36 H :    0.089778    0.000035
  37 H :    0.090751    0.000002
  38 H :    0.090348    0.000013
  39 H :    0.137638   -0.000012
Sum of atomic charges         :   -2.0000000

LOEWDIN ATOMIC CHARGES AND SPIN POPULATIONS
-------------------------------------------
   0 V :   -0.155468    1.164465
   1 S :    0.079618   -0.014464
   2 S :    0.083033   -0.015956
   3 S :    0.081014   -0.015235
   4 S :    0.086600   -0.016198
   5 O :   -0.319440   -0.131801
   6 C :   -0.550585    0.008870
   7 C :   -0.552783    0.007795
   8 C :   -0.552599    0.008125
   9 C :   -0.552591    0.007655
  10 S :    0.454523   -0.000918
  11 S :    0.455714   -0.000966
  12 S :    0.470741   -0.000823
  13 S :    0.469981   -0.000828
  14 C :   -0.464312    0.000091
  15 C :   -0.465082   -0.000083
  16 C :   -0.619687    0.000465
  17 C :   -0.622039    0.000083
  18 S :    0.347241   -0.000104
  19 S :    0.348758   -0.000102
  20 S :    0.358208   -0.000073
  21 S :    0.357769   -0.000075
  22 C :   -0.281853   -0.000008
  23 C :   -0.281965   -0.000009
  24 C :   -0.177152   -0.000002
  25 H :    0.062705   -0.000001
  26 H :    0.053354   -0.000002
  27 H :    0.058570   -0.000002
  28 H :    0.060431   -0.000001
  29 H :    0.053283   -0.000002
  30 H :    0.062540   -0.000002
  31 C :   -0.260106    0.000043
  32 C :   -0.259749    0.000035
  33 C :   -0.204947    0.000008
  34 H :    0.066953    0.000000
  35 H :    0.054104    0.000007
  36 H :    0.064828    0.000006
  37 H :    0.069258    0.000001
  38 H :    0.054235    0.000007
  39 H :    0.066897    0.000000

  Mayer bond orders larger than 0.100000
B(  0-V ,  1-S ) :   0.7714 B(  0-V ,  2-S ) :   0.7719 B(  0-V ,  3-S ) :   0.7649
B(  0-V ,  4-S ) :   0.7793 B(  0-V ,  5-O ) :   2.1483 B(  1-S ,  8-C ) :   1.1029
B(  2-S ,  6-C ) :   1.1105 B(  3-S ,  9-C ) :   1.1059 B(  4-S ,  7-C ) :   1.1105
B(  6-C ,  7-C ) :   1.6880 B(  6-C , 10-S ) :   0.9261 B(  7-C , 11-S ) :   0.9309
B(  8-C ,  9-C ) :   1.6992 B(  8-C , 13-S ) :   0.9338 B(  9-C , 12-S ) :   0.9358
B( 10-S , 14-C ) :   1.2363 B( 11-S , 14-C ) :   1.2361 B( 12-S , 15-C ) :   1.2460
B( 13-S , 15-C ) :   1.2462 B( 14-C , 16-C ) :   1.4689 B( 15-C , 17-C ) :   1.4542
B( 16-C , 18-S ) :   1.0808 B( 16-C , 19-S ) :   1.0817 B( 17-C , 20-S ) :   1.0876
B( 17-C , 21-S ) :   1.0882 B( 18-S , 32-C ) :   0.9969 B( 19-S , 31-C ) :   0.9973
B( 20-S , 23-C ) :   0.9917 B( 21-S , 22-C ) :   0.9911 B( 22-C , 24-C ) :   0.9142
B( 22-C , 25-H ) :   0.9652 B( 22-C , 26-H ) :   0.9667 B( 23-C , 24-C ) :   0.9147
B( 23-C , 29-H ) :   0.9668 B( 23-C , 30-H ) :   0.9651 B( 24-C , 27-H ) :   0.9621
B( 24-C , 28-H ) :   0.9720 B( 31-C , 33-C ) :   0.9206 B( 31-C , 38-H ) :   0.9840
B( 31-C , 39-H ) :   0.9555 B( 32-C , 33-C ) :   0.9198 B( 32-C , 34-H ) :   0.9556
B( 32-C , 35-H ) :   0.9836 B( 33-C , 36-H ) :   0.9820 B( 33-C , 37-H ) :   0.9485

FINAL SINGLE POINT ENERGY     -6337.657528885436

DIPOLE MOMENT
-------------
                                X             Y             Z
Electronic contribution:      9.97322       2.63383      -8.96907
Nuclear contribution   :    -11.16127      -3.03825      10.00988
                        -----------------------------------------
Total Dipole Moment    :     -1.18804      -0.40442       1.04082
                        -----------------------------------------
Magnitude (a.u.)       :      1.63043
Magnitude (Debye)      :      4.14422

Rotational constants in cm-1:     0.010804     0.000804     0.000784
Rotational constants in MHz :   323.883874    24.114837    23.497924

                             ****ORCA TERMINATED NORMALLY****
TOTAL RUN TIME: 0 days 1 hours 2 minutes 15 seconds 279 msec
