                         Program Version 5.0.4 -  RELEASE  -
|  1> ! nofrozencore ReducedPop printbasis
|  2> ! B3LYP TZVP
|  3>
|  4> %basis
|  5> newgto V "CP(PPP)" end
|  6> end
|  7>
|  8> %pal
|  9> nprocs 8
| 10> end
| 11>
| 12> % sym SymThresh 1e-2 end
| 13> * xyz -2 2
| 14> V 0.5909527805153095 0.7662421226090557 -0.5514212899651169
| 15> S -0.25616627133435477 -0.6020068508868395 -2.4126445654540505
| 16> S -1.7428024020971717 1.553007663577253 -0.45137240979445115
| 17> S 2.2066124136203897 -1.02412781742681 -0.05149287968247808
| 18> S 0.6903733273253579 1.026370463689101 1.8887703809927066
| 19> O 1.411666172990759 1.9635752842084646 -1.1907453820864786
| 20> C -1.789807258051841 2.506633610692477 1.3125624116485841
| 21> C -0.8118884570909644 2.286000117963052 2.247014981673546
| 22> C 1.0765982950498032 -2.1212590424751663 -2.568741349565424
| 23> C 2.0552648744505246 -2.2853252910928394 -1.6197872636884438
| 24> S -2.975096975364974 3.4465253367434974 1.6371494361683385
| 25> S -0.9140189774842106 2.9751904283893427 3.6312830954147812
| 26> S 3.0238096419280827 -3.4613992464289143 -1.723691496566629
| 27> S 0.9537875908174241 -3.1002571935326833 -3.726073489090164
| 28> C -2.420436752981889 3.7930235737971825 3.2652914696281456
| 29> C 2.26703403278527 -4.116085302940388 -3.1615784551589865
| 30> C -3.0785950242893434 4.605825065117946 4.143015557388261
| 31> C 2.6608872156978696 -5.269207107280489 -3.775525186163431
| 32> S -4.601818008643428 5.478911153776183 3.718514495034
| 33> S -2.4752594077856322 4.928340506277654 5.812942301751811
| 34> S 1.8557130310372965 -5.916139075760799 -5.258420542146237
| 35> S 4.008246285059676 -6.30018945812466 -3.15105855890036
| 36> C 3.019439030507095 -7.825790703120478 -2.7737072809491745
| 37> C 1.218893085261653 -7.507133274807073 -4.54384240293023
| 38> C 2.2958367913383575 -8.400551829118408 -3.970693911339248
| 39> H 2.3257856901096963 -7.599039090245486 -1.9610465760476026
| 40> H 3.750232691435606 -8.552104487350114 -2.408147425157087
| 41> H 1.823123973372391 -9.343192268737104 -3.660017527159271
| 42> H 3.022279680700645 -8.644394137489233 -4.752343496232863
| 43> H 0.7317462743342303 -8.015913494913919 -5.379838069758875
| 44> H 0.4587520362058331 -7.27304311416753 -3.7953534793975763
| 45> C -2.189024095410094 6.754295381941123 5.655506413165123
| 46> C -3.9707328269728572 7.215550825849277 3.8894196061561637
| 47> C -3.4253536446628523 7.539451966565929 5.266386123360312
| 48> H -3.220126801768557 7.391274897325386 3.115633582441686
| 49> H -4.834322371275113 7.852392708369978 3.6801126471454584
| 50> H -4.209128555680809 7.3825811447521135 6.014264111660041
| 51> H -3.166741687257582 8.607758939749102 5.284486235879927
| 52> H -1.8451593113568556 7.074530721369243 6.6425096410815145
| 53> H -1.3788551255384967 6.916971657871785 4.941258779141371
| 54> *
| 55>
| 56> % eprnmr
| 57> gtensor true
| 58> Nuclei = all H {aiso,adip,aorb,fgrad,rho}
| 59> Nuclei = all V {aiso,adip,aorb,fgrad,rho}
| 60> end
| 61>
| 62>                          ****END OF INPUT****

CARTESIAN COORDINATES (ANGSTROEM)
---------------------------------
  V      0.588276    0.765670   -0.548737
  S     -0.258843   -0.602579   -2.409960
  S     -1.745479    1.552436   -0.448688
  S      2.203935   -1.024700   -0.048809
  S      0.687696    1.025799    1.891455
  O      1.408989    1.963003   -1.188061
  C     -1.792484    2.506062    1.315247
  C     -0.814565    2.285428    2.249699
  C      1.073921   -2.121831   -2.566057
  C      2.052588   -2.285897   -1.617103
  S     -2.977774    3.445953    1.639834
  S     -0.916696    2.974619    3.633967
  S      3.021133   -3.461971   -1.721007
  S      0.951111   -3.100829   -3.723389
  C     -2.423114    3.792452    3.267976
  C      2.264357   -4.116657   -3.158894
  C     -3.081272    4.605253    4.145700
  C      2.658210   -5.269779   -3.772841
  S     -4.604495    5.478339    3.721199
  S     -2.477936    4.927769    5.815626
  S      1.853036   -5.916711   -5.255736
  S      4.005569   -6.300761   -3.148374
  C      3.016762   -7.826363   -2.771023
  C      1.216216   -7.507705   -4.541158
  C      2.293160   -8.401124   -3.968010
  H      2.323109   -7.599611   -1.958362
  H      3.747556   -8.552676   -2.405463
  H      1.820447   -9.343764   -3.657333
  H      3.019603   -8.644966   -4.749659
  H      0.729069   -8.016485   -5.377154
  H      0.456075   -7.273615   -3.792669
  C     -2.191701    6.753724    5.658191
  C     -3.973410    7.214979    3.892104
  C     -3.428031    7.538880    5.269070
  H     -3.222804    7.390703    3.118318
  H     -4.836999    7.851821    3.682797
  H     -4.211805    7.382009    6.016948
  H     -3.169419    8.607187    5.287170
  H     -1.847836    7.073959    6.645194
  H     -1.381532    6.916400    4.943943

 Total Charge           Charge          ....   -2
 Multiplicity           Mult            ....    2
 Number of Electrons    NEL             ....  321
 Basis Dimension        Dim             ....  681

ORBITAL ENERGIES
----------------
                 SPIN UP ORBITALS
  NO   OCC          E(Eh)            E(eV)
   0   1.0000    -196.670686     -5351.6814
   1   1.0000     -88.735394     -2414.6128
   2   1.0000     -88.735318     -2414.6107
   3   1.0000     -88.735250     -2414.6089
   4   1.0000     -88.734726     -2414.5946
   5   1.0000     -88.733260     -2414.5548
   6   1.0000     -88.733122     -2414.5510
   7   1.0000     -88.733085     -2414.5500
   8   1.0000     -88.733034     -2414.5486
   9   1.0000     -88.641475     -2412.0572
  10   1.0000     -88.641195     -2412.0495
  11   1.0000     -88.640860     -2412.0404
  12   1.0000     -88.640232     -2412.0233
  13   1.0000     -22.046591      -599.9182
  14   1.0000     -18.883949      -513.8584
  15   1.0000     -18.553071      -504.8547
  16   1.0000     -18.547883      -504.7135
  17   1.0000     -18.547856      -504.7128
  18   1.0000     -10.069145      -273.9954
  19   1.0000     -10.068516      -273.9783
  20   1.0000     -10.061646      -273.7913
  21   1.0000     -10.061538      -273.7884
  22   1.0000     -10.061098      -273.7764
  23   1.0000     -10.061039      -273.7748
  24   1.0000     -10.048580      -273.4358
  25   1.0000     -10.047925      -273.4179
  26   1.0000     -10.045251      -273.3452
  27   1.0000     -10.045012      -273.3387
  28   1.0000     -10.012671      -272.4586
  29   1.0000     -10.012301      -272.4486
  30   1.0000     -10.011997      -272.4403
  31   1.0000     -10.011572      -272.4287
  32   1.0000      -7.795690      -212.1315
  33   1.0000      -7.795343      -212.1221
  34   1.0000      -7.794539      -212.1002
  35   1.0000      -7.793948      -212.0841
  36   1.0000      -7.786055      -211.8693
  37   1.0000      -7.785982      -211.8674
  38   1.0000      -7.785916      -211.8655
  39   1.0000      -7.785906      -211.8653
  40   1.0000      -7.692005      -209.3101
  41   1.0000      -7.691855      -209.3060
  42   1.0000      -7.691675      -209.3011
  43   1.0000      -7.690890      -209.2798
  44   1.0000      -5.759984      -156.7371
  45   1.0000      -5.759653      -156.7281
  46   1.0000      -5.758947      -156.7089
  47   1.0000      -5.758348      -156.6926
  48   1.0000      -5.755007      -156.6017
  49   1.0000      -5.754668      -156.5925
  50   1.0000      -5.753967      -156.5734
  51   1.0000      -5.753378      -156.5574
  52   1.0000      -5.751874      -156.5165
  53   1.0000      -5.751550      -156.5076
  54   1.0000      -5.751063      -156.4944
  55   1.0000      -5.750989      -156.4924
  56   1.0000      -5.750919      -156.4905
  57   1.0000      -5.750907      -156.4901
  58   1.0000      -5.750745      -156.4857
  59   1.0000      -5.750162      -156.4699
  60   1.0000      -5.747705      -156.4030
  61   1.0000      -5.747637      -156.4012
  62   1.0000      -5.747561      -156.3991
  63   1.0000      -5.747560      -156.3991
  64   1.0000      -5.740916      -156.2183
  65   1.0000      -5.740815      -156.2155
  66   1.0000      -5.740758      -156.2140
  67   1.0000      -5.740755      -156.2139
  68   1.0000      -5.659013      -153.9896
  69   1.0000      -5.658822      -153.9844
  70   1.0000      -5.658545      -153.9768
  71   1.0000      -5.657807      -153.9567
  72   1.0000      -5.650437      -153.7562
  73   1.0000      -5.650272      -153.7517
  74   1.0000      -5.650111      -153.7473
  75   1.0000      -5.649372      -153.7272
  76   1.0000      -5.648555      -153.7050
  77   1.0000      -5.648387      -153.7004
  78   1.0000      -5.648271      -153.6973
  79   1.0000      -5.647442      -153.6747
  80   1.0000      -2.438371       -66.3514
  81   1.0000      -1.479986       -40.2725
  82   1.0000      -1.467943       -39.9448
  83   1.0000      -1.466476       -39.9048
  84   1.0000      -0.752989       -20.4899
  85   1.0000      -0.746387       -20.3102
  86   1.0000      -0.697123       -18.9697
  87   1.0000      -0.696655       -18.9569
  88   1.0000      -0.643920       -17.5219
  89   1.0000      -0.637682       -17.3522
  90   1.0000      -0.633393       -17.2355
  91   1.0000      -0.632884       -17.2216
  92   1.0000      -0.630242       -17.1497
  93   1.0000      -0.613471       -16.6934
  94   1.0000      -0.613442       -16.6926
  95   1.0000      -0.552978       -15.0473
  96   1.0000      -0.552076       -15.0228
  97   1.0000      -0.491725       -13.3805
  98   1.0000      -0.491685       -13.3794
  99   1.0000      -0.481433       -13.1005
 100   1.0000      -0.477639       -12.9972
 101   1.0000      -0.444783       -12.1032
 102   1.0000      -0.443677       -12.0731
 103   1.0000      -0.440598       -11.9893
 104   1.0000      -0.437041       -11.8925
 105   1.0000      -0.413198       -11.2437
 106   1.0000      -0.405892       -11.0449
 107   1.0000      -0.366005        -9.9595
 108   1.0000      -0.364115        -9.9081
 109   1.0000      -0.351625        -9.5682
 110   1.0000      -0.346449        -9.4274
 111   1.0000      -0.335719        -9.1354
 112   1.0000      -0.334363        -9.0985
 113   1.0000      -0.314766        -8.5652
 114   1.0000      -0.313560        -8.5324
 115   1.0000      -0.293558        -7.9881
 116   1.0000      -0.293475        -7.9858
 117   1.0000      -0.260190        -7.0801
 118   1.0000      -0.257494        -7.0068
 119   1.0000      -0.256238        -6.9726
 120   1.0000      -0.255734        -6.9589
 121   1.0000      -0.245474        -6.6797
 122   1.0000      -0.242446        -6.5973
 123   1.0000      -0.227895        -6.2013
 124   1.0000      -0.227401        -6.1879
 125   1.0000      -0.226713        -6.1692
 126   1.0000      -0.226510        -6.1637
 127   1.0000      -0.225950        -6.1484
 128   1.0000      -0.225384        -6.1330
 129   1.0000      -0.193653        -5.2696
 130   1.0000      -0.193194        -5.2571
 131   1.0000      -0.182824        -4.9749
 132   1.0000      -0.180969        -4.9244
 133   1.0000      -0.164000        -4.4627
 134   1.0000      -0.155272        -4.2252
 135   1.0000      -0.152472        -4.1490
 136   1.0000      -0.137332        -3.7370
 137   1.0000      -0.132756        -3.6125
 138   1.0000      -0.130979        -3.5641
 139   1.0000      -0.127708        -3.4751
 140   1.0000      -0.127028        -3.4566
 141   1.0000      -0.123592        -3.3631
 142   1.0000      -0.120648        -3.2830
 143   1.0000      -0.106983        -2.9112
 144   1.0000      -0.105846        -2.8802
 145   1.0000      -0.103108        -2.8057
 146   1.0000      -0.090060        -2.4506
 147   1.0000      -0.088961        -2.4208
 148   1.0000      -0.074316        -2.0222
 149   1.0000      -0.067543        -1.8379
 150   1.0000      -0.067114        -1.8263
 151   1.0000      -0.043240        -1.1766
 152   1.0000      -0.041384        -1.1261
 153   1.0000      -0.031747        -0.8639
 154   1.0000      -0.025265        -0.6875
 155   1.0000      -0.017597        -0.4788
 156   1.0000      -0.010813        -0.2942
 157   1.0000      -0.008385        -0.2282
 158   1.0000       0.004074         0.1108
 159   1.0000       0.022024         0.5993
 160   1.0000       0.035976         0.9790
 161   0.0000       0.137200         3.7334
 162   0.0000       0.137417         3.7393
 163   0.0000       0.163670         4.4537
 164   0.0000       0.164381         4.4730
 165   0.0000       0.169080         4.6009

                 SPIN DOWN ORBITALS
  NO   OCC          E(Eh)            E(eV)
   0   1.0000    -196.670832     -5351.6854
   1   1.0000     -88.735400     -2414.6130
   2   1.0000     -88.735325     -2414.6109
   3   1.0000     -88.735257     -2414.6091
   4   1.0000     -88.734733     -2414.5948
   5   1.0000     -88.733259     -2414.5547
   6   1.0000     -88.733122     -2414.5510
   7   1.0000     -88.733085     -2414.5500
   8   1.0000     -88.733034     -2414.5486
   9   1.0000     -88.641629     -2412.0614
  10   1.0000     -88.641347     -2412.0537
  11   1.0000     -88.641009     -2412.0445
  12   1.0000     -88.640390     -2412.0276
  13   1.0000     -22.032395      -599.5320
  14   1.0000     -18.887559      -513.9566
  15   1.0000     -18.548070      -504.7186
  16   1.0000     -18.532747      -504.3017
  17   1.0000     -18.532436      -504.2932
  18   1.0000     -10.069051      -273.9928
  19   1.0000     -10.068410      -273.9754
  20   1.0000     -10.061645      -273.7913
  21   1.0000     -10.061536      -273.7883
  22   1.0000     -10.061098      -273.7764
  23   1.0000     -10.061039      -273.7748
  24   1.0000     -10.048580      -273.4358
  25   1.0000     -10.047925      -273.4180
  26   1.0000     -10.045226      -273.3445
  27   1.0000     -10.044985      -273.3379
  28   1.0000     -10.012255      -272.4473
  29   1.0000     -10.011866      -272.4367
  30   1.0000     -10.011590      -272.4292
  31   1.0000     -10.011124      -272.4165
  32   1.0000      -7.795696      -212.1317
  33   1.0000      -7.795349      -212.1222
  34   1.0000      -7.794545      -212.1004
  35   1.0000      -7.793954      -212.0843
  36   1.0000      -7.786055      -211.8693
  37   1.0000      -7.785982      -211.8673
  38   1.0000      -7.785915      -211.8655
  39   1.0000      -7.785905      -211.8653
  40   1.0000      -7.692142      -209.3138
  41   1.0000      -7.691989      -209.3097
  42   1.0000      -7.691807      -209.3047
  43   1.0000      -7.691030      -209.2836
  44   1.0000      -5.759997      -156.7375
  45   1.0000      -5.759666      -156.7285
  46   1.0000      -5.758959      -156.7092
  47   1.0000      -5.758359      -156.6929
  48   1.0000      -5.755015      -156.6019
  49   1.0000      -5.754675      -156.5927
  50   1.0000      -5.753976      -156.5736
  51   1.0000      -5.753386      -156.5576
  52   1.0000      -5.751882      -156.5167
  53   1.0000      -5.751558      -156.5078
  54   1.0000      -5.751063      -156.4944
  55   1.0000      -5.750989      -156.4924
  56   1.0000      -5.750919      -156.4905
  57   1.0000      -5.750906      -156.4901
  58   1.0000      -5.750753      -156.4859
  59   1.0000      -5.750172      -156.4701
  60   1.0000      -5.747705      -156.4030
  61   1.0000      -5.747638      -156.4012
  62   1.0000      -5.747561      -156.3991
  63   1.0000      -5.747560      -156.3990
  64   1.0000      -5.740915      -156.2182
  65   1.0000      -5.740814      -156.2155
  66   1.0000      -5.740757      -156.2139
  67   1.0000      -5.740753      -156.2138
  68   1.0000      -5.659230      -153.9955
  69   1.0000      -5.659029      -153.9900
  70   1.0000      -5.658739      -153.9821
  71   1.0000      -5.658017      -153.9625
  72   1.0000      -5.650825      -153.7668
  73   1.0000      -5.650663      -153.7624
  74   1.0000      -5.650518      -153.7584
  75   1.0000      -5.649785      -153.7385
  76   1.0000      -5.648646      -153.7075
  77   1.0000      -5.648473      -153.7028
  78   1.0000      -5.648338      -153.6991
  79   1.0000      -5.647528      -153.6770
  80   1.0000      -2.395540       -65.1860
  81   1.0000      -1.461636       -39.7731
  82   1.0000      -1.408286       -38.3214
  83   1.0000      -1.407569       -38.3019
  84   1.0000      -0.752569       -20.4784
  85   1.0000      -0.746017       -20.3002
  86   1.0000      -0.697096       -18.9690
  87   1.0000      -0.696625       -18.9561
  88   1.0000      -0.651659       -17.7325
  89   1.0000      -0.637423       -17.3452
  90   1.0000      -0.633263       -17.2320
  91   1.0000      -0.632759       -17.2182
  92   1.0000      -0.630024       -17.1438
  93   1.0000      -0.613453       -16.6929
  94   1.0000      -0.613431       -16.6923
  95   1.0000      -0.552710       -15.0400
  96   1.0000      -0.551794       -15.0151
  97   1.0000      -0.491713       -13.3802
  98   1.0000      -0.491674       -13.3791
  99   1.0000      -0.481312       -13.0972
 100   1.0000      -0.477501       -12.9934
 101   1.0000      -0.444978       -12.1085
 102   1.0000      -0.443789       -12.0761
 103   1.0000      -0.440637       -11.9903
 104   1.0000      -0.437405       -11.9024
 105   1.0000      -0.412997       -11.2382
 106   1.0000      -0.405866       -11.0442
 107   1.0000      -0.365840        -9.9550
 108   1.0000      -0.363986        -9.9046
 109   1.0000      -0.351416        -9.5625
 110   1.0000      -0.346364        -9.4251
 111   1.0000      -0.335584        -9.1317
 112   1.0000      -0.334265        -9.0958
 113   1.0000      -0.314668        -8.5626
 114   1.0000      -0.313479        -8.5302
 115   1.0000      -0.293554        -7.9880
 116   1.0000      -0.293471        -7.9857
 117   1.0000      -0.259830        -7.0703
 118   1.0000      -0.257329        -7.0023
 119   1.0000      -0.256185        -6.9711
 120   1.0000      -0.255691        -6.9577
 121   1.0000      -0.245320        -6.6755
 122   1.0000      -0.242351        -6.5947
 123   1.0000      -0.227500        -6.1906
 124   1.0000      -0.227297        -6.1851
 125   1.0000      -0.226603        -6.1662
 126   1.0000      -0.226463        -6.1624
 127   1.0000      -0.225904        -6.1472
 128   1.0000      -0.225077        -6.1246
 129   1.0000      -0.193602        -5.2682
 130   1.0000      -0.193143        -5.2557
 131   1.0000      -0.182745        -4.9727
 132   1.0000      -0.180900        -4.9225
 133   1.0000      -0.160722        -4.3735
 134   1.0000      -0.155012        -4.2181
 135   1.0000      -0.152387        -4.1467
 136   1.0000      -0.136174        -3.7055
 137   1.0000      -0.132604        -3.6083
 138   1.0000      -0.130392        -3.5482
 139   1.0000      -0.127335        -3.4650
 140   1.0000      -0.126704        -3.4478
 141   1.0000      -0.122589        -3.3358
 142   1.0000      -0.119864        -3.2617
 143   1.0000      -0.108640        -2.9563
 144   1.0000      -0.107402        -2.9225
 145   1.0000      -0.102172        -2.7803
 146   1.0000      -0.089913        -2.4467
 147   1.0000      -0.088890        -2.4188
 148   1.0000      -0.070971        -1.9312
 149   1.0000      -0.067524        -1.8374
 150   1.0000      -0.067071        -1.8251
 151   1.0000      -0.042333        -1.1519
 152   1.0000      -0.038771        -1.0550
 153   1.0000      -0.031834        -0.8662
 154   1.0000      -0.024828        -0.6756
 155   1.0000      -0.016525        -0.4497
 156   1.0000      -0.009585        -0.2608
 157   1.0000       0.003796         0.1033
 158   1.0000       0.022298         0.6068
 159   1.0000       0.035177         0.9572
 160   0.0000       0.131480         3.5778
 161   0.0000       0.137288         3.7358
 162   0.0000       0.137583         3.7438
 163   0.0000       0.164308         4.4710
 164   0.0000       0.164601         4.4790

MULLIKEN ATOMIC CHARGES AND SPIN POPULATIONS
--------------------------------------------
   0 V :    0.558924    1.168581
   1 S :   -0.326517   -0.027555
   2 S :   -0.324777   -0.030115
   3 S :   -0.323903   -0.027616
   4 S :   -0.318996   -0.029228
   5 O :   -0.472749   -0.140549
   6 C :   -0.136321    0.020626
   7 C :   -0.142725    0.018337
   8 C :   -0.147418    0.021491
   9 C :   -0.150855    0.019913
  10 S :    0.202767   -0.000613
  11 S :    0.201797   -0.000687
  12 S :    0.211471   -0.000523
  13 S :    0.213722   -0.000465
  14 C :   -0.272203    0.004542
  15 C :   -0.277802    0.004616
  16 C :   -0.164410   -0.000518
  17 C :   -0.159667   -0.000502
  18 S :   -0.003796   -0.000047
  19 S :   -0.002831   -0.000039
  20 S :   -0.005840    0.000040
  21 S :   -0.005743    0.000055
  22 C :   -0.302104    0.000033
  23 C :   -0.301886    0.000030
  24 C :   -0.142688    0.000011
  25 H :    0.141175   -0.000000
  26 H :    0.109129   -0.000009
  27 H :    0.081359   -0.000003
  28 H :    0.090161   -0.000012
  29 H :    0.108986   -0.000011
  30 H :    0.140970   -0.000001
  31 C :   -0.301902    0.000185
  32 C :   -0.302228    0.000175
  33 C :   -0.143989   -0.000132
  34 H :    0.140240   -0.000013
  35 H :    0.109559    0.000009
  36 H :    0.090553   -0.000006
  37 H :    0.080496    0.000004
  38 H :    0.109873    0.000014
  39 H :    0.140170   -0.000015
Sum of atomic charges         :   -2.0000000

LOEWDIN ATOMIC CHARGES AND SPIN POPULATIONS
-------------------------------------------
   0 V :   -0.201339    1.121422
   1 S :   -0.016240   -0.018404
   2 S :   -0.011623   -0.019754
   3 S :   -0.013009   -0.018416
   4 S :   -0.002832   -0.018758
   5 O :   -0.316685   -0.126061
   6 C :   -0.577542    0.018538
   7 C :   -0.579925    0.016474
   8 C :   -0.584426    0.019780
   9 C :   -0.583741    0.018298
  10 S :    0.613562    0.000037
  11 S :    0.612462   -0.000134
  12 S :    0.625922    0.000224
  13 S :    0.628198    0.000275
  14 C :   -0.467449    0.002497
  15 C :   -0.467808    0.002703
  16 C :   -0.616110    0.000614
  17 C :   -0.614985    0.000492
  18 S :    0.343933   -0.000022
  19 S :    0.345982   -0.000010
  20 S :    0.342820    0.000040
  21 S :    0.342441    0.000055
  22 C :   -0.283883    0.000007
  23 C :   -0.284063    0.000002
  24 C :   -0.178800   -0.000007
  25 H :    0.061930    0.000000
  26 H :    0.052398    0.000001
  27 H :    0.058407    0.000001
  28 H :    0.060187   -0.000004
  29 H :    0.052392    0.000000
  30 H :    0.061776   -0.000000
  31 C :   -0.284941    0.000053
  32 C :   -0.284658    0.000041
  33 C :   -0.178586   -0.000005
  34 H :    0.061492   -0.000001
  35 H :    0.052503    0.000010
  36 H :    0.060150   -0.000004
  37 H :    0.058000    0.000006
  38 H :    0.052657    0.000012
  39 H :    0.061430   -0.000001

  Mayer bond orders larger than 0.100000
B(  0-V ,  1-S ) :   0.7680 B(  0-V ,  2-S ) :   0.7664 B(  0-V ,  3-S ) :   0.7589
B(  0-V ,  4-S ) :   0.7715 B(  0-V ,  5-O ) :   2.1414 B(  1-S ,  8-C ) :   0.8747
B(  2-S ,  6-C ) :   0.8975 B(  3-S ,  9-C ) :   0.8811 B(  4-S ,  7-C ) :   0.9036
B(  6-C ,  7-C ) :   1.7375 B(  6-C , 10-S ) :   1.1782 B(  7-C , 11-S ) :   1.1766
B(  8-C ,  9-C ) :   1.7549 B(  8-C , 13-S ) :   1.2043 B(  9-C , 12-S ) :   1.1986
B( 10-S , 14-C ) :   1.2367 B( 11-S , 14-C ) :   1.2408 B( 12-S , 15-C ) :   1.2367
B( 13-S , 15-C ) :   1.2323 B( 14-C , 16-C ) :   1.3748 B( 15-C , 17-C ) :   1.3712
B( 16-C , 18-S ) :   1.0710 B( 16-C , 19-S ) :   1.0736 B( 17-C , 20-S ) :   1.0703
B( 17-C , 21-S ) :   1.0704 B( 18-S , 32-C ) :   0.9963 B( 19-S , 31-C ) :   0.9956
B( 20-S , 23-C ) :   0.9955 B( 21-S , 22-C ) :   0.9951 B( 22-C , 24-C ) :   0.9155
B( 22-C , 25-H ) :   0.9657 B( 22-C , 26-H ) :   0.9668 B( 23-C , 24-C ) :   0.9160
B( 23-C , 29-H ) :   0.9667 B( 23-C , 30-H ) :   0.9655 B( 24-C , 27-H ) :   0.9640
B( 24-C , 28-H ) :   0.9704 B( 31-C , 33-C ) :   0.9153 B( 31-C , 38-H ) :   0.9663
B( 31-C , 39-H ) :   0.9661 B( 32-C , 33-C ) :   0.9151 B( 32-C , 34-H ) :   0.9656
B( 32-C , 35-H ) :   0.9665 B( 33-C , 36-H ) :   0.9704 B( 33-C , 37-H ) :   0.9638

FINAL SINGLE POINT ENERGY     -6337.506223526720

DIPOLE MOMENT
-------------
                                X             Y             Z
Electronic contribution:      7.96844       6.60415      -8.81180
Nuclear contribution   :     -8.85967      -7.43087       9.79546
                        -----------------------------------------
Total Dipole Moment    :     -0.89122      -0.82673       0.98366
                        -----------------------------------------
Magnitude (a.u.)       :      1.56376
Magnitude (Debye)      :      3.97476

Rotational constants in cm-1:     0.010715     0.000804     0.000783
Rotational constants in MHz :   321.237048    24.112721    23.476624

                             ****ORCA TERMINATED NORMALLY****
TOTAL RUN TIME: 0 days 1 hours 2 minutes 45 seconds 135 msec
