                         Program Version 5.0.4 -  RELEASE  -
|  1> ! nofrozencore ReducedPop printbasis
|  2> ! B3LYP TZVP
|  3>
|  4> %basis
|  5> newgto V "CP(PPP)" end
|  6> end
|  7>
|  8> %pal
|  9> nprocs 8
| 10> end
| 11>
| 12> % sym SymThresh 1e-2 end
| 13> * xyz -2 2
| 14> V -0.7065183691328726 0.617742869730508 -0.5987469285248507
| 15> S -0.3172188915818181 -1.2947039104956997 -2.1655962896310443
| 16> S -2.0178471693357687 -0.9677531425067378 0.7495685597008181
| 17> S 1.5298262457918816 1.3890016414619306 -1.2704888157816971
| 18> S -0.09617932389955983 1.6673648172773543 1.5754489524604975
| 19> O -1.7776892170091334 1.5587632744548086 -1.3000134623973623
| 20> C -2.313607579022362 -0.22871543603203176 2.2070027161657424
| 21> C -1.483253653561248 0.8105370472063008 2.4743200745757004
| 22> C 1.2507188056751608 -0.5894077525878493 -2.8591910789474775
| 23> C 2.0365037746708694 0.4760848178435436 -2.5713999548437
| 24> S -3.618172738630381 -0.9011387693438969 3.4087096900481715
| 25> S -1.8594482585630105 1.4002121896178725 4.019033537582825
| 26> S 3.6479513369381356 0.8782892080505704 -3.474011308653899
| 27> S 1.930502822494772 -1.4302425703203907 -4.174440125748608
| 28> C -3.162650573177902 0.3054822345721122 4.5970691910895045
| 29> C 3.4534384909165063 -0.5342586017342802 -4.495883630729699
| 30> C -3.809843940089356 0.3324955551886513 5.802101559586337
| 31> C 4.423008683676583 -0.8273048259346757 -5.414483141457893
| 32> S -5.141097760869832 -0.8332817904934626 6.161996059885725
| 33> S -3.4412452653630146 1.5019154969150912 7.062667163776581
| 34> S 4.338393695880087 -2.2171662586897853 -6.486218015090878
| 35> S 5.902973342998078 0.1968898192963123 -5.556258756129754
| 36> C 7.139060830988453 -1.102775455729896 -5.0853342681120965
| 37> C 5.81645641073652 -3.1558544816757386 -5.889649147571204
| 38> C 7.113374454264701 -2.3511029475126977 -5.97347308058122
| 39> H 6.958337506121745 -1.3691015881282973 -4.041578233231419
| 40> H 8.11454904338485 -0.6138385294905051 -5.147982004234472
| 41> H 7.944998681573554 -3.000791290773481 -5.666528841159774
| 42> H 7.293447340398935 -2.061282217714635 -7.013465723310775
| 43> H 5.873653212288289 -4.039772321701704 -6.530161692454658
| 44> H 5.625422820898579 -3.4863552223637035 -4.866022598429216
| 45> C -5.0572890800322465 2.3965594616849755 7.147876948561777
| 46> C -6.498053938705017 0.4150288461872959 6.365370644675976
| 47> C -6.23623883427451 1.4709739787649092 7.444769765869195
| 48> H -6.658083240762149 0.8902872443115801 5.394993342634938
| 49> H -7.39205262413478 -0.1631171376844428 6.612853851079635
| 50> H -6.073874302054634 0.9752723480976835 8.407079514360225
| 51> H -7.143204109131652 2.0841438115120363 7.5418987283941155
| 52> H -4.936481443210101 3.1307179527439732 7.948836436744809
| 53> H -5.206207523553655 2.9348699377834233 6.208774717467727
| 54> *
| 55>
| 56> % eprnmr
| 57> gtensor true
| 58> Nuclei = all H {aiso,adip,aorb,fgrad,rho}
| 59> Nuclei = all V {aiso,adip,aorb,fgrad,rho}
| 60> end
| 61>
| 62>                          ****END OF INPUT****

CARTESIAN COORDINATES (ANGSTROEM)
---------------------------------
  V     -0.705909    0.616069   -0.595352
  S     -0.316609   -1.296378   -2.162202
  S     -2.017238   -0.969427    0.752963
  S      1.530436    1.387327   -1.267094
  S     -0.095570    1.665691    1.578843
  O     -1.777080    1.557089   -1.296619
  C     -2.312998   -0.230390    2.210397
  C     -1.482644    0.808863    2.477715
  C      1.251328   -0.591082   -2.855797
  C      2.037113    0.474411   -2.568005
  S     -3.617563   -0.902813    3.412104
  S     -1.858839    1.398538    4.022428
  S      3.648561    0.876615   -3.470617
  S      1.931112   -1.431917   -4.171046
  C     -3.162041    0.303808    4.600464
  C      3.454048   -0.535933   -4.492489
  C     -3.809234    0.330821    5.805496
  C      4.423618   -0.828979   -5.411089
  S     -5.140488   -0.834956    6.165391
  S     -3.440636    1.500241    7.066062
  S      4.339003   -2.218841   -6.482823
  S      5.903583    0.195216   -5.552864
  C      7.139670   -1.104450   -5.081940
  C      5.817066   -3.157529   -5.886255
  C      7.113984   -2.352777   -5.970079
  H      6.958947   -1.370776   -4.038184
  H      8.115159   -0.615513   -5.144587
  H      7.945608   -3.002466   -5.663134
  H      7.294057   -2.062957   -7.010071
  H      5.874263   -4.041447   -6.526767
  H      5.626032   -3.488030   -4.862628
  C     -5.056680    2.394885    7.151271
  C     -6.497444    0.413355    6.368765
  C     -6.235629    1.469300    7.448164
  H     -6.657474    0.888613    5.398388
  H     -7.391443   -0.164791    6.616248
  H     -6.073265    0.973598    8.410474
  H     -7.142595    2.082470    7.545293
  H     -4.935872    3.129044    7.952231
  H     -5.205598    2.933196    6.212169

 Total Charge           Charge          ....   -2
 Multiplicity           Mult            ....    2
 Number of Electrons    NEL             ....  321
 Basis Dimension        Dim             ....  681

ORBITAL ENERGIES
----------------
                 SPIN UP ORBITALS
  NO   OCC          E(Eh)            E(eV)
   0   1.0000    -196.677513     -5351.8672
   1   1.0000     -88.737764     -2414.6773
   2   1.0000     -88.737340     -2414.6658
   3   1.0000     -88.735304     -2414.6104
   4   1.0000     -88.735156     -2414.6064
   5   1.0000     -88.730110     -2414.4690
   6   1.0000     -88.729804     -2414.4607
   7   1.0000     -88.721137     -2414.2249
   8   1.0000     -88.720156     -2414.1982
   9   1.0000     -88.653878     -2412.3947
  10   1.0000     -88.652914     -2412.3684
  11   1.0000     -88.628931     -2411.7158
  12   1.0000     -88.628617     -2411.7073
  13   1.0000     -22.052674      -600.0838
  14   1.0000     -18.892465      -514.0901
  15   1.0000     -18.559079      -505.0182
  16   1.0000     -18.554037      -504.8810
  17   1.0000     -18.553828      -504.8753
  18   1.0000     -10.074755      -274.1480
  19   1.0000     -10.074382      -274.1379
  20   1.0000     -10.064081      -273.8576
  21   1.0000     -10.064047      -273.8566
  22   1.0000     -10.061286      -273.7815
  23   1.0000     -10.061278      -273.7813
  24   1.0000     -10.050714      -273.4938
  25   1.0000     -10.050711      -273.4937
  26   1.0000     -10.047181      -273.3977
  27   1.0000     -10.046898      -273.3900
  28   1.0000     -10.020073      -272.6600
  29   1.0000     -10.019714      -272.6503
  30   1.0000     -10.016005      -272.5493
  31   1.0000     -10.015761      -272.5427
  32   1.0000      -7.789687      -211.9682
  33   1.0000      -7.789349      -211.9590
  34   1.0000      -7.788332      -211.9313
  35   1.0000      -7.788243      -211.9289
  36   1.0000      -7.783936      -211.8117
  37   1.0000      -7.783585      -211.8021
  38   1.0000      -7.775844      -211.5915
  39   1.0000      -7.775001      -211.5685
  40   1.0000      -7.705428      -209.6754
  41   1.0000      -7.704587      -209.6525
  42   1.0000      -7.686434      -209.1585
  43   1.0000      -7.686334      -209.1558
  44   1.0000      -5.754325      -156.5831
  45   1.0000      -5.754012      -156.5746
  46   1.0000      -5.753266      -156.5543
  47   1.0000      -5.753175      -156.5518
  48   1.0000      -5.750983      -156.4922
  49   1.0000      -5.750613      -156.4821
  50   1.0000      -5.749964      -156.4645
  51   1.0000      -5.749860      -156.4616
  52   1.0000      -5.748958      -156.4371
  53   1.0000      -5.748613      -156.4277
  54   1.0000      -5.745407      -156.3405
  55   1.0000      -5.745308      -156.3378
  56   1.0000      -5.745067      -156.3312
  57   1.0000      -5.744954      -156.3281
  58   1.0000      -5.743220      -156.2810
  59   1.0000      -5.743130      -156.2785
  60   1.0000      -5.740993      -156.2204
  61   1.0000      -5.740131      -156.1969
  62   1.0000      -5.738727      -156.1587
  63   1.0000      -5.738372      -156.1490
  64   1.0000      -5.735642      -156.0747
  65   1.0000      -5.734745      -156.0504
  66   1.0000      -5.731830      -155.9710
  67   1.0000      -5.731021      -155.9490
  68   1.0000      -5.671837      -154.3385
  69   1.0000      -5.670890      -154.3128
  70   1.0000      -5.663958      -154.1241
  71   1.0000      -5.663191      -154.1033
  72   1.0000      -5.662246      -154.0775
  73   1.0000      -5.661444      -154.0557
  74   1.0000      -5.650870      -153.7680
  75   1.0000      -5.650709      -153.7636
  76   1.0000      -5.645014      -153.6087
  77   1.0000      -5.644921      -153.6061
  78   1.0000      -5.644101      -153.5838
  79   1.0000      -5.644002      -153.5811
  80   1.0000      -2.446379       -66.5693
  81   1.0000      -1.487592       -40.4794
  82   1.0000      -1.476068       -40.1659
  83   1.0000      -1.475227       -40.1430
  84   1.0000      -0.709254       -19.2998
  85   1.0000      -0.708958       -19.2917
  86   1.0000      -0.686432       -18.6788
  87   1.0000      -0.686194       -18.6723
  88   1.0000      -0.651887       -17.7387
  89   1.0000      -0.634994       -17.2791
  90   1.0000      -0.634609       -17.2686
  91   1.0000      -0.616626       -16.7793
  92   1.0000      -0.616483       -16.7754
  93   1.0000      -0.580247       -15.7893
  94   1.0000      -0.579788       -15.7768
  95   1.0000      -0.572642       -15.5824
  96   1.0000      -0.572045       -15.5661
  97   1.0000      -0.500651       -13.6234
  98   1.0000      -0.500413       -13.6169
  99   1.0000      -0.491351       -13.3703
 100   1.0000      -0.490669       -13.3518
 101   1.0000      -0.476253       -12.9595
 102   1.0000      -0.474571       -12.9137
 103   1.0000      -0.446383       -12.1467
 104   1.0000      -0.444479       -12.0949
 105   1.0000      -0.411926       -11.2091
 106   1.0000      -0.406982       -11.0745
 107   1.0000      -0.354385        -9.6433
 108   1.0000      -0.354235        -9.6392
 109   1.0000      -0.328456        -8.9377
 110   1.0000      -0.327473        -8.9110
 111   1.0000      -0.319066        -8.6822
 112   1.0000      -0.316088        -8.6012
 113   1.0000      -0.299842        -8.1591
 114   1.0000      -0.299288        -8.1440
 115   1.0000      -0.291585        -7.9344
 116   1.0000      -0.291254        -7.9254
 117   1.0000      -0.258506        -7.0343
 118   1.0000      -0.258374        -7.0307
 119   1.0000      -0.253228        -6.8907
 120   1.0000      -0.252422        -6.8687
 121   1.0000      -0.234058        -6.3690
 122   1.0000      -0.233499        -6.3538
 123   1.0000      -0.230460        -6.2711
 124   1.0000      -0.229334        -6.2405
 125   1.0000      -0.220655        -6.0043
 126   1.0000      -0.219040        -5.9604
 127   1.0000      -0.213999        -5.8232
 128   1.0000      -0.212357        -5.7785
 129   1.0000      -0.197229        -5.3669
 130   1.0000      -0.187667        -5.1067
 131   1.0000      -0.186899        -5.0858
 132   1.0000      -0.183512        -4.9936
 133   1.0000      -0.173762        -4.7283
 134   1.0000      -0.163056        -4.4370
 135   1.0000      -0.150850        -4.1049
 136   1.0000      -0.145175        -3.9504
 137   1.0000      -0.137727        -3.7477
 138   1.0000      -0.135938        -3.6991
 139   1.0000      -0.127480        -3.4689
 140   1.0000      -0.124206        -3.3798
 141   1.0000      -0.121188        -3.2977
 142   1.0000      -0.115143        -3.1332
 143   1.0000      -0.111382        -3.0309
 144   1.0000      -0.099996        -2.7210
 145   1.0000      -0.099010        -2.6942
 146   1.0000      -0.095733        -2.6050
 147   1.0000      -0.092712        -2.5228
 148   1.0000      -0.072254        -1.9661
 149   1.0000      -0.066861        -1.8194
 150   1.0000      -0.065957        -1.7948
 151   1.0000      -0.050627        -1.3776
 152   1.0000      -0.048789        -1.3276
 153   1.0000      -0.037354        -1.0164
 154   1.0000      -0.033899        -0.9225
 155   1.0000      -0.029212        -0.7949
 156   1.0000      -0.025014        -0.6807
 157   1.0000      -0.021350        -0.5810
 158   1.0000      -0.017311        -0.4711
 159   1.0000       0.026342         0.7168
 160   1.0000       0.044699         1.2163
 161   0.0000       0.136696         3.7197
 162   0.0000       0.137119         3.7312
 163   0.0000       0.154136         4.1943
 164   0.0000       0.155238         4.2242
 165   0.0000       0.168310         4.5799

                 SPIN DOWN ORBITALS
  NO   OCC          E(Eh)            E(eV)
   0   1.0000    -196.677659     -5351.8712
   1   1.0000     -88.737783     -2414.6778
   2   1.0000     -88.737357     -2414.6662
   3   1.0000     -88.735304     -2414.6104
   4   1.0000     -88.735157     -2414.6064
   5   1.0000     -88.730111     -2414.4691
   6   1.0000     -88.729804     -2414.4607
   7   1.0000     -88.721142     -2414.2250
   8   1.0000     -88.720162     -2414.1983
   9   1.0000     -88.654032     -2412.3989
  10   1.0000     -88.653058     -2412.3723
  11   1.0000     -88.629064     -2411.7194
  12   1.0000     -88.628743     -2411.7107
  13   1.0000     -22.037688      -599.6760
  14   1.0000     -18.896258      -514.1933
  15   1.0000     -18.553779      -504.8740
  16   1.0000     -18.537928      -504.4427
  17   1.0000     -18.537681      -504.4359
  18   1.0000     -10.074743      -274.1477
  19   1.0000     -10.074360      -274.1373
  20   1.0000     -10.064080      -273.8575
  21   1.0000     -10.064047      -273.8567
  22   1.0000     -10.061285      -273.7815
  23   1.0000     -10.061278      -273.7813
  24   1.0000     -10.050714      -273.4938
  25   1.0000     -10.050711      -273.4937
  26   1.0000     -10.047178      -273.3976
  27   1.0000     -10.046887      -273.3897
  28   1.0000     -10.019864      -272.6544
  29   1.0000     -10.019534      -272.6454
  30   1.0000     -10.015762      -272.5428
  31   1.0000     -10.015525      -272.5363
  32   1.0000      -7.789706      -211.9687
  33   1.0000      -7.789367      -211.9595
  34   1.0000      -7.788333      -211.9313
  35   1.0000      -7.788243      -211.9289
  36   1.0000      -7.783937      -211.8117
  37   1.0000      -7.783586      -211.8021
  38   1.0000      -7.775849      -211.5916
  39   1.0000      -7.775006      -211.5687
  40   1.0000      -7.705572      -209.6793
  41   1.0000      -7.704722      -209.6561
  42   1.0000      -7.686558      -209.1619
  43   1.0000      -7.686451      -209.1590
  44   1.0000      -5.754362      -156.5842
  45   1.0000      -5.754047      -156.5756
  46   1.0000      -5.753267      -156.5544
  47   1.0000      -5.753175      -156.5518
  48   1.0000      -5.751007      -156.4928
  49   1.0000      -5.750635      -156.4827
  50   1.0000      -5.749964      -156.4645
  51   1.0000      -5.749860      -156.4616
  52   1.0000      -5.748959      -156.4371
  53   1.0000      -5.748614      -156.4277
  54   1.0000      -5.745409      -156.3405
  55   1.0000      -5.745321      -156.3381
  56   1.0000      -5.745068      -156.3312
  57   1.0000      -5.744965      -156.3284
  58   1.0000      -5.743222      -156.2810
  59   1.0000      -5.743132      -156.2786
  60   1.0000      -5.741000      -156.2205
  61   1.0000      -5.740138      -156.1971
  62   1.0000      -5.738728      -156.1587
  63   1.0000      -5.738372      -156.1490
  64   1.0000      -5.735649      -156.0749
  65   1.0000      -5.734751      -156.0505
  66   1.0000      -5.731834      -155.9711
  67   1.0000      -5.731029      -155.9492
  68   1.0000      -5.671979      -154.3424
  69   1.0000      -5.671031      -154.3166
  70   1.0000      -5.664380      -154.1356
  71   1.0000      -5.663583      -154.1139
  72   1.0000      -5.662356      -154.0805
  73   1.0000      -5.661539      -154.0583
  74   1.0000      -5.651016      -153.7720
  75   1.0000      -5.650849      -153.7674
  76   1.0000      -5.645330      -153.6172
  77   1.0000      -5.645266      -153.6155
  78   1.0000      -5.644221      -153.5871
  79   1.0000      -5.644070      -153.5830
  80   1.0000      -2.401343       -65.3439
  81   1.0000      -1.468178       -39.9512
  82   1.0000      -1.413635       -38.4670
  83   1.0000      -1.413219       -38.4557
  84   1.0000      -0.709233       -19.2992
  85   1.0000      -0.708920       -19.2907
  86   1.0000      -0.686362       -18.6769
  87   1.0000      -0.686141       -18.6708
  88   1.0000      -0.660027       -17.9603
  89   1.0000      -0.634920       -17.2770
  90   1.0000      -0.634547       -17.2669
  91   1.0000      -0.616629       -16.7793
  92   1.0000      -0.616482       -16.7753
  93   1.0000      -0.580222       -15.7887
  94   1.0000      -0.579771       -15.7764
  95   1.0000      -0.572603       -15.5813
  96   1.0000      -0.572022       -15.5655
  97   1.0000      -0.500682       -13.6242
  98   1.0000      -0.500458       -13.6182
  99   1.0000      -0.491370       -13.3709
 100   1.0000      -0.490691       -13.3524
 101   1.0000      -0.476488       -12.9659
 102   1.0000      -0.474849       -12.9213
 103   1.0000      -0.446399       -12.1471
 104   1.0000      -0.444525       -12.0961
 105   1.0000      -0.411909       -11.2086
 106   1.0000      -0.407072       -11.0770
 107   1.0000      -0.354377        -9.6431
 108   1.0000      -0.354219        -9.6388
 109   1.0000      -0.328402        -8.9363
 110   1.0000      -0.327446        -8.9103
 111   1.0000      -0.319014        -8.6808
 112   1.0000      -0.316088        -8.6012
 113   1.0000      -0.299823        -8.1586
 114   1.0000      -0.299274        -8.1437
 115   1.0000      -0.291577        -7.9342
 116   1.0000      -0.291253        -7.9254
 117   1.0000      -0.258444        -7.0326
 118   1.0000      -0.258291        -7.0284
 119   1.0000      -0.253104        -6.8873
 120   1.0000      -0.252351        -6.8668
 121   1.0000      -0.233995        -6.3673
 122   1.0000      -0.233484        -6.3534
 123   1.0000      -0.230408        -6.2697
 124   1.0000      -0.229297        -6.2395
 125   1.0000      -0.220291        -5.9944
 126   1.0000      -0.218918        -5.9571
 127   1.0000      -0.213879        -5.8200
 128   1.0000      -0.212256        -5.7758
 129   1.0000      -0.195485        -5.3194
 130   1.0000      -0.187593        -5.1047
 131   1.0000      -0.186779        -5.0825
 132   1.0000      -0.183246        -4.9864
 133   1.0000      -0.173372        -4.7177
 134   1.0000      -0.162531        -4.4227
 135   1.0000      -0.150667        -4.0999
 136   1.0000      -0.144930        -3.9438
 137   1.0000      -0.137045        -3.7292
 138   1.0000      -0.135713        -3.6929
 139   1.0000      -0.126800        -3.4504
 140   1.0000      -0.123808        -3.3690
 141   1.0000      -0.120779        -3.2866
 142   1.0000      -0.117082        -3.1860
 143   1.0000      -0.113128        -3.0784
 144   1.0000      -0.099971        -2.7203
 145   1.0000      -0.099205        -2.6995
 146   1.0000      -0.095758        -2.6057
 147   1.0000      -0.093085        -2.5330
 148   1.0000      -0.069338        -1.8868
 149   1.0000      -0.066836        -1.8187
 150   1.0000      -0.065426        -1.7803
 151   1.0000      -0.049862        -1.3568
 152   1.0000      -0.045838        -1.2473
 153   1.0000      -0.037387        -1.0173
 154   1.0000      -0.033880        -0.9219
 155   1.0000      -0.028694        -0.7808
 156   1.0000      -0.024848        -0.6762
 157   1.0000      -0.019088        -0.5194
 158   1.0000       0.026560         0.7227
 159   1.0000       0.043742         1.1903
 160   0.0000       0.136741         3.7209
 161   0.0000       0.137136         3.7317
 162   0.0000       0.153755         4.1839
 163   0.0000       0.154969         4.2169
 164   0.0000       0.156745         4.2653

MULLIKEN ATOMIC CHARGES AND SPIN POPULATIONS
--------------------------------------------
   0 V :    0.464810    1.212596
   1 S :   -0.283411   -0.024931
   2 S :   -0.279843   -0.021900
   3 S :   -0.281156   -0.021449
   4 S :   -0.273338   -0.028844
   5 O :   -0.464929   -0.147298
   6 C :   -0.078684    0.007542
   7 C :   -0.101335    0.010425
   8 C :   -0.096471    0.010162
   9 C :   -0.088036    0.005158
  10 S :    0.079113   -0.001847
  11 S :    0.114724   -0.000709
  12 S :    0.080500   -0.001537
  13 S :    0.113074   -0.000265
  14 C :   -0.196499    0.002131
  15 C :   -0.195792    0.001324
  16 C :   -0.202115    0.000015
  17 C :   -0.200032   -0.000416
  18 S :   -0.000102   -0.000135
  19 S :    0.017742   -0.000087
  20 S :    0.016749   -0.000097
  21 S :   -0.000329   -0.000018
  22 C :   -0.300771   -0.000019
  23 C :   -0.299276   -0.000005
  24 C :   -0.157027   -0.000002
  25 H :    0.144458    0.000000
  26 H :    0.113546   -0.000001
  27 H :    0.083358   -0.000004
  28 H :    0.091522   -0.000002
  29 H :    0.112438   -0.000006
  30 H :    0.140897   -0.000001
  31 C :   -0.297783    0.000167
  32 C :   -0.301763    0.000240
  33 C :   -0.156745   -0.000229
  34 H :    0.143510   -0.000032
  35 H :    0.112917    0.000046
  36 H :    0.091575    0.000023
  37 H :    0.082282    0.000010
  38 H :    0.112283    0.000005
  39 H :    0.139938   -0.000008
Sum of atomic charges         :   -2.0000000

LOEWDIN ATOMIC CHARGES AND SPIN POPULATIONS
-------------------------------------------
   0 V :   -0.149814    1.166139
   1 S :    0.051034   -0.016768
   2 S :    0.127067   -0.012975
   3 S :    0.121411   -0.013669
   4 S :    0.054447   -0.019542
   5 O :   -0.317032   -0.132207
   6 C :   -0.548627    0.007786
   7 C :   -0.570215    0.009036
   8 C :   -0.569423    0.009029
   9 C :   -0.549547    0.006499
  10 S :    0.440392   -0.002106
  11 S :    0.500205   -0.000464
  12 S :    0.442881   -0.001920
  13 S :    0.497283   -0.000276
  14 C :   -0.464513    0.000808
  15 C :   -0.463813    0.000296
  16 C :   -0.624648    0.000492
  17 C :   -0.624490    0.000044
  18 S :    0.347733   -0.000111
  19 S :    0.371306   -0.000054
  20 S :    0.370599   -0.000085
  21 S :    0.347835   -0.000052
  22 C :   -0.282297   -0.000011
  23 C :   -0.284854   -0.000010
  24 C :   -0.176028   -0.000005
  25 H :    0.063043   -0.000001
  26 H :    0.053222    0.000000
  27 H :    0.057959   -0.000003
  28 H :    0.060022   -0.000001
  29 H :    0.053542   -0.000003
  30 H :    0.061799   -0.000001
  31 C :   -0.285503    0.000032
  32 C :   -0.283027    0.000077
  33 C :   -0.176243    0.000000
  34 H :    0.062670   -0.000004
  35 H :    0.052926    0.000023
  36 H :    0.060055    0.000003
  37 H :    0.057673    0.000002
  38 H :    0.053670    0.000002
  39 H :    0.061299    0.000002

  Mayer bond orders larger than 0.100000
B(  0-V ,  1-S ) :   0.7442 B(  0-V ,  2-S ) :   0.7961 B(  0-V ,  3-S ) :   0.7878
B(  0-V ,  4-S ) :   0.7498 B(  0-V ,  5-O ) :   2.1502 B(  1-S ,  8-C ) :   1.0506
B(  2-S ,  6-C ) :   1.1644 B(  3-S ,  9-C ) :   1.1754 B(  4-S ,  7-C ) :   1.0545
B(  6-C ,  7-C ) :   1.6510 B(  6-C , 10-S ) :   0.9075 B(  7-C , 11-S ) :   0.9844
B(  8-C ,  9-C ) :   1.6681 B(  8-C , 13-S ) :   0.9782 B(  9-C , 12-S ) :   0.9096
B( 10-S , 14-C ) :   1.2199 B( 11-S , 14-C ) :   1.2611 B( 12-S , 15-C ) :   1.2179
B( 13-S , 15-C ) :   1.2577 B( 14-C , 16-C ) :   1.4399 B( 15-C , 17-C ) :   1.4430
B( 16-C , 18-S ) :   1.0774 B( 16-C , 19-S ) :   1.0988 B( 17-C , 20-S ) :   1.0974
B( 17-C , 21-S ) :   1.0794 B( 18-S , 32-C ) :   0.9872 B( 19-S , 31-C ) :   0.9927
B( 20-S , 23-C ) :   0.9918 B( 21-S , 22-C ) :   0.9863 B( 22-C , 24-C ) :   0.9122
B( 22-C , 25-H ) :   0.9678 B( 22-C , 26-H ) :   0.9645 B( 23-C , 24-C ) :   0.9167
B( 23-C , 29-H ) :   0.9664 B( 23-C , 30-H ) :   0.9633 B( 24-C , 27-H ) :   0.9628
B( 24-C , 28-H ) :   0.9716 B( 31-C , 33-C ) :   0.9167 B( 31-C , 38-H ) :   0.9666
B( 31-C , 39-H ) :   0.9630 B( 32-C , 33-C ) :   0.9120 B( 32-C , 34-H ) :   0.9682
B( 32-C , 35-H ) :   0.9642 B( 33-C , 36-H ) :   0.9715 B( 33-C , 37-H ) :   0.9627

FINAL SINGLE POINT ENERGY     -6337.628052424776

DIPOLE MOMENT
-------------
                                X             Y             Z
Electronic contribution:     -6.60208       6.52288     -10.00870
Nuclear contribution   :      7.34777      -7.25321      11.07647
                        -----------------------------------------
Total Dipole Moment    :      0.74569      -0.73032       1.06776
                        -----------------------------------------
Magnitude (a.u.)       :      1.49317
Magnitude (Debye)      :      3.79533

Rotational constants in cm-1:     0.010746     0.000804     0.000783
Rotational constants in MHz :   322.155388    24.109839    23.479003

                             ****ORCA TERMINATED NORMALLY****
TOTAL RUN TIME: 0 days 1 hours 1 minutes 57 seconds 80 msec
