                         Program Version 5.0.4 -  RELEASE  -
|  1> ! nofrozencore ReducedPop printbasis
|  2> ! B3LYP TZVP
|  3>
|  4> %basis
|  5> newgto V "CP(PPP)" end
|  6> end
|  7>
|  8> %pal
|  9> nprocs 8
| 10> end
| 11>
| 12> % sym SymThresh 1e-2 end
| 13> * xyz -2 2
| 14> V 0.8202254597867673 -0.7072000110146309 0.257048861081881
| 15> S -1.115373864258945 -1.8143523238352446 1.3278889645206462
| 16> S -0.17398019667335737 -1.4529735235682466 -1.8836004053525188
| 17> S 0.7412379822708971 0.8774601351535805 2.1580193359940565
| 18> S 1.5889815386033954 1.267493928989785 -1.0057202999967854
| 19> O 2.0825940070353735 -1.644999513028356 0.4831861899359478
| 20> C 0.7552111368419052 -0.4540245793956015 -2.9934776831343846
| 21> C 1.4589655533396713 0.6384404988227327 -2.6414213832528213
| 22> C -1.1744566427662466 -0.9779378065753688 2.87333702612116
| 23> C -0.4355631027989235 0.09767807887057774 3.2025641306005608
| 24> S 0.7239435001331843 -0.8500921552859123 -4.7456458200390665
| 25> S 2.2484315185801917 1.5475436638474394 -3.972202673863308
| 26> S -0.7261260019290399 0.801572287494931 4.829080860480459
| 27> S -2.3391309819997503 -1.5560241643409827 4.113060127893201
| 28> C 1.6995517414671553 0.5166889504957063 -5.298629768418775
| 29> C -2.016739555890086 -0.30243523003733874 5.3169330081689505
| 30> C 2.0082364100942787 0.7480928082310159 -6.610970737578383
| 31> C -2.6876840629603285 -0.20306625292666994 6.504981135933246
| 32> S 1.4818884606475005 -0.3484719833884362 -7.913438699823428
| 33> S 2.9923978698962297 2.147079105948652 -7.110962363833059
| 34> S -3.9852455161389324 -1.339428866906416 6.951918491365914
| 35> S -2.3389122654229486 1.0939245174847019 7.676727871438517
| 36> C -3.9869338803329395 1.9607821704118262 7.634126279964225
| 37> C -5.3987228506320735 -0.13479365690347017 7.020437561465573
| 38> C -5.15138159687181 1.0116738974732986 8.03067097862007
| 39> H -4.096093038375108 2.2643603957170515 6.895462167327734
| 40> H -3.928651543980416 2.579550426112625 8.192438616641716
| 41> H -6.06979243791919 1.6276520075565133 8.04962719699175
| 42> H -5.031954268430805 0.7122425043206374 8.773901399585936
| 43> H -6.14233713457478 -0.6372953937885647 7.291103608656274
| 44> H -5.541139313174598 0.1840534364621788 6.188278732617286
| 45> C 4.434735217801333 1.2303504289144693 -7.821496973359738
| 46> C 3.153348211042397 -0.8992834157947603 -8.497418751015523
| 47> C 4.0548797622696595 0.26008514968230184 -8.942749922114544
| 48> H 3.5971161211051954 -1.4397745991853452 -7.73884538330905
| 49> H 2.971227207472339 -1.5361593886983422 -9.291878599722022
| 50> H 3.5823063029248123 0.7944496600701487 -9.727364207421534
| 51> H 4.98144772256357 -0.17026285198797947 -9.349334733380507
| 52> H 5.1156345084776245 2.007818969420065 -8.204097469092066
| 53> H 4.939876006042279 0.7054426134579499 -7.003180303158659
| 54> *
| 55>
| 56> % eprnmr
| 57> gtensor true
| 58> Nuclei = all H {aiso,adip,aorb,fgrad,rho}
| 59> Nuclei = all V {aiso,adip,aorb,fgrad,rho}
| 60> end
| 61>
| 62>                          ****END OF INPUT****

CARTESIAN COORDINATES (ANGSTROEM)
---------------------------------
  V      0.818572   -0.705195    0.254230
  S     -1.117028   -1.812347    1.325071
  S     -0.175634   -1.450968   -1.886419
  S      0.739584    0.879465    2.155201
  S      1.587328    1.269499   -1.008539
  O      2.080940   -1.642994    0.480368
  C      0.753557   -0.452019   -2.996296
  C      1.457312    0.640446   -2.644240
  C     -1.176110   -0.975933    2.870519
  C     -0.437217    0.099683    3.199746
  S      0.722290   -0.848087   -4.748464
  S      2.246778    1.549549   -3.975021
  S     -0.727780    0.803577    4.826262
  S     -2.340785   -1.554019    4.110242
  C      1.697898    0.518694   -5.301448
  C     -2.018393   -0.300430    5.314115
  C      2.006583    0.750098   -6.613789
  C     -2.689338   -0.201061    6.502163
  S      1.480235   -0.346467   -7.916257
  S      2.990744    2.149084   -7.113781
  S     -3.986899   -1.337424    6.949100
  S     -2.340566    1.095930    7.673909
  C     -3.988588    1.962787    7.631308
  C     -5.400377   -0.132789    7.017619
  C     -5.153035    1.013679    8.027853
  H     -4.097747    2.266366    6.892644
  H     -3.930305    2.581556    8.189620
  H     -6.071446    1.629657    8.046809
  H     -5.033608    0.714248    8.771083
  H     -6.143991   -0.635290    7.288285
  H     -5.542793    0.186059    6.185460
  C      4.433081    1.232356   -7.824315
  C      3.151694   -0.897278   -8.500237
  C      4.053226    0.262090   -8.945568
  H      3.595462   -1.437769   -7.741664
  H      2.969573   -1.534154   -9.294697
  H      3.580653    0.796455   -9.730183
  H      4.979794   -0.168258   -9.352153
  H      5.113981    2.009824   -8.206916
  H      4.938222    0.707448   -7.005999

 Total Charge           Charge          ....   -2
 Multiplicity           Mult            ....    2
 Number of Electrons    NEL             ....  321
 Basis Dimension        Dim             ....  681

ORBITAL ENERGIES
----------------
                 SPIN UP ORBITALS
  NO   OCC          E(Eh)            E(eV)
   0   1.0000    -196.673496     -5351.7579
   1   1.0000     -88.732424     -2414.5320
   2   1.0000     -88.731918     -2414.5182
   3   1.0000     -88.730359     -2414.4758
   4   1.0000     -88.730143     -2414.4699
   5   1.0000     -88.729204     -2414.4444
   6   1.0000     -88.729005     -2414.4390
   7   1.0000     -88.727897     -2414.4088
   8   1.0000     -88.727813     -2414.4065
   9   1.0000     -88.638515     -2411.9766
  10   1.0000     -88.638271     -2411.9700
  11   1.0000     -88.638215     -2411.9685
  12   1.0000     -88.637759     -2411.9560
  13   1.0000     -22.048904      -599.9812
  14   1.0000     -18.888805      -513.9905
  15   1.0000     -18.555357      -504.9169
  16   1.0000     -18.550176      -504.7760
  17   1.0000     -18.550077      -504.7732
  18   1.0000     -10.074774      -274.1485
  19   1.0000     -10.073416      -274.1116
  20   1.0000     -10.063697      -273.8471
  21   1.0000     -10.050831      -273.4970
  22   1.0000     -10.047386      -273.4033
  23   1.0000     -10.046957      -273.3916
  24   1.0000     -10.046723      -273.3852
  25   1.0000     -10.025575      -272.8098
  26   1.0000     -10.020241      -272.6646
  27   1.0000     -10.017077      -272.5785
  28   1.0000     -10.016150      -272.5533
  29   1.0000     -10.015990      -272.5489
  30   1.0000     -10.015197      -272.5274
  31   1.0000     -10.006526      -272.2914
  32   1.0000      -7.785881      -211.8646
  33   1.0000      -7.785401      -211.8515
  34   1.0000      -7.783881      -211.8102
  35   1.0000      -7.783623      -211.8031
  36   1.0000      -7.782465      -211.7716
  37   1.0000      -7.782315      -211.7676
  38   1.0000      -7.781182      -211.7367
  39   1.0000      -7.781128      -211.7353
  40   1.0000      -7.692834      -209.3326
  41   1.0000      -7.692534      -209.3245
  42   1.0000      -7.692508      -209.3238
  43   1.0000      -7.692096      -209.3126
  44   1.0000      -5.750872      -156.4892
  45   1.0000      -5.750383      -156.4759
  46   1.0000      -5.748829      -156.4336
  47   1.0000      -5.748575      -156.4267
  48   1.0000      -5.747452      -156.3961
  49   1.0000      -5.747412      -156.3950
  50   1.0000      -5.747257      -156.3908
  51   1.0000      -5.746973      -156.3831
  52   1.0000      -5.746133      -156.3602
  53   1.0000      -5.746067      -156.3584
  54   1.0000      -5.745456      -156.3418
  55   1.0000      -5.745192      -156.3346
  56   1.0000      -5.742978      -156.2744
  57   1.0000      -5.742824      -156.2702
  58   1.0000      -5.741716      -156.2400
  59   1.0000      -5.741661      -156.2385
  60   1.0000      -5.740675      -156.2117
  61   1.0000      -5.740206      -156.1990
  62   1.0000      -5.738726      -156.1587
  63   1.0000      -5.738488      -156.1522
  64   1.0000      -5.738286      -156.1467
  65   1.0000      -5.738135      -156.1426
  66   1.0000      -5.736977      -156.1111
  67   1.0000      -5.736929      -156.1098
  68   1.0000      -5.658138      -153.9658
  69   1.0000      -5.657857      -153.9581
  70   1.0000      -5.657794      -153.9564
  71   1.0000      -5.657386      -153.9453
  72   1.0000      -5.651479      -153.7846
  73   1.0000      -5.651199      -153.7769
  74   1.0000      -5.651188      -153.7766
  75   1.0000      -5.650788      -153.7657
  76   1.0000      -5.650157      -153.7486
  77   1.0000      -5.649838      -153.7399
  78   1.0000      -5.649831      -153.7397
  79   1.0000      -5.649417      -153.7285
  80   1.0000      -2.442552       -66.4652
  81   1.0000      -1.483870       -40.3782
  82   1.0000      -1.472185       -40.0602
  83   1.0000      -1.471368       -40.0380
  84   1.0000      -0.717881       -19.5345
  85   1.0000      -0.709129       -19.2964
  86   1.0000      -0.692972       -18.8567
  87   1.0000      -0.685764       -18.6606
  88   1.0000      -0.648449       -17.6452
  89   1.0000      -0.644709       -17.5434
  90   1.0000      -0.635318       -17.2879
  91   1.0000      -0.631274       -17.1778
  92   1.0000      -0.618759       -16.8373
  93   1.0000      -0.574361       -15.6292
  94   1.0000      -0.573561       -15.6074
  95   1.0000      -0.573395       -15.6029
  96   1.0000      -0.572280       -15.5725
  97   1.0000      -0.529282       -14.4025
  98   1.0000      -0.513336       -13.9686
  99   1.0000      -0.499184       -13.5835
 100   1.0000      -0.495280       -13.4772
 101   1.0000      -0.480199       -13.0669
 102   1.0000      -0.477094       -12.9824
 103   1.0000      -0.474780       -12.9194
 104   1.0000      -0.449925       -12.2431
 105   1.0000      -0.417637       -11.3645
 106   1.0000      -0.411371       -11.1940
 107   1.0000      -0.384028       -10.4499
 108   1.0000      -0.357832        -9.7371
 109   1.0000      -0.343426        -9.3451
 110   1.0000      -0.331513        -9.0209
 111   1.0000      -0.326896        -8.8953
 112   1.0000      -0.317358        -8.6358
 113   1.0000      -0.311736        -8.4828
 114   1.0000      -0.305946        -8.3252
 115   1.0000      -0.303907        -8.2697
 116   1.0000      -0.296575        -8.0702
 117   1.0000      -0.270239        -7.3536
 118   1.0000      -0.258567        -7.0360
 119   1.0000      -0.256736        -6.9861
 120   1.0000      -0.255250        -6.9457
 121   1.0000      -0.251940        -6.8556
 122   1.0000      -0.238214        -6.4821
 123   1.0000      -0.236103        -6.4247
 124   1.0000      -0.230954        -6.2846
 125   1.0000      -0.223277        -6.0757
 126   1.0000      -0.218821        -5.9544
 127   1.0000      -0.214528        -5.8376
 128   1.0000      -0.212189        -5.7740
 129   1.0000      -0.191693        -5.2162
 130   1.0000      -0.185647        -5.0517
 131   1.0000      -0.185189        -5.0392
 132   1.0000      -0.183327        -4.9886
 133   1.0000      -0.178215        -4.8495
 134   1.0000      -0.157985        -4.2990
 135   1.0000      -0.151117        -4.1121
 136   1.0000      -0.146146        -3.9768
 137   1.0000      -0.134646        -3.6639
 138   1.0000      -0.132150        -3.5960
 139   1.0000      -0.131568        -3.5801
 140   1.0000      -0.123759        -3.3677
 141   1.0000      -0.119587        -3.2541
 142   1.0000      -0.112112        -3.0507
 143   1.0000      -0.108428        -2.9505
 144   1.0000      -0.098263        -2.6739
 145   1.0000      -0.096408        -2.6234
 146   1.0000      -0.096216        -2.6182
 147   1.0000      -0.093538        -2.5453
 148   1.0000      -0.073031        -1.9873
 149   1.0000      -0.066816        -1.8182
 150   1.0000      -0.065949        -1.7946
 151   1.0000      -0.050944        -1.3863
 152   1.0000      -0.044123        -1.2006
 153   1.0000      -0.035752        -0.9729
 154   1.0000      -0.035658        -0.9703
 155   1.0000      -0.029479        -0.8022
 156   1.0000      -0.023474        -0.6388
 157   1.0000      -0.017683        -0.4812
 158   1.0000      -0.014019        -0.3815
 159   1.0000       0.021967         0.5977
 160   1.0000       0.042788         1.1643
 161   0.0000       0.138320         3.7639
 162   0.0000       0.142769         3.8849
 163   0.0000       0.163097         4.4381
 164   0.0000       0.166439         4.5290
 165   0.0000       0.171904         4.6778

                 SPIN DOWN ORBITALS
  NO   OCC          E(Eh)            E(eV)
   0   1.0000    -196.673643     -5351.7619
   1   1.0000     -88.732425     -2414.5320
   2   1.0000     -88.731919     -2414.5183
   3   1.0000     -88.730359     -2414.4758
   4   1.0000     -88.730144     -2414.4700
   5   1.0000     -88.729213     -2414.4446
   6   1.0000     -88.729014     -2414.4392
   7   1.0000     -88.727906     -2414.4091
   8   1.0000     -88.727821     -2414.4068
   9   1.0000     -88.638655     -2411.9804
  10   1.0000     -88.638412     -2411.9738
  11   1.0000     -88.638353     -2411.9722
  12   1.0000     -88.637899     -2411.9598
  13   1.0000     -22.033967      -599.5747
  14   1.0000     -18.892598      -514.0937
  15   1.0000     -18.550085      -504.7735
  16   1.0000     -18.534138      -504.3395
  17   1.0000     -18.533956      -504.3346
  18   1.0000     -10.074769      -274.1484
  19   1.0000     -10.073416      -274.1116
  20   1.0000     -10.063696      -273.8471
  21   1.0000     -10.050830      -273.4970
  22   1.0000     -10.047375      -273.4030
  23   1.0000     -10.046957      -273.3916
  24   1.0000     -10.046719      -273.3851
  25   1.0000     -10.025575      -272.8098
  26   1.0000     -10.020241      -272.6646
  27   1.0000     -10.016839      -272.5721
  28   1.0000     -10.015927      -272.5472
  29   1.0000     -10.015776      -272.5431
  30   1.0000     -10.014985      -272.5216
  31   1.0000     -10.006527      -272.2914
  32   1.0000      -7.785882      -211.8646
  33   1.0000      -7.785402      -211.8516
  34   1.0000      -7.783882      -211.8102
  35   1.0000      -7.783624      -211.8032
  36   1.0000      -7.782475      -211.7719
  37   1.0000      -7.782325      -211.7678
  38   1.0000      -7.781191      -211.7370
  39   1.0000      -7.781137      -211.7355
  40   1.0000      -7.692964      -209.3362
  41   1.0000      -7.692666      -209.3281
  42   1.0000      -7.692637      -209.3273
  43   1.0000      -7.692227      -209.3161
  44   1.0000      -5.750873      -156.4892
  45   1.0000      -5.750384      -156.4759
  46   1.0000      -5.748829      -156.4336
  47   1.0000      -5.748576      -156.4267
  48   1.0000      -5.747454      -156.3962
  49   1.0000      -5.747423      -156.3953
  50   1.0000      -5.747268      -156.3911
  51   1.0000      -5.746974      -156.3831
  52   1.0000      -5.746143      -156.3605
  53   1.0000      -5.746078      -156.3587
  54   1.0000      -5.745457      -156.3418
  55   1.0000      -5.745192      -156.3346
  56   1.0000      -5.742992      -156.2748
  57   1.0000      -5.742837      -156.2705
  58   1.0000      -5.741730      -156.2404
  59   1.0000      -5.741674      -156.2389
  60   1.0000      -5.740676      -156.2117
  61   1.0000      -5.740207      -156.1990
  62   1.0000      -5.738726      -156.1587
  63   1.0000      -5.738488      -156.1522
  64   1.0000      -5.738294      -156.1469
  65   1.0000      -5.738144      -156.1428
  66   1.0000      -5.736983      -156.1112
  67   1.0000      -5.736936      -156.1100
  68   1.0000      -5.658276      -153.9695
  69   1.0000      -5.657998      -153.9620
  70   1.0000      -5.657937      -153.9603
  71   1.0000      -5.657528      -153.9492
  72   1.0000      -5.651865      -153.7951
  73   1.0000      -5.651582      -153.7874
  74   1.0000      -5.651541      -153.7862
  75   1.0000      -5.651150      -153.7756
  76   1.0000      -5.650244      -153.7509
  77   1.0000      -5.649944      -153.7428
  78   1.0000      -5.649925      -153.7423
  79   1.0000      -5.649524      -153.7314
  80   1.0000      -2.397652       -65.2434
  81   1.0000      -1.464556       -39.8526
  82   1.0000      -1.409790       -38.3623
  83   1.0000      -1.409629       -38.3579
  84   1.0000      -0.717879       -19.5345
  85   1.0000      -0.709105       -19.2957
  86   1.0000      -0.692925       -18.8554
  87   1.0000      -0.685707       -18.6590
  88   1.0000      -0.656577       -17.8664
  89   1.0000      -0.644710       -17.5434
  90   1.0000      -0.635267       -17.2865
  91   1.0000      -0.631200       -17.1758
  92   1.0000      -0.618758       -16.8373
  93   1.0000      -0.574293       -15.6273
  94   1.0000      -0.573533       -15.6066
  95   1.0000      -0.573372       -15.6022
  96   1.0000      -0.572196       -15.5703
  97   1.0000      -0.529281       -14.4025
  98   1.0000      -0.513345       -13.9688
  99   1.0000      -0.499205       -13.5841
 100   1.0000      -0.495304       -13.4779
 101   1.0000      -0.480423       -13.0730
 102   1.0000      -0.477355       -12.9895
 103   1.0000      -0.474837       -12.9210
 104   1.0000      -0.449955       -12.2439
 105   1.0000      -0.417648       -11.3648
 106   1.0000      -0.411488       -11.1971
 107   1.0000      -0.384028       -10.4499
 108   1.0000      -0.357824        -9.7369
 109   1.0000      -0.343426        -9.3451
 110   1.0000      -0.331498        -9.0205
 111   1.0000      -0.326879        -8.8948
 112   1.0000      -0.317289        -8.6339
 113   1.0000      -0.311750        -8.4831
 114   1.0000      -0.305916        -8.3244
 115   1.0000      -0.303873        -8.2688
 116   1.0000      -0.296567        -8.0700
 117   1.0000      -0.270235        -7.3535
 118   1.0000      -0.258411        -7.0317
 119   1.0000      -0.256694        -6.9850
 120   1.0000      -0.255195        -6.9442
 121   1.0000      -0.251906        -6.8547
 122   1.0000      -0.238154        -6.4805
 123   1.0000      -0.236081        -6.4241
 124   1.0000      -0.230916        -6.2835
 125   1.0000      -0.223126        -6.0716
 126   1.0000      -0.218663        -5.9501
 127   1.0000      -0.214127        -5.8267
 128   1.0000      -0.212045        -5.7700
 129   1.0000      -0.190024        -5.1708
 130   1.0000      -0.185572        -5.0497
 131   1.0000      -0.184777        -5.0280
 132   1.0000      -0.183097        -4.9823
 133   1.0000      -0.178106        -4.8465
 134   1.0000      -0.157363        -4.2821
 135   1.0000      -0.150944        -4.1074
 136   1.0000      -0.146066        -3.9747
 137   1.0000      -0.134052        -3.6477
 138   1.0000      -0.131792        -3.5862
 139   1.0000      -0.131310        -3.5731
 140   1.0000      -0.123188        -3.3521
 141   1.0000      -0.119263        -3.2453
 142   1.0000      -0.113922        -3.1000
 143   1.0000      -0.110007        -2.9934
 144   1.0000      -0.098276        -2.6742
 145   1.0000      -0.096711        -2.6317
 146   1.0000      -0.096209        -2.6180
 147   1.0000      -0.093868        -2.5543
 148   1.0000      -0.069199        -1.8830
 149   1.0000      -0.066812        -1.8181
 150   1.0000      -0.065944        -1.7944
 151   1.0000      -0.048357        -1.3159
 152   1.0000      -0.043186        -1.1752
 153   1.0000      -0.035806        -0.9743
 154   1.0000      -0.035090        -0.9548
 155   1.0000      -0.029495        -0.8026
 156   1.0000      -0.024513        -0.6670
 157   1.0000      -0.014229        -0.3872
 158   1.0000       0.022249         0.6054
 159   1.0000       0.041697         1.1346
 160   0.0000       0.138330         3.7642
 161   0.0000       0.142748         3.8844
 162   0.0000       0.157370         4.2823
 163   0.0000       0.163731         4.4554
 164   0.0000       0.167216         4.5502

MULLIKEN ATOMIC CHARGES AND SPIN POPULATIONS
--------------------------------------------
   0 V :    0.471537    1.211020
   1 S :   -0.292774   -0.022630
   2 S :   -0.290298   -0.025166
   3 S :   -0.290877   -0.023557
   4 S :   -0.286096   -0.025630
   5 O :   -0.468345   -0.146826
   6 C :   -0.077603    0.009677
   7 C :   -0.084540    0.008053
   8 C :   -0.083704    0.007762
   9 C :   -0.084166    0.007415
  10 S :    0.099101   -0.000582
  11 S :    0.100363   -0.000624
  12 S :    0.098281   -0.000394
  13 S :    0.097037   -0.000348
  14 C :   -0.213224    0.001521
  15 C :   -0.204334    0.000985
  16 C :   -0.191440   -0.000084
  17 C :   -0.191144   -0.000397
  18 S :    0.002294   -0.000112
  19 S :    0.009018   -0.000110
  20 S :   -0.012220   -0.000066
  21 S :   -0.020075   -0.000069
  22 C :   -0.377641   -0.000005
  23 C :   -0.337016   -0.000004
  24 C :   -0.230310   -0.000009
  25 H :    0.213502    0.000000
  26 H :    0.160568   -0.000002
  27 H :    0.055055   -0.000001
  28 H :    0.172877    0.000001
  29 H :    0.137494   -0.000003
  30 H :    0.184592   -0.000000
  31 C :   -0.299220    0.000191
  32 C :   -0.310333    0.000190
  33 C :   -0.163245   -0.000232
  34 H :    0.152828   -0.000019
  35 H :    0.123690    0.000016
  36 H :    0.098978    0.000023
  37 H :    0.079170    0.000015
  38 H :    0.110741    0.000021
  39 H :    0.141478   -0.000018
Sum of atomic charges         :   -2.0000000

LOEWDIN ATOMIC CHARGES AND SPIN POPULATIONS
-------------------------------------------
   0 V :   -0.156104    1.164307
   1 S :    0.079084   -0.014595
   2 S :    0.078874   -0.016034
   3 S :    0.080420   -0.015379
   4 S :    0.082823   -0.016257
   5 O :   -0.319440   -0.131718
   6 C :   -0.550203    0.009042
   7 C :   -0.552266    0.007954
   8 C :   -0.552838    0.008125
   9 C :   -0.552848    0.007660
  10 S :    0.470720   -0.000899
  11 S :    0.471717   -0.000947
  12 S :    0.469324   -0.000824
  13 S :    0.468517   -0.000830
  14 C :   -0.465301    0.000166
  15 C :   -0.466446   -0.000081
  16 C :   -0.622397    0.000465
  17 C :   -0.617650    0.000085
  18 S :    0.357645   -0.000089
  19 S :    0.359780   -0.000086
  20 S :    0.357331   -0.000071
  21 S :    0.359038   -0.000073
  22 C :   -0.157940   -0.000008
  23 C :   -0.208777   -0.000009
  24 C :   -0.080519   -0.000002
  25 H :   -0.014471   -0.000001
  26 H :   -0.006970   -0.000002
  27 H :    0.061864   -0.000002
  28 H :   -0.022622   -0.000000
  29 H :    0.023560   -0.000002
  30 H :    0.019198   -0.000001
  31 C :   -0.284268    0.000042
  32 C :   -0.265072    0.000036
  33 C :   -0.168767    0.000006
  34 H :    0.051621   -0.000000
  35 H :    0.043947    0.000006
  36 H :    0.054902    0.000004
  37 H :    0.057725    0.000002
  38 H :    0.054581    0.000009
  39 H :    0.062227   -0.000000

  Mayer bond orders larger than 0.100000
B(  0-V ,  1-S ) :   0.7727 B(  0-V ,  2-S ) :   0.7702 B(  0-V ,  3-S ) :   0.7660
B(  0-V ,  4-S ) :   0.7776 B(  0-V ,  5-O ) :   2.1482 B(  1-S ,  8-C ) :   1.1021
B(  2-S ,  6-C ) :   1.1044 B(  3-S ,  9-C ) :   1.1049 B(  4-S ,  7-C ) :   1.1048
B(  6-C ,  7-C ) :   1.6847 B(  6-C , 10-S ) :   0.9349 B(  7-C , 11-S ) :   0.9389
B(  8-C ,  9-C ) :   1.7012 B(  8-C , 13-S ) :   0.9328 B(  9-C , 12-S ) :   0.9347
B( 10-S , 14-C ) :   1.2486 B( 11-S , 14-C ) :   1.2482 B( 12-S , 15-C ) :   1.2443
B( 13-S , 15-C ) :   1.2439 B( 14-C , 16-C ) :   1.4505 B( 15-C , 17-C ) :   1.4494
B( 16-C , 18-S ) :   1.0890 B( 16-C , 19-S ) :   1.0902 B( 17-C , 20-S ) :   1.0985
B( 17-C , 21-S ) :   1.0988 B( 18-S , 32-C ) :   0.9889 B( 19-S , 31-C ) :   0.9933
B( 20-S , 23-C ) :   0.9828 B( 21-S , 22-C ) :   0.9645 B( 22-C , 24-C ) :   0.8750
B( 22-C , 25-H ) :   0.9823 B( 22-C , 26-H ) :   0.9821 B( 23-C , 24-C ) :   0.8884
B( 23-C , 29-H ) :   0.9771 B( 23-C , 30-H ) :   0.9805 B( 24-C , 27-H ) :   0.9641
B( 24-C , 28-H ) :   0.9922 B( 31-C , 33-C ) :   0.9135 B( 31-C , 38-H ) :   0.9655
B( 31-C , 39-H ) :   0.9663 B( 32-C , 33-C ) :   0.9088 B( 32-C , 34-H ) :   0.9713
B( 32-C , 35-H ) :   0.9694 B( 33-C , 36-H ) :   0.9757 B( 33-C , 37-H ) :   0.9629

FINAL SINGLE POINT ENERGY     -6337.404575940280

DIPOLE MOMENT
-------------
                                X             Y             Z
Electronic contribution:      7.94510      -8.82375       6.19355
Nuclear contribution   :     -9.02063       9.90088      -6.76905
                        -----------------------------------------
Total Dipole Moment    :     -1.07553       1.07712      -0.57550
                        -----------------------------------------
Magnitude (a.u.)       :      1.62732
Magnitude (Debye)      :      4.13631

Rotational constants in cm-1:     0.010770     0.000804     0.000784
Rotational constants in MHz :   322.876604    24.118278    23.488852

                             ****ORCA TERMINATED NORMALLY****
TOTAL RUN TIME: 0 days 1 hours 2 minutes 37 seconds 739 msec
