                         Program Version 5.0.4 -  RELEASE  -
|  1> ! nofrozencore ReducedPop printbasis
|  2> ! B3LYP TZVP
|  3>
|  4> %basis
|  5> newgto V "CP(PPP)" end
|  6> end
|  7>
|  8> %pal
|  9> nprocs 6
| 10> end
| 11>
| 12> % sym SymThresh 1e-2 end
| 13> * xyz -2 2
| 14> V 0.5196479765948478 0.6775435948685532 -0.7137692808292315
| 15> S -1.8180113317020434 1.45434990253162 -0.9363068134608602
| 16> S 0.4996409740805268 1.787434270113767 1.498451758165316
| 17> S -0.1799595086721608 -1.263344976317861 -2.085750964308035
| 18> S 2.0255008491865985 -0.9640083734429122 0.35306130036626754
| 19> O 1.4139183652949492 1.6060072055912784 -1.6443258610885352
| 20> C 1.90339052675283 1.1056961926500573 2.184692300869107
| 21> C 2.512146282383716 -0.01205065052219991 1.7088624408795072
| 22> C -2.4538285528980612 0.3272558424376004 -2.125292735976074
| 23> C -1.7964228652433851 -0.7554538843250334 -2.576864452945666
| 24> S 2.7071681344788607 1.7873889823311853 3.7222538569809207
| 25> S 4.0010658842993285 -0.5695675750693809 2.76760782243775
| 26> S -2.6724970613953545 -1.796994886525922 -3.7545753347447817
| 27> S -4.096920082771336 0.5876065542739481 -2.7573407333884594
| 28> C 3.673100662621769 0.6303031744734638 3.6130962133104334
| 29> C -4.205149516311478 -0.8818427839733279 -3.7801132602311696
| 30> C 4.5133648034844605 0.666059595098721 4.668339108162303
| 31> C -5.316947576332398 -1.2493487981960127 -4.488639044998298
| 32> S 4.794953372292035 2.0730862998226183 6.244547631479161
| 33> S 6.169370871175669 -0.5764764799461253 5.201206687543007
| 34> S -6.7854390762274175 -0.27975632777797743 -4.4492723732094905
| 35> S -5.32831481475759 -2.7244690906661435 -5.449051327159673
| 36> C -6.662342969457401 -3.624445299401358 -4.529079371643199
| 37> C -7.910237074402757 -1.53578083446777 -3.679828239272262
| 38> C -7.985559573143065 -2.8529331930604327 -4.461005709269511
| 39> H -6.288629567749358 -3.8411646057348823 -3.5257386100411794
| 40> H -6.797897666491895 -4.572026334685018 -5.056154870185517
| 41> H -8.731154373882976 -3.4962506740967716 -3.973304987332717
| 42> H -8.342184005446791 -2.653782962536759 -5.47645787706099
| 43> H -8.893668365056248 -1.0617207578426897 -3.633571981546074
| 44> H -7.566504840691816 -1.7117449024100229 -2.6580247121623284
| 45> C 7.550046300361363 0.6041330109333439 4.999325602539439
| 46> C 6.4564970959186185 2.7114697127788245 5.821554777069661
| 47> C 7.578257569791135 1.739687627404671 5.965435665408476
| 48> H 6.443377685978885 3.2036833623153003 4.844666202008094
| 49> H 6.591159980158317 3.4913144438048103 6.581464466612604
| 50> H 7.558534011191086 1.333818496068743 6.981972360592064
| 51> H 8.530000552154984 2.2794857303762996 5.846331312027098
| 52> H 8.417703192626288 -0.03394281796119994 5.208061843244573
| 53> H 7.62671288916075 0.9317020734955918 3.958419662173568
| 54> *
| 55>
| 56> % eprnmr
| 57> gtensor true
| 58> Nuclei = all H {aiso,adip,aorb,fgrad,rho}
| 59> Nuclei = all V {aiso,adip,aorb,fgrad,rho}
| 60> end
| 61>
| 62>                          ****END OF INPUT****

CARTESIAN COORDINATES (ANGSTROEM)
---------------------------------
  V      0.519697    0.676078   -0.710227
  S     -1.817962    1.452884   -0.932765
  S      0.499690    1.785968    1.501994
  S     -0.179911   -1.264811   -2.082209
  S      2.025550   -0.965474    0.356603
  O      1.413967    1.604541   -1.640784
  C      1.903440    1.104230    2.188234
  C      2.512195   -0.013517    1.712405
  C     -2.453780    0.325790   -2.121751
  C     -1.796374   -0.756920   -2.573322
  S      2.707217    1.785923    3.725796
  S      4.001115   -0.571034    2.771150
  S     -2.672448   -1.798461   -3.751033
  S     -4.096871    0.586141   -2.753799
  C      3.673150    0.628837    3.616638
  C     -4.205101   -0.883309   -3.776571
  C      4.513414    0.664594    4.671881
  C     -5.316899   -1.250815   -4.485097
  S      4.795002    2.071620    6.248090
  S      6.169420   -0.577942    5.204749
  S     -6.785390   -0.281222   -4.445730
  S     -5.328266   -2.725935   -5.445509
  C     -6.662294   -3.625911   -4.525537
  C     -7.910188   -1.537247   -3.676286
  C     -7.985511   -2.854399   -4.457464
  H     -6.288581   -3.842631   -3.522196
  H     -6.797849   -4.573492   -5.052613
  H     -8.731105   -3.497717   -3.969763
  H     -8.342135   -2.655249   -5.472916
  H     -8.893619   -1.063187   -3.630030
  H     -7.566456   -1.713211   -2.654483
  C      7.550095    0.602667    5.002868
  C      6.456546    2.710004    5.825097
  C      7.578307    1.738222    5.968978
  H      6.443427    3.202217    4.848208
  H      6.591209    3.489848    6.585007
  H      7.558583    1.332353    6.985514
  H      8.530050    2.278020    5.849873
  H      8.417752   -0.035409    5.211604
  H      7.626762    0.930236    3.961962

 Total Charge           Charge          ....   -2
 Multiplicity           Mult            ....    2
 Number of Electrons    NEL             ....  321
 Basis Dimension        Dim             ....  681

ORBITAL ENERGIES
----------------
                 SPIN UP ORBITALS
  NO   OCC          E(Eh)            E(eV)
   0   1.0000    -196.677276     -5351.8608
   1   1.0000     -88.734295     -2414.5829
   2   1.0000     -88.734124     -2414.5783
   3   1.0000     -88.731706     -2414.5125
   4   1.0000     -88.731401     -2414.5042
   5   1.0000     -88.728293     -2414.4196
   6   1.0000     -88.727662     -2414.4024
   7   1.0000     -88.725718     -2414.3495
   8   1.0000     -88.723435     -2414.2874
   9   1.0000     -88.642775     -2412.0925
  10   1.0000     -88.641551     -2412.0592
  11   1.0000     -88.641530     -2412.0587
  12   1.0000     -88.641078     -2412.0464
  13   1.0000     -22.052601      -600.0818
  14   1.0000     -18.892502      -514.0911
  15   1.0000     -18.559000      -505.0161
  16   1.0000     -18.553902      -504.8774
  17   1.0000     -18.553794      -504.8744
  18   1.0000     -10.079020      -274.2641
  19   1.0000     -10.064710      -273.8747
  20   1.0000     -10.064665      -273.8734
  21   1.0000     -10.055659      -273.6284
  22   1.0000     -10.055498      -273.6240
  23   1.0000     -10.054144      -273.5872
  24   1.0000     -10.053293      -273.5640
  25   1.0000     -10.052872      -273.5526
  26   1.0000     -10.049021      -273.4478
  27   1.0000     -10.039050      -273.1764
  28   1.0000     -10.021324      -272.6941
  29   1.0000     -10.020096      -272.6607
  30   1.0000     -10.019426      -272.6424
  31   1.0000     -10.018342      -272.6129
  32   1.0000      -7.788158      -211.9266
  33   1.0000      -7.787995      -211.9221
  34   1.0000      -7.787163      -211.8995
  35   1.0000      -7.784923      -211.8385
  36   1.0000      -7.784702      -211.8325
  37   1.0000      -7.784225      -211.8195
  38   1.0000      -7.778675      -211.6685
  39   1.0000      -7.778130      -211.6537
  40   1.0000      -7.697524      -209.4603
  41   1.0000      -7.696560      -209.4341
  42   1.0000      -7.695846      -209.4146
  43   1.0000      -7.695670      -209.4098
  44   1.0000      -5.753131      -156.5507
  45   1.0000      -5.752964      -156.5461
  46   1.0000      -5.751533      -156.5072
  47   1.0000      -5.749713      -156.4576
  48   1.0000      -5.749668      -156.4564
  49   1.0000      -5.749506      -156.4520
  50   1.0000      -5.749219      -156.4442
  51   1.0000      -5.749087      -156.4406
  52   1.0000      -5.747310      -156.3923
  53   1.0000      -5.745216      -156.3353
  54   1.0000      -5.745171      -156.3341
  55   1.0000      -5.744758      -156.3228
  56   1.0000      -5.743898      -156.2994
  57   1.0000      -5.743327      -156.2839
  58   1.0000      -5.742947      -156.2735
  59   1.0000      -5.742785      -156.2691
  60   1.0000      -5.742030      -156.2486
  61   1.0000      -5.740811      -156.2154
  62   1.0000      -5.740506      -156.2071
  63   1.0000      -5.740260      -156.2004
  64   1.0000      -5.740069      -156.1952
  65   1.0000      -5.739857      -156.1894
  66   1.0000      -5.733236      -156.0093
  67   1.0000      -5.732707      -155.9949
  68   1.0000      -5.662526      -154.0852
  69   1.0000      -5.661446      -154.0558
  70   1.0000      -5.661174      -154.0484
  71   1.0000      -5.661014      -154.0440
  72   1.0000      -5.656238      -153.9141
  73   1.0000      -5.655243      -153.8870
  74   1.0000      -5.655028      -153.8811
  75   1.0000      -5.654506      -153.8669
  76   1.0000      -5.654379      -153.8635
  77   1.0000      -5.654048      -153.8545
  78   1.0000      -5.653162      -153.8304
  79   1.0000      -5.652948      -153.8245
  80   1.0000      -2.446337       -66.5682
  81   1.0000      -1.487468       -40.4761
  82   1.0000      -1.475985       -40.1636
  83   1.0000      -1.475303       -40.1450
  84   1.0000      -0.772516       -21.0212
  85   1.0000      -0.711370       -19.3574
  86   1.0000      -0.687269       -18.7015
  87   1.0000      -0.684946       -18.6383
  88   1.0000      -0.651995       -17.7417
  89   1.0000      -0.635071       -17.2812
  90   1.0000      -0.627652       -17.0793
  91   1.0000      -0.619308       -16.8522
  92   1.0000      -0.618491       -16.8300
  93   1.0000      -0.607018       -16.5178
  94   1.0000      -0.575035       -15.6475
  95   1.0000      -0.572436       -15.5768
  96   1.0000      -0.555565       -15.1177
  97   1.0000      -0.507698       -13.8152
  98   1.0000      -0.500680       -13.6242
  99   1.0000      -0.498918       -13.5762
 100   1.0000      -0.496986       -13.5237
 101   1.0000      -0.478939       -13.0326
 102   1.0000      -0.463431       -12.6106
 103   1.0000      -0.448141       -12.1945
 104   1.0000      -0.430378       -11.7112
 105   1.0000      -0.416351       -11.3295
 106   1.0000      -0.406658       -11.0657
 107   1.0000      -0.356563        -9.7026
 108   1.0000      -0.346755        -9.4357
 109   1.0000      -0.327752        -8.9186
 110   1.0000      -0.325951        -8.8696
 111   1.0000      -0.322405        -8.7731
 112   1.0000      -0.316378        -8.6091
 113   1.0000      -0.305266        -8.3067
 114   1.0000      -0.303698        -8.2640
 115   1.0000      -0.293085        -7.9752
 116   1.0000      -0.292277        -7.9533
 117   1.0000      -0.261555        -7.1173
 118   1.0000      -0.259892        -7.0720
 119   1.0000      -0.259544        -7.0626
 120   1.0000      -0.240215        -6.5366
 121   1.0000      -0.238323        -6.4851
 122   1.0000      -0.235801        -6.4165
 123   1.0000      -0.232937        -6.3385
 124   1.0000      -0.220783        -6.0078
 125   1.0000      -0.220269        -5.9938
 126   1.0000      -0.214921        -5.8483
 127   1.0000      -0.213418        -5.8074
 128   1.0000      -0.208928        -5.6852
 129   1.0000      -0.203921        -5.5490
 130   1.0000      -0.189120        -5.1462
 131   1.0000      -0.187504        -5.1022
 132   1.0000      -0.181859        -4.9486
 133   1.0000      -0.171363        -4.6630
 134   1.0000      -0.159532        -4.3411
 135   1.0000      -0.154703        -4.2097
 136   1.0000      -0.146766        -3.9937
 137   1.0000      -0.143306        -3.8995
 138   1.0000      -0.135267        -3.6808
 139   1.0000      -0.127344        -3.4652
 140   1.0000      -0.127020        -3.4564
 141   1.0000      -0.115894        -3.1536
 142   1.0000      -0.109969        -2.9924
 143   1.0000      -0.107315        -2.9202
 144   1.0000      -0.104852        -2.8532
 145   1.0000      -0.099724        -2.7136
 146   1.0000      -0.096780        -2.6335
 147   1.0000      -0.092259        -2.5105
 148   1.0000      -0.073718        -2.0060
 149   1.0000      -0.069652        -1.8953
 150   1.0000      -0.056550        -1.5388
 151   1.0000      -0.051783        -1.4091
 152   1.0000      -0.044724        -1.2170
 153   1.0000      -0.039918        -1.0862
 154   1.0000      -0.036841        -1.0025
 155   1.0000      -0.030668        -0.8345
 156   1.0000      -0.021997        -0.5986
 157   1.0000      -0.019534        -0.5315
 158   1.0000      -0.018345        -0.4992
 159   1.0000       0.021192         0.5767
 160   1.0000       0.041735         1.1357
 161   0.0000       0.110868         3.0169
 162   0.0000       0.135471         3.6863
 163   0.0000       0.146620         3.9897
 164   0.0000       0.151916         4.1339
 165   0.0000       0.161605         4.3975

                 SPIN DOWN ORBITALS
  NO   OCC          E(Eh)            E(eV)
   0   1.0000    -196.677422     -5351.8647
   1   1.0000     -88.734296     -2414.5829
   2   1.0000     -88.734124     -2414.5783
   3   1.0000     -88.731714     -2414.5127
   4   1.0000     -88.731409     -2414.5044
   5   1.0000     -88.728294     -2414.4196
   6   1.0000     -88.727663     -2414.4025
   7   1.0000     -88.725728     -2414.3498
   8   1.0000     -88.723445     -2414.2877
   9   1.0000     -88.642915     -2412.0963
  10   1.0000     -88.641693     -2412.0631
  11   1.0000     -88.641667     -2412.0624
  12   1.0000     -88.641211     -2412.0500
  13   1.0000     -22.037628      -599.6743
  14   1.0000     -18.896314      -514.1949
  15   1.0000     -18.553702      -504.8719
  16   1.0000     -18.537795      -504.4391
  17   1.0000     -18.537676      -504.4358
  18   1.0000     -10.079020      -274.2641
  19   1.0000     -10.064710      -273.8747
  20   1.0000     -10.064665      -273.8735
  21   1.0000     -10.055659      -273.6284
  22   1.0000     -10.055498      -273.6240
  23   1.0000     -10.054138      -273.5870
  24   1.0000     -10.053278      -273.5636
  25   1.0000     -10.052872      -273.5526
  26   1.0000     -10.049017      -273.4477
  27   1.0000     -10.039049      -273.1764
  28   1.0000     -10.021109      -272.6883
  29   1.0000     -10.019859      -272.6542
  30   1.0000     -10.019222      -272.6369
  31   1.0000     -10.018129      -272.6072
  32   1.0000      -7.788159      -211.9266
  33   1.0000      -7.787996      -211.9221
  34   1.0000      -7.787174      -211.8998
  35   1.0000      -7.784933      -211.8388
  36   1.0000      -7.784711      -211.8328
  37   1.0000      -7.784234      -211.8198
  38   1.0000      -7.778676      -211.6685
  39   1.0000      -7.778131      -211.6537
  40   1.0000      -7.697656      -209.4639
  41   1.0000      -7.696686      -209.4375
  42   1.0000      -7.695973      -209.4181
  43   1.0000      -7.695803      -209.4134
  44   1.0000      -5.753132      -156.5507
  45   1.0000      -5.752965      -156.5461
  46   1.0000      -5.751549      -156.5076
  47   1.0000      -5.749723      -156.4579
  48   1.0000      -5.749669      -156.4564
  49   1.0000      -5.749507      -156.4520
  50   1.0000      -5.749229      -156.4445
  51   1.0000      -5.749100      -156.4410
  52   1.0000      -5.747329      -156.3928
  53   1.0000      -5.745230      -156.3357
  54   1.0000      -5.745188      -156.3345
  55   1.0000      -5.744772      -156.3232
  56   1.0000      -5.743901      -156.2995
  57   1.0000      -5.743329      -156.2839
  58   1.0000      -5.742948      -156.2736
  59   1.0000      -5.742786      -156.2691
  60   1.0000      -5.742037      -156.2488
  61   1.0000      -5.740813      -156.2155
  62   1.0000      -5.740512      -156.2073
  63   1.0000      -5.740263      -156.2005
  64   1.0000      -5.740075      -156.1954
  65   1.0000      -5.739866      -156.1897
  66   1.0000      -5.733237      -156.0093
  67   1.0000      -5.732707      -155.9949
  68   1.0000      -5.662657      -154.0887
  69   1.0000      -5.661575      -154.0593
  70   1.0000      -5.661316      -154.0523
  71   1.0000      -5.661159      -154.0480
  72   1.0000      -5.656629      -153.9247
  73   1.0000      -5.655609      -153.8969
  74   1.0000      -5.655116      -153.8835
  75   1.0000      -5.654856      -153.8764
  76   1.0000      -5.654749      -153.8735
  77   1.0000      -5.654134      -153.8568
  78   1.0000      -5.653267      -153.8332
  79   1.0000      -5.653056      -153.8275
  80   1.0000      -2.401335       -65.3437
  81   1.0000      -1.468060       -39.9479
  82   1.0000      -1.413567       -38.4651
  83   1.0000      -1.413383       -38.4601
  84   1.0000      -0.772501       -21.0208
  85   1.0000      -0.711360       -19.3571
  86   1.0000      -0.687268       -18.7015
  87   1.0000      -0.684895       -18.6369
  88   1.0000      -0.660183       -17.9645
  89   1.0000      -0.635021       -17.2798
  90   1.0000      -0.627644       -17.0791
  91   1.0000      -0.619310       -16.8523
  92   1.0000      -0.618331       -16.8257
  93   1.0000      -0.607019       -16.5178
  94   1.0000      -0.575003       -15.6466
  95   1.0000      -0.572388       -15.5755
  96   1.0000      -0.555556       -15.1175
  97   1.0000      -0.507867       -13.8198
  98   1.0000      -0.500701       -13.6248
  99   1.0000      -0.498952       -13.5772
 100   1.0000      -0.497022       -13.5246
 101   1.0000      -0.479191       -13.0395
 102   1.0000      -0.463439       -12.6108
 103   1.0000      -0.448181       -12.1956
 104   1.0000      -0.430385       -11.7114
 105   1.0000      -0.416385       -11.3304
 106   1.0000      -0.406714       -11.0672
 107   1.0000      -0.356559        -9.7025
 108   1.0000      -0.346756        -9.4357
 109   1.0000      -0.327741        -8.9183
 110   1.0000      -0.325938        -8.8692
 111   1.0000      -0.322393        -8.7728
 112   1.0000      -0.316388        -8.6094
 113   1.0000      -0.305216        -8.3053
 114   1.0000      -0.303684        -8.2637
 115   1.0000      -0.293079        -7.9751
 116   1.0000      -0.292277        -7.9533
 117   1.0000      -0.261536        -7.1168
 118   1.0000      -0.259829        -7.0703
 119   1.0000      -0.259457        -7.0602
 120   1.0000      -0.240043        -6.5319
 121   1.0000      -0.238305        -6.4846
 122   1.0000      -0.235779        -6.4159
 123   1.0000      -0.232896        -6.3374
 124   1.0000      -0.220563        -6.0018
 125   1.0000      -0.220260        -5.9936
 126   1.0000      -0.214714        -5.8427
 127   1.0000      -0.213171        -5.8007
 128   1.0000      -0.208849        -5.6831
 129   1.0000      -0.203286        -5.5317
 130   1.0000      -0.188862        -5.1392
 131   1.0000      -0.186063        -5.0630
 132   1.0000      -0.181723        -4.9449
 133   1.0000      -0.171192        -4.6584
 134   1.0000      -0.159015        -4.3270
 135   1.0000      -0.154432        -4.2023
 136   1.0000      -0.146601        -3.9892
 137   1.0000      -0.142536        -3.8786
 138   1.0000      -0.134877        -3.6702
 139   1.0000      -0.127096        -3.4585
 140   1.0000      -0.126472        -3.4415
 141   1.0000      -0.117632        -3.2009
 142   1.0000      -0.111775        -3.0415
 143   1.0000      -0.107457        -2.9240
 144   1.0000      -0.104895        -2.8543
 145   1.0000      -0.099908        -2.7186
 146   1.0000      -0.096902        -2.6368
 147   1.0000      -0.092303        -2.5117
 148   1.0000      -0.070162        -1.9092
 149   1.0000      -0.069605        -1.8941
 150   1.0000      -0.054245        -1.4761
 151   1.0000      -0.051683        -1.4064
 152   1.0000      -0.043776        -1.1912
 153   1.0000      -0.039132        -1.0648
 154   1.0000      -0.036861        -1.0030
 155   1.0000      -0.031618        -0.8604
 156   1.0000      -0.019751        -0.5375
 157   1.0000      -0.018979        -0.5164
 158   1.0000       0.021530         0.5859
 159   1.0000       0.040617         1.1053
 160   0.0000       0.110618         3.0101
 161   0.0000       0.135465         3.6862
 162   0.0000       0.146593         3.9890
 163   0.0000       0.153179         4.1682
 164   0.0000       0.153690         4.1821

MULLIKEN ATOMIC CHARGES AND SPIN POPULATIONS
--------------------------------------------
   0 V :    0.460482    1.212006
   1 S :   -0.289692   -0.022249
   2 S :   -0.276423   -0.023518
   3 S :   -0.288987   -0.024214
   4 S :   -0.274738   -0.025813
   5 O :   -0.467153   -0.147395
   6 C :   -0.105270    0.009229
   7 C :   -0.117668    0.007532
   8 C :   -0.082463    0.007518
   9 C :   -0.083838    0.007317
  10 S :    0.126115   -0.000768
  11 S :    0.112572   -0.000766
  12 S :    0.094782   -0.000399
  13 S :    0.097519   -0.000326
  14 C :    0.150972    0.000822
  15 C :   -0.222274    0.000914
  16 C :   -0.448842    0.001132
  17 C :   -0.181523   -0.000413
  18 S :   -0.063473   -0.000324
  19 S :   -0.065138   -0.000333
  20 S :    0.013943   -0.000067
  21 S :    0.013675   -0.000070
  22 C :   -0.303070   -0.000001
  23 C :   -0.301859   -0.000002
  24 C :   -0.159923   -0.000010
  25 H :    0.143488   -0.000001
  26 H :    0.114894   -0.000004
  27 H :    0.084903   -0.000000
  28 H :    0.092074   -0.000001
  29 H :    0.114586   -0.000004
  30 H :    0.142939   -0.000001
  31 C :   -0.275852    0.000206
  32 C :   -0.275125    0.000207
  33 C :   -0.131677   -0.000169
  34 H :    0.138990   -0.000027
  35 H :    0.104742    0.000010
  36 H :    0.093336   -0.000022
  37 H :    0.070966    0.000024
  38 H :    0.104980    0.000010
  39 H :    0.139031   -0.000028
Sum of atomic charges         :   -2.0000000

LOEWDIN ATOMIC CHARGES AND SPIN POPULATIONS
-------------------------------------------
   0 V :   -0.152647    1.165614
   1 S :    0.080999   -0.014367
   2 S :    0.111995   -0.014486
   3 S :    0.077823   -0.015997
   4 S :    0.104277   -0.016340
   5 O :   -0.319774   -0.132244
   6 C :   -0.527559    0.008741
   7 C :   -0.507148    0.007508
   8 C :   -0.559843    0.007959
   9 C :   -0.549527    0.007505
  10 S :    0.576672   -0.001233
  11 S :    0.562634   -0.001223
  12 S :    0.462019   -0.000806
  13 S :    0.467438   -0.000817
  14 C :   -0.625282    0.000073
  15 C :   -0.454194   -0.000120
  16 C :   -0.486660    0.000789
  17 C :   -0.633957    0.000078
  18 S :    0.237838   -0.000260
  19 S :    0.236529   -0.000266
  20 S :    0.368408   -0.000072
  21 S :    0.368143   -0.000074
  22 C :   -0.281551   -0.000007
  23 C :   -0.281799   -0.000008
  24 C :   -0.175214   -0.000002
  25 H :    0.062662   -0.000002
  26 H :    0.053734   -0.000002
  27 H :    0.058302   -0.000001
  28 H :    0.060261   -0.000001
  29 H :    0.053687   -0.000002
  30 H :    0.062473   -0.000002
  31 C :   -0.305858    0.000022
  32 C :   -0.305144    0.000020
  33 C :   -0.187755    0.000014
  34 H :    0.061287   -0.000008
  35 H :    0.053962    0.000014
  36 H :    0.060881   -0.000004
  37 H :    0.056770    0.000000
  38 H :    0.054030    0.000014
  39 H :    0.061090   -0.000008

  Mayer bond orders larger than 0.100000
B(  0-V ,  1-S ) :   0.7763 B(  0-V ,  2-S ) :   0.7688 B(  0-V ,  3-S ) :   0.7678
B(  0-V ,  4-S ) :   0.7753 B(  0-V ,  5-O ) :   2.1499 B(  1-S ,  8-C ) :   1.0985
B(  2-S ,  6-C ) :   1.1578 B(  3-S ,  9-C ) :   1.1006 B(  4-S ,  7-C ) :   1.1537
B(  6-C ,  7-C ) :   1.6554 B(  6-C , 10-S ) :   0.8674 B(  7-C , 11-S ) :   0.8445
B(  8-C ,  9-C ) :   1.6999 B(  8-C , 13-S ) :   0.9459 B(  9-C , 12-S ) :   0.9338
B( 10-S , 14-C ) :   1.3169 B( 11-S , 14-C ) :   1.3303 B( 12-S , 15-C ) :   1.2385
B( 13-S , 15-C ) :   1.2281 B( 14-C , 16-C ) :   1.2154 B( 15-C , 17-C ) :   1.4476
B( 16-C , 18-S ) :   0.9363 B( 16-C , 19-S ) :   0.9402 B( 17-C , 20-S ) :   1.0997
B( 17-C , 21-S ) :   1.1006 B( 18-S , 32-C ) :   1.0302 B( 19-S , 31-C ) :   1.0316
B( 20-S , 23-C ) :   0.9884 B( 21-S , 22-C ) :   0.9880 B( 22-C , 24-C ) :   0.9144
B( 22-C , 25-H ) :   0.9657 B( 22-C , 26-H ) :   0.9650 B( 23-C , 24-C ) :   0.9152
B( 23-C , 29-H ) :   0.9652 B( 23-C , 30-H ) :   0.9655 B( 24-C , 27-H ) :   0.9630
B( 24-C , 28-H ) :   0.9713 B( 31-C , 33-C ) :   0.9000 B( 31-C , 38-H ) :   0.9702
B( 31-C , 39-H ) :   0.9661 B( 32-C , 33-C ) :   0.9002 B( 32-C , 34-H ) :   0.9659
B( 32-C , 35-H ) :   0.9704 B( 33-C , 36-H ) :   0.9797 B( 33-C , 37-H ) :   0.9540

FINAL SINGLE POINT ENERGY     -6337.500628909877

DIPOLE MOMENT
-------------
                                X             Y             Z
Electronic contribution:      2.85270       7.91223     -11.16063
Nuclear contribution   :     -3.72436      -8.85572      11.82309
                        -----------------------------------------
Total Dipole Moment    :     -0.87166      -0.94349       0.66246
                        -----------------------------------------
Magnitude (a.u.)       :      1.44527
Magnitude (Debye)      :      3.67359

Rotational constants in cm-1:     0.010751     0.000804     0.000783
Rotational constants in MHz :   322.292195    24.115854    23.484154

                             ****ORCA TERMINATED NORMALLY****
TOTAL RUN TIME: 0 days 1 hours 45 minutes 39 seconds 465 msec
