                         Program Version 5.0.4 -  RELEASE  -
|  1> ! nofrozencore ReducedPop printbasis
|  2> ! B3LYP TZVP
|  3>
|  4> %basis
|  5> newgto V "CP(PPP)" end
|  6> end
|  7>
|  8> %pal
|  9> nprocs 6
| 10> end
| 11>
| 12> % sym SymThresh 1e-2 end
| 13> * xyz -2 2
| 14> V -0.1531267733201784 -0.3805692605263994 -1.0347272636003848
| 15> S 2.041958527435016 0.7375122250889261 -1.259233052660945
| 16> S 1.0703775354431064 -2.1186965155542854 0.23363468680371935
| 17> S -1.118954681687024 1.8992845878782076 -1.0569126410465528
| 18> S -2.038288786410036 -0.8713616963627173 0.478720560687539
| 19> O -0.4889194412167809 -1.0435178819018742 -2.4390578475403775
| 20> C -0.29397232698027825 -2.9534411468967026 0.9643297777577395
| 21> C -1.5390327062331588 -2.4511603152973587 1.0653949711407478
| 22> C 1.5492733553447013 2.3979680805151804 -1.5624572105309995
| 23> C 0.28863042791248483 2.8611022862788063 -1.4785959188832645
| 24> S -0.024602831324342517 -4.566259217326872 1.7071203190982804
| 25> S -2.7422856678454663 -3.4567124333597063 1.9395288888275832
| 26> S 0.05813961803136553 4.616136979805389 -1.7826312082501385
| 27> S 2.816859331932129 3.60305871710137 -1.9731500990927462
| 28> C -1.655834215051743 -4.800980877363052 2.3325462182994965
| 29> C 1.7602047063713397 5.019029166430426 -2.0353611555767936
| 30> C -2.0637861707402028 -5.8996279846058375 3.038045388537861
| 31> C 2.2100431508885503 6.289834556348542 -2.264761967001687
| 32> S -0.9436453477599233 -7.2581565286404786 3.3702856207647542
| 33> S -3.7196312394128803 -6.086202804004156 3.6419669901219254
| 34> S 3.9382213719238712 6.64748154614498 -2.5112635682576236
| 35> S 1.104719769630337 7.687904359119829 -2.296595092389653
| 36> C 1.7946685059763883 8.608127859600232 -0.8456158899280599
| 37> C 4.205176750634498 7.728124967433786 -1.0316373556006253
| 38> C 3.2808184409641474 8.94698180433897 -0.9837113651793317
| 39> H 1.6130499263238516 8.01080062817357 0.05067768946551927
| 40> H 1.2015213708309112 9.523140377400898 -0.7722781803251519
| 41> H 3.5727457763933264 9.56340696656119 -0.1219314789238396
| 42> H 3.431926546825813 9.552475191771158 -1.8829076977746093
| 43> H 5.249217993756614 8.045957284455259 -1.0891723053076456
| 44> H 4.0842349249923355 7.113137644695157 -0.13710356159666676
| 45> C -4.276310302158291 -7.487287732508629 2.6721887252353027
| 46> C -1.9624154644882177 -8.59806730817763 2.45712714030117
| 47> C -3.151897319260428 -8.84597577520824 2.8855825226447633
| 48> H -2.0156151068141392 -8.429423241327884 1.3725769105437962
| 49> H -1.3925607045396715 -9.51623961013425 2.625552874177157
| 50> H -3.07602167840105 -9.140059816398036 3.940427437573331
| 51> H -3.3368931852297066 -9.801390499240643 2.313859397723821
| 52> H -5.3040172036553 -7.705726034683678 2.97236338327009
| 53> H -4.293809709300218 -7.089043032499576 1.6470677560626983
| 54> *
| 55>
| 56> % eprnmr
| 57> gtensor true
| 58> Nuclei = all H {aiso,adip,aorb,fgrad,rho}
| 59> Nuclei = all V {aiso,adip,aorb,fgrad,rho}
| 60> end
| 61>
| 62>                          ****END OF INPUT****

CARTESIAN COORDINATES (ANGSTROEM)
---------------------------------
  V     -0.153215   -0.381469   -1.031002
  S      2.041870    0.736612   -1.255508
  S      1.070289   -2.119597    0.237360
  S     -1.119043    1.898384   -1.053187
  S     -2.038377   -0.872262    0.482446
  O     -0.489008   -1.044418   -2.435332
  C     -0.294061   -2.954341    0.968055
  C     -1.539121   -2.452060    1.069121
  C      1.549185    2.397068   -1.558732
  C      0.288542    2.860202   -1.474870
  S     -0.024691   -4.567159    1.710846
  S     -2.742374   -3.457613    1.943254
  S      0.058051    4.615237   -1.778906
  S      2.816771    3.602159   -1.969425
  C     -1.655923   -4.801881    2.336272
  C      1.760116    5.018129   -2.031636
  C     -2.063875   -5.900528    3.041771
  C      2.209955    6.288934   -2.261036
  S     -0.943734   -7.259057    3.374011
  S     -3.719720   -6.087103    3.645693
  S      3.938133    6.646581   -2.507538
  S      1.104631    7.687004   -2.292870
  C      1.794580    8.607228   -0.841890
  C      4.205088    7.727225   -1.027912
  C      3.280730    8.946082   -0.979986
  H      1.612961    8.009901    0.054403
  H      1.201433    9.522240   -0.768553
  H      3.572657    9.562507   -0.118206
  H      3.431838    9.551575   -1.879182
  H      5.249130    8.045057   -1.085447
  H      4.084146    7.112238   -0.133378
  C     -4.276399   -7.488188    2.675914
  C     -1.962504   -8.598967    2.460853
  C     -3.151986   -8.846876    2.889308
  H     -2.015704   -8.430323    1.376302
  H     -1.392649   -9.517140    2.629278
  H     -3.076110   -9.140960    3.944153
  H     -3.336982   -9.802291    2.317585
  H     -5.304106   -7.706626    2.976089
  H     -4.293898   -7.089943    1.650793

 Total Charge           Charge          ....   -2
 Multiplicity           Mult            ....    2
 Number of Electrons    NEL             ....  321
 Basis Dimension        Dim             ....  681

ORBITAL ENERGIES
----------------
                 SPIN UP ORBITALS
  NO   OCC          E(Eh)            E(eV)
   0   1.0000    -196.674526     -5351.7859
   1   1.0000     -88.733022     -2414.5483
   2   1.0000     -88.732918     -2414.5455
   3   1.0000     -88.732822     -2414.5428
   4   1.0000     -88.731933     -2414.5186
   5   1.0000     -88.730354     -2414.4757
   6   1.0000     -88.729822     -2414.4612
   7   1.0000     -88.729763     -2414.4596
   8   1.0000     -88.729518     -2414.4529
   9   1.0000     -88.639468     -2412.0026
  10   1.0000     -88.639399     -2412.0007
  11   1.0000     -88.639199     -2411.9952
  12   1.0000     -88.638933     -2411.9880
  13   1.0000     -22.049925      -600.0090
  14   1.0000     -18.889792      -514.0174
  15   1.0000     -18.556374      -504.9446
  16   1.0000     -18.551199      -504.8038
  17   1.0000     -18.551099      -504.8011
  18   1.0000     -10.075612      -274.1713
  19   1.0000     -10.075521      -274.1689
  20   1.0000     -10.074078      -274.1296
  21   1.0000     -10.063083      -273.8304
  22   1.0000     -10.063042      -273.8293
  23   1.0000     -10.051792      -273.5232
  24   1.0000     -10.050964      -273.5006
  25   1.0000     -10.050479      -273.4874
  26   1.0000     -10.048260      -273.4270
  27   1.0000     -10.048185      -273.4250
  28   1.0000     -10.017935      -272.6019
  29   1.0000     -10.017596      -272.5926
  30   1.0000     -10.017055      -272.5779
  31   1.0000     -10.016802      -272.5710
  32   1.0000      -7.787273      -211.9025
  33   1.0000      -7.786471      -211.8807
  34   1.0000      -7.786373      -211.8780
  35   1.0000      -7.784743      -211.8336
  36   1.0000      -7.783677      -211.8046
  37   1.0000      -7.783090      -211.7886
  38   1.0000      -7.783053      -211.7876
  39   1.0000      -7.782761      -211.7797
  40   1.0000      -7.693762      -209.3579
  41   1.0000      -7.693715      -209.3566
  42   1.0000      -7.693447      -209.3493
  43   1.0000      -7.693323      -209.3460
  44   1.0000      -5.752256      -156.5269
  45   1.0000      -5.751461      -156.5052
  46   1.0000      -5.751360      -156.5025
  47   1.0000      -5.749521      -156.4524
  48   1.0000      -5.748607      -156.4276
  49   1.0000      -5.748599      -156.4273
  50   1.0000      -5.748043      -156.4122
  51   1.0000      -5.748040      -156.4121
  52   1.0000      -5.748000      -156.4110
  53   1.0000      -5.747947      -156.4096
  54   1.0000      -5.747707      -156.4031
  55   1.0000      -5.746588      -156.3726
  56   1.0000      -5.744168      -156.3068
  57   1.0000      -5.743602      -156.2914
  58   1.0000      -5.743571      -156.2905
  59   1.0000      -5.743295      -156.2830
  60   1.0000      -5.742103      -156.2506
  61   1.0000      -5.741274      -156.2280
  62   1.0000      -5.741170      -156.2252
  63   1.0000      -5.739623      -156.1831
  64   1.0000      -5.739520      -156.1803
  65   1.0000      -5.738902      -156.1635
  66   1.0000      -5.738874      -156.1627
  67   1.0000      -5.738574      -156.1545
  68   1.0000      -5.659075      -153.9913
  69   1.0000      -5.659015      -153.9896
  70   1.0000      -5.658776      -153.9831
  71   1.0000      -5.658616      -153.9788
  72   1.0000      -5.652424      -153.8103
  73   1.0000      -5.652359      -153.8085
  74   1.0000      -5.652124      -153.8021
  75   1.0000      -5.651979      -153.7982
  76   1.0000      -5.651081      -153.7737
  77   1.0000      -5.651040      -153.7726
  78   1.0000      -5.650740      -153.7645
  79   1.0000      -5.650628      -153.7614
  80   1.0000      -2.443568       -66.4929
  81   1.0000      -1.484871       -40.4054
  82   1.0000      -1.473204       -40.0879
  83   1.0000      -1.472393       -40.0658
  84   1.0000      -0.722260       -19.6537
  85   1.0000      -0.709290       -19.3008
  86   1.0000      -0.697509       -18.9802
  87   1.0000      -0.685259       -18.6468
  88   1.0000      -0.652115       -17.7450
  89   1.0000      -0.649311       -17.6687
  90   1.0000      -0.631010       -17.1707
  91   1.0000      -0.616972       -16.7887
  92   1.0000      -0.612096       -16.6560
  93   1.0000      -0.575591       -15.6626
  94   1.0000      -0.574217       -15.6252
  95   1.0000      -0.572779       -15.5861
  96   1.0000      -0.570080       -15.5127
  97   1.0000      -0.506157       -13.7732
  98   1.0000      -0.495799       -13.4914
  99   1.0000      -0.495664       -13.4877
 100   1.0000      -0.483625       -13.1601
 101   1.0000      -0.478065       -13.0088
 102   1.0000      -0.472310       -12.8522
 103   1.0000      -0.446074       -12.1383
 104   1.0000      -0.438270       -11.9259
 105   1.0000      -0.416278       -11.3275
 106   1.0000      -0.411084       -11.1862
 107   1.0000      -0.364661        -9.9229
 108   1.0000      -0.354974        -9.6593
 109   1.0000      -0.338963        -9.2237
 110   1.0000      -0.326255        -8.8778
 111   1.0000      -0.320371        -8.7177
 112   1.0000      -0.315873        -8.5953
 113   1.0000      -0.306914        -8.3516
 114   1.0000      -0.303601        -8.2614
 115   1.0000      -0.292036        -7.9467
 116   1.0000      -0.291545        -7.9334
 117   1.0000      -0.268418        -7.3040
 118   1.0000      -0.260142        -7.0788
 119   1.0000      -0.256711        -6.9855
 120   1.0000      -0.256258        -6.9731
 121   1.0000      -0.239969        -6.5299
 122   1.0000      -0.234178        -6.3723
 123   1.0000      -0.230316        -6.2672
 124   1.0000      -0.219601        -5.9757
 125   1.0000      -0.216529        -5.8920
 126   1.0000      -0.215344        -5.8598
 127   1.0000      -0.211730        -5.7615
 128   1.0000      -0.206511        -5.6195
 129   1.0000      -0.191924        -5.2225
 130   1.0000      -0.186995        -5.0884
 131   1.0000      -0.183717        -4.9992
 132   1.0000      -0.180310        -4.9065
 133   1.0000      -0.174697        -4.7538
 134   1.0000      -0.159051        -4.3280
 135   1.0000      -0.150475        -4.0946
 136   1.0000      -0.145669        -3.9639
 137   1.0000      -0.134449        -3.6585
 138   1.0000      -0.133079        -3.6213
 139   1.0000      -0.132477        -3.6049
 140   1.0000      -0.124554        -3.3893
 141   1.0000      -0.120612        -3.2820
 142   1.0000      -0.113093        -3.0774
 143   1.0000      -0.109171        -2.9707
 144   1.0000      -0.099350        -2.7034
 145   1.0000      -0.097767        -2.6604
 146   1.0000      -0.096953        -2.6382
 147   1.0000      -0.094171        -2.5625
 148   1.0000      -0.074120        -2.0169
 149   1.0000      -0.067194        -1.8284
 150   1.0000      -0.066409        -1.8071
 151   1.0000      -0.051965        -1.4140
 152   1.0000      -0.045198        -1.2299
 153   1.0000      -0.037060        -1.0084
 154   1.0000      -0.036728        -0.9994
 155   1.0000      -0.030842        -0.8392
 156   1.0000      -0.024581        -0.6689
 157   1.0000      -0.018728        -0.5096
 158   1.0000      -0.015052        -0.4096
 159   1.0000       0.020791         0.5658
 160   1.0000       0.041637         1.1330
 161   0.0000       0.137020         3.7285
 162   0.0000       0.137572         3.7435
 163   0.0000       0.154584         4.2064
 164   0.0000       0.162498         4.4218
 165   0.0000       0.166573         4.5327

                 SPIN DOWN ORBITALS
  NO   OCC          E(Eh)            E(eV)
   0   1.0000    -196.674673     -5351.7899
   1   1.0000     -88.733022     -2414.5483
   2   1.0000     -88.732919     -2414.5455
   3   1.0000     -88.732822     -2414.5429
   4   1.0000     -88.731933     -2414.5187
   5   1.0000     -88.730363     -2414.4759
   6   1.0000     -88.729830     -2414.4614
   7   1.0000     -88.729771     -2414.4598
   8   1.0000     -88.729527     -2414.4532
   9   1.0000     -88.639605     -2412.0063
  10   1.0000     -88.639539     -2412.0045
  11   1.0000     -88.639340     -2411.9991
  12   1.0000     -88.639072     -2411.9918
  13   1.0000     -22.034991      -599.6026
  14   1.0000     -18.893584      -514.1205
  15   1.0000     -18.551104      -504.8012
  16   1.0000     -18.535163      -504.3674
  17   1.0000     -18.534981      -504.3625
  18   1.0000     -10.075612      -274.1713
  19   1.0000     -10.075516      -274.1687
  20   1.0000     -10.074077      -274.1296
  21   1.0000     -10.063084      -273.8304
  22   1.0000     -10.063042      -273.8293
  23   1.0000     -10.051792      -273.5232
  24   1.0000     -10.050964      -273.5006
  25   1.0000     -10.050478      -273.4874
  26   1.0000     -10.048248      -273.4267
  27   1.0000     -10.048180      -273.4249
  28   1.0000     -10.017698      -272.5954
  29   1.0000     -10.017382      -272.5868
  30   1.0000     -10.016830      -272.5718
  31   1.0000     -10.016590      -272.5653
  32   1.0000      -7.787274      -211.9025
  33   1.0000      -7.786472      -211.8807
  34   1.0000      -7.786373      -211.8780
  35   1.0000      -7.784744      -211.8336
  36   1.0000      -7.783687      -211.8049
  37   1.0000      -7.783099      -211.7889
  38   1.0000      -7.783063      -211.7879
  39   1.0000      -7.782771      -211.7800
  40   1.0000      -7.693889      -209.3614
  41   1.0000      -7.693846      -209.3602
  42   1.0000      -7.693578      -209.3529
  43   1.0000      -7.693452      -209.3495
  44   1.0000      -5.752258      -156.5269
  45   1.0000      -5.751462      -156.5052
  46   1.0000      -5.751361      -156.5025
  47   1.0000      -5.749522      -156.4524
  48   1.0000      -5.748618      -156.4279
  49   1.0000      -5.748600      -156.4274
  50   1.0000      -5.748054      -156.4125
  51   1.0000      -5.748040      -156.4121
  52   1.0000      -5.748011      -156.4113
  53   1.0000      -5.747948      -156.4096
  54   1.0000      -5.747718      -156.4033
  55   1.0000      -5.746589      -156.3726
  56   1.0000      -5.744182      -156.3071
  57   1.0000      -5.743617      -156.2918
  58   1.0000      -5.743585      -156.2909
  59   1.0000      -5.743309      -156.2834
  60   1.0000      -5.742104      -156.2506
  61   1.0000      -5.741274      -156.2280
  62   1.0000      -5.741171      -156.2252
  63   1.0000      -5.739624      -156.1831
  64   1.0000      -5.739528      -156.1805
  65   1.0000      -5.738908      -156.1636
  66   1.0000      -5.738880      -156.1629
  67   1.0000      -5.738583      -156.1548
  68   1.0000      -5.659218      -153.9951
  69   1.0000      -5.659153      -153.9934
  70   1.0000      -5.658917      -153.9870
  71   1.0000      -5.658758      -153.9826
  72   1.0000      -5.652774      -153.8198
  73   1.0000      -5.652748      -153.8191
  74   1.0000      -5.652507      -153.8125
  75   1.0000      -5.652340      -153.8080
  76   1.0000      -5.651186      -153.7766
  77   1.0000      -5.651127      -153.7750
  78   1.0000      -5.650833      -153.7670
  79   1.0000      -5.650734      -153.7643
  80   1.0000      -2.398678       -65.2713
  81   1.0000      -1.465564       -39.8800
  82   1.0000      -1.410822       -38.3904
  83   1.0000      -1.410663       -38.3861
  84   1.0000      -0.722256       -19.6536
  85   1.0000      -0.709275       -19.3004
  86   1.0000      -0.697450       -18.9786
  87   1.0000      -0.685216       -18.6457
  88   1.0000      -0.657583       -17.8937
  89   1.0000      -0.651925       -17.7398
  90   1.0000      -0.630952       -17.1691
  91   1.0000      -0.616974       -16.7887
  92   1.0000      -0.612048       -16.6547
  93   1.0000      -0.575544       -15.6613
  94   1.0000      -0.574195       -15.6246
  95   1.0000      -0.572714       -15.5844
  96   1.0000      -0.570022       -15.5111
  97   1.0000      -0.506167       -13.7735
  98   1.0000      -0.495828       -13.4922
  99   1.0000      -0.495707       -13.4889
 100   1.0000      -0.483816       -13.1653
 101   1.0000      -0.478283       -13.0147
 102   1.0000      -0.472402       -12.8547
 103   1.0000      -0.446107       -12.1392
 104   1.0000      -0.438294       -11.9266
 105   1.0000      -0.416276       -11.3274
 106   1.0000      -0.411195       -11.1892
 107   1.0000      -0.364655        -9.9228
 108   1.0000      -0.354969        -9.6592
 109   1.0000      -0.338955        -9.2234
 110   1.0000      -0.326244        -8.8776
 111   1.0000      -0.320311        -8.7161
 112   1.0000      -0.315870        -8.5953
 113   1.0000      -0.306876        -8.3505
 114   1.0000      -0.303567        -8.2605
 115   1.0000      -0.292031        -7.9466
 116   1.0000      -0.291535        -7.9331
 117   1.0000      -0.268400        -7.3035
 118   1.0000      -0.260020        -7.0755
 119   1.0000      -0.256648        -6.9837
 120   1.0000      -0.256203        -6.9716
 121   1.0000      -0.239869        -6.5272
 122   1.0000      -0.234147        -6.3715
 123   1.0000      -0.230277        -6.2661
 124   1.0000      -0.219310        -5.9677
 125   1.0000      -0.216326        -5.8865
 126   1.0000      -0.215175        -5.8552
 127   1.0000      -0.211577        -5.7573
 128   1.0000      -0.206430        -5.6173
 129   1.0000      -0.190028        -5.1709
 130   1.0000      -0.186909        -5.0861
 131   1.0000      -0.183482        -4.9928
 132   1.0000      -0.180176        -4.9028
 133   1.0000      -0.174587        -4.7507
 134   1.0000      -0.158434        -4.3112
 135   1.0000      -0.150314        -4.0903
 136   1.0000      -0.145593        -3.9618
 137   1.0000      -0.133783        -3.6404
 138   1.0000      -0.132828        -3.6144
 139   1.0000      -0.132138        -3.5957
 140   1.0000      -0.124051        -3.3756
 141   1.0000      -0.120287        -3.2732
 142   1.0000      -0.114898        -3.1265
 143   1.0000      -0.110760        -3.0139
 144   1.0000      -0.099331        -2.7029
 145   1.0000      -0.098102        -2.6695
 146   1.0000      -0.096937        -2.6378
 147   1.0000      -0.094491        -2.5712
 148   1.0000      -0.070296        -1.9128
 149   1.0000      -0.067179        -1.8280
 150   1.0000      -0.066405        -1.8070
 151   1.0000      -0.049372        -1.3435
 152   1.0000      -0.044262        -1.2044
 153   1.0000      -0.037104        -1.0096
 154   1.0000      -0.036160        -0.9840
 155   1.0000      -0.030886        -0.8404
 156   1.0000      -0.025616        -0.6970
 157   1.0000      -0.015263        -0.4153
 158   1.0000       0.021083         0.5737
 159   1.0000       0.040537         1.1031
 160   0.0000       0.137027         3.7287
 161   0.0000       0.137563         3.7433
 162   0.0000       0.153900         4.1878
 163   0.0000       0.157275         4.2797
 164   0.0000       0.163260         4.4425

MULLIKEN ATOMIC CHARGES AND SPIN POPULATIONS
--------------------------------------------
   0 V :    0.471155    1.210818
   1 S :   -0.291060   -0.022450
   2 S :   -0.289672   -0.025130
   3 S :   -0.289222   -0.023444
   4 S :   -0.285320   -0.025712
   5 O :   -0.467955   -0.146833
   6 C :   -0.078917    0.009681
   7 C :   -0.083439    0.008066
   8 C :   -0.084121    0.007733
   9 C :   -0.084594    0.007393
  10 S :    0.105333   -0.000604
  11 S :    0.094111   -0.000605
  12 S :    0.099963   -0.000394
  13 S :    0.099128   -0.000345
  14 C :   -0.209386    0.001495
  15 C :   -0.212355    0.000992
  16 C :   -0.195791   -0.000055
  17 C :   -0.190177   -0.000404
  18 S :   -0.011359   -0.000113
  19 S :    0.020958   -0.000108
  20 S :    0.008153   -0.000068
  21 S :    0.008083   -0.000071
  22 C :   -0.300664   -0.000001
  23 C :   -0.300069   -0.000002
  24 C :   -0.157951   -0.000011
  25 H :    0.143235   -0.000001
  26 H :    0.113712   -0.000004
  27 H :    0.083440   -0.000000
  28 H :    0.091975   -0.000001
  29 H :    0.113324   -0.000005
  30 H :    0.142910   -0.000001
  31 C :   -0.309922    0.000143
  32 C :   -0.302986    0.000221
  33 C :   -0.108773   -0.000214
  34 H :    0.130909   -0.000014
  35 H :    0.101666    0.000014
  36 H :    0.086583    0.000024
  37 H :    0.068674    0.000006
  38 H :    0.120355    0.000020
  39 H :    0.150067   -0.000017
Sum of atomic charges         :   -2.0000000

LOEWDIN ATOMIC CHARGES AND SPIN POPULATIONS
-------------------------------------------
   0 V :   -0.156004    1.164152
   1 S :    0.079944   -0.014476
   2 S :    0.079445   -0.016007
   3 S :    0.081221   -0.015300
   4 S :    0.083100   -0.016336
   5 O :   -0.319162   -0.131727
   6 C :   -0.550572    0.009049
   7 C :   -0.551493    0.007960
   8 C :   -0.552428    0.008131
   9 C :   -0.552392    0.007661
  10 S :    0.476087   -0.000909
  11 S :    0.467104   -0.000940
  12 S :    0.471285   -0.000824
  13 S :    0.470568   -0.000830
  14 C :   -0.465202    0.000166
  15 C :   -0.465147   -0.000082
  16 C :   -0.622322    0.000471
  17 C :   -0.622200    0.000084
  18 S :    0.329647   -0.000092
  19 S :    0.380605   -0.000082
  20 S :    0.358946   -0.000073
  21 S :    0.358529   -0.000075
  22 C :   -0.283312   -0.000007
  23 C :   -0.283404   -0.000009
  24 C :   -0.176109   -0.000002
  25 H :    0.062557   -0.000001
  26 H :    0.053592   -0.000002
  27 H :    0.057994   -0.000002
  28 H :    0.060158   -0.000001
  29 H :    0.053533   -0.000002
  30 H :    0.062380   -0.000002
  31 C :   -0.302017    0.000041
  32 C :   -0.278004    0.000037
  33 C :   -0.168713    0.000011
  34 H :    0.064064    0.000000
  35 H :    0.055456    0.000006
  36 H :    0.057980    0.000004
  37 H :    0.068676   -0.000000
  38 H :    0.053017    0.000009
  39 H :    0.062594   -0.000001

  Mayer bond orders larger than 0.100000
B(  0-V ,  1-S ) :   0.7719 B(  0-V ,  2-S ) :   0.7709 B(  0-V ,  3-S ) :   0.7652
B(  0-V ,  4-S ) :   0.7784 B(  0-V ,  5-O ) :   2.1484 B(  1-S ,  8-C ) :   1.1036
B(  2-S ,  6-C ) :   1.1045 B(  3-S ,  9-C ) :   1.1062 B(  4-S ,  7-C ) :   1.1045
B(  6-C ,  7-C ) :   1.6847 B(  6-C , 10-S ) :   0.9342 B(  7-C , 11-S ) :   0.9401
B(  8-C ,  9-C ) :   1.6987 B(  8-C , 13-S ) :   0.9336 B(  9-C , 12-S ) :   0.9353
B( 10-S , 14-C ) :   1.2553 B( 11-S , 14-C ) :   1.2384 B( 12-S , 15-C ) :   1.2467
B( 13-S , 15-C ) :   1.2468 B( 14-C , 16-C ) :   1.4510 B( 15-C , 17-C ) :   1.4535
B( 16-C , 18-S ) :   1.0808 B( 16-C , 19-S ) :   1.0920 B( 17-C , 20-S ) :   1.0879
B( 17-C , 21-S ) :   1.0884 B( 18-S , 32-C ) :   0.9922 B( 19-S , 31-C ) :   0.9746
B( 20-S , 23-C ) :   0.9915 B( 21-S , 22-C ) :   0.9907 B( 22-C , 24-C ) :   0.9133
B( 22-C , 25-H ) :   0.9658 B( 22-C , 26-H ) :   0.9655 B( 23-C , 24-C ) :   0.9138
B( 23-C , 29-H ) :   0.9656 B( 23-C , 30-H ) :   0.9656 B( 24-C , 27-H ) :   0.9625
B( 24-C , 28-H ) :   0.9719 B( 31-C , 33-C ) :   0.8469 B( 31-C , 38-H ) :   0.9543
B( 31-C , 39-H ) :   0.9662 B( 32-C , 33-C ) :   0.9135 B( 32-C , 34-H ) :   0.9632
B( 32-C , 35-H ) :   0.9788 B( 33-C , 36-H ) :   0.9774 B( 33-C , 37-H ) :   0.9575

FINAL SINGLE POINT ENERGY     -6337.628735121802

DIPOLE MOMENT
-------------
                                X             Y             Z
Electronic contribution:     -0.39108      -1.61715     -13.48772
Nuclear contribution   :      0.43762       1.83351      15.00136
                        -----------------------------------------
Total Dipole Moment    :      0.04654       0.21636       1.51364
                        -----------------------------------------
Magnitude (a.u.)       :      1.52973
Magnitude (Debye)      :      3.88827

Rotational constants in cm-1:     0.010758     0.000804     0.000783
Rotational constants in MHz :   322.511046    24.115639    23.485830

                             ****ORCA TERMINATED NORMALLY****
TOTAL RUN TIME: 0 days 1 hours 6 minutes 46 seconds 348 msec
