                         Program Version 5.0.4 -  RELEASE  -
|  1> ! nofrozencore ReducedPop printbasis
|  2> ! B3LYP TZVP
|  3>
|  4> %basis
|  5> newgto V "CP(PPP)" end
|  6> end
|  7>
|  8> %pal
|  9> nprocs 8
| 10> end
| 11>
| 12> % sym SymThresh 1e-2 end
| 13> * xyz -2 2
| 14> V -0.6533220242005814 -0.5740893854028356 0.6784529071337593
| 15> S -2.1110345253202762 1.3572286997415304 0.5675661919571249
| 16> S -1.226285871690914 -0.9522214372113174 -1.7456888489096414
| 17> S 0.7493870136040116 0.5718020123550648 2.3330044637075513
| 18> S 1.5053369373547734 -1.6182515731944136 -0.03291908630502099
| 19> O -1.5335617996466644 -1.5332041759482433 1.6060278885092103
| 20> C -0.06051903932417296 -2.193273548982372 -2.215906800498286
| 21> C 1.0583233505825824 -2.4586883514688846 -1.5170791517702282
| 22> C -1.3840647940983444 2.2826202514251115 1.8656577088821706
| 23> C -0.27202487156467975 1.977860490448792 2.560750481698849
| 24> S -0.29237632950307985 -3.152894190161393 -3.7311331323695547
| 25> S 2.1608953463505833 -3.705844108101779 -2.211847693274952
| 26> S 0.2460476860007075 3.1627181631031007 3.7957394154143995
| 27> S -2.1804049365380282 3.830798053046657 2.2540029609342898
| 28> C 1.2321599503546137 -4.062520489386783 -3.679309483866327
| 29> C -1.0375779938051015 4.33149313539499 3.4917804198423554
| 30> C 1.6401286772135935 -4.945568287798499 -4.651562993711512
| 31> C -1.138308137331314 5.511034470042171 4.160309669906956
| 32> S 0.6549531947074317 -5.333038539733835 -6.091809309971311
| 33> S 3.175929800848597 -5.858529810010233 -4.565031741858239
| 34> S -2.456212931768611 6.651955170749931 3.8140031252724373
| 35> S 0.07464013683597374 5.9473705480616985 5.37994077078711
| 36> C 0.7225551975592132 7.459138701272489 4.540676700501936
| 37> C -1.4315872970693861 8.100114452099344 3.2822357326948537
| 38> C -0.36342304001899384 8.512473334486174 4.299913851081345
| 39> H 1.189633105807135 7.1535820251596425 3.600213603213364
| 40> H 1.5012593089434219 7.856459271428866 5.1975890596495935
| 41> H 0.11847606100942724 9.429747846740344 3.9289862130185105
| 42> H -0.842353018976283 8.759050720162428 5.255098057074636
| 43> H -2.1423316410328184 8.917849092595329 3.1300471100849756
| 44> H -0.9740930316785907 7.860915239224422 2.3170713760008494
| 45> C 2.4859023833422143 -7.575384014862039 -4.425925345448363
| 46> C 0.3044531542634361 -7.114627858855245 -5.709385988824095
| 47> C 1.5622855002838545 -7.977531111639849 -5.579166641127519
| 48> H -0.2907940955831671 -7.150064341542245 -4.793444205343382
| 49> H -0.3172410363339176 -7.472620125254362 -6.534288208972596
| 50> H 2.1215009938466753 -7.947662746210439 -6.521657305607472
| 51> H 1.248715225698898 -9.02038533173857 -5.418220820703363
| 52> H 3.358852401095899 -8.232399614478227 -4.392572183816796
| 53> H 1.9659736865157922 -7.650681951776878 -3.467729090822125
| 54> *
| 55>
| 56> % eprnmr
| 57> gtensor true
| 58> Nuclei = all H {aiso,adip,aorb,fgrad,rho}
| 59> Nuclei = all V {aiso,adip,aorb,fgrad,rho}
| 60> end
| 61>
| 62>                          ****END OF INPUT****

CARTESIAN COORDINATES (ANGSTROEM)
---------------------------------
  V     -0.651233   -0.573812    0.675250
  S     -2.108945    1.357506    0.564364
  S     -1.224196   -0.951945   -1.748891
  S      0.751477    0.572079    2.329802
  S      1.507426   -1.617975   -0.036122
  O     -1.531472   -1.532927    1.602825
  C     -0.058430   -2.192997   -2.219109
  C      1.060413   -2.458411   -1.520282
  C     -1.381975    2.282897    1.862455
  C     -0.269935    1.978137    2.557548
  S     -0.290287   -3.152617   -3.734336
  S      2.162985   -3.705567   -2.215050
  S      0.248137    3.162995    3.792537
  S     -2.178315    3.831075    2.250801
  C      1.234249   -4.062244   -3.682512
  C     -1.035488    4.331770    3.488578
  C      1.642218   -4.945291   -4.654765
  C     -1.136219    5.511311    4.157107
  S      0.657043   -5.332762   -6.095012
  S      3.178019   -5.858253   -4.568234
  S     -2.454123    6.652232    3.810801
  S      0.076730    5.947647    5.376738
  C      0.724645    7.459416    4.537474
  C     -1.429498    8.100391    3.279033
  C     -0.361334    8.512750    4.296711
  H      1.191723    7.153859    3.597011
  H      1.503349    7.856736    5.194387
  H      0.120566    9.430025    3.925784
  H     -0.840264    8.759328    5.251896
  H     -2.140242    8.918126    3.126845
  H     -0.972004    7.861192    2.313869
  C      2.487992   -7.575107   -4.429128
  C      0.306543   -7.114351   -5.712588
  C      1.564375   -7.977254   -5.582369
  H     -0.288705   -7.149787   -4.796647
  H     -0.315152   -7.472343   -6.537491
  H      2.123590   -7.947386   -6.524860
  H      1.250805   -9.020108   -5.421423
  H      3.360942   -8.232123   -4.395775
  H      1.968063   -7.650405   -3.470932

 Total Charge           Charge          ....   -2
 Multiplicity           Mult            ....    2
 Number of Electrons    NEL             ....  321
 Basis Dimension        Dim             ....  681

ORBITAL ENERGIES
----------------
                 SPIN UP ORBITALS
  NO   OCC          E(Eh)            E(eV)
   0   1.0000    -196.675938     -5351.8243
   1   1.0000     -88.734142     -2414.5788
   2   1.0000     -88.733124     -2414.5511
   3   1.0000     -88.732678     -2414.5389
   4   1.0000     -88.732369     -2414.5305
   5   1.0000     -88.731375     -2414.5035
   6   1.0000     -88.730956     -2414.4921
   7   1.0000     -88.728605     -2414.4281
   8   1.0000     -88.728174     -2414.4164
   9   1.0000     -88.640193     -2412.0223
  10   1.0000     -88.639977     -2412.0164
  11   1.0000     -88.638762     -2411.9834
  12   1.0000     -88.638585     -2411.9785
  13   1.0000     -22.051212      -600.0440
  14   1.0000     -18.888970      -513.9950
  15   1.0000     -18.557611      -504.9783
  16   1.0000     -18.552495      -504.8391
  17   1.0000     -18.552420      -504.8370
  18   1.0000     -10.078913      -274.2612
  19   1.0000     -10.071938      -274.0714
  20   1.0000     -10.064555      -273.8705
  21   1.0000     -10.063343      -273.8375
  22   1.0000     -10.063150      -273.8322
  23   1.0000     -10.062918      -273.8259
  24   1.0000     -10.051835      -273.5243
  25   1.0000     -10.051408      -273.5127
  26   1.0000     -10.050114      -273.4775
  27   1.0000     -10.045803      -273.3602
  28   1.0000     -10.018699      -272.6226
  29   1.0000     -10.017688      -272.5951
  30   1.0000     -10.017051      -272.5778
  31   1.0000     -10.016228      -272.5554
  32   1.0000      -7.787624      -211.9120
  33   1.0000      -7.786852      -211.8910
  34   1.0000      -7.785902      -211.8652
  35   1.0000      -7.785663      -211.8587
  36   1.0000      -7.784155      -211.8176
  37   1.0000      -7.783909      -211.8109
  38   1.0000      -7.782209      -211.7647
  39   1.0000      -7.782004      -211.7591
  40   1.0000      -7.695065      -209.3934
  41   1.0000      -7.694569      -209.3799
  42   1.0000      -7.692537      -209.3246
  43   1.0000      -7.692503      -209.3237
  44   1.0000      -5.752619      -156.5367
  45   1.0000      -5.751794      -156.5143
  46   1.0000      -5.750922      -156.4905
  47   1.0000      -5.750667      -156.4836
  48   1.0000      -5.749157      -156.4425
  49   1.0000      -5.749130      -156.4418
  50   1.0000      -5.748865      -156.4346
  51   1.0000      -5.748406      -156.4221
  52   1.0000      -5.747514      -156.3978
  53   1.0000      -5.747288      -156.3917
  54   1.0000      -5.747151      -156.3879
  55   1.0000      -5.746922      -156.3817
  56   1.0000      -5.744714      -156.3216
  57   1.0000      -5.744441      -156.3142
  58   1.0000      -5.742711      -156.2671
  59   1.0000      -5.742474      -156.2607
  60   1.0000      -5.742449      -156.2600
  61   1.0000      -5.741671      -156.2388
  62   1.0000      -5.740673      -156.2117
  63   1.0000      -5.740424      -156.2049
  64   1.0000      -5.739999      -156.1933
  65   1.0000      -5.739761      -156.1868
  66   1.0000      -5.737982      -156.1384
  67   1.0000      -5.737792      -156.1333
  68   1.0000      -5.660277      -154.0240
  69   1.0000      -5.659816      -154.0114
  70   1.0000      -5.657939      -153.9603
  71   1.0000      -5.657931      -153.9601
  72   1.0000      -5.653818      -153.8482
  73   1.0000      -5.653347      -153.8354
  74   1.0000      -5.652267      -153.8060
  75   1.0000      -5.651764      -153.7923
  76   1.0000      -5.651132      -153.7751
  77   1.0000      -5.651108      -153.7745
  78   1.0000      -5.649924      -153.7423
  79   1.0000      -5.649840      -153.7400
  80   1.0000      -2.444612       -66.5213
  81   1.0000      -1.484886       -40.4058
  82   1.0000      -1.474422       -40.1211
  83   1.0000      -1.473709       -40.1017
  84   1.0000      -0.712491       -19.3879
  85   1.0000      -0.706312       -19.2197
  86   1.0000      -0.686812       -18.6891
  87   1.0000      -0.683457       -18.5978
  88   1.0000      -0.648013       -17.6333
  89   1.0000      -0.632641       -17.2150
  90   1.0000      -0.629300       -17.1241
  91   1.0000      -0.619025       -16.8445
  92   1.0000      -0.614728       -16.7276
  93   1.0000      -0.578303       -15.7364
  94   1.0000      -0.573385       -15.6026
  95   1.0000      -0.572016       -15.5654
  96   1.0000      -0.570326       -15.5194
  97   1.0000      -0.498714       -13.5707
  98   1.0000      -0.496488       -13.5101
  99   1.0000      -0.494813       -13.4645
 100   1.0000      -0.492856       -13.4113
 101   1.0000      -0.480881       -13.0854
 102   1.0000      -0.475153       -12.9296
 103   1.0000      -0.446992       -12.1633
 104   1.0000      -0.444835       -12.1046
 105   1.0000      -0.416666       -11.3381
 106   1.0000      -0.410680       -11.1752
 107   1.0000      -0.354982        -9.6595
 108   1.0000      -0.354543        -9.6476
 109   1.0000      -0.326746        -8.8912
 110   1.0000      -0.325542        -8.8584
 111   1.0000      -0.319573        -8.6960
 112   1.0000      -0.313431        -8.5289
 113   1.0000      -0.304051        -8.2737
 114   1.0000      -0.303124        -8.2484
 115   1.0000      -0.292444        -7.9578
 116   1.0000      -0.291351        -7.9281
 117   1.0000      -0.258044        -7.0217
 118   1.0000      -0.257643        -7.0108
 119   1.0000      -0.255535        -6.9534
 120   1.0000      -0.255091        -6.9414
 121   1.0000      -0.235126        -6.3981
 122   1.0000      -0.233377        -6.3505
 123   1.0000      -0.231873        -6.3096
 124   1.0000      -0.228671        -6.2224
 125   1.0000      -0.220419        -5.9979
 126   1.0000      -0.216471        -5.8905
 127   1.0000      -0.213844        -5.8190
 128   1.0000      -0.212973        -5.7953
 129   1.0000      -0.192484        -5.2377
 130   1.0000      -0.187756        -5.1091
 131   1.0000      -0.184791        -5.0284
 132   1.0000      -0.184488        -5.0202
 133   1.0000      -0.178920        -4.8687
 134   1.0000      -0.159775        -4.3477
 135   1.0000      -0.151504        -4.1226
 136   1.0000      -0.146561        -3.9881
 137   1.0000      -0.135247        -3.6803
 138   1.0000      -0.133521        -3.6333
 139   1.0000      -0.132592        -3.6080
 140   1.0000      -0.123813        -3.3691
 141   1.0000      -0.121932        -3.3179
 142   1.0000      -0.110301        -3.0014
 143   1.0000      -0.107955        -2.9376
 144   1.0000      -0.099265        -2.7011
 145   1.0000      -0.097824        -2.6619
 146   1.0000      -0.096986        -2.6391
 147   1.0000      -0.093128        -2.5341
 148   1.0000      -0.073538        -2.0011
 149   1.0000      -0.069692        -1.8964
 150   1.0000      -0.064623        -1.7585
 151   1.0000      -0.055268        -1.5039
 152   1.0000      -0.045416        -1.2358
 153   1.0000      -0.037239        -1.0133
 154   1.0000      -0.035297        -0.9605
 155   1.0000      -0.030105        -0.8192
 156   1.0000      -0.024045        -0.6543
 157   1.0000      -0.019293        -0.5250
 158   1.0000      -0.013683        -0.3723
 159   1.0000       0.021193         0.5767
 160   1.0000       0.040854         1.1117
 161   0.0000       0.136030         3.7016
 162   0.0000       0.137888         3.7521
 163   0.0000       0.161480         4.3941
 164   0.0000       0.162507         4.4220
 165   0.0000       0.169859         4.6221

                 SPIN DOWN ORBITALS
  NO   OCC          E(Eh)            E(eV)
   0   1.0000    -196.676083     -5351.8283
   1   1.0000     -88.734143     -2414.5788
   2   1.0000     -88.733124     -2414.5511
   3   1.0000     -88.732679     -2414.5389
   4   1.0000     -88.732370     -2414.5305
   5   1.0000     -88.731385     -2414.5037
   6   1.0000     -88.730965     -2414.4923
   7   1.0000     -88.728609     -2414.4282
   8   1.0000     -88.728176     -2414.4164
   9   1.0000     -88.640347     -2412.0265
  10   1.0000     -88.640133     -2412.0206
  11   1.0000     -88.638908     -2411.9873
  12   1.0000     -88.638729     -2411.9824
  13   1.0000     -22.036123      -599.6334
  14   1.0000     -18.892952      -514.1034
  15   1.0000     -18.552211      -504.8313
  16   1.0000     -18.536292      -504.3982
  17   1.0000     -18.536210      -504.3959
  18   1.0000     -10.078912      -274.2611
  19   1.0000     -10.071935      -274.0713
  20   1.0000     -10.064555      -273.8705
  21   1.0000     -10.063343      -273.8375
  22   1.0000     -10.063149      -273.8322
  23   1.0000     -10.062917      -273.8259
  24   1.0000     -10.051835      -273.5243
  25   1.0000     -10.051408      -273.5127
  26   1.0000     -10.050109      -273.4774
  27   1.0000     -10.045795      -273.3600
  28   1.0000     -10.018516      -272.6177
  29   1.0000     -10.017515      -272.5904
  30   1.0000     -10.016791      -272.5708
  31   1.0000     -10.015955      -272.5480
  32   1.0000      -7.787624      -211.9120
  33   1.0000      -7.786852      -211.8910
  34   1.0000      -7.785903      -211.8652
  35   1.0000      -7.785663      -211.8587
  36   1.0000      -7.784165      -211.8179
  37   1.0000      -7.783920      -211.8112
  38   1.0000      -7.782214      -211.7648
  39   1.0000      -7.782008      -211.7592
  40   1.0000      -7.695208      -209.3972
  41   1.0000      -7.694713      -209.3838
  42   1.0000      -7.692673      -209.3283
  43   1.0000      -7.692641      -209.3274
  44   1.0000      -5.752620      -156.5367
  45   1.0000      -5.751795      -156.5143
  46   1.0000      -5.750922      -156.4906
  47   1.0000      -5.750668      -156.4836
  48   1.0000      -5.749158      -156.4425
  49   1.0000      -5.749143      -156.4421
  50   1.0000      -5.748877      -156.4349
  51   1.0000      -5.748406      -156.4221
  52   1.0000      -5.747515      -156.3978
  53   1.0000      -5.747289      -156.3917
  54   1.0000      -5.747153      -156.3880
  55   1.0000      -5.746923      -156.3817
  56   1.0000      -5.744730      -156.3221
  57   1.0000      -5.744456      -156.3146
  58   1.0000      -5.742718      -156.2673
  59   1.0000      -5.742479      -156.2608
  60   1.0000      -5.742449      -156.2600
  61   1.0000      -5.741672      -156.2388
  62   1.0000      -5.740674      -156.2117
  63   1.0000      -5.740425      -156.2049
  64   1.0000      -5.740007      -156.1935
  65   1.0000      -5.739770      -156.1871
  66   1.0000      -5.737984      -156.1385
  67   1.0000      -5.737794      -156.1333
  68   1.0000      -5.660435      -154.0283
  69   1.0000      -5.659967      -154.0155
  70   1.0000      -5.658078      -153.9641
  71   1.0000      -5.658068      -153.9638
  72   1.0000      -5.654209      -153.8589
  73   1.0000      -5.653750      -153.8464
  74   1.0000      -5.652389      -153.8093
  75   1.0000      -5.651891      -153.7958
  76   1.0000      -5.651512      -153.7855
  77   1.0000      -5.651488      -153.7848
  78   1.0000      -5.650034      -153.7452
  79   1.0000      -5.649954      -153.7431
  80   1.0000      -2.399220       -65.2861
  81   1.0000      -1.465005       -39.8648
  82   1.0000      -1.411683       -38.4139
  83   1.0000      -1.411359       -38.4050
  84   1.0000      -0.712458       -19.3870
  85   1.0000      -0.706301       -19.2194
  86   1.0000      -0.686749       -18.6874
  87   1.0000      -0.683424       -18.5969
  88   1.0000      -0.656710       -17.8700
  89   1.0000      -0.632561       -17.2129
  90   1.0000      -0.629258       -17.1230
  91   1.0000      -0.619025       -16.8445
  92   1.0000      -0.614729       -16.7276
  93   1.0000      -0.578225       -15.7343
  94   1.0000      -0.573352       -15.6017
  95   1.0000      -0.571903       -15.5623
  96   1.0000      -0.570339       -15.5197
  97   1.0000      -0.498752       -13.5717
  98   1.0000      -0.496499       -13.5104
  99   1.0000      -0.494853       -13.4656
 100   1.0000      -0.492908       -13.4127
 101   1.0000      -0.481049       -13.0900
 102   1.0000      -0.475480       -12.9385
 103   1.0000      -0.447021       -12.1641
 104   1.0000      -0.444893       -12.1061
 105   1.0000      -0.416694       -11.3388
 106   1.0000      -0.410825       -11.1791
 107   1.0000      -0.354969        -9.6592
 108   1.0000      -0.354540        -9.6475
 109   1.0000      -0.326725        -8.8906
 110   1.0000      -0.325535        -8.8583
 111   1.0000      -0.319502        -8.6941
 112   1.0000      -0.313468        -8.5299
 113   1.0000      -0.304010        -8.2725
 114   1.0000      -0.303083        -8.2473
 115   1.0000      -0.292437        -7.9576
 116   1.0000      -0.291349        -7.9280
 117   1.0000      -0.257938        -7.0188
 118   1.0000      -0.257504        -7.0070
 119   1.0000      -0.255511        -6.9528
 120   1.0000      -0.255061        -6.9406
 121   1.0000      -0.235075        -6.3967
 122   1.0000      -0.233369        -6.3503
 123   1.0000      -0.231822        -6.3082
 124   1.0000      -0.228642        -6.2217
 125   1.0000      -0.220136        -5.9902
 126   1.0000      -0.216165        -5.8821
 127   1.0000      -0.213656        -5.8139
 128   1.0000      -0.212925        -5.7940
 129   1.0000      -0.190708        -5.1894
 130   1.0000      -0.187640        -5.1059
 131   1.0000      -0.184572        -5.0225
 132   1.0000      -0.184159        -5.0112
 133   1.0000      -0.178795        -4.8653
 134   1.0000      -0.159169        -4.3312
 135   1.0000      -0.151346        -4.1183
 136   1.0000      -0.146471        -3.9857
 137   1.0000      -0.134942        -3.6720
 138   1.0000      -0.133025        -3.6198
 139   1.0000      -0.132401        -3.6028
 140   1.0000      -0.123233        -3.3533
 141   1.0000      -0.121716        -3.3121
 142   1.0000      -0.112041        -3.0488
 143   1.0000      -0.109703        -2.9852
 144   1.0000      -0.099560        -2.7092
 145   1.0000      -0.097845        -2.6625
 146   1.0000      -0.097254        -2.6464
 147   1.0000      -0.093656        -2.5485
 148   1.0000      -0.069960        -1.9037
 149   1.0000      -0.069645        -1.8951
 150   1.0000      -0.064625        -1.7585
 151   1.0000      -0.052654        -1.4328
 152   1.0000      -0.044370        -1.2074
 153   1.0000      -0.037315        -1.0154
 154   1.0000      -0.034826        -0.9477
 155   1.0000      -0.030337        -0.8255
 156   1.0000      -0.025000        -0.6803
 157   1.0000      -0.013858        -0.3771
 158   1.0000       0.021519         0.5856
 159   1.0000       0.040111         1.0915
 160   0.0000       0.136036         3.7017
 161   0.0000       0.137842         3.7509
 162   0.0000       0.155624         4.2348
 163   0.0000       0.162362         4.4181
 164   0.0000       0.163484         4.4486

MULLIKEN ATOMIC CHARGES AND SPIN POPULATIONS
--------------------------------------------
   0 V :    0.458638    1.224708
   1 S :   -0.277142   -0.026259
   2 S :   -0.300072   -0.025035
   3 S :   -0.282043   -0.027357
   4 S :   -0.295181   -0.025289
   5 O :   -0.462448   -0.154297
   6 C :   -0.079652    0.007513
   7 C :   -0.094332    0.006315
   8 C :   -0.078431    0.010307
   9 C :   -0.071028    0.008829
  10 S :    0.097169   -0.000789
  11 S :    0.100491   -0.000749
  12 S :    0.099638    0.000140
  13 S :    0.101809    0.000421
  14 C :   -0.197499    0.000733
  15 C :   -0.233858    0.001861
  16 C :   -0.211255    0.000051
  17 C :   -0.165174   -0.000905
  18 S :    0.007830   -0.000087
  19 S :    0.007941   -0.000084
  20 S :    0.009313   -0.000027
  21 S :    0.009500   -0.000034
  22 C :   -0.301243   -0.000015
  23 C :   -0.295575   -0.000013
  24 C :   -0.160476   -0.000004
  25 H :    0.144374   -0.000001
  26 H :    0.115170   -0.000006
  27 H :    0.083482   -0.000005
  28 H :    0.093287   -0.000002
  29 H :    0.112352   -0.000007
  30 H :    0.139142   -0.000001
  31 C :   -0.299986    0.000086
  32 C :   -0.302770    0.000082
  33 C :   -0.157293   -0.000086
  34 H :    0.143675   -0.000009
  35 H :    0.113642    0.000007
  36 H :    0.091236    0.000008
  37 H :    0.082044    0.000002
  38 H :    0.112698    0.000008
  39 H :    0.142028   -0.000010
Sum of atomic charges         :   -2.0000000

LOEWDIN ATOMIC CHARGES AND SPIN POPULATIONS
-------------------------------------------
   0 V :   -0.149890    1.176474
   1 S :    0.104435   -0.016303
   2 S :    0.059203   -0.017006
   3 S :    0.093218   -0.017736
   4 S :    0.065195   -0.016986
   5 O :   -0.324352   -0.138695
   6 C :   -0.547662    0.006975
   7 C :   -0.550541    0.006299
   8 C :   -0.554085    0.010555
   9 C :   -0.553529    0.008973
  10 S :    0.464967   -0.001058
  11 S :    0.468341   -0.001052
  12 S :    0.473496   -0.000357
  13 S :    0.477332   -0.000244
  14 C :   -0.461269   -0.000004
  15 C :   -0.469214   -0.000002
  16 C :   -0.620232    0.000200
  17 C :   -0.625046    0.000198
  18 S :    0.353207   -0.000078
  19 S :    0.353761   -0.000074
  20 S :    0.364020   -0.000040
  21 S :    0.366087   -0.000052
  22 C :   -0.283116   -0.000009
  23 C :   -0.283353   -0.000012
  24 C :   -0.176860   -0.000002
  25 H :    0.063400   -0.000002
  26 H :    0.053425   -0.000004
  27 H :    0.057939   -0.000001
  28 H :    0.060867   -0.000001
  29 H :    0.053608   -0.000004
  30 H :    0.061278   -0.000002
  31 C :   -0.284739    0.000024
  32 C :   -0.284153    0.000020
  33 C :   -0.176172   -0.000001
  34 H :    0.062948   -0.000002
  35 H :    0.053566    0.000003
  36 H :    0.060091    0.000001
  37 H :    0.058147    0.000001
  38 H :    0.053666    0.000003
  39 H :    0.062017   -0.000002

  Mayer bond orders larger than 0.100000
B(  0-V ,  1-S ) :   0.8188 B(  0-V ,  2-S ) :   0.7375 B(  0-V ,  3-S ) :   0.7931
B(  0-V ,  4-S ) :   0.7461 B(  0-V ,  5-O ) :   2.1531 B(  1-S ,  8-C ) :   1.1036
B(  2-S ,  6-C ) :   1.0960 B(  3-S ,  9-C ) :   1.1116 B(  4-S ,  7-C ) :   1.0995
B(  6-C ,  7-C ) :   1.7053 B(  6-C , 10-S ) :   0.9241 B(  7-C , 11-S ) :   0.9316
B(  8-C ,  9-C ) :   1.6767 B(  8-C , 13-S ) :   0.9447 B(  9-C , 12-S ) :   0.9397
B( 10-S , 14-C ) :   1.2431 B( 11-S , 14-C ) :   1.2448 B( 12-S , 15-C ) :   1.2499
B( 13-S , 15-C ) :   1.2544 B( 14-C , 16-C ) :   1.4520 B( 15-C , 17-C ) :   1.4507
B( 16-C , 18-S ) :   1.0909 B( 16-C , 19-S ) :   1.0906 B( 17-C , 20-S ) :   1.0826
B( 17-C , 21-S ) :   1.0867 B( 18-S , 32-C ) :   0.9917 B( 19-S , 31-C ) :   0.9944
B( 20-S , 23-C ) :   0.9934 B( 21-S , 22-C ) :   0.9860 B( 22-C , 24-C ) :   0.9108
B( 22-C , 25-H ) :   0.9667 B( 22-C , 26-H ) :   0.9649 B( 23-C , 24-C ) :   0.9178
B( 23-C , 29-H ) :   0.9657 B( 23-C , 30-H ) :   0.9645 B( 24-C , 27-H ) :   0.9613
B( 24-C , 28-H ) :   0.9710 B( 31-C , 33-C ) :   0.9139 B( 31-C , 38-H ) :   0.9657
B( 31-C , 39-H ) :   0.9656 B( 32-C , 33-C ) :   0.9118 B( 32-C , 34-H ) :   0.9662
B( 32-C , 35-H ) :   0.9655 B( 33-C , 36-H ) :   0.9725 B( 33-C , 37-H ) :   0.9626

FINAL SINGLE POINT ENERGY     -6337.700175020684

DIPOLE MOMENT
-------------
                                X             Y             Z
Electronic contribution:     -8.60004      -4.17815       9.50177
Nuclear contribution   :      9.51113       4.95631     -10.34944
                        -----------------------------------------
Total Dipole Moment    :      0.91109       0.77816      -0.84767
                        -----------------------------------------
Magnitude (a.u.)       :      1.46771
Magnitude (Debye)      :      3.73062

Rotational constants in cm-1:     0.010727     0.000805     0.000784
Rotational constants in MHz :   321.595311    24.129043    23.500819

                             ****ORCA TERMINATED NORMALLY****
TOTAL RUN TIME: 0 days 1 hours 2 minutes 3 seconds 685 msec
