                         Program Version 5.0.4 -  RELEASE  -
|  1> ! nofrozencore ReducedPop printbasis
|  2> ! B3LYP TZVP
|  3>
|  4> %basis
|  5> newgto V "CP(PPP)" end
|  6> end
|  7>
|  8> %pal
|  9> nprocs 6
| 10> end
| 11>
| 12> % sym SymThresh 1e-2 end
| 13> * xyz -2 2
| 14> V 0.5917935752232752 0.07362161699007466 0.9399442771048826
| 15> S 2.022049983842257 1.20801722837147 -0.70808604495869
| 16> S -0.8596096664475422 2.0358964340242003 0.6990269366701763
| 17> S 1.4233153128505778 -2.0543914719231355 -0.06190518547386633
| 18> S -1.5179942884601854 -1.2074722357145333 1.307597394566769
| 19> O 1.3056761869599776 0.2636265163743503 2.3523820819129235
| 20> C -2.2918641345360045 1.434012960568604 1.5323249535456884
| 21> C -2.6030122603157646 0.13129445123349084 1.6727008218330945
| 22> C 2.9552313686930414 -0.1436157941137458 -1.339102489194061
| 23> C 2.6626392149979026 -1.4440061563652111 -1.1536230051519099
| 24> S -3.473252500368359 2.6242229755616204 2.2048960689768253
| 25> S -4.295377035951596 -0.23196062895855535 2.1854836964484163
| 26> S 3.5838765778930823 -2.6200093639981556 -2.1642804877992012
| 27> S 4.407751058667799 0.21903355895169874 -2.3418313346193083
| 28> C -4.7660890366518585 1.4481297635351091 2.536598632498195
| 29> C 4.679681674076325 -1.4363018545649098 -2.9112306715967393
| 30> C -6.002452356023625 1.7671981721914634 3.026838047135096
| 31> C 5.638822248096565 -1.7822869161982766 -3.8225173769911955
| 32> S -6.565242080200644 3.4444416347310414 3.2379236433372043
| 33> S -7.139858138990162 0.48747127681413893 3.52684516249766
| 34> S 6.62566097548904 -0.5844102167357437 -4.70112566403904
| 35> S 5.938510587522093 -3.4924002165152417 -4.2212623677125665
| 36> C 5.4567133290301335 -3.448614465324338 -6.006016124698185
| 37> C 6.0504647680537404 -0.9792220564755565 -6.41959324253283
| 38> C 6.262079951791673 -2.4396678028570116 -6.827794244309993
| 39> H 4.387332720090322 -3.2333920390887463 -6.063268998563017
| 40> H 5.621525756555188 -4.462398592334485 -6.379978180164478
| 41> H 5.969833664812877 -2.544265970810712 -7.882192277804855
| 42> H 7.326508933884601 -2.6853071597149603 -6.759404400970304
| 43> H 6.622902279140775 -0.31655758694761016 -7.07378696532733
| 44> H 4.995903998236888 -0.7045596894875547 -6.493505060923637
| 45> C -7.192886492738666 0.9098988176050167 5.327941817241123
| 46> C -6.837263604793234 3.453392053967351 5.072414173635963
| 47> C -7.7381615019309775 2.32072976043796 5.585041900081315
| 48> H -5.85538152820105 3.4172470271863644 5.564083712584659
| 49> H -7.292624831009436 4.430139759172288 5.2885858192922885
| 50> H -8.735614546707488 2.408962470155814 5.1338327694235755
| 51> H -7.8577443993474905 2.4540914303693175 6.669417108164103
| 52> H -7.840103872109854 0.15462970901693612 5.7953933696724516
| 53> H -6.178365942904528 0.7929159989520641 5.7324356280099025
| 54> *
| 55>
| 56> % eprnmr
| 57> gtensor true
| 58> Nuclei = all H {aiso,adip,aorb,fgrad,rho}
| 59> Nuclei = all V {aiso,adip,aorb,fgrad,rho}
| 60> end
| 61>
| 62>                          ****END OF INPUT****

CARTESIAN COORDINATES (ANGSTROEM)
---------------------------------
  V      0.588346    0.074150    0.938352
  S      2.018603    1.208546   -0.709678
  S     -0.863057    2.036425    0.697435
  S      1.419868   -2.053863   -0.063497
  S     -1.521442   -1.206944    1.306005
  O      1.302229    0.264155    2.350790
  C     -2.295311    1.434542    1.530733
  C     -2.606460    0.131823    1.671109
  C      2.951784   -0.143087   -1.340695
  C      2.659192   -1.443478   -1.155215
  S     -3.476700    2.624752    2.203304
  S     -4.298824   -0.231432    2.183892
  S      3.580429   -2.619481   -2.165873
  S      4.404304    0.219562   -2.343423
  C     -4.769536    1.448658    2.535007
  C      4.676234   -1.435773   -2.912823
  C     -6.005900    1.767727    3.025246
  C      5.635375   -1.781758   -3.824109
  S     -6.568689    3.444970    3.236332
  S     -7.143305    0.488000    3.525253
  S      6.622214   -0.583882   -4.702718
  S      5.935063   -3.491872   -4.222854
  C      5.453266   -3.448086   -6.007608
  C      6.047017   -0.978693   -6.421185
  C      6.258633   -2.439139   -6.829386
  H      4.383885   -3.232863   -6.064861
  H      5.618078   -4.461870   -6.381570
  H      5.966386   -2.543737   -7.883784
  H      7.323062   -2.684779   -6.760996
  H      6.619455   -0.316029   -7.075379
  H      4.992457   -0.704031   -6.495097
  C     -7.196334    0.910427    5.326350
  C     -6.840711    3.453921    5.070822
  C     -7.741609    2.321258    5.583450
  H     -5.858829    3.417776    5.562492
  H     -7.296072    4.430668    5.286994
  H     -8.739062    2.409491    5.132241
  H     -7.861192    2.454620    6.667825
  H     -7.843551    0.155158    5.793801
  H     -6.181813    0.793445    5.730844

 Total Charge           Charge          ....   -2
 Multiplicity           Mult            ....    2
 Number of Electrons    NEL             ....  321
 Basis Dimension        Dim             ....  681

ORBITAL ENERGIES
----------------
                 SPIN UP ORBITALS
  NO   OCC          E(Eh)            E(eV)
   0   1.0000    -196.675096     -5351.8014
   1   1.0000     -88.734600     -2414.5912
   2   1.0000     -88.733339     -2414.5569
   3   1.0000     -88.732724     -2414.5402
   4   1.0000     -88.731797     -2414.5149
   5   1.0000     -88.730799     -2414.4878
   6   1.0000     -88.730256     -2414.4730
   7   1.0000     -88.729887     -2414.4630
   8   1.0000     -88.729819     -2414.4611
   9   1.0000     -88.640073     -2412.0190
  10   1.0000     -88.640034     -2412.0179
  11   1.0000     -88.639648     -2412.0074
  12   1.0000     -88.639320     -2411.9985
  13   1.0000     -22.050367      -600.0210
  14   1.0000     -18.889236      -514.0023
  15   1.0000     -18.556857      -504.9577
  16   1.0000     -18.551624      -504.8154
  17   1.0000     -18.551538      -504.8130
  18   1.0000     -10.076598      -274.1982
  19   1.0000     -10.076161      -274.1863
  20   1.0000     -10.066195      -273.9151
  21   1.0000     -10.064387      -273.8659
  22   1.0000     -10.063411      -273.8393
  23   1.0000     -10.062936      -273.8264
  24   1.0000     -10.052498      -273.5424
  25   1.0000     -10.051049      -273.5029
  26   1.0000     -10.048978      -273.4466
  27   1.0000     -10.048603      -273.4364
  28   1.0000     -10.018565      -272.6190
  29   1.0000     -10.018026      -272.6043
  30   1.0000     -10.017438      -272.5884
  31   1.0000     -10.017159      -272.5808
  32   1.0000      -7.787870      -211.9187
  33   1.0000      -7.786674      -211.8862
  34   1.0000      -7.786301      -211.8760
  35   1.0000      -7.785424      -211.8522
  36   1.0000      -7.783550      -211.8012
  37   1.0000      -7.783344      -211.7956
  38   1.0000      -7.782812      -211.7811
  39   1.0000      -7.782734      -211.7790
  40   1.0000      -7.694352      -209.3740
  41   1.0000      -7.694057      -209.3659
  42   1.0000      -7.693923      -209.3623
  43   1.0000      -7.693456      -209.3496
  44   1.0000      -5.752891      -156.5441
  45   1.0000      -5.751709      -156.5120
  46   1.0000      -5.751254      -156.4996
  47   1.0000      -5.750403      -156.4764
  48   1.0000      -5.749446      -156.4504
  49   1.0000      -5.748553      -156.4261
  50   1.0000      -5.748303      -156.4193
  51   1.0000      -5.748253      -156.4179
  52   1.0000      -5.747871      -156.4075
  53   1.0000      -5.747789      -156.4053
  54   1.0000      -5.747685      -156.4024
  55   1.0000      -5.747023      -156.3844
  56   1.0000      -5.744192      -156.3074
  57   1.0000      -5.743916      -156.2999
  58   1.0000      -5.743425      -156.2865
  59   1.0000      -5.743359      -156.2847
  60   1.0000      -5.742660      -156.2657
  61   1.0000      -5.741441      -156.2326
  62   1.0000      -5.741109      -156.2235
  63   1.0000      -5.740165      -156.1978
  64   1.0000      -5.739308      -156.1745
  65   1.0000      -5.739147      -156.1701
  66   1.0000      -5.738567      -156.1543
  67   1.0000      -5.738513      -156.1529
  68   1.0000      -5.659651      -154.0069
  69   1.0000      -5.659396      -154.0000
  70   1.0000      -5.659259      -153.9963
  71   1.0000      -5.658796      -153.9837
  72   1.0000      -5.653063      -153.8277
  73   1.0000      -5.652689      -153.8175
  74   1.0000      -5.652676      -153.8171
  75   1.0000      -5.652127      -153.8022
  76   1.0000      -5.651625      -153.7885
  77   1.0000      -5.651445      -153.7836
  78   1.0000      -5.651114      -153.7746
  79   1.0000      -5.650766      -153.7652
  80   1.0000      -2.443760       -66.4981
  81   1.0000      -1.484563       -40.3970
  82   1.0000      -1.473431       -40.0941
  83   1.0000      -1.472680       -40.0736
  84   1.0000      -0.708315       -19.2742
  85   1.0000      -0.707452       -19.2507
  86   1.0000      -0.683864       -18.6089
  87   1.0000      -0.682506       -18.5719
  88   1.0000      -0.648569       -17.6485
  89   1.0000      -0.630586       -17.1591
  90   1.0000      -0.629999       -17.1431
  91   1.0000      -0.616915       -16.7871
  92   1.0000      -0.616456       -16.7746
  93   1.0000      -0.572762       -15.5857
  94   1.0000      -0.572003       -15.5650
  95   1.0000      -0.571609       -15.5543
  96   1.0000      -0.570900       -15.5350
  97   1.0000      -0.496526       -13.5112
  98   1.0000      -0.495398       -13.4805
  99   1.0000      -0.494929       -13.4677
 100   1.0000      -0.494225       -13.4485
 101   1.0000      -0.479183       -13.0392
 102   1.0000      -0.476440       -12.9646
 103   1.0000      -0.446637       -12.1536
 104   1.0000      -0.444445       -12.0940
 105   1.0000      -0.415973       -11.3192
 106   1.0000      -0.410601       -11.1730
 107   1.0000      -0.354769        -9.6538
 108   1.0000      -0.353967        -9.6319
 109   1.0000      -0.325912        -8.8685
 110   1.0000      -0.325312        -8.8522
 111   1.0000      -0.317072        -8.6280
 112   1.0000      -0.312492        -8.5034
 113   1.0000      -0.303034        -8.2460
 114   1.0000      -0.302207        -8.2235
 115   1.0000      -0.292017        -7.9462
 116   1.0000      -0.290956        -7.9173
 117   1.0000      -0.258147        -7.0245
 118   1.0000      -0.257413        -7.0046
 119   1.0000      -0.255619        -6.9558
 120   1.0000      -0.254426        -6.9233
 121   1.0000      -0.234183        -6.3724
 122   1.0000      -0.233586        -6.3562
 123   1.0000      -0.231324        -6.2946
 124   1.0000      -0.229949        -6.2572
 125   1.0000      -0.219314        -5.9678
 126   1.0000      -0.217483        -5.9180
 127   1.0000      -0.212182        -5.7738
 128   1.0000      -0.210914        -5.7393
 129   1.0000      -0.192806        -5.2465
 130   1.0000      -0.188871        -5.1394
 131   1.0000      -0.186624        -5.0783
 132   1.0000      -0.181622        -4.9422
 133   1.0000      -0.178275        -4.8511
 134   1.0000      -0.158944        -4.3251
 135   1.0000      -0.152739        -4.1562
 136   1.0000      -0.148044        -4.0285
 137   1.0000      -0.135346        -3.6830
 138   1.0000      -0.133415        -3.6304
 139   1.0000      -0.130407        -3.5486
 140   1.0000      -0.123223        -3.3531
 141   1.0000      -0.119379        -3.2485
 142   1.0000      -0.111642        -3.0379
 143   1.0000      -0.108155        -2.9430
 144   1.0000      -0.099907        -2.7186
 145   1.0000      -0.097430        -2.6512
 146   1.0000      -0.095096        -2.5877
 147   1.0000      -0.092228        -2.5097
 148   1.0000      -0.074125        -2.0170
 149   1.0000      -0.067427        -1.8348
 150   1.0000      -0.066890        -1.8202
 151   1.0000      -0.052187        -1.4201
 152   1.0000      -0.044937        -1.2228
 153   1.0000      -0.039296        -1.0693
 154   1.0000      -0.035083        -0.9547
 155   1.0000      -0.031494        -0.8570
 156   1.0000      -0.024880        -0.6770
 157   1.0000      -0.018757        -0.5104
 158   1.0000      -0.014966        -0.4073
 159   1.0000       0.021002         0.5715
 160   1.0000       0.041836         1.1384
 161   0.0000       0.135915         3.6984
 162   0.0000       0.136913         3.7256
 163   0.0000       0.159811         4.3487
 164   0.0000       0.160991         4.3808
 165   0.0000       0.169431         4.6104

                 SPIN DOWN ORBITALS
  NO   OCC          E(Eh)            E(eV)
   0   1.0000    -196.675242     -5351.8054
   1   1.0000     -88.734600     -2414.5912
   2   1.0000     -88.733339     -2414.5569
   3   1.0000     -88.732724     -2414.5402
   4   1.0000     -88.731797     -2414.5150
   5   1.0000     -88.730807     -2414.4880
   6   1.0000     -88.730264     -2414.4732
   7   1.0000     -88.729896     -2414.4632
   8   1.0000     -88.729829     -2414.4614
   9   1.0000     -88.640215     -2412.0229
  10   1.0000     -88.640178     -2412.0219
  11   1.0000     -88.639793     -2412.0114
  12   1.0000     -88.639457     -2412.0022
  13   1.0000     -22.035383      -599.6133
  14   1.0000     -18.893073      -514.1066
  15   1.0000     -18.551546      -504.8132
  16   1.0000     -18.535541      -504.3777
  17   1.0000     -18.535381      -504.3734
  18   1.0000     -10.076591      -274.1980
  19   1.0000     -10.076159      -274.1862
  20   1.0000     -10.066195      -273.9151
  21   1.0000     -10.064386      -273.8659
  22   1.0000     -10.063411      -273.8393
  23   1.0000     -10.062936      -273.8264
  24   1.0000     -10.052498      -273.5424
  25   1.0000     -10.051049      -273.5029
  26   1.0000     -10.048967      -273.4463
  27   1.0000     -10.048600      -273.4363
  28   1.0000     -10.018359      -272.6134
  29   1.0000     -10.017819      -272.5987
  30   1.0000     -10.017179      -272.5813
  31   1.0000     -10.016939      -272.5748
  32   1.0000      -7.787871      -211.9187
  33   1.0000      -7.786675      -211.8862
  34   1.0000      -7.786301      -211.8760
  35   1.0000      -7.785425      -211.8522
  36   1.0000      -7.783558      -211.8014
  37   1.0000      -7.783354      -211.7958
  38   1.0000      -7.782822      -211.7813
  39   1.0000      -7.782745      -211.7793
  40   1.0000      -7.694486      -209.3776
  41   1.0000      -7.694189      -209.3695
  42   1.0000      -7.694058      -209.3660
  43   1.0000      -7.693584      -209.3531
  44   1.0000      -5.752892      -156.5442
  45   1.0000      -5.751710      -156.5120
  46   1.0000      -5.751255      -156.4996
  47   1.0000      -5.750404      -156.4764
  48   1.0000      -5.749448      -156.4504
  49   1.0000      -5.748563      -156.4264
  50   1.0000      -5.748314      -156.4196
  51   1.0000      -5.748254      -156.4179
  52   1.0000      -5.747872      -156.4075
  53   1.0000      -5.747801      -156.4056
  54   1.0000      -5.747696      -156.4028
  55   1.0000      -5.747024      -156.3845
  56   1.0000      -5.744204      -156.3077
  57   1.0000      -5.743930      -156.3003
  58   1.0000      -5.743440      -156.2869
  59   1.0000      -5.743375      -156.2852
  60   1.0000      -5.742661      -156.2657
  61   1.0000      -5.741442      -156.2326
  62   1.0000      -5.741110      -156.2235
  63   1.0000      -5.740166      -156.1979
  64   1.0000      -5.739316      -156.1747
  65   1.0000      -5.739153      -156.1703
  66   1.0000      -5.738573      -156.1545
  67   1.0000      -5.738522      -156.1531
  68   1.0000      -5.659799      -154.0110
  69   1.0000      -5.659531      -154.0037
  70   1.0000      -5.659406      -154.0003
  71   1.0000      -5.658934      -153.9874
  72   1.0000      -5.653430      -153.8376
  73   1.0000      -5.653080      -153.8281
  74   1.0000      -5.653065      -153.8277
  75   1.0000      -5.652482      -153.8119
  76   1.0000      -5.651740      -153.7917
  77   1.0000      -5.651551      -153.7865
  78   1.0000      -5.651199      -153.7769
  79   1.0000      -5.650870      -153.7680
  80   1.0000      -2.398713       -65.2723
  81   1.0000      -1.465092       -39.8672
  82   1.0000      -1.410932       -38.3934
  83   1.0000      -1.410741       -38.3882
  84   1.0000      -0.708302       -19.2739
  85   1.0000      -0.707429       -19.2501
  86   1.0000      -0.683819       -18.6077
  87   1.0000      -0.682446       -18.5703
  88   1.0000      -0.656868       -17.8743
  89   1.0000      -0.630530       -17.1576
  90   1.0000      -0.629920       -17.1410
  91   1.0000      -0.616917       -16.7872
  92   1.0000      -0.616456       -16.7746
  93   1.0000      -0.572739       -15.5850
  94   1.0000      -0.571947       -15.5635
  95   1.0000      -0.571574       -15.5533
  96   1.0000      -0.570819       -15.5328
  97   1.0000      -0.496547       -13.5117
  98   1.0000      -0.495436       -13.4815
  99   1.0000      -0.494967       -13.4687
 100   1.0000      -0.494266       -13.4497
 101   1.0000      -0.479387       -13.0448
 102   1.0000      -0.476706       -12.9718
 103   1.0000      -0.446661       -12.1543
 104   1.0000      -0.444493       -12.0953
 105   1.0000      -0.415978       -11.3193
 106   1.0000      -0.410721       -11.1763
 107   1.0000      -0.354765        -9.6536
 108   1.0000      -0.353958        -9.6317
 109   1.0000      -0.325901        -8.8682
 110   1.0000      -0.325299        -8.8518
 111   1.0000      -0.316993        -8.6258
 112   1.0000      -0.312514        -8.5039
 113   1.0000      -0.302983        -8.2446
 114   1.0000      -0.302181        -8.2228
 115   1.0000      -0.292011        -7.9460
 116   1.0000      -0.290948        -7.9171
 117   1.0000      -0.258067        -7.0224
 118   1.0000      -0.257280        -7.0009
 119   1.0000      -0.255569        -6.9544
 120   1.0000      -0.254383        -6.9221
 121   1.0000      -0.234139        -6.3713
 122   1.0000      -0.233575        -6.3559
 123   1.0000      -0.231276        -6.2933
 124   1.0000      -0.229918        -6.2564
 125   1.0000      -0.218952        -5.9580
 126   1.0000      -0.217362        -5.9147
 127   1.0000      -0.211997        -5.7687
 128   1.0000      -0.210807        -5.7364
 129   1.0000      -0.191239        -5.2039
 130   1.0000      -0.188509        -5.1296
 131   1.0000      -0.186264        -5.0685
 132   1.0000      -0.181483        -4.9384
 133   1.0000      -0.178173        -4.8483
 134   1.0000      -0.158332        -4.3084
 135   1.0000      -0.152564        -4.1515
 136   1.0000      -0.147950        -4.0259
 137   1.0000      -0.134998        -3.6735
 138   1.0000      -0.133337        -3.6283
 139   1.0000      -0.129475        -3.5232
 140   1.0000      -0.122887        -3.3439
 141   1.0000      -0.119160        -3.2425
 142   1.0000      -0.113497        -3.0884
 143   1.0000      -0.109661        -2.9840
 144   1.0000      -0.099915        -2.7188
 145   1.0000      -0.097825        -2.6619
 146   1.0000      -0.095100        -2.5878
 147   1.0000      -0.092505        -2.5172
 148   1.0000      -0.070550        -1.9198
 149   1.0000      -0.067391        -1.8338
 150   1.0000      -0.066847        -1.8190
 151   1.0000      -0.049667        -1.3515
 152   1.0000      -0.043966        -1.1964
 153   1.0000      -0.039178        -1.0661
 154   1.0000      -0.034730        -0.9450
 155   1.0000      -0.031553        -0.8586
 156   1.0000      -0.025736        -0.7003
 157   1.0000      -0.015136        -0.4119
 158   1.0000       0.021286         0.5792
 159   1.0000       0.040739         1.1086
 160   0.0000       0.135931         3.6989
 161   0.0000       0.136907         3.7254
 162   0.0000       0.155687         4.2365
 163   0.0000       0.160549         4.3688
 164   0.0000       0.162567         4.4237

MULLIKEN ATOMIC CHARGES AND SPIN POPULATIONS
--------------------------------------------
   0 V :    0.472259    1.214402
   1 S :   -0.281144   -0.024466
   2 S :   -0.277462   -0.026948
   3 S :   -0.292985   -0.022426
   4 S :   -0.288529   -0.025070
   5 O :   -0.469929   -0.148889
   6 C :   -0.086608    0.010924
   7 C :   -0.079636    0.007217
   8 C :   -0.093869    0.009158
   9 C :   -0.077680    0.006180
  10 S :    0.094544   -0.000553
  11 S :    0.095862   -0.000696
  12 S :    0.096588   -0.000414
  13 S :    0.096693   -0.000359
  14 C :   -0.194356    0.001698
  15 C :   -0.201890    0.001106
  16 C :   -0.208075   -0.000192
  17 C :   -0.198863   -0.000480
  18 S :    0.010651   -0.000097
  19 S :    0.010165   -0.000115
  20 S :    0.007854   -0.000080
  21 S :    0.009081   -0.000055
  22 C :   -0.299640   -0.000001
  23 C :   -0.299524    0.000001
  24 C :   -0.159570   -0.000015
  25 H :    0.143991   -0.000002
  26 H :    0.114203   -0.000002
  27 H :    0.083486   -0.000000
  28 H :    0.092032   -0.000001
  29 H :    0.112873   -0.000005
  30 H :    0.142374   -0.000002
  31 C :   -0.304844    0.000195
  32 C :   -0.293699    0.000186
  33 C :   -0.160499   -0.000241
  34 H :    0.137393   -0.000010
  35 H :    0.110907    0.000012
  36 H :    0.092757    0.000023
  37 H :    0.083196    0.000014
  38 H :    0.115475    0.000029
  39 H :    0.146415   -0.000023
Sum of atomic charges         :   -2.0000000

LOEWDIN ATOMIC CHARGES AND SPIN POPULATIONS
-------------------------------------------
   0 V :   -0.152622    1.167705
   1 S :    0.088415   -0.015762
   2 S :    0.088692   -0.016785
   3 S :    0.072713   -0.014860
   4 S :    0.073023   -0.016567
   5 O :   -0.323156   -0.133753
   6 C :   -0.548937    0.010093
   7 C :   -0.545346    0.007131
   8 C :   -0.550913    0.008691
   9 C :   -0.548875    0.007160
  10 S :    0.462779   -0.000828
  11 S :    0.462995   -0.001032
  12 S :    0.462808   -0.000920
  13 S :    0.468454   -0.000752
  14 C :   -0.457305    0.000243
  15 C :   -0.460578   -0.000039
  16 C :   -0.620695    0.000450
  17 C :   -0.620903    0.000067
  18 S :    0.360692   -0.000072
  19 S :    0.357015   -0.000096
  20 S :    0.354968   -0.000083
  21 S :    0.362595   -0.000064
  22 C :   -0.283893   -0.000009
  23 C :   -0.282922   -0.000010
  24 C :   -0.176089   -0.000001
  25 H :    0.062642   -0.000001
  26 H :    0.053796   -0.000002
  27 H :    0.058005   -0.000002
  28 H :    0.060149   -0.000001
  29 H :    0.053505   -0.000002
  30 H :    0.062241   -0.000002
  31 C :   -0.283745    0.000038
  32 C :   -0.286355    0.000037
  33 C :   -0.177129    0.000005
  34 H :    0.061016    0.000001
  35 H :    0.054603    0.000006
  36 H :    0.060892    0.000004
  37 H :    0.057500    0.000002
  38 H :    0.054646    0.000012
  39 H :    0.065317   -0.000002

  Mayer bond orders larger than 0.100000
B(  0-V ,  1-S ) :   0.7831 B(  0-V ,  2-S ) :   0.7888 B(  0-V ,  3-S ) :   0.7528
B(  0-V ,  4-S ) :   0.7586 B(  0-V ,  5-O ) :   2.1462 B(  1-S ,  8-C ) :   1.1017
B(  2-S ,  6-C ) :   1.0946 B(  3-S ,  9-C ) :   1.1125 B(  4-S ,  7-C ) :   1.1214
B(  6-C ,  7-C ) :   1.6794 B(  6-C , 10-S ) :   0.9230 B(  7-C , 11-S ) :   0.9322
B(  8-C ,  9-C ) :   1.6927 B(  8-C , 13-S ) :   0.9279 B(  9-C , 12-S ) :   0.9301
B( 10-S , 14-C ) :   1.2389 B( 11-S , 14-C ) :   1.2307 B( 12-S , 15-C ) :   1.2401
B( 13-S , 15-C ) :   1.2381 B( 14-C , 16-C ) :   1.4646 B( 15-C , 17-C ) :   1.4611
B( 16-C , 18-S ) :   1.0843 B( 16-C , 19-S ) :   1.0871 B( 17-C , 20-S ) :   1.0808
B( 17-C , 21-S ) :   1.0920 B( 18-S , 32-C ) :   0.9998 B( 19-S , 31-C ) :   0.9826
B( 20-S , 23-C ) :   0.9918 B( 21-S , 22-C ) :   0.9913 B( 22-C , 24-C ) :   0.9126
B( 22-C , 25-H ) :   0.9667 B( 22-C , 26-H ) :   0.9656 B( 23-C , 24-C ) :   0.9149
B( 23-C , 29-H ) :   0.9654 B( 23-C , 30-H ) :   0.9648 B( 24-C , 27-H ) :   0.9625
B( 24-C , 28-H ) :   0.9718 B( 31-C , 33-C ) :   0.9077 B( 31-C , 38-H ) :   0.9643
B( 31-C , 39-H ) :   0.9662 B( 32-C , 33-C ) :   0.9198 B( 32-C , 34-H ) :   0.9637
B( 32-C , 35-H ) :   0.9654 B( 33-C , 36-H ) :   0.9712 B( 33-C , 37-H ) :   0.9623

FINAL SINGLE POINT ENERGY     -6337.700000076295

DIPOLE MOMENT
-------------
                                X             Y             Z
Electronic contribution:      9.92248       0.54365       9.28262
Nuclear contribution   :    -11.03250      -0.59886     -10.35959
                        -----------------------------------------
Total Dipole Moment    :     -1.11002      -0.05520      -1.07697
                        -----------------------------------------
Magnitude (a.u.)       :      1.54760
Magnitude (Debye)      :      3.93368

Rotational constants in cm-1:     0.010722     0.000804     0.000783
Rotational constants in MHz :   321.435196    24.106096    23.481183

                             ****ORCA TERMINATED NORMALLY****
TOTAL RUN TIME: 0 days 1 hours 6 minutes 19 seconds 748 msec
