                         Program Version 5.0.4 -  RELEASE  -
|  1> ! nofrozencore ReducedPop printbasis
|  2> ! B3LYP TZVP
|  3>
|  4> %basis
|  5> newgto V "CP(PPP)" end
|  6> end
|  7>
|  8> %pal
|  9> nprocs 6
| 10> end
| 11>
| 12> % sym SymThresh 1e-2 end
| 13> * xyz -2 2
| 14> V -0.4124980805892545 0.989847373484802 0.3102979008991519
| 15> S 1.5972108643385554 0.9079900625679327 1.6889129669043832
| 16> S 1.1551654040709476 1.349932609846596 -1.597936306745786
| 17> S -1.4226765286823952 -0.5963391346005903 1.8843886308588333
| 18> S -1.8100082058601064 -0.2290694578623489 -1.3620599422869493
| 19> O -1.1109863038081533 2.402865388107356 0.5141403727975281
| 20> C 0.061282787993106456 1.0447803348328895 -2.942147636136614
| 21> C -1.1223753907645744 0.4095100493221754 -2.846475138661186
| 22> C 0.989653787470621 0.019951120947223604 3.091969206432529
| 23> C -0.21233135887058907 -0.5813521813354179 3.1659042094898764
| 24> S 0.572872602691149 1.5279335375031444 -4.598127705366826
| 25> S -2.0104826654170695 0.1244655313358864 -4.382014329354567
| 26> S -0.5462100382875569 -1.5116669864549404 4.671090081324716
| 27> S 2.068919561472591 -0.20110254270158218 4.518009411020524
| 28> C -0.8470952685027529 0.913331254367296 -5.451359433157853
| 29> C 0.949848926983876 -1.120950735185388 5.548521571743676
| 30> C -1.0038257632400873 0.9873406472133177 -6.806155795133317
| 31> C 1.2843688096614114 -1.6413217786020189 6.778171806261157
| 32> S 0.1990217633641822 1.7533955516330892 -7.867899890377273
| 33> S -2.39937208163392 0.26891529781937495 -7.640773135891709
| 34> S 2.9716035088671577 -1.418461022354033 7.409783552373966
| 35> S 0.17087766862700218 -2.840402695377277 7.562774256849539
| 36> C 1.2302952259494915 -4.375906155984793 7.655758975030515
| 37> C 3.5948137599932837 -3.1752411046386473 7.530489023991343
| 38> C 2.6717997716525574 -4.224703348054967 8.18265819161423
| 39> H 1.2272183066581424 -4.863577582655739 6.662856659413113
| 40> H 0.66874076801622 -5.023934453817177 8.354302713471231
| 41> H 3.1655646714236565 -5.211530041370285 8.041342353424053
| 42> H 2.63423962031964 -4.037636663240621 9.275561346440137
| 43> H 4.503045292586509 -3.0742525877772238 8.152919896476385
| 44> H 3.9084698468288703 -3.505003155003387 6.52264572653274
| 45> C -3.101407056297143 1.8413743730901533 -8.30810339780194
| 46> C -0.889993711628734 3.1078664823665276 -8.494604877423846
| 47> C -2.121851851672272 2.5731268634535525 -9.226181987005114
| 48> H -1.1811012397764062 3.726917292187974 -7.641932039067797
| 49> H -0.27195723490051776 3.7131250627832273 -9.163870262153504
| 50> H -1.8026389438994699 1.8986034816809412 -10.028496541809695
| 51> H -2.6458837379602964 3.418475807685854 -9.696282410269916
| 52> H -4.010734798428417 1.565179313590541 -8.84943717875824
| 53> H -3.3841087388589624 2.469436561311588 -7.45918636193258
| 54> *
| 55>
| 56> % eprnmr
| 57> gtensor true
| 58> Nuclei = all H {aiso,adip,aorb,fgrad,rho}
| 59> Nuclei = all V {aiso,adip,aorb,fgrad,rho}
| 60> end
| 61>
| 62>                          ****END OF INPUT****

CARTESIAN COORDINATES (ANGSTROEM)
---------------------------------
  V     -0.411540    0.987561    0.307373
  S      1.598169    0.905703    1.685989
  S      1.156123    1.347646   -1.600861
  S     -1.421719   -0.598626    1.881464
  S     -1.809051   -0.231356   -1.364984
  O     -1.110029    2.400579    0.511216
  C      0.062240    1.042494   -2.945072
  C     -1.121418    0.407223   -2.849400
  C      0.990611    0.017664    3.089045
  C     -0.211374   -0.583639    3.162980
  S      0.573830    1.525647   -4.601052
  S     -2.009525    0.122179   -4.384939
  S     -0.545252   -1.513954    4.668166
  S      2.069877   -0.203389    4.515085
  C     -0.846138    0.911045   -5.454284
  C      0.950807   -1.123237    5.545597
  C     -1.002868    0.985054   -6.809080
  C      1.285326   -1.643608    6.775247
  S      0.199979    1.751109   -7.870824
  S     -2.398414    0.266629   -7.643698
  S      2.972561   -1.420748    7.406859
  S      0.171835   -2.842689    7.559850
  C      1.231253   -4.378193    7.652835
  C      3.595771   -3.177528    7.527565
  C      2.672757   -4.226990    8.179734
  H      1.228176   -4.865864    6.659932
  H      0.669698   -5.026221    8.351378
  H      3.166522   -5.213817    8.038418
  H      2.635197   -4.039923    9.272637
  H      4.504003   -3.076539    8.149995
  H      3.909428   -3.507290    6.519721
  C     -3.100449    1.839088   -8.311028
  C     -0.889036    3.105580   -8.497529
  C     -2.120894    2.570840   -9.229106
  H     -1.180144    3.724631   -7.644856
  H     -0.271000    3.710838   -9.166795
  H     -1.801681    1.896317  -10.031421
  H     -2.644926    3.416189   -9.699207
  H     -4.009777    1.562893   -8.852362
  H     -3.383151    2.467150   -7.462111

 Total Charge           Charge          ....   -2
 Multiplicity           Mult            ....    2
 Number of Electrons    NEL             ....  321
 Basis Dimension        Dim             ....  681

ORBITAL ENERGIES
----------------
                 SPIN UP ORBITALS
  NO   OCC          E(Eh)            E(eV)
   0   1.0000    -196.674418     -5351.7830
   1   1.0000     -88.738774     -2414.7048
   2   1.0000     -88.738585     -2414.6997
   3   1.0000     -88.731157     -2414.4975
   4   1.0000     -88.731107     -2414.4962
   5   1.0000     -88.730803     -2414.4879
   6   1.0000     -88.730794     -2414.4876
   7   1.0000     -88.728873     -2414.4354
   8   1.0000     -88.728670     -2414.4299
   9   1.0000     -88.642211     -2412.0772
  10   1.0000     -88.641271     -2412.0516
  11   1.0000     -88.637696     -2411.9543
  12   1.0000     -88.637541     -2411.9501
  13   1.0000     -22.049851      -600.0069
  14   1.0000     -18.889644      -514.0133
  15   1.0000     -18.556292      -504.9424
  16   1.0000     -18.551120      -504.8016
  17   1.0000     -18.551034      -504.7993
  18   1.0000     -10.077542      -274.2239
  19   1.0000     -10.074426      -274.1391
  20   1.0000     -10.072388      -274.0836
  21   1.0000     -10.072349      -274.0825
  22   1.0000     -10.062617      -273.8177
  23   1.0000     -10.061414      -273.7850
  24   1.0000     -10.061353      -273.7833
  25   1.0000     -10.055340      -273.6197
  26   1.0000     -10.048805      -273.4419
  27   1.0000     -10.045813      -273.3605
  28   1.0000     -10.020452      -272.6704
  29   1.0000     -10.019659      -272.6488
  30   1.0000     -10.016595      -272.5654
  31   1.0000     -10.015671      -272.5403
  32   1.0000      -7.791071      -212.0058
  33   1.0000      -7.790895      -212.0010
  34   1.0000      -7.784868      -211.8370
  35   1.0000      -7.784826      -211.8359
  36   1.0000      -7.783811      -211.8083
  37   1.0000      -7.783760      -211.8069
  38   1.0000      -7.782099      -211.7617
  39   1.0000      -7.781974      -211.7583
  40   1.0000      -7.696465      -209.4315
  41   1.0000      -7.695579      -209.4073
  42   1.0000      -7.691820      -209.3051
  43   1.0000      -7.691735      -209.3028
  44   1.0000      -5.756300      -156.6369
  45   1.0000      -5.756125      -156.6321
  46   1.0000      -5.752641      -156.5373
  47   1.0000      -5.752464      -156.5325
  48   1.0000      -5.749792      -156.4598
  49   1.0000      -5.749744      -156.4585
  50   1.0000      -5.748788      -156.4325
  51   1.0000      -5.748730      -156.4309
  52   1.0000      -5.747039      -156.3849
  53   1.0000      -5.746920      -156.3816
  54   1.0000      -5.746481      -156.3697
  55   1.0000      -5.746448      -156.3688
  56   1.0000      -5.745812      -156.3515
  57   1.0000      -5.745635      -156.3467
  58   1.0000      -5.744343      -156.3115
  59   1.0000      -5.744302      -156.3104
  60   1.0000      -5.742624      -156.2647
  61   1.0000      -5.742487      -156.2610
  62   1.0000      -5.739650      -156.1838
  63   1.0000      -5.739618      -156.1829
  64   1.0000      -5.739600      -156.1824
  65   1.0000      -5.739579      -156.1819
  66   1.0000      -5.737927      -156.1369
  67   1.0000      -5.737787      -156.1331
  68   1.0000      -5.661848      -154.0667
  69   1.0000      -5.660947      -154.0422
  70   1.0000      -5.657157      -153.9391
  71   1.0000      -5.657030      -153.9356
  72   1.0000      -5.655079      -153.8825
  73   1.0000      -5.654215      -153.8590
  74   1.0000      -5.653747      -153.8463
  75   1.0000      -5.652860      -153.8221
  76   1.0000      -5.650541      -153.7590
  77   1.0000      -5.650450      -153.7566
  78   1.0000      -5.649082      -153.7193
  79   1.0000      -5.649030      -153.7179
  80   1.0000      -2.443536       -66.4920
  81   1.0000      -1.484756       -40.4023
  82   1.0000      -1.473208       -40.0880
  83   1.0000      -1.472425       -40.0667
  84   1.0000      -0.709807       -19.3148
  85   1.0000      -0.703173       -19.1343
  86   1.0000      -0.684865       -18.6361
  87   1.0000      -0.681069       -18.5328
  88   1.0000      -0.649240       -17.6667
  89   1.0000      -0.629834       -17.1387
  90   1.0000      -0.629526       -17.1303
  91   1.0000      -0.616573       -16.7778
  92   1.0000      -0.616283       -16.7699
  93   1.0000      -0.572848       -15.5880
  94   1.0000      -0.572166       -15.5694
  95   1.0000      -0.571952       -15.5636
  96   1.0000      -0.571047       -15.5390
  97   1.0000      -0.499327       -13.5874
  98   1.0000      -0.498778       -13.5725
  99   1.0000      -0.493591       -13.4313
 100   1.0000      -0.493083       -13.4175
 101   1.0000      -0.480055       -13.0630
 102   1.0000      -0.475689       -12.9442
 103   1.0000      -0.446102       -12.1390
 104   1.0000      -0.442039       -12.0285
 105   1.0000      -0.415363       -11.3026
 106   1.0000      -0.410227       -11.1628
 107   1.0000      -0.354563        -9.6481
 108   1.0000      -0.352416        -9.5897
 109   1.0000      -0.326849        -8.8940
 110   1.0000      -0.320355        -8.7173
 111   1.0000      -0.318911        -8.6780
 112   1.0000      -0.313511        -8.5311
 113   1.0000      -0.309142        -8.4122
 114   1.0000      -0.300877        -8.1873
 115   1.0000      -0.292302        -7.9539
 116   1.0000      -0.290715        -7.9108
 117   1.0000      -0.266291        -7.2462
 118   1.0000      -0.256642        -6.9836
 119   1.0000      -0.254232        -6.9180
 120   1.0000      -0.252570        -6.8728
 121   1.0000      -0.234274        -6.3749
 122   1.0000      -0.230689        -6.2774
 123   1.0000      -0.229868        -6.2550
 124   1.0000      -0.227585        -6.1929
 125   1.0000      -0.218712        -5.9515
 126   1.0000      -0.216733        -5.8976
 127   1.0000      -0.213183        -5.8010
 128   1.0000      -0.211662        -5.7596
 129   1.0000      -0.193207        -5.2574
 130   1.0000      -0.185913        -5.0590
 131   1.0000      -0.184111        -5.0099
 132   1.0000      -0.183869        -5.0033
 133   1.0000      -0.178308        -4.8520
 134   1.0000      -0.158683        -4.3180
 135   1.0000      -0.150905        -4.1063
 136   1.0000      -0.145459        -3.9581
 137   1.0000      -0.139312        -3.7909
 138   1.0000      -0.133050        -3.6205
 139   1.0000      -0.131285        -3.5724
 140   1.0000      -0.124914        -3.3991
 141   1.0000      -0.119991        -3.2651
 142   1.0000      -0.113106        -3.0778
 143   1.0000      -0.109133        -2.9697
 144   1.0000      -0.098151        -2.6708
 145   1.0000      -0.096679        -2.6308
 146   1.0000      -0.096294        -2.6203
 147   1.0000      -0.092611        -2.5201
 148   1.0000      -0.075307        -2.0492
 149   1.0000      -0.074412        -2.0248
 150   1.0000      -0.064318        -1.7502
 151   1.0000      -0.053240        -1.4487
 152   1.0000      -0.045294        -1.2325
 153   1.0000      -0.037475        -1.0197
 154   1.0000      -0.036080        -0.9818
 155   1.0000      -0.030053        -0.8178
 156   1.0000      -0.024744        -0.6733
 157   1.0000      -0.018437        -0.5017
 158   1.0000      -0.013908        -0.3785
 159   1.0000       0.020021         0.5448
 160   1.0000       0.041390         1.1263
 161   0.0000       0.134963         3.6725
 162   0.0000       0.137569         3.7434
 163   0.0000       0.153361         4.1732
 164   0.0000       0.162136         4.4120
 165   0.0000       0.162976         4.4348

                 SPIN DOWN ORBITALS
  NO   OCC          E(Eh)            E(eV)
   0   1.0000    -196.674564     -5351.7870
   1   1.0000     -88.738775     -2414.7048
   2   1.0000     -88.738586     -2414.6997
   3   1.0000     -88.731158     -2414.4976
   4   1.0000     -88.731107     -2414.4962
   5   1.0000     -88.730809     -2414.4881
   6   1.0000     -88.730800     -2414.4878
   7   1.0000     -88.728882     -2414.4356
   8   1.0000     -88.728680     -2414.4301
   9   1.0000     -88.642349     -2412.0810
  10   1.0000     -88.641412     -2412.0554
  11   1.0000     -88.637837     -2411.9582
  12   1.0000     -88.637681     -2411.9539
  13   1.0000     -22.034935      -599.6011
  14   1.0000     -18.893419      -514.1161
  15   1.0000     -18.551031      -504.7992
  16   1.0000     -18.535086      -504.3653
  17   1.0000     -18.534951      -504.3616
  18   1.0000     -10.077536      -274.2237
  19   1.0000     -10.074426      -274.1391
  20   1.0000     -10.072389      -274.0836
  21   1.0000     -10.072349      -274.0826
  22   1.0000     -10.062617      -273.8177
  23   1.0000     -10.061413      -273.7850
  24   1.0000     -10.061352      -273.7833
  25   1.0000     -10.055333      -273.6195
  26   1.0000     -10.048805      -273.4419
  27   1.0000     -10.045803      -273.3602
  28   1.0000     -10.020202      -272.6635
  29   1.0000     -10.019412      -272.6421
  30   1.0000     -10.016380      -272.5596
  31   1.0000     -10.015475      -272.5349
  32   1.0000      -7.791072      -212.0058
  33   1.0000      -7.790895      -212.0010
  34   1.0000      -7.784869      -211.8370
  35   1.0000      -7.784827      -211.8359
  36   1.0000      -7.783819      -211.8085
  37   1.0000      -7.783767      -211.8071
  38   1.0000      -7.782109      -211.7619
  39   1.0000      -7.781984      -211.7586
  40   1.0000      -7.696592      -209.4349
  41   1.0000      -7.695708      -209.4109
  42   1.0000      -7.691952      -209.3087
  43   1.0000      -7.691867      -209.3063
  44   1.0000      -5.756301      -156.6369
  45   1.0000      -5.756126      -156.6321
  46   1.0000      -5.752642      -156.5373
  47   1.0000      -5.752465      -156.5325
  48   1.0000      -5.749793      -156.4598
  49   1.0000      -5.749745      -156.4585
  50   1.0000      -5.748796      -156.4327
  51   1.0000      -5.748739      -156.4311
  52   1.0000      -5.747051      -156.3852
  53   1.0000      -5.746932      -156.3820
  54   1.0000      -5.746482      -156.3697
  55   1.0000      -5.746449      -156.3688
  56   1.0000      -5.745813      -156.3515
  57   1.0000      -5.745635      -156.3467
  58   1.0000      -5.744354      -156.3118
  59   1.0000      -5.744313      -156.3107
  60   1.0000      -5.742639      -156.2651
  61   1.0000      -5.742502      -156.2614
  62   1.0000      -5.739651      -156.1838
  63   1.0000      -5.739622      -156.1831
  64   1.0000      -5.739601      -156.1825
  65   1.0000      -5.739583      -156.1820
  66   1.0000      -5.737935      -156.1371
  67   1.0000      -5.737796      -156.1334
  68   1.0000      -5.661999      -154.0708
  69   1.0000      -5.661094      -154.0462
  70   1.0000      -5.657295      -153.9428
  71   1.0000      -5.657164      -153.9392
  72   1.0000      -5.655424      -153.8919
  73   1.0000      -5.654574      -153.8688
  74   1.0000      -5.653859      -153.8493
  75   1.0000      -5.652971      -153.8252
  76   1.0000      -5.650926      -153.7695
  77   1.0000      -5.650842      -153.7672
  78   1.0000      -5.649172      -153.7218
  79   1.0000      -5.649115      -153.7202
  80   1.0000      -2.398690       -65.2717
  81   1.0000      -1.465475       -39.8776
  82   1.0000      -1.410960       -38.3942
  83   1.0000      -1.410694       -38.3869
  84   1.0000      -0.709791       -19.3144
  85   1.0000      -0.703136       -19.1333
  86   1.0000      -0.684820       -18.6349
  87   1.0000      -0.681020       -18.5315
  88   1.0000      -0.657342       -17.8872
  89   1.0000      -0.629757       -17.1366
  90   1.0000      -0.629460       -17.1285
  91   1.0000      -0.616575       -16.7779
  92   1.0000      -0.616283       -16.7699
  93   1.0000      -0.572841       -15.5878
  94   1.0000      -0.572109       -15.5679
  95   1.0000      -0.571875       -15.5615
  96   1.0000      -0.570969       -15.5368
  97   1.0000      -0.499345       -13.5879
  98   1.0000      -0.498776       -13.5724
  99   1.0000      -0.493631       -13.4324
 100   1.0000      -0.493144       -13.4191
 101   1.0000      -0.480234       -13.0678
 102   1.0000      -0.475955       -12.9514
 103   1.0000      -0.446130       -12.1398
 104   1.0000      -0.442080       -12.0296
 105   1.0000      -0.415357       -11.3024
 106   1.0000      -0.410339       -11.1659
 107   1.0000      -0.354556        -9.6480
 108   1.0000      -0.352407        -9.5895
 109   1.0000      -0.326840        -8.8938
 110   1.0000      -0.320326        -8.7165
 111   1.0000      -0.318814        -8.6754
 112   1.0000      -0.313543        -8.5319
 113   1.0000      -0.309109        -8.4113
 114   1.0000      -0.300846        -8.1864
 115   1.0000      -0.292300        -7.9539
 116   1.0000      -0.290711        -7.9106
 117   1.0000      -0.266211        -7.2440
 118   1.0000      -0.256459        -6.9786
 119   1.0000      -0.254200        -6.9171
 120   1.0000      -0.252529        -6.8717
 121   1.0000      -0.234247        -6.3742
 122   1.0000      -0.230647        -6.2762
 123   1.0000      -0.229843        -6.2543
 124   1.0000      -0.227542        -6.1917
 125   1.0000      -0.218127        -5.9355
 126   1.0000      -0.216665        -5.8958
 127   1.0000      -0.213121        -5.7993
 128   1.0000      -0.211505        -5.7553
 129   1.0000      -0.191421        -5.2088
 130   1.0000      -0.185816        -5.0563
 131   1.0000      -0.183828        -5.0022
 132   1.0000      -0.183601        -4.9960
 133   1.0000      -0.178190        -4.8488
 134   1.0000      -0.158093        -4.3019
 135   1.0000      -0.150724        -4.1014
 136   1.0000      -0.145365        -3.9556
 137   1.0000      -0.138970        -3.7816
 138   1.0000      -0.132464        -3.6045
 139   1.0000      -0.131098        -3.5673
 140   1.0000      -0.124249        -3.3810
 141   1.0000      -0.119660        -3.2561
 142   1.0000      -0.114859        -3.1255
 143   1.0000      -0.110705        -3.0124
 144   1.0000      -0.098142        -2.6706
 145   1.0000      -0.097014        -2.6399
 146   1.0000      -0.096368        -2.6223
 147   1.0000      -0.092777        -2.5246
 148   1.0000      -0.075292        -2.0488
 149   1.0000      -0.070766        -1.9256
 150   1.0000      -0.064321        -1.7503
 151   1.0000      -0.050648        -1.3782
 152   1.0000      -0.044150        -1.2014
 153   1.0000      -0.036877        -1.0035
 154   1.0000      -0.036110        -0.9826
 155   1.0000      -0.029915        -0.8140
 156   1.0000      -0.025866        -0.7039
 157   1.0000      -0.014083        -0.3832
 158   1.0000       0.020308         0.5526
 159   1.0000       0.040340         1.0977
 160   0.0000       0.134962         3.6725
 161   0.0000       0.137574         3.7436
 162   0.0000       0.152250         4.1429
 163   0.0000       0.157409         4.2833
 164   0.0000       0.162718         4.4278

MULLIKEN ATOMIC CHARGES AND SPIN POPULATIONS
--------------------------------------------
   0 V :    0.473032    1.210419
   1 S :   -0.278333   -0.023085
   2 S :   -0.297229   -0.024870
   3 S :   -0.278121   -0.024142
   4 S :   -0.294746   -0.025505
   5 O :   -0.467898   -0.146455
   6 C :   -0.076160    0.008871
   7 C :   -0.085938    0.007008
   8 C :   -0.084434    0.009520
   9 C :   -0.089516    0.008356
  10 S :    0.097962   -0.000598
  11 S :    0.099771   -0.000676
  12 S :    0.099907   -0.000250
  13 S :    0.098312   -0.000133
  14 C :   -0.200977    0.000994
  15 C :   -0.240443    0.001017
  16 C :   -0.211520    0.000063
  17 C :   -0.141140   -0.000351
  18 S :    0.012723   -0.000125
  19 S :    0.013178   -0.000122
  20 S :   -0.007106   -0.000045
  21 S :   -0.007084   -0.000043
  22 C :   -0.273545   -0.000013
  23 C :   -0.273409   -0.000015
  24 C :   -0.164976   -0.000001
  25 H :    0.135248    0.000000
  26 H :    0.106305   -0.000005
  27 H :    0.085546   -0.000001
  28 H :    0.083775   -0.000002
  29 H :    0.106269   -0.000006
  30 H :    0.135231   -0.000000
  31 C :   -0.307048    0.000198
  32 C :   -0.308068    0.000192
  33 C :   -0.157860   -0.000238
  34 H :    0.145357   -0.000019
  35 H :    0.115036    0.000023
  36 H :    0.096217    0.000024
  37 H :    0.081724    0.000014
  38 H :    0.114917    0.000024
  39 H :    0.145042   -0.000020
Sum of atomic charges         :   -2.0000000

LOEWDIN ATOMIC CHARGES AND SPIN POPULATIONS
-------------------------------------------
   0 V :   -0.157428    1.163274
   1 S :    0.090064   -0.014340
   2 S :    0.070713   -0.016193
   3 S :    0.088455   -0.015411
   4 S :    0.072051   -0.016720
   5 O :   -0.319212   -0.131383
   6 C :   -0.549562    0.008255
   7 C :   -0.551911    0.006874
   8 C :   -0.547343    0.009818
   9 C :   -0.547773    0.008664
  10 S :    0.470297   -0.000973
  11 S :    0.471595   -0.001031
  12 S :    0.465001   -0.000651
  13 S :    0.464162   -0.000604
  14 C :   -0.464371   -0.000025
  15 C :   -0.468697    0.000088
  16 C :   -0.624646    0.000442
  17 C :   -0.605025    0.000142
  18 S :    0.359473   -0.000099
  19 S :    0.360910   -0.000095
  20 S :    0.350705   -0.000052
  21 S :    0.350752   -0.000050
  22 C :   -0.286992   -0.000013
  23 C :   -0.286942   -0.000016
  24 C :   -0.168971   -0.000001
  25 H :    0.060516   -0.000001
  26 H :    0.058184   -0.000003
  27 H :    0.064546   -0.000002
  28 H :    0.061784   -0.000000
  29 H :    0.058104   -0.000003
  30 H :    0.060407   -0.000002
  31 C :   -0.284056    0.000045
  32 C :   -0.283770    0.000038
  33 C :   -0.179896    0.000005
  34 H :    0.063493   -0.000001
  35 H :    0.052552    0.000009
  36 H :    0.060473    0.000005
  37 H :    0.056372    0.000002
  38 H :    0.052625    0.000010
  39 H :    0.063362   -0.000001

  Mayer bond orders larger than 0.100000
B(  0-V ,  1-S ) :   0.7922 B(  0-V ,  2-S ) :   0.7577 B(  0-V ,  3-S ) :   0.7776
B(  0-V ,  4-S ) :   0.7578 B(  0-V ,  5-O ) :   2.1478 B(  1-S ,  8-C ) :   1.0945
B(  2-S ,  6-C ) :   1.1068 B(  3-S ,  9-C ) :   1.1039 B(  4-S ,  7-C ) :   1.1127
B(  6-C ,  7-C ) :   1.6857 B(  6-C , 10-S ) :   0.9322 B(  7-C , 11-S ) :   0.9370
B(  8-C ,  9-C ) :   1.7012 B(  8-C , 13-S ) :   0.9363 B(  9-C , 12-S ) :   0.9396
B( 10-S , 14-C ) :   1.2504 B( 11-S , 14-C ) :   1.2499 B( 12-S , 15-C ) :   1.2345
B( 13-S , 15-C ) :   1.2355 B( 14-C , 16-C ) :   1.4459 B( 15-C , 17-C ) :   1.4709
B( 16-C , 18-S ) :   1.0971 B( 16-C , 19-S ) :   1.0994 B( 17-C , 20-S ) :   1.0465
B( 17-C , 21-S ) :   1.0474 B( 18-S , 32-C ) :   0.9879 B( 19-S , 31-C ) :   0.9882
B( 20-S , 23-C ) :   0.9981 B( 21-S , 22-C ) :   0.9979 B( 22-C , 24-C ) :   0.9285
B( 22-C , 25-H ) :   0.9615 B( 22-C , 26-H ) :   0.9656 B( 23-C , 24-C ) :   0.9285
B( 23-C , 29-H ) :   0.9656 B( 23-C , 30-H ) :   0.9616 B( 24-C , 27-H ) :   0.9676
B( 24-C , 28-H ) :   0.9695 B( 31-C , 33-C ) :   0.9065 B( 31-C , 38-H ) :   0.9645
B( 31-C , 39-H ) :   0.9687 B( 32-C , 33-C ) :   0.9059 B( 32-C , 34-H ) :   0.9686
B( 32-C , 35-H ) :   0.9645 B( 33-C , 36-H ) :   0.9735 B( 33-C , 37-H ) :   0.9600

FINAL SINGLE POINT ENERGY     -6337.694184110881

DIPOLE MOMENT
-------------
                                X             Y             Z
Electronic contribution:     -3.96915      11.45668       6.40655
Nuclear contribution   :      4.51805     -12.90292      -6.92296
                        -----------------------------------------
Total Dipole Moment    :      0.54890      -1.44625      -0.51640
                        -----------------------------------------
Magnitude (a.u.)       :      1.63083
Magnitude (Debye)      :      4.14523

Rotational constants in cm-1:     0.010633     0.000804     0.000783
Rotational constants in MHz :   318.777874    24.100370    23.464986

                             ****ORCA TERMINATED NORMALLY****
TOTAL RUN TIME: 0 days 1 hours 6 minutes 12 seconds 628 msec
