                         Program Version 5.0.4 -  RELEASE  -
|  1> ! nofrozencore ReducedPop printbasis
|  2> ! B3LYP TZVP
|  3>
|  4> %basis
|  5> newgto V "CP(PPP)" end
|  6> end
|  7>
|  8> %pal
|  9> nprocs 8
| 10> end
| 11>
| 12> % sym SymThresh 1e-2 end
| 13> * xyz -2 2
| 14> V -0.5099648491245476 -0.5506079801894382 0.8220270410467556
| 15> S 0.41538338290882904 -2.423667169532347 -0.5025020052937874
| 16> S 1.8267852524022816 -0.13935653641683357 1.5273469459178017
| 17> S -2.217969092569078 -0.36521657291504783 -0.9610600672666044
| 18> S -0.7842015983747705 1.8967334504606375 0.9645242970144088
| 19> O -1.227050960716781 -1.1817152537070241 2.0915805735914574
| 20> C 1.6398695476440195 1.4705241847965125 2.210391598953984
| 21> C 0.5945488794415462 2.287581141154764 1.9816215292151194
| 22> C -0.8385888801618702 -2.6345000349288705 -1.716919138850063
| 23> C -1.8870113300357418 -1.8112796407701428 -1.9010589543778809
| 24> S 2.958981420147651 2.1333676343482137 3.2343590955491477
| 25> S 0.6777502574150334 3.9222245440782 2.7176310230894876
| 26> S -2.9987397861873326 -2.219709545910438 -3.2512024475503245
| 27> S -0.7085463124012455 -4.0262569077129475 -2.8455726603341858
| 28> C 2.254245077707448 3.7339256352607677 3.4939281052032554
| 29> C -2.1180660614641633 -3.634953365818057 -3.838291977172094
| 30> C 2.856729494617208 4.719628917754242 4.2264245577376665
| 31> C -2.4934910428023946 -4.356248728653635 -4.937723192765448
| 32> S 4.4219236609845725 4.469446640561831 5.040945804530769
| 33> S 2.1007060159848723 6.317763291174073 4.450160773808436
| 34> S -1.5708295304585322 -5.7758081741658005 -5.493410151579066
| 35> S -3.9125724116660443 -3.906863021795153 -5.918346299993385
| 36> C -3.0345403653332097 -3.5349034968880746 -7.505411760541713
| 37> C -1.0467374647663903 -5.128089940039051 -7.146871150407967
| 38> C -2.2139568443810274 -4.709487881739431 -8.045045517130456
| 39> H -2.400909399122774 -2.658382770043104 -7.344020693405409
| 40> H -3.821000130117528 -3.262299857903967 -8.21694423039043
| 41> H -1.8153348009619243 -4.42834928212748 -9.003723931678634
| 42> H -2.8704034148546818 -5.56340511581482 -8.20383516739903
| 43> H -0.48309212789788775 -5.943061585785475 -7.612833876026398
| 44> H -0.3633157484888916 -4.290621558347792 -6.9815945765151755
| 45> C 1.881420255539086 6.268940743001819 6.288663227622867
| 46> C 3.855880027597713 4.687667229866456 6.791685399521624
| 47> C 3.1908148671194785 6.0328780467634235 7.0182328680540556
| 48> H 3.1939483090877707 3.8902894783787456 7.026477317018536
| 49> H 4.711470714096769 4.5842888497906324 7.375325563029049
| 50> H 3.977835606487822 6.937997653308124 6.77702111858386
| 51> H 2.868243866073141 6.1360329778257166 8.60776354505513
| 52> H 1.4651223503057411 7.1885760077747785 6.543278031908273
| 53> H 1.1750099335465298 5.509011736134769 6.515954362855709
| 54> *
| 55>
| 56> % eprnmr
| 57> gtensor true
| 58> Nuclei = all H {aiso,adip,aorb,fgrad,rho}
| 59> Nuclei = all V {aiso,adip,aorb,fgrad,rho}
| 60> end
| 61>
| 62>                          ****END OF INPUT****

CARTESIAN COORDINATES (ANGSTROEM)
---------------------------------
  V     -0.507569   -0.547738    0.821180
  S      0.417779   -2.420797   -0.503349
  S      1.829181   -0.136486    1.526500
  S     -2.215573   -0.362346   -0.961907
  S     -0.781806    1.899604    0.963677
  O     -1.224655   -1.178845    2.090733
  C      1.642266    1.473395    2.209544
  C      0.596945    2.290452    1.980774
  C     -0.836193   -2.631630   -1.717766
  C     -1.884615   -1.808409   -1.901906
  S      2.961377    2.136238    3.233512
  S      0.680146    3.925095    2.716784
  S     -2.996344   -2.216839   -3.252050
  S     -0.706150   -4.023386   -2.846420
  C      2.256641    3.736796    3.493081
  C     -2.115670   -3.632083   -3.839139
  C      2.859126    4.722499    4.225577
  C     -2.491095   -4.353378   -4.938570
  S      4.424320    4.472317    5.040099
  S      2.103102    6.320634    4.449314
  S     -1.568433   -5.772938   -5.494257
  S     -3.910176   -3.903993   -5.919194
  C     -3.032144   -3.532033   -7.506259
  C     -1.044341   -5.125220   -7.147718
  C     -2.211561   -4.706617   -8.045893
  H     -2.398513   -2.655512   -7.344868
  H     -3.818604   -3.259429   -8.217791
  H     -1.812939   -4.425479   -9.004571
  H     -2.868007   -5.560535   -8.204682
  H     -0.480696   -5.940191   -7.613681
  H     -0.360920   -4.287751   -6.982442
  C      1.883816    6.271811    6.287816
  C      3.858276    4.690538    6.790838
  C      3.193211    6.035748    7.017386
  H      3.196344    3.893160    7.025630
  H      4.713867    4.587159    7.374478
  H      3.980232    6.940868    6.776174
  H      2.870640    6.138903    8.606916
  H      1.467518    7.191446    6.542431
  H      1.177406    5.511882    6.515107

 Total Charge           Charge          ....   -2
 Multiplicity           Mult            ....    2
 Number of Electrons    NEL             ....  321
 Basis Dimension        Dim             ....  681

ORBITAL ENERGIES
----------------
                 SPIN UP ORBITALS
  NO   OCC          E(Eh)            E(eV)
   0   1.0000    -196.676354     -5351.8357
   1   1.0000     -88.739687     -2414.7297
   2   1.0000     -88.739662     -2414.7290
   3   1.0000     -88.733840     -2414.5705
   4   1.0000     -88.733748     -2414.5680
   5   1.0000     -88.733657     -2414.5656
   6   1.0000     -88.733631     -2414.5649
   7   1.0000     -88.730899     -2414.4905
   8   1.0000     -88.730850     -2414.4892
   9   1.0000     -88.641847     -2412.0673
  10   1.0000     -88.641623     -2412.0612
  11   1.0000     -88.641035     -2412.0452
  12   1.0000     -88.640528     -2412.0314
  13   1.0000     -22.051744      -600.0585
  14   1.0000     -18.891682      -514.0688
  15   1.0000     -18.558188      -504.9940
  16   1.0000     -18.553023      -504.8534
  17   1.0000     -18.552920      -504.8506
  18   1.0000     -10.103236      -274.9230
  19   1.0000     -10.079827      -274.2860
  20   1.0000     -10.076612      -274.1986
  21   1.0000     -10.064049      -273.8567
  22   1.0000     -10.064021      -273.8559
  23   1.0000     -10.061607      -273.7902
  24   1.0000     -10.061539      -273.7884
  25   1.0000     -10.052848      -273.5519
  26   1.0000     -10.049089      -273.4496
  27   1.0000     -10.048670      -273.4382
  28   1.0000     -10.021074      -272.6873
  29   1.0000     -10.020139      -272.6619
  30   1.0000     -10.018905      -272.6283
  31   1.0000     -10.018111      -272.6067
  32   1.0000      -7.793107      -212.0612
  33   1.0000      -7.793080      -212.0605
  34   1.0000      -7.787206      -211.9006
  35   1.0000      -7.787100      -211.8978
  36   1.0000      -7.787072      -211.8970
  37   1.0000      -7.786933      -211.8932
  38   1.0000      -7.784169      -211.8180
  39   1.0000      -7.784141      -211.8172
  40   1.0000      -7.696157      -209.4231
  41   1.0000      -7.695865      -209.4151
  42   1.0000      -7.695298      -209.3997
  43   1.0000      -7.694867      -209.3880
  44   1.0000      -5.758131      -156.6867
  45   1.0000      -5.758115      -156.6863
  46   1.0000      -5.754630      -156.5914
  47   1.0000      -5.754603      -156.5907
  48   1.0000      -5.752203      -156.5254
  49   1.0000      -5.752094      -156.5224
  50   1.0000      -5.752016      -156.5203
  51   1.0000      -5.751881      -156.5166
  52   1.0000      -5.749119      -156.4415
  53   1.0000      -5.749092      -156.4407
  54   1.0000      -5.748773      -156.4321
  55   1.0000      -5.748672      -156.4293
  56   1.0000      -5.747897      -156.4082
  57   1.0000      -5.747860      -156.4072
  58   1.0000      -5.747572      -156.3994
  59   1.0000      -5.747421      -156.3953
  60   1.0000      -5.744691      -156.3210
  61   1.0000      -5.744659      -156.3201
  62   1.0000      -5.742917      -156.2727
  63   1.0000      -5.742781      -156.2690
  64   1.0000      -5.741997      -156.2477
  65   1.0000      -5.741887      -156.2447
  66   1.0000      -5.739970      -156.1925
  67   1.0000      -5.739954      -156.1921
  68   1.0000      -5.661480      -154.0567
  69   1.0000      -5.661217      -154.0495
  70   1.0000      -5.660616      -154.0332
  71   1.0000      -5.660171      -154.0211
  72   1.0000      -5.654787      -153.8746
  73   1.0000      -5.654511      -153.8671
  74   1.0000      -5.653971      -153.8524
  75   1.0000      -5.653542      -153.8407
  76   1.0000      -5.653472      -153.8388
  77   1.0000      -5.653160      -153.8303
  78   1.0000      -5.652625      -153.8157
  79   1.0000      -5.652172      -153.8034
  80   1.0000      -2.445405       -66.5428
  81   1.0000      -1.486699       -40.4551
  82   1.0000      -1.475059       -40.1384
  83   1.0000      -1.474227       -40.1158
  84   1.0000      -0.714621       -19.4458
  85   1.0000      -0.710235       -19.3265
  86   1.0000      -0.689356       -18.7583
  87   1.0000      -0.686388       -18.6776
  88   1.0000      -0.651211       -17.7204
  89   1.0000      -0.632408       -17.2087
  90   1.0000      -0.631555       -17.1855
  91   1.0000      -0.628366       -17.0987
  92   1.0000      -0.617461       -16.8020
  93   1.0000      -0.577946       -15.7267
  94   1.0000      -0.575345       -15.6559
  95   1.0000      -0.574333       -15.6284
  96   1.0000      -0.572713       -15.5843
  97   1.0000      -0.505281       -13.7494
  98   1.0000      -0.497641       -13.5415
  99   1.0000      -0.496356       -13.5065
 100   1.0000      -0.491507       -13.3746
 101   1.0000      -0.482745       -13.1362
 102   1.0000      -0.478883       -13.0311
 103   1.0000      -0.447645       -12.1810
 104   1.0000      -0.442749       -12.0478
 105   1.0000      -0.418471       -11.3872
 106   1.0000      -0.412952       -11.2370
 107   1.0000      -0.361283        -9.8310
 108   1.0000      -0.355785        -9.6814
 109   1.0000      -0.327989        -8.9250
 110   1.0000      -0.326951        -8.8968
 111   1.0000      -0.321960        -8.7610
 112   1.0000      -0.316483        -8.6119
 113   1.0000      -0.305897        -8.3239
 114   1.0000      -0.303887        -8.2692
 115   1.0000      -0.292437        -7.9576
 116   1.0000      -0.277465        -7.5502
 117   1.0000      -0.266960        -7.2644
 118   1.0000      -0.258020        -7.0211
 119   1.0000      -0.257262        -7.0004
 120   1.0000      -0.255610        -6.9555
 121   1.0000      -0.242399        -6.5960
 122   1.0000      -0.235215        -6.4005
 123   1.0000      -0.231325        -6.2947
 124   1.0000      -0.230699        -6.2777
 125   1.0000      -0.221108        -6.0167
 126   1.0000      -0.218715        -5.9515
 127   1.0000      -0.212893        -5.7931
 128   1.0000      -0.211309        -5.7500
 129   1.0000      -0.193886        -5.2759
 130   1.0000      -0.188344        -5.1251
 131   1.0000      -0.187310        -5.0970
 132   1.0000      -0.181440        -4.9372
 133   1.0000      -0.172914        -4.7052
 134   1.0000      -0.161190        -4.3862
 135   1.0000      -0.154970        -4.2170
 136   1.0000      -0.148797        -4.0490
 137   1.0000      -0.135810        -3.6956
 138   1.0000      -0.135008        -3.6738
 139   1.0000      -0.134353        -3.6559
 140   1.0000      -0.126330        -3.4376
 141   1.0000      -0.122848        -3.3429
 142   1.0000      -0.114980        -3.1288
 143   1.0000      -0.111476        -3.0334
 144   1.0000      -0.102204        -2.7811
 145   1.0000      -0.100950        -2.7470
 146   1.0000      -0.099368        -2.7039
 147   1.0000      -0.096609        -2.6289
 148   1.0000      -0.076093        -2.0706
 149   1.0000      -0.073382        -1.9968
 150   1.0000      -0.067860        -1.8466
 151   1.0000      -0.053982        -1.4689
 152   1.0000      -0.047175        -1.2837
 153   1.0000      -0.039724        -1.0809
 154   1.0000      -0.038559        -1.0492
 155   1.0000      -0.033147        -0.9020
 156   1.0000      -0.026476        -0.7204
 157   1.0000      -0.020616        -0.5610
 158   1.0000      -0.017103        -0.4654
 159   1.0000       0.018644         0.5073
 160   1.0000       0.039635         1.0785
 161   0.0000       0.100314         2.7297
 162   0.0000       0.135393         3.6842
 163   0.0000       0.136619         3.7176
 164   0.0000       0.162732         4.4282
 165   0.0000       0.169028         4.5995

                 SPIN DOWN ORBITALS
  NO   OCC          E(Eh)            E(eV)
   0   1.0000    -196.676501     -5351.8397
   1   1.0000     -88.739688     -2414.7297
   2   1.0000     -88.739663     -2414.7290
   3   1.0000     -88.733848     -2414.5708
   4   1.0000     -88.733749     -2414.5681
   5   1.0000     -88.733666     -2414.5658
   6   1.0000     -88.733632     -2414.5649
   7   1.0000     -88.730907     -2414.4907
   8   1.0000     -88.730859     -2414.4894
   9   1.0000     -88.641986     -2412.0711
  10   1.0000     -88.641764     -2412.0650
  11   1.0000     -88.641172     -2412.0489
  12   1.0000     -88.640668     -2412.0352
  13   1.0000     -22.036814      -599.6522
  14   1.0000     -18.895468      -514.1718
  15   1.0000     -18.552921      -504.8507
  16   1.0000     -18.536991      -504.4172
  17   1.0000     -18.536804      -504.4121
  18   1.0000     -10.103236      -274.9230
  19   1.0000     -10.079821      -274.2859
  20   1.0000     -10.076611      -274.1985
  21   1.0000     -10.064050      -273.8567
  22   1.0000     -10.064021      -273.8559
  23   1.0000     -10.061606      -273.7902
  24   1.0000     -10.061538      -273.7884
  25   1.0000     -10.052837      -273.5516
  26   1.0000     -10.049084      -273.4495
  27   1.0000     -10.048670      -273.4382
  28   1.0000     -10.020836      -272.6808
  29   1.0000     -10.019916      -272.6558
  30   1.0000     -10.018691      -272.6224
  31   1.0000     -10.017899      -272.6009
  32   1.0000      -7.793108      -212.0613
  33   1.0000      -7.793080      -212.0605
  34   1.0000      -7.787206      -211.9007
  35   1.0000      -7.787100      -211.8978
  36   1.0000      -7.787082      -211.8973
  37   1.0000      -7.786943      -211.8935
  38   1.0000      -7.784178      -211.8183
  39   1.0000      -7.784150      -211.8175
  40   1.0000      -7.696286      -209.4266
  41   1.0000      -7.695996      -209.4187
  42   1.0000      -7.695426      -209.4032
  43   1.0000      -7.694997      -209.3915
  44   1.0000      -5.758132      -156.6867
  45   1.0000      -5.758116      -156.6863
  46   1.0000      -5.754631      -156.5915
  47   1.0000      -5.754604      -156.5907
  48   1.0000      -5.752204      -156.5254
  49   1.0000      -5.752095      -156.5225
  50   1.0000      -5.752027      -156.5206
  51   1.0000      -5.751891      -156.5169
  52   1.0000      -5.749130      -156.4418
  53   1.0000      -5.749102      -156.4410
  54   1.0000      -5.748774      -156.4321
  55   1.0000      -5.748673      -156.4293
  56   1.0000      -5.747897      -156.4082
  57   1.0000      -5.747861      -156.4073
  58   1.0000      -5.747586      -156.3998
  59   1.0000      -5.747435      -156.3956
  60   1.0000      -5.744705      -156.3214
  61   1.0000      -5.744673      -156.3205
  62   1.0000      -5.742925      -156.2729
  63   1.0000      -5.742790      -156.2693
  64   1.0000      -5.741998      -156.2477
  65   1.0000      -5.741888      -156.2447
  66   1.0000      -5.739976      -156.1927
  67   1.0000      -5.739960      -156.1923
  68   1.0000      -5.661618      -154.0605
  69   1.0000      -5.661357      -154.0534
  70   1.0000      -5.660759      -154.0371
  71   1.0000      -5.660313      -154.0250
  72   1.0000      -5.655172      -153.8850
  73   1.0000      -5.654891      -153.8774
  74   1.0000      -5.654323      -153.8619
  75   1.0000      -5.653905      -153.8506
  76   1.0000      -5.653558      -153.8411
  77   1.0000      -5.653253      -153.8328
  78   1.0000      -5.652730      -153.8186
  79   1.0000      -5.652279      -153.8063
  80   1.0000      -2.400521       -65.3215
  81   1.0000      -1.467407       -39.9302
  82   1.0000      -1.412671       -38.4407
  83   1.0000      -1.412521       -38.4366
  84   1.0000      -0.714598       -19.4452
  85   1.0000      -0.710220       -19.3261
  86   1.0000      -0.689296       -18.7567
  87   1.0000      -0.686345       -18.6764
  88   1.0000      -0.659332       -17.9413
  89   1.0000      -0.632351       -17.2071
  90   1.0000      -0.631474       -17.1833
  91   1.0000      -0.628366       -17.0987
  92   1.0000      -0.617463       -16.8020
  93   1.0000      -0.577916       -15.7259
  94   1.0000      -0.575322       -15.6553
  95   1.0000      -0.574266       -15.6266
  96   1.0000      -0.572635       -15.5822
  97   1.0000      -0.505299       -13.7499
  98   1.0000      -0.497665       -13.5421
  99   1.0000      -0.496407       -13.5079
 100   1.0000      -0.491536       -13.3754
 101   1.0000      -0.482963       -13.1421
 102   1.0000      -0.479124       -13.0376
 103   1.0000      -0.447676       -12.1819
 104   1.0000      -0.442776       -12.0486
 105   1.0000      -0.418471       -11.3872
 106   1.0000      -0.413060       -11.2399
 107   1.0000      -0.361277        -9.8308
 108   1.0000      -0.355780        -9.6813
 109   1.0000      -0.327979        -8.9248
 110   1.0000      -0.326914        -8.8958
 111   1.0000      -0.321896        -8.7592
 112   1.0000      -0.316499        -8.6124
 113   1.0000      -0.305858        -8.3228
 114   1.0000      -0.303881        -8.2690
 115   1.0000      -0.292432        -7.9575
 116   1.0000      -0.277407        -7.5486
 117   1.0000      -0.266925        -7.2634
 118   1.0000      -0.257889        -7.0175
 119   1.0000      -0.257204        -6.9989
 120   1.0000      -0.255584        -6.9548
 121   1.0000      -0.242338        -6.5944
 122   1.0000      -0.235177        -6.3995
 123   1.0000      -0.231312        -6.2943
 124   1.0000      -0.230661        -6.2766
 125   1.0000      -0.220719        -6.0061
 126   1.0000      -0.218465        -5.9447
 127   1.0000      -0.212722        -5.7885
 128   1.0000      -0.211256        -5.7486
 129   1.0000      -0.191919        -5.2224
 130   1.0000      -0.188259        -5.1228
 131   1.0000      -0.187098        -5.0912
 132   1.0000      -0.181318        -4.9339
 133   1.0000      -0.172816        -4.7026
 134   1.0000      -0.160583        -4.3697
 135   1.0000      -0.154808        -4.2125
 136   1.0000      -0.148704        -4.0464
 137   1.0000      -0.135133        -3.6771
 138   1.0000      -0.134746        -3.6666
 139   1.0000      -0.134039        -3.6474
 140   1.0000      -0.125823        -3.4238
 141   1.0000      -0.122523        -3.3340
 142   1.0000      -0.116755        -3.1771
 143   1.0000      -0.112943        -3.0733
 144   1.0000      -0.102283        -2.7833
 145   1.0000      -0.101160        -2.7527
 146   1.0000      -0.099622        -2.7109
 147   1.0000      -0.096803        -2.6341
 148   1.0000      -0.073387        -1.9970
 149   1.0000      -0.072262        -1.9663
 150   1.0000      -0.067851        -1.8463
 151   1.0000      -0.051404        -1.3988
 152   1.0000      -0.046238        -1.2582
 153   1.0000      -0.039799        -1.0830
 154   1.0000      -0.037969        -1.0332
 155   1.0000      -0.033170        -0.9026
 156   1.0000      -0.027513        -0.7487
 157   1.0000      -0.017309        -0.4710
 158   1.0000       0.018914         0.5147
 159   1.0000       0.038548         1.0489
 160   0.0000       0.100319         2.7298
 161   0.0000       0.135399         3.6844
 162   0.0000       0.136609         3.7173
 163   0.0000       0.154724         4.2102
 164   0.0000       0.163341         4.4447

MULLIKEN ATOMIC CHARGES AND SPIN POPULATIONS
--------------------------------------------
   0 V :    0.471372    1.210612
   1 S :   -0.290734   -0.022577
   2 S :   -0.287565   -0.024956
   3 S :   -0.288848   -0.023572
   4 S :   -0.283444   -0.025433
   5 O :   -0.466852   -0.146788
   6 C :   -0.078090    0.009651
   7 C :   -0.084866    0.008015
   8 C :   -0.084012    0.007737
   9 C :   -0.084473    0.007418
  10 S :    0.101709   -0.000598
  11 S :    0.103029   -0.000634
  12 S :    0.100339   -0.000397
  13 S :    0.099425   -0.000347
  14 C :   -0.218514    0.001487
  15 C :   -0.211927    0.000999
  16 C :   -0.188267    0.000007
  17 C :   -0.190283   -0.000405
  18 S :    0.013441   -0.000115
  19 S :    0.013547   -0.000113
  20 S :    0.008535   -0.000068
  21 S :    0.008691   -0.000071
  22 C :   -0.302647   -0.000001
  23 C :   -0.300899   -0.000001
  24 C :   -0.160215   -0.000012
  25 H :    0.143292   -0.000001
  26 H :    0.113113   -0.000004
  27 H :    0.089757   -0.000000
  28 H :    0.092654   -0.000001
  29 H :    0.112761   -0.000005
  30 H :    0.142488   -0.000001
  31 C :   -0.291767    0.000164
  32 C :   -0.292994    0.000158
  33 C :   -0.109291   -0.000143
  34 H :    0.154314   -0.000014
  35 H :    0.137848    0.000010
  36 H :    0.079847    0.000012
  37 H :   -0.062337   -0.000010
  38 H :    0.137467    0.000011
  39 H :    0.154394   -0.000015
Sum of atomic charges         :   -2.0000000

LOEWDIN ATOMIC CHARGES AND SPIN POPULATIONS
-------------------------------------------
   0 V :   -0.155362    1.164015
   1 S :    0.080248   -0.014586
   2 S :    0.080503   -0.015881
   3 S :    0.081550   -0.015413
   4 S :    0.084420   -0.016106
   5 O :   -0.318304   -0.131703
   6 C :   -0.549445    0.009033
   7 C :   -0.551583    0.007941
   8 C :   -0.552322    0.008135
   9 C :   -0.552322    0.007665
  10 S :    0.473335   -0.000908
  11 S :    0.474275   -0.000954
  12 S :    0.471516   -0.000824
  13 S :    0.470741   -0.000830
  14 C :   -0.464406    0.000186
  15 C :   -0.465191   -0.000079
  16 C :   -0.623690    0.000473
  17 C :   -0.621790    0.000085
  18 S :    0.367586   -0.000089
  19 S :    0.368946   -0.000086
  20 S :    0.359083   -0.000072
  21 S :    0.358681   -0.000075
  22 C :   -0.282751   -0.000007
  23 C :   -0.282785   -0.000008
  24 C :   -0.173998   -0.000002
  25 H :    0.062664   -0.000001
  26 H :    0.053867   -0.000002
  27 H :    0.055328   -0.000001
  28 H :    0.059757   -0.000001
  29 H :    0.053800   -0.000002
  30 H :    0.062461   -0.000002
  31 C :   -0.285894    0.000045
  32 C :   -0.285675    0.000039
  33 C :   -0.157090    0.000008
  34 H :    0.061699   -0.000001
  35 H :    0.050109    0.000005
  36 H :    0.075148    0.000003
  37 H :    0.005180   -0.000003
  38 H :    0.050196    0.000005
  39 H :    0.061517   -0.000001

  Mayer bond orders larger than 0.100000
B(  0-V ,  1-S ) :   0.7736 B(  0-V ,  2-S ) :   0.7684 B(  0-V ,  3-S ) :   0.7669
B(  0-V ,  4-S ) :   0.7756 B(  0-V ,  5-O ) :   2.1496 B(  1-S ,  8-C ) :   1.1028
B(  2-S ,  6-C ) :   1.1069 B(  3-S ,  9-C ) :   1.1057 B(  4-S ,  7-C ) :   1.1072
B(  6-C ,  7-C ) :   1.6810 B(  6-C , 10-S ) :   0.9358 B(  7-C , 11-S ) :   0.9398
B(  8-C ,  9-C ) :   1.6988 B(  8-C , 13-S ) :   0.9339 B(  9-C , 12-S ) :   0.9354
B( 10-S , 14-C ) :   1.2522 B( 11-S , 14-C ) :   1.2519 B( 12-S , 15-C ) :   1.2461
B( 13-S , 15-C ) :   1.2460 B( 14-C , 16-C ) :   1.4514 B( 15-C , 17-C ) :   1.4540
B( 16-C , 18-S ) :   1.0827 B( 16-C , 19-S ) :   1.0839 B( 17-C , 20-S ) :   1.0886
B( 17-C , 21-S ) :   1.0889 B( 18-S , 32-C ) :   0.9584 B( 19-S , 31-C ) :   0.9585
B( 20-S , 23-C ) :   0.9922 B( 21-S , 22-C ) :   0.9915 B( 22-C , 24-C ) :   0.9116
B( 22-C , 25-H ) :   0.9658 B( 22-C , 26-H ) :   0.9655 B( 23-C , 24-C ) :   0.9124
B( 23-C , 29-H ) :   0.9655 B( 23-C , 30-H ) :   0.9657 B( 24-C , 27-H ) :   0.9648
B( 24-C , 28-H ) :   0.9730 B( 31-C , 33-C ) :   0.9364 B( 31-C , 38-H ) :   0.9648
B( 31-C , 39-H ) :   0.9650 B( 32-C , 33-C ) :   0.9359 B( 32-C , 34-H ) :   0.9649
B( 32-C , 35-H ) :   0.9648 B( 33-C , 36-H ) :   0.9522 B( 33-C , 37-H ) :   0.8770

FINAL SINGLE POINT ENERGY     -6337.631989085131

DIPOLE MOMENT
-------------
                                X             Y             Z
Electronic contribution:     -6.92267      -9.39748       6.50360
Nuclear contribution   :      7.63780      10.14907      -7.98293
                        -----------------------------------------
Total Dipole Moment    :      0.71513       0.75159      -1.47933
                        -----------------------------------------
Magnitude (a.u.)       :      1.80685
Magnitude (Debye)      :      4.59265

Rotational constants in cm-1:     0.010757     0.000804     0.000783
Rotational constants in MHz :   322.473435    24.114507    23.486436

                             ****ORCA TERMINATED NORMALLY****
TOTAL RUN TIME: 0 days 1 hours 1 minutes 53 seconds 929 msec
