                         Program Version 5.0.4 -  RELEASE  -
|  1> ! nofrozencore ReducedPop printbasis
|  2> ! B3LYP TZVP
|  3>
|  4> %basis
|  5> newgto V "CP(PPP)" end
|  6> end
|  7>
|  8> %pal
|  9> nprocs 8
| 10> end
| 11>
| 12> % sym SymThresh 1e-2 end
| 13> * xyz -2 2
| 14> V -1.00482055976445 0.4770771109291683 0.04131252657651574
| 15> S 0.44092940963689153 2.3500197125435007 0.7630040590889579
| 16> S -0.07487372606371984 0.8741934102215885 -2.217948423588223
| 17> S -0.6527944066548231 -0.43891890541291034 2.3146513841140983
| 18> S -1.07524795369979 -1.9006508527733423 -0.6119653387262888
| 19> O -2.494186976911514 1.0274036654306342 -0.01479714103133577
| 20> C -0.5855140240968664 -0.6147138418588822 -3.003486757555956
| 21> C -0.9829658589683793 -1.7272616589821332 -2.357830083972729
| 22> C 0.5955957160821452 2.018096470800059 2.4827840143196
| 23> C 0.16169762597991136 0.9040496042969928 3.1003437047798283
| 24> S -0.5123689991701947 -0.7160160861325096 -4.794871251419459
| 25> S -1.3659098966861416 -3.1531601635732787 -3.3796921036985585
| 26> S 0.4933468398876253 0.7834730478201776 4.86134017274437
| 27> S 1.437810146852586 3.225332827031337 3.5128343978554972
| 28> C -1.01201948950816 -2.4015216727284003 -4.9437873652388635
| 29> C 1.3748981565678646 2.306698841940257 5.021996813941021
| 30> C -1.1293817454428703 -3.0671330878515435 -6.132930592732374
| 31> C 1.9392974661648164 2.7335322208145274 6.192123494110847
| 32> S -0.8170457163164869 -2.2504733040058458 -7.695949916427594
| 33> S -1.6302890196390356 -4.7656977450853715 -6.224367638427747
| 34> S 2.8219126565286703 4.277393191322655 6.3044176689806095
| 35> S 1.8660172793855052 1.7586780670716162 7.682689554956452
| 36> C 3.6807663367283823 1.4596906510623948 7.896759160884683
| 37> C 4.493267566135108 3.6039628794633165 6.729927573954029
| 38> C 4.507100618533477 2.7437614061212092 7.996108774016017
| 39> H 4.021090694123829 0.8404423631896557 7.0638141616109875
| 40> H 3.772132318793964 0.8758950546564496 8.816146638354448
| 41> H 5.549162484072966 2.465832272539308 8.207605727965177
| 42> H 4.150629891322392 3.3382934109132942 8.843143549634766
| 43> H 5.1352279540865045 4.478822092258877 6.859822086982968
| 44> H 4.858950996046656 3.036656281061572 5.871145804641843
| 45> C -3.2082891587911417 -4.560646334603535 -7.132282457516709
| 46> C -2.530797097735242 -2.4412161611487595 -8.42431453562959
| 47> C -3.0096787095826736 -3.8218014883263756 -8.53214915465465
| 48> H -3.0922003337847057 -1.7632226276825322 -7.768026263154629
| 49> H -2.239110260346558 -1.841734242544987 -9.333803925908184
| 50> H -2.27729958562157 -4.277822705824183 -9.222428457217594
| 51> H -4.061425139329102 -4.066426640648533 -8.901341476875746
| 52> H -3.749964343072145 -5.479761389038619 -7.5038201775814874
| 53> H -3.9909833429462 -3.9702006606160687 -6.618857720250053
| 54> *
| 55>
| 56> % eprnmr
| 57> gtensor true
| 58> Nuclei = all H {aiso,adip,aorb,fgrad,rho}
| 59> Nuclei = all V {aiso,adip,aorb,fgrad,rho}
| 60> end
| 61>
| 62>                          ****END OF INPUT****

CARTESIAN COORDINATES (ANGSTROEM)
---------------------------------
  V     -1.002430    0.474962    0.039189
  S      0.443320    2.347905    0.760880
  S     -0.072483    0.872079   -2.220072
  S     -0.650404   -0.441034    2.312528
  S     -1.072857   -1.902765   -0.614089
  O     -2.491796    1.025289   -0.016921
  C     -0.583123   -0.616828   -3.005611
  C     -0.980575   -1.729376   -2.359954
  C      0.597987    2.015982    2.480660
  C      0.164088    0.901935    3.098220
  S     -0.509978   -0.718131   -4.796995
  S     -1.363519   -3.155275   -3.381816
  S      0.495738    0.781358    4.859216
  S      1.440201    3.223218    3.510711
  C     -1.009629   -2.403636   -4.945911
  C      1.377289    2.304584    5.019873
  C     -1.126991   -3.069248   -6.135054
  C      1.941688    2.731418    6.190000
  S     -0.814655   -2.252588   -7.698074
  S     -1.627898   -4.767812   -6.226491
  S      2.824304    4.275279    6.302294
  S      1.868408    1.756563    7.680566
  C      3.683157    1.457576    7.894635
  C      4.495658    3.601848    6.727804
  C      4.509491    2.741647    7.993985
  H      4.023482    0.838328    7.061690
  H      3.774523    0.873780    8.814023
  H      5.551553    2.463718    8.205482
  H      4.153021    3.336179    8.841020
  H      5.137619    4.476707    6.857698
  H      4.861342    3.034542    5.869022
  C     -3.205898   -4.562761   -7.134406
  C     -2.528406   -2.443331   -8.426438
  C     -3.007288   -3.823916   -8.534273
  H     -3.089809   -1.765337   -7.770150
  H     -2.236719   -1.843849   -9.335928
  H     -2.274909   -4.279937   -9.224552
  H     -4.059034   -4.068541   -8.903465
  H     -3.747573   -5.481876   -7.505944
  H     -3.988592   -3.972315   -6.620981

 Total Charge           Charge          ....   -2
 Multiplicity           Mult            ....    2
 Number of Electrons    NEL             ....  321
 Basis Dimension        Dim             ....  681

ORBITAL ENERGIES
----------------
                 SPIN UP ORBITALS
  NO   OCC          E(Eh)            E(eV)
   0   1.0000    -196.675002     -5351.7989
   1   1.0000     -88.737221     -2414.6625
   2   1.0000     -88.733242     -2414.5543
   3   1.0000     -88.733132     -2414.5513
   4   1.0000     -88.733111     -2414.5507
   5   1.0000     -88.731806     -2414.5152
   6   1.0000     -88.730176     -2414.4708
   7   1.0000     -88.730118     -2414.4693
   8   1.0000     -88.730075     -2414.4681
   9   1.0000     -88.640095     -2412.0196
  10   1.0000     -88.639888     -2412.0140
  11   1.0000     -88.639834     -2412.0125
  12   1.0000     -88.639405     -2412.0008
  13   1.0000     -22.050396      -600.0218
  14   1.0000     -18.890306      -514.0314
  15   1.0000     -18.556844      -504.9574
  16   1.0000     -18.551671      -504.8166
  17   1.0000     -18.551571      -504.8139
  18   1.0000     -10.076659      -274.1998
  19   1.0000     -10.075872      -274.1784
  20   1.0000     -10.072818      -274.0953
  21   1.0000     -10.065003      -273.8827
  22   1.0000     -10.063314      -273.8367
  23   1.0000     -10.063231      -273.8344
  24   1.0000     -10.057361      -273.6747
  25   1.0000     -10.051162      -273.5060
  26   1.0000     -10.049013      -273.4475
  27   1.0000     -10.048411      -273.4312
  28   1.0000     -10.018776      -272.6248
  29   1.0000     -10.017941      -272.6020
  30   1.0000     -10.017859      -272.5998
  31   1.0000     -10.017147      -272.5804
  32   1.0000      -7.790533      -211.9912
  33   1.0000      -7.786694      -211.8867
  34   1.0000      -7.786585      -211.8837
  35   1.0000      -7.786583      -211.8837
  36   1.0000      -7.785098      -211.8433
  37   1.0000      -7.783419      -211.7976
  38   1.0000      -7.783384      -211.7967
  39   1.0000      -7.783356      -211.7959
  40   1.0000      -7.694401      -209.3753
  41   1.0000      -7.694163      -209.3688
  42   1.0000      -7.694050      -209.3658
  43   1.0000      -7.693743      -209.3574
  44   1.0000      -5.755629      -156.6186
  45   1.0000      -5.752079      -156.5220
  46   1.0000      -5.751687      -156.5114
  47   1.0000      -5.751575      -156.5083
  48   1.0000      -5.751505      -156.5064
  49   1.0000      -5.750038      -156.4665
  50   1.0000      -5.748365      -156.4210
  51   1.0000      -5.748334      -156.4201
  52   1.0000      -5.748299      -156.4192
  53   1.0000      -5.748261      -156.4181
  54   1.0000      -5.748197      -156.4164
  55   1.0000      -5.748153      -156.4152
  56   1.0000      -5.745575      -156.3451
  57   1.0000      -5.745246      -156.3361
  58   1.0000      -5.743932      -156.3003
  59   1.0000      -5.743901      -156.2995
  60   1.0000      -5.743881      -156.2989
  61   1.0000      -5.741495      -156.2340
  62   1.0000      -5.741382      -156.2309
  63   1.0000      -5.741374      -156.2307
  64   1.0000      -5.740961      -156.2195
  65   1.0000      -5.739238      -156.1726
  66   1.0000      -5.739196      -156.1715
  67   1.0000      -5.739177      -156.1709
  68   1.0000      -5.659712      -154.0086
  69   1.0000      -5.659476      -154.0022
  70   1.0000      -5.659394      -153.9999
  71   1.0000      -5.659046      -153.9905
  72   1.0000      -5.653048      -153.8272
  73   1.0000      -5.652837      -153.8215
  74   1.0000      -5.652734      -153.8187
  75   1.0000      -5.652425      -153.8103
  76   1.0000      -5.651728      -153.7913
  77   1.0000      -5.651485      -153.7847
  78   1.0000      -5.651344      -153.7809
  79   1.0000      -5.651053      -153.7730
  80   1.0000      -2.444037       -66.5056
  81   1.0000      -1.485340       -40.4182
  82   1.0000      -1.473677       -40.1008
  83   1.0000      -1.472858       -40.0785
  84   1.0000      -0.710764       -19.3409
  85   1.0000      -0.709537       -19.3075
  86   1.0000      -0.686782       -18.6883
  87   1.0000      -0.685515       -18.6538
  88   1.0000      -0.649892       -17.6845
  89   1.0000      -0.632742       -17.2178
  90   1.0000      -0.631259       -17.1774
  91   1.0000      -0.617879       -16.8133
  92   1.0000      -0.617180       -16.7943
  93   1.0000      -0.575435       -15.6584
  94   1.0000      -0.574516       -15.6334
  95   1.0000      -0.573912       -15.6169
  96   1.0000      -0.572819       -15.5872
  97   1.0000      -0.498139       -13.5551
  98   1.0000      -0.496251       -13.5037
  99   1.0000      -0.495839       -13.4925
 100   1.0000      -0.494794       -13.4640
 101   1.0000      -0.480251       -13.0683
 102   1.0000      -0.477537       -12.9944
 103   1.0000      -0.446602       -12.1527
 104   1.0000      -0.442940       -12.0530
 105   1.0000      -0.416380       -11.3303
 106   1.0000      -0.411272       -11.1913
 107   1.0000      -0.355194        -9.6653
 108   1.0000      -0.354782        -9.6541
 109   1.0000      -0.332862        -9.0576
 110   1.0000      -0.326484        -8.8841
 111   1.0000      -0.318369        -8.6633
 112   1.0000      -0.313904        -8.5418
 113   1.0000      -0.305166        -8.3040
 114   1.0000      -0.303728        -8.2648
 115   1.0000      -0.292235        -7.9521
 116   1.0000      -0.284249        -7.7348
 117   1.0000      -0.261055        -7.1037
 118   1.0000      -0.257133        -6.9970
 119   1.0000      -0.256546        -6.9810
 120   1.0000      -0.252753        -6.8778
 121   1.0000      -0.236966        -6.4482
 122   1.0000      -0.234361        -6.3773
 123   1.0000      -0.230548        -6.2735
 124   1.0000      -0.224177        -6.1002
 125   1.0000      -0.219759        -5.9799
 126   1.0000      -0.215500        -5.8641
 127   1.0000      -0.212340        -5.7781
 128   1.0000      -0.211884        -5.7656
 129   1.0000      -0.192703        -5.2437
 130   1.0000      -0.187257        -5.0955
 131   1.0000      -0.185004        -5.0342
 132   1.0000      -0.180849        -4.9212
 133   1.0000      -0.179634        -4.8881
 134   1.0000      -0.159636        -4.3439
 135   1.0000      -0.151873        -4.1327
 136   1.0000      -0.147111        -4.0031
 137   1.0000      -0.135024        -3.6742
 138   1.0000      -0.134007        -3.6465
 139   1.0000      -0.133212        -3.6249
 140   1.0000      -0.125132        -3.4050
 141   1.0000      -0.121186        -3.2976
 142   1.0000      -0.113602        -3.0913
 143   1.0000      -0.109741        -2.9862
 144   1.0000      -0.100006        -2.7213
 145   1.0000      -0.098274        -2.6742
 146   1.0000      -0.097502        -2.6532
 147   1.0000      -0.094931        -2.5832
 148   1.0000      -0.074665        -2.0317
 149   1.0000      -0.068416        -1.8617
 150   1.0000      -0.067309        -1.8316
 151   1.0000      -0.052483        -1.4281
 152   1.0000      -0.045709        -1.2438
 153   1.0000      -0.037701        -1.0259
 154   1.0000      -0.037196        -1.0122
 155   1.0000      -0.031520        -0.8577
 156   1.0000      -0.025077        -0.6824
 157   1.0000      -0.019216        -0.5229
 158   1.0000      -0.015591        -0.4242
 159   1.0000       0.020218         0.5502
 160   1.0000       0.041096         1.1183
 161   0.0000       0.135076         3.6756
 162   0.0000       0.137341         3.7372
 163   0.0000       0.148208         4.0329
 164   0.0000       0.162288         4.4161
 165   0.0000       0.170560         4.6412

                 SPIN DOWN ORBITALS
  NO   OCC          E(Eh)            E(eV)
   0   1.0000    -196.675149     -5351.8029
   1   1.0000     -88.737222     -2414.6626
   2   1.0000     -88.733242     -2414.5543
   3   1.0000     -88.733133     -2414.5513
   4   1.0000     -88.733111     -2414.5507
   5   1.0000     -88.731814     -2414.5154
   6   1.0000     -88.730184     -2414.4711
   7   1.0000     -88.730127     -2414.4695
   8   1.0000     -88.730083     -2414.4683
   9   1.0000     -88.640234     -2412.0234
  10   1.0000     -88.640024     -2412.0177
  11   1.0000     -88.639974     -2412.0163
  12   1.0000     -88.639544     -2412.0046
  13   1.0000     -22.035469      -599.6156
  14   1.0000     -18.894083      -514.1341
  15   1.0000     -18.551580      -504.8142
  16   1.0000     -18.535641      -504.3804
  17   1.0000     -18.535458      -504.3755
  18   1.0000     -10.076654      -274.1997
  19   1.0000     -10.075871      -274.1784
  20   1.0000     -10.072817      -274.0953
  21   1.0000     -10.065003      -273.8826
  22   1.0000     -10.063315      -273.8367
  23   1.0000     -10.063231      -273.8344
  24   1.0000     -10.057361      -273.6747
  25   1.0000     -10.051162      -273.5060
  26   1.0000     -10.049001      -273.4472
  27   1.0000     -10.048407      -273.4311
  28   1.0000     -10.018538      -272.6183
  29   1.0000     -10.017727      -272.5962
  30   1.0000     -10.017636      -272.5937
  31   1.0000     -10.016935      -272.5746
  32   1.0000      -7.790533      -211.9912
  33   1.0000      -7.786694      -211.8867
  34   1.0000      -7.786586      -211.8838
  35   1.0000      -7.786583      -211.8837
  36   1.0000      -7.785107      -211.8435
  37   1.0000      -7.783428      -211.7979
  38   1.0000      -7.783394      -211.7969
  39   1.0000      -7.783366      -211.7962
  40   1.0000      -7.694532      -209.3789
  41   1.0000      -7.694291      -209.3723
  42   1.0000      -7.694181      -209.3693
  43   1.0000      -7.693873      -209.3609
  44   1.0000      -5.755630      -156.6186
  45   1.0000      -5.752081      -156.5221
  46   1.0000      -5.751687      -156.5114
  47   1.0000      -5.751576      -156.5083
  48   1.0000      -5.751506      -156.5064
  49   1.0000      -5.750048      -156.4668
  50   1.0000      -5.748375      -156.4212
  51   1.0000      -5.748345      -156.4204
  52   1.0000      -5.748309      -156.4195
  53   1.0000      -5.748262      -156.4182
  54   1.0000      -5.748198      -156.4164
  55   1.0000      -5.748154      -156.4152
  56   1.0000      -5.745589      -156.3454
  57   1.0000      -5.745247      -156.3361
  58   1.0000      -5.743945      -156.3007
  59   1.0000      -5.743915      -156.2999
  60   1.0000      -5.743895      -156.2993
  61   1.0000      -5.741495      -156.2340
  62   1.0000      -5.741383      -156.2310
  63   1.0000      -5.741375      -156.2307
  64   1.0000      -5.740969      -156.2197
  65   1.0000      -5.739247      -156.1728
  66   1.0000      -5.739202      -156.1716
  67   1.0000      -5.739183      -156.1711
  68   1.0000      -5.659850      -154.0123
  69   1.0000      -5.659619      -154.0061
  70   1.0000      -5.659535      -154.0038
  71   1.0000      -5.659188      -153.9943
  72   1.0000      -5.653434      -153.8378
  73   1.0000      -5.653188      -153.8311
  74   1.0000      -5.653114      -153.8291
  75   1.0000      -5.652786      -153.8201
  76   1.0000      -5.651814      -153.7937
  77   1.0000      -5.651590      -153.7876
  78   1.0000      -5.651437      -153.7834
  79   1.0000      -5.651159      -153.7759
  80   1.0000      -2.399166       -65.2846
  81   1.0000      -1.466060       -39.8935
  82   1.0000      -1.411311       -38.4037
  83   1.0000      -1.411153       -38.3994
  84   1.0000      -0.710739       -19.3402
  85   1.0000      -0.709521       -19.3071
  86   1.0000      -0.686725       -18.6867
  87   1.0000      -0.685472       -18.6526
  88   1.0000      -0.657994       -17.9049
  89   1.0000      -0.632671       -17.2159
  90   1.0000      -0.631201       -17.1759
  91   1.0000      -0.617875       -16.8132
  92   1.0000      -0.617182       -16.7944
  93   1.0000      -0.575398       -15.6574
  94   1.0000      -0.574493       -15.6328
  95   1.0000      -0.573837       -15.6149
  96   1.0000      -0.572752       -15.5854
  97   1.0000      -0.498164       -13.5557
  98   1.0000      -0.496279       -13.5044
  99   1.0000      -0.495882       -13.4936
 100   1.0000      -0.494828       -13.4650
 101   1.0000      -0.480443       -13.0735
 102   1.0000      -0.477787       -13.0012
 103   1.0000      -0.446628       -12.1534
 104   1.0000      -0.442982       -12.0541
 105   1.0000      -0.416377       -11.3302
 106   1.0000      -0.411380       -11.1942
 107   1.0000      -0.355189        -9.6652
 108   1.0000      -0.354771        -9.6538
 109   1.0000      -0.332853        -9.0574
 110   1.0000      -0.326474        -8.8838
 111   1.0000      -0.318296        -8.6613
 112   1.0000      -0.313926        -8.5424
 113   1.0000      -0.305112        -8.3025
 114   1.0000      -0.303700        -8.2641
 115   1.0000      -0.292230        -7.9520
 116   1.0000      -0.284229        -7.7343
 117   1.0000      -0.260967        -7.1013
 118   1.0000      -0.257044        -6.9945
 119   1.0000      -0.256489        -6.9794
 120   1.0000      -0.252719        -6.8768
 121   1.0000      -0.236877        -6.4458
 122   1.0000      -0.234336        -6.3766
 123   1.0000      -0.230509        -6.2725
 124   1.0000      -0.224086        -6.0977
 125   1.0000      -0.219520        -5.9734
 126   1.0000      -0.215190        -5.8556
 127   1.0000      -0.212243        -5.7754
 128   1.0000      -0.211777        -5.7627
 129   1.0000      -0.190767        -5.1910
 130   1.0000      -0.187177        -5.0933
 131   1.0000      -0.184778        -5.0281
 132   1.0000      -0.180720        -4.9176
 133   1.0000      -0.179518        -4.8849
 134   1.0000      -0.159017        -4.3271
 135   1.0000      -0.151704        -4.1281
 136   1.0000      -0.147030        -4.0009
 137   1.0000      -0.134146        -3.6503
 138   1.0000      -0.133927        -3.6443
 139   1.0000      -0.132946        -3.6176
 140   1.0000      -0.124570        -3.3897
 141   1.0000      -0.120859        -3.2887
 142   1.0000      -0.115381        -3.1397
 143   1.0000      -0.111311        -3.0289
 144   1.0000      -0.100006        -2.7213
 145   1.0000      -0.098595        -2.6829
 146   1.0000      -0.097486        -2.6527
 147   1.0000      -0.095252        -2.5919
 148   1.0000      -0.070885        -1.9289
 149   1.0000      -0.068360        -1.8602
 150   1.0000      -0.067303        -1.8314
 151   1.0000      -0.049896        -1.3577
 152   1.0000      -0.044772        -1.2183
 153   1.0000      -0.037750        -1.0272
 154   1.0000      -0.036618        -0.9964
 155   1.0000      -0.031561        -0.8588
 156   1.0000      -0.026108        -0.7104
 157   1.0000      -0.015801        -0.4300
 158   1.0000       0.020504         0.5579
 159   1.0000       0.040000         1.0885
 160   0.0000       0.135082         3.6758
 161   0.0000       0.137331         3.7370
 162   0.0000       0.148039         4.0284
 163   0.0000       0.156340         4.2542
 164   0.0000       0.163029         4.4362

MULLIKEN ATOMIC CHARGES AND SPIN POPULATIONS
--------------------------------------------
   0 V :    0.471061    1.210454
   1 S :   -0.291009   -0.022466
   2 S :   -0.289711   -0.025065
   3 S :   -0.289003   -0.023425
   4 S :   -0.283970   -0.025648
   5 O :   -0.467569   -0.146586
   6 C :   -0.079461    0.009675
   7 C :   -0.083007    0.008057
   8 C :   -0.083920    0.007742
   9 C :   -0.084783    0.007368
  10 S :    0.101598   -0.000601
  11 S :    0.100737   -0.000615
  12 S :    0.100117   -0.000394
  13 S :    0.099227   -0.000346
  14 C :   -0.212245    0.001509
  15 C :   -0.212175    0.000997
  16 C :   -0.193192   -0.000053
  17 C :   -0.190446   -0.000405
  18 S :   -0.015860   -0.000115
  19 S :    0.032704   -0.000110
  20 S :    0.008367   -0.000068
  21 S :    0.008140   -0.000071
  22 C :   -0.300862   -0.000001
  23 C :   -0.300404   -0.000001
  24 C :   -0.157929   -0.000012
  25 H :    0.143366   -0.000001
  26 H :    0.113791   -0.000004
  27 H :    0.083507   -0.000001
  28 H :    0.092190   -0.000001
  29 H :    0.113448   -0.000005
  30 H :    0.142981   -0.000001
  31 C :   -0.293543    0.000191
  32 C :   -0.288090    0.000181
  33 C :   -0.140309   -0.000214
  34 H :    0.147904   -0.000020
  35 H :    0.098689    0.000015
  36 H :    0.086401    0.000021
  37 H :    0.071417    0.000009
  38 H :    0.103464    0.000024
  39 H :    0.138381   -0.000014
Sum of atomic charges         :   -2.0000000

LOEWDIN ATOMIC CHARGES AND SPIN POPULATIONS
-------------------------------------------
   0 V :   -0.155884    1.163834
   1 S :    0.080014   -0.014490
   2 S :    0.078997   -0.015956
   3 S :    0.081371   -0.015310
   4 S :    0.084250   -0.016280
   5 O :   -0.318877   -0.131494
   6 C :   -0.550609    0.009064
   7 C :   -0.551098    0.007934
   8 C :   -0.552392    0.008131
   9 C :   -0.552394    0.007661
  10 S :    0.474382   -0.000911
  11 S :    0.471118   -0.000945
  12 S :    0.471340   -0.000825
  13 S :    0.470562   -0.000830
  14 C :   -0.464759    0.000170
  15 C :   -0.465152   -0.000081
  16 C :   -0.623725    0.000477
  17 C :   -0.622047    0.000085
  18 S :    0.344686   -0.000092
  19 S :    0.379126   -0.000083
  20 S :    0.359073   -0.000073
  21 S :    0.358514   -0.000075
  22 C :   -0.283230   -0.000007
  23 C :   -0.283459   -0.000009
  24 C :   -0.176100   -0.000002
  25 H :    0.062561   -0.000001
  26 H :    0.053606   -0.000002
  27 H :    0.058025   -0.000002
  28 H :    0.060181   -0.000001
  29 H :    0.053590   -0.000002
  30 H :    0.062404   -0.000002
  31 C :   -0.304014    0.000054
  32 C :   -0.282138    0.000032
  33 C :   -0.187706    0.000008
  34 H :    0.062292   -0.000000
  35 H :    0.055077    0.000005
  36 H :    0.063158    0.000004
  37 H :    0.064133    0.000001
  38 H :    0.061443    0.000014
  39 H :    0.063679   -0.000001

  Mayer bond orders larger than 0.100000
B(  0-V ,  1-S ) :   0.7723 B(  0-V ,  2-S ) :   0.7701 B(  0-V ,  3-S ) :   0.7657
B(  0-V ,  4-S ) :   0.7778 B(  0-V ,  5-O ) :   2.1489 B(  1-S ,  8-C ) :   1.1033
B(  2-S ,  6-C ) :   1.1046 B(  3-S ,  9-C ) :   1.1062 B(  4-S ,  7-C ) :   1.1061
B(  6-C ,  7-C ) :   1.6831 B(  6-C , 10-S ) :   0.9356 B(  7-C , 11-S ) :   0.9397
B(  8-C ,  9-C ) :   1.6985 B(  8-C , 13-S ) :   0.9337 B(  9-C , 12-S ) :   0.9355
B( 10-S , 14-C ) :   1.2502 B( 11-S , 14-C ) :   1.2482 B( 12-S , 15-C ) :   1.2465
B( 13-S , 15-C ) :   1.2465 B( 14-C , 16-C ) :   1.4487 B( 15-C , 17-C ) :   1.4537
B( 16-C , 18-S ) :   1.0755 B( 16-C , 19-S ) :   1.0884 B( 17-C , 20-S ) :   1.0881
B( 17-C , 21-S ) :   1.0889 B( 18-S , 32-C ) :   0.9619 B( 19-S , 31-C ) :   0.9838
B( 20-S , 23-C ) :   0.9915 B( 21-S , 22-C ) :   0.9905 B( 22-C , 24-C ) :   0.9133
B( 22-C , 25-H ) :   0.9657 B( 22-C , 26-H ) :   0.9655 B( 23-C , 24-C ) :   0.9136
B( 23-C , 29-H ) :   0.9656 B( 23-C , 30-H ) :   0.9655 B( 24-C , 27-H ) :   0.9625
B( 24-C , 28-H ) :   0.9719 B( 31-C , 33-C ) :   0.8718 B( 31-C , 38-H ) :   0.9640
B( 31-C , 39-H ) :   0.9592 B( 32-C , 33-C ) :   0.9456 B( 32-C , 34-H ) :   0.9720
B( 32-C , 35-H ) :   0.9655 B( 33-C , 36-H ) :   0.9642 B( 33-C , 37-H ) :   0.9623

FINAL SINGLE POINT ENERGY     -6337.675266171820

DIPOLE MOMENT
-------------
                                X             Y             Z
Electronic contribution:    -10.84991       7.38769       3.43955
Nuclear contribution   :     12.17396      -8.17503      -3.67818
                        -----------------------------------------
Total Dipole Moment    :      1.32404      -0.78734      -0.23863
                        -----------------------------------------
Magnitude (a.u.)       :      1.55882
Magnitude (Debye)      :      3.96221

Rotational constants in cm-1:     0.010760     0.000804     0.000783
Rotational constants in MHz :   322.577451    24.115927    23.486591

                             ****ORCA TERMINATED NORMALLY****
TOTAL RUN TIME: 0 days 1 hours 1 minutes 37 seconds 268 msec
