                         Program Version 5.0.4 -  RELEASE  -
|  1> ! nofrozencore ReducedPop printbasis
|  2> ! B3LYP TZVP
|  3>
|  4> %basis
|  5> newgto V "CP(PPP)" end
|  6> end
|  7>
|  8> %pal
|  9> nprocs 6
| 10> end
| 11>
| 12> % sym SymThresh 1e-2 end
| 13> * xyz -2 2
| 14> V 0.2578458452787653 -0.04166356854467528 -1.081997516146688
| 15> S 1.830917757375167 -1.7093220373581646 -0.15301346979604125
| 16> S -1.4951716334616267 -1.7407598580318249 -0.6591768393312317
| 17> S 1.7857944732276319 1.6641073362707064 -0.14017649621694991
| 18> S -1.4880853659001905 1.6159854347130902 -0.5550091191636783
| 19> O 0.4605540255867254 -0.031226389989972306 -2.6577032057746885
| 20> C -2.914965476431088 -0.693242429767498 -0.8279399183340163
| 21> C -2.923026611705742 0.6522630538874458 -0.7776108022722348
| 22> C 3.164757553091928 -0.6832953970218921 0.34901413473137
| 23> C 3.143215864928576 0.6621533268844899 0.35637209781646284
| 24> S -4.50931668194897 -1.5417258781168304 -0.9974850570372569
| 25> S -4.535843868382261 1.4004661366609785 -0.8843893801453707
| 26> S 4.615606206266108 1.4933010188536195 0.9682860312183217
| 27> S 4.67089243114144 -1.4512349393565438 0.9499871844953561
| 28> C -5.4949208320416565 0.13033690012100618 -0.9948575697126053
| 29> C 5.525022229872608 -0.006549003928847592 1.3834212202088172
| 30> C -6.859092934395888 0.24624909611119056 -1.082367640202639
| 31> C 6.76129543160927 -0.01003922594029511 1.9681796134235645
| 32> S -7.83380194454859 -1.5448036558384926 -1.2851259175616832
| 33> S -7.768265132939901 1.474000016742198 -1.0842854687559083
| 34> S 7.629383723612345 -1.4520266181522354 2.3666914920946938
| 35> S 7.5759295835156255 1.5731929360590107 2.4110991393013674
| 36> C 7.648304866557594 1.3226784788610373 4.242836987979064
| 37> C 7.6804351521789895 -1.2498640312163076 4.207800316949346
| 38> C 8.36851236213585 0.0436114245565245 4.663371462611853
| 39> H 6.612693090828646 1.281410336118322 4.5920621667965476
| 40> H 8.113225201883177 2.2161674203093873 4.670244519094574
| 41> H 8.429594974543601 0.026160749559395863 5.76056633672565
| 42> H 9.3943196579237 0.04156893756023894 4.280453232645866
| 43> H 8.280754106971077 -2.100426031858572 4.546363383828718
| 44> H 6.671050721172504 -1.35449549312615 4.615143179873595
| 45> C -8.46173711727232 1.3691611167930091 -2.8050407436467055
| 46> C -8.600492616160157 -1.2002851281737785 -2.927932856983823
| 47> C -9.346899179465767 0.11264910881704863 -3.015028516299455
| 48> H -7.676321745418569 -0.965864398786073 -3.5304272675231
| 49> H -9.073674626525694 -2.119755899611435 -3.390390530723023
| 50> H -10.159274973577979 0.22803057139622626 -2.2737546762304546
| 51> H -9.806420068844869 0.2003962133971933 -4.009778565292689
| 52> H -9.261187303754038 2.165054391815159 -2.6696706470675133
| 53> H -7.757304340240995 1.6834730783531573 -3.6271482107275905
| 54> *
| 55>
| 56> % eprnmr
| 57> gtensor true
| 58> Nuclei = all H {aiso,adip,aorb,fgrad,rho}
| 59> Nuclei = all V {aiso,adip,aorb,fgrad,rho}
| 60> end
| 61>
| 62>                          ****END OF INPUT****

CARTESIAN COORDINATES (ANGSTROEM)
---------------------------------
  V      0.254988   -0.041715   -1.079443
  S      1.828060   -1.709373   -0.150459
  S     -1.498030   -1.740811   -0.656622
  S      1.782936    1.664056   -0.137622
  S     -1.490944    1.615934   -0.552454
  O      0.457696   -0.031278   -2.655149
  C     -2.917824   -0.693294   -0.825385
  C     -2.925885    0.652212   -0.775056
  C      3.161899   -0.683347    0.351569
  C      3.140358    0.662102    0.358927
  S     -4.512175   -1.541777   -0.994930
  S     -4.538702    1.400415   -0.881835
  S      4.612748    1.493250    0.970841
  S      4.668034   -1.451286    0.952542
  C     -5.497779    0.130286   -0.992303
  C      5.522164   -0.006600    1.385976
  C     -6.861951    0.246198   -1.079813
  C      6.758437   -0.010091    1.970734
  S     -7.836660   -1.544855   -1.282571
  S     -7.771123    1.473949   -1.081731
  S      7.626526   -1.452078    2.369246
  S      7.573071    1.573142    2.413654
  C      7.645447    1.322627    4.245392
  C      7.677577   -1.249915    4.210355
  C      8.365654    0.043560    4.665926
  H      6.609835    1.281359    4.594617
  H      8.110367    2.216116    4.672799
  H      8.426737    0.026109    5.763121
  H      9.391461    0.041518    4.283008
  H      8.277896   -2.100477    4.548918
  H      6.668193   -1.354547    4.617698
  C     -8.464595    1.369110   -2.802486
  C     -8.603351   -1.200336   -2.925378
  C     -9.349757    0.112598   -3.012474
  H     -7.679180   -0.965916   -3.527873
  H     -9.076533   -2.119807   -3.387836
  H    -10.162133    0.227979   -2.271200
  H     -9.809278    0.200345   -4.007224
  H     -9.264045    2.165003   -2.667116
  H     -7.760163    1.683422   -3.624594

 Total Charge           Charge          ....   -2
 Multiplicity           Mult            ....    2
 Number of Electrons    NEL             ....  321
 Basis Dimension        Dim             ....  681

ORBITAL ENERGIES
----------------
                 SPIN UP ORBITALS
  NO   OCC          E(Eh)            E(eV)
   0   1.0000    -196.677377     -5351.8635
   1   1.0000     -88.734922     -2414.6000
   2   1.0000     -88.733962     -2414.5739
   3   1.0000     -88.733886     -2414.5718
   4   1.0000     -88.733515     -2414.5617
   5   1.0000     -88.732643     -2414.5380
   6   1.0000     -88.731559     -2414.5085
   7   1.0000     -88.731333     -2414.5023
   8   1.0000     -88.716553     -2414.1001
   9   1.0000     -88.643650     -2412.1163
  10   1.0000     -88.642301     -2412.0796
  11   1.0000     -88.641618     -2412.0611
  12   1.0000     -88.641512     -2412.0582
  13   1.0000     -22.052758      -600.0861
  14   1.0000     -18.892658      -514.0954
  15   1.0000     -18.559190      -505.0212
  16   1.0000     -18.554044      -504.8812
  17   1.0000     -18.553937      -504.8783
  18   1.0000     -10.077030      -274.2099
  19   1.0000     -10.075578      -274.1704
  20   1.0000     -10.065595      -273.8988
  21   1.0000     -10.064469      -273.8681
  22   1.0000     -10.063821      -273.8505
  23   1.0000     -10.062563      -273.8163
  24   1.0000     -10.051929      -273.5269
  25   1.0000     -10.051010      -273.5019
  26   1.0000     -10.049227      -273.4534
  27   1.0000     -10.041024      -273.2301
  28   1.0000     -10.023317      -272.7483
  29   1.0000     -10.020741      -272.6782
  30   1.0000     -10.019608      -272.6474
  31   1.0000     -10.018769      -272.6246
  32   1.0000      -7.793182      -212.0633
  33   1.0000      -7.791749      -212.0243
  34   1.0000      -7.789154      -211.9536
  35   1.0000      -7.785518      -211.8547
  36   1.0000      -7.785400      -211.8515
  37   1.0000      -7.784116      -211.8166
  38   1.0000      -7.784070      -211.8153
  39   1.0000      -7.768538      -211.3927
  40   1.0000      -7.697573      -209.4616
  41   1.0000      -7.697009      -209.4463
  42   1.0000      -7.695919      -209.4166
  43   1.0000      -7.695784      -209.4129
  44   1.0000      -5.757721      -156.6755
  45   1.0000      -5.755771      -156.6225
  46   1.0000      -5.754119      -156.5775
  47   1.0000      -5.753546      -156.5620
  48   1.0000      -5.751520      -156.5068
  49   1.0000      -5.750526      -156.4798
  50   1.0000      -5.750505      -156.4792
  51   1.0000      -5.750191      -156.4707
  52   1.0000      -5.749716      -156.4577
  53   1.0000      -5.749225      -156.4444
  54   1.0000      -5.748434      -156.4228
  55   1.0000      -5.748252      -156.4179
  56   1.0000      -5.747257      -156.3908
  57   1.0000      -5.745806      -156.3513
  58   1.0000      -5.744998      -156.3293
  59   1.0000      -5.744740      -156.3223
  60   1.0000      -5.744023      -156.3028
  61   1.0000      -5.741332      -156.2296
  62   1.0000      -5.740254      -156.2002
  63   1.0000      -5.739798      -156.1878
  64   1.0000      -5.739368      -156.1761
  65   1.0000      -5.733221      -156.0089
  66   1.0000      -5.730689      -155.9400
  67   1.0000      -5.723297      -155.7388
  68   1.0000      -5.662966      -154.0971
  69   1.0000      -5.662282      -154.0785
  70   1.0000      -5.661221      -154.0497
  71   1.0000      -5.661082      -154.0459
  72   1.0000      -5.656195      -153.9129
  73   1.0000      -5.655608      -153.8969
  74   1.0000      -5.654878      -153.8770
  75   1.0000      -5.654614      -153.8699
  76   1.0000      -5.654470      -153.8659
  77   1.0000      -5.654299      -153.8613
  78   1.0000      -5.653233      -153.8323
  79   1.0000      -5.653110      -153.8289
  80   1.0000      -2.446423       -66.5705
  81   1.0000      -1.487705       -40.4825
  82   1.0000      -1.476100       -40.1667
  83   1.0000      -1.475247       -40.1435
  84   1.0000      -0.727942       -19.8083
  85   1.0000      -0.711280       -19.3549
  86   1.0000      -0.692668       -18.8485
  87   1.0000      -0.686788       -18.6885
  88   1.0000      -0.652205       -17.7474
  89   1.0000      -0.648681       -17.6515
  90   1.0000      -0.634007       -17.2522
  91   1.0000      -0.616660       -16.7802
  92   1.0000      -0.606367       -16.5001
  93   1.0000      -0.588159       -16.0046
  94   1.0000      -0.578631       -15.7454
  95   1.0000      -0.571829       -15.5603
  96   1.0000      -0.562413       -15.3040
  97   1.0000      -0.498634       -13.5685
  98   1.0000      -0.497556       -13.5392
  99   1.0000      -0.495354       -13.4793
 100   1.0000      -0.487217       -13.2578
 101   1.0000      -0.480275       -13.0690
 102   1.0000      -0.478531       -13.0215
 103   1.0000      -0.446990       -12.1632
 104   1.0000      -0.437015       -11.8918
 105   1.0000      -0.417422       -11.3586
 106   1.0000      -0.412788       -11.2325
 107   1.0000      -0.356005        -9.6874
 108   1.0000      -0.353492        -9.6190
 109   1.0000      -0.327474        -8.9110
 110   1.0000      -0.326243        -8.8775
 111   1.0000      -0.323311        -8.7977
 112   1.0000      -0.317783        -8.6473
 113   1.0000      -0.304613        -8.2890
 114   1.0000      -0.299155        -8.1404
 115   1.0000      -0.292482        -7.9588
 116   1.0000      -0.280043        -7.6204
 117   1.0000      -0.270090        -7.3495
 118   1.0000      -0.261156        -7.1064
 119   1.0000      -0.254469        -6.9244
 120   1.0000      -0.242941        -6.6107
 121   1.0000      -0.240843        -6.5537
 122   1.0000      -0.235359        -6.4044
 123   1.0000      -0.231449        -6.2981
 124   1.0000      -0.223715        -6.0876
 125   1.0000      -0.220410        -5.9977
 126   1.0000      -0.217352        -5.9144
 127   1.0000      -0.213477        -5.8090
 128   1.0000      -0.209060        -5.6888
 129   1.0000      -0.196355        -5.3431
 130   1.0000      -0.192827        -5.2471
 131   1.0000      -0.188737        -5.1358
 132   1.0000      -0.182954        -4.9784
 133   1.0000      -0.172501        -4.6940
 134   1.0000      -0.163751        -4.4559
 135   1.0000      -0.151677        -4.1273
 136   1.0000      -0.148199        -4.0327
 137   1.0000      -0.137567        -3.7434
 138   1.0000      -0.135629        -3.6907
 139   1.0000      -0.133747        -3.6395
 140   1.0000      -0.127075        -3.4579
 141   1.0000      -0.122597        -3.3360
 142   1.0000      -0.115709        -3.1486
 143   1.0000      -0.110782        -3.0145
 144   1.0000      -0.100878        -2.7450
 145   1.0000      -0.099427        -2.7055
 146   1.0000      -0.096665        -2.6304
 147   1.0000      -0.085818        -2.3352
 148   1.0000      -0.076801        -2.0899
 149   1.0000      -0.068065        -1.8521
 150   1.0000      -0.060400        -1.6436
 151   1.0000      -0.054547        -1.4843
 152   1.0000      -0.047549        -1.2939
 153   1.0000      -0.039353        -1.0709
 154   1.0000      -0.037791        -1.0283
 155   1.0000      -0.031398        -0.8544
 156   1.0000      -0.027091        -0.7372
 157   1.0000      -0.021611        -0.5881
 158   1.0000      -0.017840        -0.4855
 159   1.0000       0.017899         0.4870
 160   1.0000       0.038716         1.0535
 161   0.0000       0.122986         3.3466
 162   0.0000       0.135937         3.6990
 163   0.0000       0.136064         3.7025
 164   0.0000       0.159298         4.3347
 165   0.0000       0.164423         4.4742

                 SPIN DOWN ORBITALS
  NO   OCC          E(Eh)            E(eV)
   0   1.0000    -196.677524     -5351.8675
   1   1.0000     -88.734923     -2414.6000
   2   1.0000     -88.733970     -2414.5741
   3   1.0000     -88.733886     -2414.5718
   4   1.0000     -88.733525     -2414.5620
   5   1.0000     -88.732644     -2414.5380
   6   1.0000     -88.731567     -2414.5087
   7   1.0000     -88.731342     -2414.5026
   8   1.0000     -88.716555     -2414.1002
   9   1.0000     -88.643795     -2412.1203
  10   1.0000     -88.642432     -2412.0832
  11   1.0000     -88.641756     -2412.0648
  12   1.0000     -88.641651     -2412.0620
  13   1.0000     -22.037825      -599.6797
  14   1.0000     -18.896447      -514.1985
  15   1.0000     -18.553921      -504.8779
  16   1.0000     -18.538004      -504.4447
  17   1.0000     -18.537825      -504.4399
  18   1.0000     -10.077029      -274.2099
  19   1.0000     -10.075572      -274.1703
  20   1.0000     -10.065592      -273.8987
  21   1.0000     -10.064469      -273.8681
  22   1.0000     -10.063822      -273.8505
  23   1.0000     -10.062563      -273.8163
  24   1.0000     -10.051929      -273.5269
  25   1.0000     -10.051010      -273.5019
  26   1.0000     -10.049223      -273.4533
  27   1.0000     -10.041012      -273.2298
  28   1.0000     -10.023074      -272.7417
  29   1.0000     -10.020526      -272.6724
  30   1.0000     -10.019395      -272.6416
  31   1.0000     -10.018556      -272.6188
  32   1.0000      -7.793182      -212.0633
  33   1.0000      -7.791761      -212.0246
  34   1.0000      -7.789154      -211.9537
  35   1.0000      -7.785519      -211.8547
  36   1.0000      -7.785410      -211.8518
  37   1.0000      -7.784125      -211.8168
  38   1.0000      -7.784078      -211.8155
  39   1.0000      -7.768540      -211.3927
  40   1.0000      -7.697709      -209.4653
  41   1.0000      -7.697131      -209.4496
  42   1.0000      -7.696048      -209.4201
  43   1.0000      -7.695914      -209.4165
  44   1.0000      -5.757722      -156.6756
  45   1.0000      -5.755787      -156.6229
  46   1.0000      -5.754119      -156.5776
  47   1.0000      -5.753547      -156.5620
  48   1.0000      -5.751533      -156.5072
  49   1.0000      -5.750527      -156.4798
  50   1.0000      -5.750506      -156.4792
  51   1.0000      -5.750203      -156.4710
  52   1.0000      -5.749722      -156.4579
  53   1.0000      -5.749235      -156.4446
  54   1.0000      -5.748434      -156.4228
  55   1.0000      -5.748262      -156.4182
  56   1.0000      -5.747258      -156.3908
  57   1.0000      -5.745820      -156.3517
  58   1.0000      -5.745012      -156.3297
  59   1.0000      -5.744754      -156.3227
  60   1.0000      -5.744023      -156.3028
  61   1.0000      -5.741338      -156.2297
  62   1.0000      -5.740254      -156.2003
  63   1.0000      -5.739803      -156.1880
  64   1.0000      -5.739375      -156.1763
  65   1.0000      -5.733224      -156.0089
  66   1.0000      -5.730692      -155.9401
  67   1.0000      -5.723299      -155.7389
  68   1.0000      -5.663110      -154.1011
  69   1.0000      -5.662415      -154.0821
  70   1.0000      -5.661364      -154.0535
  71   1.0000      -5.661225      -154.0498
  72   1.0000      -5.656588      -153.9236
  73   1.0000      -5.655973      -153.9069
  74   1.0000      -5.654978      -153.8798
  75   1.0000      -5.654967      -153.8795
  76   1.0000      -5.654834      -153.8759
  77   1.0000      -5.654376      -153.8634
  78   1.0000      -5.653341      -153.8352
  79   1.0000      -5.653215      -153.8318
  80   1.0000      -2.401535       -65.3491
  81   1.0000      -1.468407       -39.9574
  82   1.0000      -1.413742       -38.4699
  83   1.0000      -1.413493       -38.4631
  84   1.0000      -0.727921       -19.8077
  85   1.0000      -0.711265       -19.3545
  86   1.0000      -0.692619       -18.8471
  87   1.0000      -0.686747       -18.6873
  88   1.0000      -0.660304       -17.9678
  89   1.0000      -0.648677       -17.6514
  90   1.0000      -0.633955       -17.2508
  91   1.0000      -0.616657       -16.7801
  92   1.0000      -0.606273       -16.4975
  93   1.0000      -0.588128       -16.0038
  94   1.0000      -0.578592       -15.7443
  95   1.0000      -0.571782       -15.5590
  96   1.0000      -0.562375       -15.3030
  97   1.0000      -0.498657       -13.5691
  98   1.0000      -0.497584       -13.5399
  99   1.0000      -0.495403       -13.4806
 100   1.0000      -0.487356       -13.2616
 101   1.0000      -0.480447       -13.0736
 102   1.0000      -0.478702       -13.0261
 103   1.0000      -0.447025       -12.1642
 104   1.0000      -0.437048       -11.8927
 105   1.0000      -0.417419       -11.3586
 106   1.0000      -0.412885       -11.2352
 107   1.0000      -0.356000        -9.6873
 108   1.0000      -0.353482        -9.6187
 109   1.0000      -0.327464        -8.9107
 110   1.0000      -0.326222        -8.8769
 111   1.0000      -0.323279        -8.7969
 112   1.0000      -0.317786        -8.6474
 113   1.0000      -0.304575        -8.2879
 114   1.0000      -0.299101        -8.1390
 115   1.0000      -0.292478        -7.9587
 116   1.0000      -0.280038        -7.6202
 117   1.0000      -0.270020        -7.3476
 118   1.0000      -0.261075        -7.1042
 119   1.0000      -0.254398        -6.9225
 120   1.0000      -0.242874        -6.6089
 121   1.0000      -0.240750        -6.5511
 122   1.0000      -0.235317        -6.4033
 123   1.0000      -0.231414        -6.2971
 124   1.0000      -0.223409        -6.0793
 125   1.0000      -0.220245        -5.9932
 126   1.0000      -0.217190        -5.9100
 127   1.0000      -0.213314        -5.8046
 128   1.0000      -0.209009        -5.6874
 129   1.0000      -0.195130        -5.3098
 130   1.0000      -0.191988        -5.2242
 131   1.0000      -0.188663        -5.1338
 132   1.0000      -0.182774        -4.9735
 133   1.0000      -0.172360        -4.6902
 134   1.0000      -0.163178        -4.4403
 135   1.0000      -0.151484        -4.1221
 136   1.0000      -0.148094        -4.0298
 137   1.0000      -0.136739        -3.7209
 138   1.0000      -0.135359        -3.6833
 139   1.0000      -0.133509        -3.6330
 140   1.0000      -0.126585        -3.4445
 141   1.0000      -0.122280        -3.3274
 142   1.0000      -0.117535        -3.1983
 143   1.0000      -0.112550        -3.0626
 144   1.0000      -0.100926        -2.7463
 145   1.0000      -0.099628        -2.7110
 146   1.0000      -0.096749        -2.6327
 147   1.0000      -0.085894        -2.3373
 148   1.0000      -0.073056        -1.9880
 149   1.0000      -0.068045        -1.8516
 150   1.0000      -0.060307        -1.6410
 151   1.0000      -0.052032        -1.4159
 152   1.0000      -0.046637        -1.2691
 153   1.0000      -0.038785        -1.0554
 154   1.0000      -0.037816        -1.0290
 155   1.0000      -0.031378        -0.8538
 156   1.0000      -0.028083        -0.7642
 157   1.0000      -0.018114        -0.4929
 158   1.0000       0.018160         0.4942
 159   1.0000       0.037637         1.0242
 160   0.0000       0.123296         3.3551
 161   0.0000       0.135906         3.6982
 162   0.0000       0.136065         3.7025
 163   0.0000       0.154250         4.1974
 164   0.0000       0.160602         4.3702

MULLIKEN ATOMIC CHARGES AND SPIN POPULATIONS
--------------------------------------------
   0 V :    0.469741    1.210913
   1 S :   -0.289981   -0.022730
   2 S :   -0.282511   -0.026144
   3 S :   -0.288226   -0.023665
   4 S :   -0.280727   -0.023920
   5 O :   -0.465825   -0.146972
   6 C :   -0.050180    0.009804
   7 C :   -0.116281    0.007769
   8 C :   -0.089750    0.007631
   9 C :   -0.078419    0.007537
  10 S :    0.066707   -0.000501
  11 S :    0.168201   -0.000791
  12 S :    0.090889   -0.000359
  13 S :    0.110566   -0.000392
  14 C :   -0.223973    0.001402
  15 C :   -0.212579    0.000999
  16 C :   -0.202458    0.000076
  17 C :   -0.190907   -0.000405
  18 S :   -0.091245   -0.000268
  19 S :    0.102617   -0.000039
  20 S :    0.025473   -0.000058
  21 S :   -0.008161   -0.000084
  22 C :   -0.301850   -0.000001
  23 C :   -0.298859   -0.000001
  24 C :   -0.158076   -0.000011
  25 H :    0.142376   -0.000001
  26 H :    0.119303   -0.000004
  27 H :    0.083822   -0.000001
  28 H :    0.092270   -0.000001
  29 H :    0.107814   -0.000004
  30 H :    0.143552   -0.000001
  31 C :   -0.286454    0.000251
  32 C :   -0.299524    0.000133
  33 C :   -0.158581   -0.000195
  34 H :    0.134113   -0.000019
  35 H :    0.130015    0.000002
  36 H :    0.088707    0.000025
  37 H :    0.082713    0.000009
  38 H :    0.073636    0.000026
  39 H :    0.142049   -0.000010
Sum of atomic charges         :   -2.0000000

LOEWDIN ATOMIC CHARGES AND SPIN POPULATIONS
-------------------------------------------
   0 V :   -0.155197    1.164238
   1 S :    0.081483   -0.014737
   2 S :    0.078611   -0.016909
   3 S :    0.081267   -0.015432
   4 S :    0.091627   -0.014801
   5 O :   -0.317613   -0.131862
   6 C :   -0.536523    0.009161
   7 C :   -0.562720    0.007754
   8 C :   -0.553846    0.007995
   9 C :   -0.550440    0.007792
  10 S :    0.405506   -0.000808
  11 S :    0.574562   -0.001104
  12 S :    0.455928   -0.000792
  13 S :    0.487933   -0.000866
  14 C :   -0.474468    0.000152
  15 C :   -0.465358   -0.000081
  16 C :   -0.630777    0.000464
  17 C :   -0.622062    0.000087
  18 S :    0.217222   -0.000228
  19 S :    0.492012   -0.000008
  20 S :    0.383562   -0.000065
  21 S :    0.334406   -0.000085
  22 C :   -0.286370   -0.000008
  23 C :   -0.281731   -0.000008
  24 C :   -0.176124   -0.000002
  25 H :    0.062900   -0.000002
  26 H :    0.054976   -0.000003
  27 H :    0.058203   -0.000002
  28 H :    0.060214   -0.000001
  29 H :    0.052847   -0.000002
  30 H :    0.062518   -0.000002
  31 C :   -0.297002    0.000138
  32 C :   -0.313947    0.000009
  33 C :   -0.179593    0.000004
  34 H :    0.068240   -0.000005
  35 H :    0.063277   -0.000001
  36 H :    0.058062    0.000005
  37 H :    0.059094    0.000002
  38 H :    0.052212    0.000011
  39 H :    0.067104    0.000003

  Mayer bond orders larger than 0.100000
B(  0-V ,  1-S ) :   0.7739 B(  0-V ,  2-S ) :   0.7683 B(  0-V ,  3-S ) :   0.7688
B(  0-V ,  4-S ) :   0.7728 B(  0-V ,  5-O ) :   2.1503 B(  1-S ,  8-C ) :   1.1055
B(  2-S ,  6-C ) :   1.1009 B(  3-S ,  9-C ) :   1.1031 B(  4-S ,  7-C ) :   1.1216
B(  6-C ,  7-C ) :   1.6707 B(  6-C , 10-S ) :   0.9306 B(  7-C , 11-S ) :   0.9472
B(  8-C ,  9-C ) :   1.6980 B(  8-C , 13-S ) :   0.9351 B(  9-C , 12-S ) :   0.9350
B( 10-S , 14-C ) :   1.1143 B( 11-S , 14-C ) :   1.4174 B( 12-S , 15-C ) :   1.2164
B( 13-S , 15-C ) :   1.2766 B( 14-C , 16-C ) :   1.4320 B( 15-C , 17-C ) :   1.4538
B( 16-C , 18-S ) :   0.8616 B( 16-C , 19-S ) :   1.3936 B( 17-C , 20-S ) :   1.1361
B( 17-C , 21-S ) :   1.0453 B( 18-S , 32-C ) :   0.9992 B( 19-S , 31-C ) :   0.9226
B( 20-S , 23-C ) :   0.9857 B( 21-S , 22-C ) :   0.9938 B( 22-C , 24-C ) :   0.9100
B( 22-C , 25-H ) :   0.9713 B( 22-C , 26-H ) :   0.9622 B( 23-C , 24-C ) :   0.9166
B( 23-C , 29-H ) :   0.9688 B( 23-C , 30-H ) :   0.9594 B( 24-C , 27-H ) :   0.9627
B( 24-C , 28-H ) :   0.9719 B( 31-C , 33-C ) :   0.9270 B( 31-C , 38-H ) :   0.9770
B( 31-C , 39-H ) :   0.9302 B( 32-C , 33-C ) :   0.8970 B( 32-C , 34-H ) :   0.9905
B( 32-C , 35-H ) :   0.9477 B( 33-C , 36-H ) :   0.9707 B( 33-C , 37-H ) :   0.9662

FINAL SINGLE POINT ENERGY     -6337.617286219678

DIPOLE MOMENT
-------------
                                X             Y             Z
Electronic contribution:      6.87120      -1.01870     -11.85407
Nuclear contribution   :     -7.06443       1.41943      13.36182
                        -----------------------------------------
Total Dipole Moment    :     -0.19323       0.40073       1.50775
                        -----------------------------------------
Magnitude (a.u.)       :      1.57201
Magnitude (Debye)      :      3.99573

Rotational constants in cm-1:     0.010752     0.000804     0.000783
Rotational constants in MHz :   322.323202    24.115611    23.485045

                             ****ORCA TERMINATED NORMALLY****
TOTAL RUN TIME: 0 days 1 hours 6 minutes 30 seconds 474 msec
