                         Program Version 5.0.4 -  RELEASE  -
|  1> ! nofrozencore ReducedPop printbasis
|  2> ! B3LYP TZVP
|  3>
|  4> %basis
|  5> newgto V "CP(PPP)" end
|  6> end
|  7>
|  8> %pal
|  9> nprocs 8
| 10> end
| 11>
| 12> % sym SymThresh 1e-2 end
| 13> * xyz -2 2
| 14> V 0.1079599011351719 1.104639420284887 0.08470006697490137
| 15> S 1.6607714174214903 0.33840855335300607 1.8507261395223606
| 16> S 1.8215655102271877 0.3002496323312736 -1.5104100203774806
| 17> S -1.7039818484153582 0.5294358936776002 1.670659219643186
| 18> S -1.5333212457499312 0.4082321498172506 -1.6203124488889376
| 19> O 0.19856687035975062 2.6900148309836887 0.0341880519236065
| 20> C 0.8618368312071965 0.29913461169351224 -2.983967589836007
| 21> C -0.48294920319120865 0.33898135567895954 -3.0272238768445967
| 22> C 0.5581007478430298 0.1230795309858241 3.2055522417560693
| 23> C -0.7855763445790164 0.19658071890083179 3.1321065147645126
| 24> S 1.7054465938089105 0.16009608287534283 -4.563737597217828
| 25> S -1.2372605099782403 0.23139724862628594 -4.651691114743817
| 26> S -1.687057395918497 -0.12202485262427816 4.655489008831588
| 27> S 1.2461589900425893 -0.2763666109964427 4.819268978907214
| 28> C 0.26058926053950626 0.10188636838365887 -5.583619062014803
| 29> C -0.2855313692822944 -0.4532547393989669 5.657243327053659
| 30> C 0.29464340284989615 -0.02703997470910611 -6.944703139525531
| 31> C -0.38102398350120154 -0.8712952790566042 6.958439568939328
| 32> S 1.8272748426902263 -0.08797656092762603 -7.852319971658997
| 33> S -1.1945574305666231 -0.0768125276167152 -7.922101662191492
| 34> S 1.076967746505321 -1.1252582585166881 7.9557158292194705
| 35> S -1.9631304088305612 -0.982912246164561 7.777892339402141
| 36> C -1.8855026257865903 -3.003008371561027 8.151704672954502
| 37> C 0.7680314621361853 -3.127601254234048 8.313636990831663
| 38> C -0.6194130074600995 -3.3166717501947205 9.031774768941734
| 39> H -1.8823905321611625 -3.484831478821979 7.172909613334427
| 40> H -2.8110443432546037 -3.242622415097374 8.679181722832999
| 41> H -0.698655339188991 -4.326148817259859 9.5537595079502
| 42> H -0.6330199963716354 -2.5367616600471425 9.847708479692649
| 43> H 1.5959612343043674 -3.444453016223567 8.951032676105482
| 44> H 0.8408201812553678 -3.617260282745151 7.3415380296998505
| 45> C -0.9380134459150412 1.4443407136816206 -8.901055233664447
| 46> C 1.622704030800665 1.4371911917380014 -8.835190883339532
| 47> C 0.36358026959814466 1.4662064682560318 -9.695664239228487
| 48> H 1.6374008364176844 2.290839867378639 -8.153173881097183
| 49> H 2.5121361415011183 1.4948517537030115 -9.467931037628649
| 50> H 0.3799505750459043 0.6342804712174976 -10.407424271283526
| 51> H 0.3813422298232553 2.39844640646921 -10.278273096370441
| 52> H -1.794230648869116 1.5004809051515189 -9.578160522823545
| 53> H -0.9858079777729286 2.300427347017616 -8.223650084831842
| 54> *
| 55>
| 56> % eprnmr
| 57> gtensor true
| 58> Nuclei = all H {aiso,adip,aorb,fgrad,rho}
| 59> Nuclei = all V {aiso,adip,aorb,fgrad,rho}
| 60> end
| 61>
| 62>                          ****END OF INPUT****

CARTESIAN COORDINATES (ANGSTROEM)
---------------------------------
  V      0.107924    1.101660    0.082287
  S      1.660735    0.335429    1.848314
  S      1.821529    0.297270   -1.512823
  S     -1.704018    0.526457    1.668247
  S     -1.533357    0.405253   -1.622725
  O      0.198531    2.687035    0.031775
  C      0.861801    0.296155   -2.986380
  C     -0.482985    0.336002   -3.029637
  C      0.558065    0.120100    3.203140
  C     -0.785613    0.193601    3.129694
  S      1.705410    0.157117   -4.566150
  S     -1.237297    0.228418   -4.654104
  S     -1.687094   -0.125004    4.653076
  S      1.246123   -0.279346    4.816856
  C      0.260553    0.098907   -5.586032
  C     -0.285568   -0.456234    5.654831
  C      0.294607   -0.030019   -6.947116
  C     -0.381060   -0.874275    6.956027
  S      1.827239   -0.090956   -7.854733
  S     -1.194594   -0.079792   -7.924514
  S      1.076932   -1.128238    7.953303
  S     -1.963167   -0.985892    7.775480
  C     -1.885539   -3.005988    8.149292
  C      0.767995   -3.130581    8.311224
  C     -0.619449   -3.319651    9.029362
  H     -1.882427   -3.487811    7.170497
  H     -2.811081   -3.245602    8.676769
  H     -0.698692   -4.329128    9.551347
  H     -0.633056   -2.539741    9.845296
  H      1.595925   -3.447432    8.948620
  H      0.840784   -3.620240    7.339125
  C     -0.938050    1.441361   -8.903468
  C      1.622668    1.434212   -8.837604
  C      0.363544    1.463227   -9.698077
  H      1.637365    2.287860   -8.155587
  H      2.512100    1.491872   -9.470344
  H      0.379914    0.631301  -10.409837
  H      0.381306    2.395467  -10.280686
  H     -1.794267    1.497502   -9.580573
  H     -0.985844    2.297448   -8.226063

 Total Charge           Charge          ....   -2
 Multiplicity           Mult            ....    2
 Number of Electrons    NEL             ....  321
 Basis Dimension        Dim             ....  681

ORBITAL ENERGIES
----------------
                 SPIN UP ORBITALS
  NO   OCC          E(Eh)            E(eV)
   0   1.0000    -196.675450     -5351.8111
   1   1.0000     -88.736341     -2414.6386
   2   1.0000     -88.736263     -2414.6365
   3   1.0000     -88.732750     -2414.5409
   4   1.0000     -88.732705     -2414.5397
   5   1.0000     -88.732102     -2414.5232
   6   1.0000     -88.732032     -2414.5214
   7   1.0000     -88.730412     -2414.4773
   8   1.0000     -88.730235     -2414.4724
   9   1.0000     -88.640914     -2412.0419
  10   1.0000     -88.640386     -2412.0275
  11   1.0000     -88.640062     -2412.0187
  12   1.0000     -88.639900     -2412.0143
  13   1.0000     -22.050850      -600.0341
  14   1.0000     -18.890747      -514.0433
  15   1.0000     -18.557298      -504.9697
  16   1.0000     -18.552123      -504.8289
  17   1.0000     -18.552027      -504.8263
  18   1.0000     -10.076202      -274.1874
  19   1.0000     -10.075346      -274.1641
  20   1.0000     -10.072273      -274.0805
  21   1.0000     -10.072229      -274.0793
  22   1.0000     -10.064684      -273.8740
  23   1.0000     -10.062344      -273.8103
  24   1.0000     -10.062321      -273.8097
  25   1.0000     -10.050671      -273.4926
  26   1.0000     -10.050110      -273.4774
  27   1.0000     -10.048370      -273.4300
  28   1.0000     -10.019851      -272.6540
  29   1.0000     -10.019069      -272.6327
  30   1.0000     -10.018435      -272.6155
  31   1.0000     -10.017497      -272.5900
  32   1.0000      -7.787296      -211.9031
  33   1.0000      -7.787225      -211.9012
  34   1.0000      -7.786631      -211.8850
  35   1.0000      -7.786596      -211.8841
  36   1.0000      -7.785493      -211.8540
  37   1.0000      -7.785458      -211.8531
  38   1.0000      -7.783639      -211.8036
  39   1.0000      -7.783505      -211.7999
  40   1.0000      -7.695146      -209.3956
  41   1.0000      -7.694717      -209.3839
  42   1.0000      -7.694412      -209.3756
  43   1.0000      -7.694141      -209.3682
  44   1.0000      -5.752352      -156.5295
  45   1.0000      -5.752280      -156.5275
  46   1.0000      -5.751604      -156.5091
  47   1.0000      -5.751573      -156.5082
  48   1.0000      -5.750342      -156.4748
  49   1.0000      -5.750306      -156.4738
  50   1.0000      -5.749382      -156.4487
  51   1.0000      -5.749317      -156.4469
  52   1.0000      -5.748590      -156.4271
  53   1.0000      -5.748451      -156.4233
  54   1.0000      -5.748127      -156.4145
  55   1.0000      -5.748095      -156.4136
  56   1.0000      -5.745978      -156.3560
  57   1.0000      -5.745935      -156.3548
  58   1.0000      -5.744159      -156.3065
  59   1.0000      -5.744022      -156.3028
  60   1.0000      -5.742005      -156.2479
  61   1.0000      -5.741936      -156.2460
  62   1.0000      -5.741433      -156.2323
  63   1.0000      -5.741407      -156.2316
  64   1.0000      -5.741395      -156.2313
  65   1.0000      -5.741375      -156.2308
  66   1.0000      -5.739460      -156.1786
  67   1.0000      -5.739327      -156.1750
  68   1.0000      -5.660467      -154.0291
  69   1.0000      -5.660031      -154.0173
  70   1.0000      -5.659708      -154.0085
  71   1.0000      -5.659471      -154.0020
  72   1.0000      -5.653797      -153.8476
  73   1.0000      -5.653355      -153.8356
  74   1.0000      -5.653043      -153.8271
  75   1.0000      -5.652816      -153.8209
  76   1.0000      -5.652479      -153.8118
  77   1.0000      -5.652035      -153.7997
  78   1.0000      -5.651729      -153.7914
  79   1.0000      -5.651434      -153.7833
  80   1.0000      -2.444502       -66.5183
  81   1.0000      -1.485812       -40.4310
  82   1.0000      -1.474138       -40.1133
  83   1.0000      -1.473330       -40.0914
  84   1.0000      -0.711624       -19.3643
  85   1.0000      -0.705694       -19.2029
  86   1.0000      -0.687572       -18.7098
  87   1.0000      -0.665208       -18.1012
  88   1.0000      -0.650320       -17.6961
  89   1.0000      -0.631833       -17.1931
  90   1.0000      -0.627416       -17.0729
  91   1.0000      -0.622201       -16.9310
  92   1.0000      -0.587526       -15.9874
  93   1.0000      -0.574638       -15.6367
  94   1.0000      -0.574062       -15.6210
  95   1.0000      -0.574016       -15.6198
  96   1.0000      -0.570043       -15.5116
  97   1.0000      -0.501078       -13.6350
  98   1.0000      -0.498064       -13.5530
  99   1.0000      -0.495431       -13.4814
 100   1.0000      -0.484220       -13.1763
 101   1.0000      -0.481391       -13.0993
 102   1.0000      -0.477922       -13.0049
 103   1.0000      -0.447553       -12.1785
 104   1.0000      -0.445578       -12.1248
 105   1.0000      -0.417101       -11.3499
 106   1.0000      -0.411664       -11.2020
 107   1.0000      -0.358007        -9.7419
 108   1.0000      -0.337626        -9.1873
 109   1.0000      -0.327738        -8.9182
 110   1.0000      -0.319282        -8.6881
 111   1.0000      -0.319138        -8.6842
 112   1.0000      -0.314222        -8.5504
 113   1.0000      -0.304188        -8.2774
 114   1.0000      -0.297466        -8.0945
 115   1.0000      -0.293316        -7.9815
 116   1.0000      -0.288159        -7.8412
 117   1.0000      -0.259665        -7.0658
 118   1.0000      -0.257950        -7.0192
 119   1.0000      -0.255454        -6.9513
 120   1.0000      -0.240225        -6.5369
 121   1.0000      -0.235601        -6.4110
 122   1.0000      -0.232146        -6.3170
 123   1.0000      -0.229180        -6.2363
 124   1.0000      -0.222696        -6.0599
 125   1.0000      -0.219134        -5.9629
 126   1.0000      -0.216607        -5.8942
 127   1.0000      -0.214052        -5.8247
 128   1.0000      -0.212207        -5.7744
 129   1.0000      -0.193883        -5.2758
 130   1.0000      -0.186712        -5.0807
 131   1.0000      -0.183029        -4.9805
 132   1.0000      -0.181230        -4.9315
 133   1.0000      -0.175029        -4.7628
 134   1.0000      -0.160015        -4.3542
 135   1.0000      -0.153023        -4.1640
 136   1.0000      -0.147692        -4.0189
 137   1.0000      -0.136504        -3.7145
 138   1.0000      -0.134184        -3.6513
 139   1.0000      -0.130735        -3.5575
 140   1.0000      -0.124516        -3.3883
 141   1.0000      -0.121935        -3.3180
 142   1.0000      -0.114037        -3.1031
 143   1.0000      -0.109778        -2.9872
 144   1.0000      -0.100658        -2.7390
 145   1.0000      -0.098694        -2.6856
 146   1.0000      -0.098538        -2.6813
 147   1.0000      -0.095137        -2.5888
 148   1.0000      -0.075011        -2.0412
 149   1.0000      -0.067703        -1.8423
 150   1.0000      -0.066296        -1.8040
 151   1.0000      -0.052957        -1.4410
 152   1.0000      -0.046112        -1.2548
 153   1.0000      -0.037756        -1.0274
 154   1.0000      -0.037468        -1.0196
 155   1.0000      -0.031300        -0.8517
 156   1.0000      -0.025717        -0.6998
 157   1.0000      -0.019669        -0.5352
 158   1.0000      -0.015962        -0.4343
 159   1.0000       0.019699         0.5360
 160   1.0000       0.040521         1.1026
 161   0.0000       0.119350         3.2477
 162   0.0000       0.133962         3.6453
 163   0.0000       0.137694         3.7469
 164   0.0000       0.161337         4.3902
 165   0.0000       0.161617         4.3978

                 SPIN DOWN ORBITALS
  NO   OCC          E(Eh)            E(eV)
   0   1.0000    -196.675597     -5351.8151
   1   1.0000     -88.736342     -2414.6386
   2   1.0000     -88.736263     -2414.6365
   3   1.0000     -88.732750     -2414.5409
   4   1.0000     -88.732706     -2414.5397
   5   1.0000     -88.732110     -2414.5235
   6   1.0000     -88.732040     -2414.5216
   7   1.0000     -88.730420     -2414.4775
   8   1.0000     -88.730243     -2414.4727
   9   1.0000     -88.641051     -2412.0456
  10   1.0000     -88.640525     -2412.0313
  11   1.0000     -88.640202     -2412.0225
  12   1.0000     -88.640041     -2412.0181
  13   1.0000     -22.035915      -599.6277
  14   1.0000     -18.894545      -514.1467
  15   1.0000     -18.552025      -504.8263
  16   1.0000     -18.536087      -504.3926
  17   1.0000     -18.535908      -504.3877
  18   1.0000     -10.076197      -274.1873
  19   1.0000     -10.075345      -274.1641
  20   1.0000     -10.072273      -274.0805
  21   1.0000     -10.072229      -274.0793
  22   1.0000     -10.064684      -273.8740
  23   1.0000     -10.062343      -273.8103
  24   1.0000     -10.062320      -273.8096
  25   1.0000     -10.050670      -273.4926
  26   1.0000     -10.050106      -273.4773
  27   1.0000     -10.048359      -273.4297
  28   1.0000     -10.019636      -272.6481
  29   1.0000     -10.018856      -272.6269
  30   1.0000     -10.018197      -272.6090
  31   1.0000     -10.017274      -272.5839
  32   1.0000      -7.787297      -211.9031
  33   1.0000      -7.787226      -211.9012
  34   1.0000      -7.786632      -211.8850
  35   1.0000      -7.786597      -211.8841
  36   1.0000      -7.785503      -211.8543
  37   1.0000      -7.785467      -211.8533
  38   1.0000      -7.783648      -211.8038
  39   1.0000      -7.783515      -211.8002
  40   1.0000      -7.695274      -209.3990
  41   1.0000      -7.694847      -209.3874
  42   1.0000      -7.694543      -209.3791
  43   1.0000      -7.694273      -209.3718
  44   1.0000      -5.752353      -156.5295
  45   1.0000      -5.752281      -156.5275
  46   1.0000      -5.751605      -156.5091
  47   1.0000      -5.751574      -156.5083
  48   1.0000      -5.750353      -156.4751
  49   1.0000      -5.750317      -156.4741
  50   1.0000      -5.749383      -156.4487
  51   1.0000      -5.749317      -156.4469
  52   1.0000      -5.748601      -156.4274
  53   1.0000      -5.748462      -156.4236
  54   1.0000      -5.748128      -156.4145
  55   1.0000      -5.748096      -156.4137
  56   1.0000      -5.745992      -156.3564
  57   1.0000      -5.745949      -156.3552
  58   1.0000      -5.744173      -156.3069
  59   1.0000      -5.744035      -156.3031
  60   1.0000      -5.742005      -156.2479
  61   1.0000      -5.741937      -156.2460
  62   1.0000      -5.741433      -156.2323
  63   1.0000      -5.741413      -156.2318
  64   1.0000      -5.741396      -156.2313
  65   1.0000      -5.741381      -156.2309
  66   1.0000      -5.739468      -156.1789
  67   1.0000      -5.739336      -156.1753
  68   1.0000      -5.660610      -154.0330
  69   1.0000      -5.660173      -154.0211
  70   1.0000      -5.659847      -154.0123
  71   1.0000      -5.659613      -154.0059
  72   1.0000      -5.654148      -153.8572
  73   1.0000      -5.653715      -153.8454
  74   1.0000      -5.653431      -153.8377
  75   1.0000      -5.653200      -153.8314
  76   1.0000      -5.652584      -153.8146
  77   1.0000      -5.652140      -153.8026
  78   1.0000      -5.651816      -153.7937
  79   1.0000      -5.651528      -153.7859
  80   1.0000      -2.399607       -65.2966
  81   1.0000      -1.466498       -39.9054
  82   1.0000      -1.411762       -38.4160
  83   1.0000      -1.411586       -38.4112
  84   1.0000      -0.711603       -19.3637
  85   1.0000      -0.705656       -19.2019
  86   1.0000      -0.687512       -18.7081
  87   1.0000      -0.665185       -18.1006
  88   1.0000      -0.658465       -17.9177
  89   1.0000      -0.631759       -17.1910
  90   1.0000      -0.627359       -17.0713
  91   1.0000      -0.622201       -16.9310
  92   1.0000      -0.587524       -15.9873
  93   1.0000      -0.574608       -15.6359
  94   1.0000      -0.574043       -15.6205
  95   1.0000      -0.573933       -15.6175
  96   1.0000      -0.569978       -15.5099
  97   1.0000      -0.501107       -13.6358
  98   1.0000      -0.498081       -13.5535
  99   1.0000      -0.495480       -13.4827
 100   1.0000      -0.484257       -13.1773
 101   1.0000      -0.481596       -13.1049
 102   1.0000      -0.478169       -13.0116
 103   1.0000      -0.447567       -12.1789
 104   1.0000      -0.445618       -12.1259
 105   1.0000      -0.417099       -11.3498
 106   1.0000      -0.411774       -11.2050
 107   1.0000      -0.357998        -9.7416
 108   1.0000      -0.337612        -9.1869
 109   1.0000      -0.327723        -8.9178
 110   1.0000      -0.319204        -8.6860
 111   1.0000      -0.319120        -8.6837
 112   1.0000      -0.314243        -8.5510
 113   1.0000      -0.304145        -8.2762
 114   1.0000      -0.297445        -8.0939
 115   1.0000      -0.293310        -7.9814
 116   1.0000      -0.288156        -7.8411
 117   1.0000      -0.259605        -7.0642
 118   1.0000      -0.257779        -7.0145
 119   1.0000      -0.255420        -6.9503
 120   1.0000      -0.240188        -6.5359
 121   1.0000      -0.235576        -6.4104
 122   1.0000      -0.232108        -6.3160
 123   1.0000      -0.229127        -6.2349
 124   1.0000      -0.222601        -6.0573
 125   1.0000      -0.218746        -5.9524
 126   1.0000      -0.216433        -5.8894
 127   1.0000      -0.213905        -5.8206
 128   1.0000      -0.212154        -5.7730
 129   1.0000      -0.192107        -5.2275
 130   1.0000      -0.186365        -5.0712
 131   1.0000      -0.182830        -4.9751
 132   1.0000      -0.181159        -4.9296
 133   1.0000      -0.174920        -4.7598
 134   1.0000      -0.159388        -4.3372
 135   1.0000      -0.152879        -4.1600
 136   1.0000      -0.147605        -4.0165
 137   1.0000      -0.135937        -3.6990
 138   1.0000      -0.133961        -3.6453
 139   1.0000      -0.130052        -3.5389
 140   1.0000      -0.124243        -3.3808
 141   1.0000      -0.121597        -3.3088
 142   1.0000      -0.115849        -3.1524
 143   1.0000      -0.111375        -3.0307
 144   1.0000      -0.100692        -2.7400
 145   1.0000      -0.098979        -2.6933
 146   1.0000      -0.098516        -2.6808
 147   1.0000      -0.095444        -2.5972
 148   1.0000      -0.071190        -1.9372
 149   1.0000      -0.067701        -1.8423
 150   1.0000      -0.066290        -1.8038
 151   1.0000      -0.050356        -1.3703
 152   1.0000      -0.045182        -1.2295
 153   1.0000      -0.037517        -1.0209
 154   1.0000      -0.037192        -1.0120
 155   1.0000      -0.031321        -0.8523
 156   1.0000      -0.026765        -0.7283
 157   1.0000      -0.016177        -0.4402
 158   1.0000       0.019996         0.5441
 159   1.0000       0.039418         1.0726
 160   0.0000       0.119348         3.2476
 161   0.0000       0.133981         3.6458
 162   0.0000       0.137702         3.7471
 163   0.0000       0.155366         4.2277
 164   0.0000       0.161470         4.3938

MULLIKEN ATOMIC CHARGES AND SPIN POPULATIONS
--------------------------------------------
   0 V :    0.471006    1.210953
   1 S :   -0.288966   -0.022445
   2 S :   -0.289625   -0.025286
   3 S :   -0.287058   -0.023369
   4 S :   -0.285382   -0.025755
   5 O :   -0.467430   -0.146996
   6 C :   -0.077038    0.009681
   7 C :   -0.084117    0.008062
   8 C :   -0.088070    0.007817
   9 C :   -0.088574    0.007451
  10 S :    0.098663   -0.000577
  11 S :    0.100061   -0.000623
  12 S :    0.113148   -0.000388
  13 S :    0.112314   -0.000342
  14 C :   -0.216170    0.001479
  15 C :   -0.205997    0.000963
  16 C :   -0.191850   -0.000075
  17 C :   -0.166939   -0.000329
  18 S :    0.012583   -0.000112
  19 S :    0.012483   -0.000110
  20 S :   -0.021490   -0.000072
  21 S :   -0.021402   -0.000074
  22 C :   -0.305121   -0.000009
  23 C :   -0.304624   -0.000012
  24 C :   -0.183617   -0.000012
  25 H :    0.150828    0.000000
  26 H :    0.114611   -0.000002
  27 H :    0.086900   -0.000004
  28 H :    0.110554   -0.000000
  29 H :    0.114361   -0.000003
  30 H :    0.150280    0.000000
  31 C :   -0.299989    0.000194
  32 C :   -0.300731    0.000190
  33 C :   -0.153305   -0.000242
  34 H :    0.140782   -0.000018
  35 H :    0.113304    0.000021
  36 H :    0.090144    0.000021
  37 H :    0.081456    0.000017
  38 H :    0.113240    0.000022
  39 H :    0.140776   -0.000018
Sum of atomic charges         :   -2.0000000

LOEWDIN ATOMIC CHARGES AND SPIN POPULATIONS
-------------------------------------------
   0 V :   -0.156144    1.164242
   1 S :    0.080614   -0.014471
   2 S :    0.079473   -0.016142
   3 S :    0.081966   -0.015253
   4 S :    0.083388   -0.016364
   5 O :   -0.318817   -0.131878
   6 C :   -0.550194    0.009042
   7 C :   -0.552383    0.007953
   8 C :   -0.549668    0.008220
   9 C :   -0.549716    0.007744
  10 S :    0.470375   -0.000897
  11 S :    0.471339   -0.000947
  12 S :    0.482862   -0.000821
  13 S :    0.482137   -0.000828
  14 C :   -0.463785    0.000154
  15 C :   -0.476771   -0.000054
  16 C :   -0.620488    0.000466
  17 C :   -0.633608    0.000095
  18 S :    0.366606   -0.000088
  19 S :    0.367510   -0.000086
  20 S :    0.301430   -0.000073
  21 S :    0.301324   -0.000075
  22 C :   -0.233259   -0.000011
  23 C :   -0.233136   -0.000015
  24 C :   -0.185595   -0.000001
  25 H :    0.064825   -0.000001
  26 H :    0.052913   -0.000001
  27 H :    0.060792   -0.000003
  28 H :    0.069200   -0.000001
  29 H :    0.052836   -0.000002
  30 H :    0.064643   -0.000001
  31 C :   -0.291342    0.000038
  32 C :   -0.291660    0.000032
  33 C :   -0.176178    0.000007
  34 H :    0.061607   -0.000001
  35 H :    0.053784    0.000008
  36 H :    0.059744    0.000004
  37 H :    0.058004    0.000002
  38 H :    0.053839    0.000009
  39 H :    0.061536   -0.000001

  Mayer bond orders larger than 0.100000
B(  0-V ,  1-S ) :   0.7708 B(  0-V ,  2-S ) :   0.7721 B(  0-V ,  3-S ) :   0.7641
B(  0-V ,  4-S ) :   0.7794 B(  0-V ,  5-O ) :   2.1488 B(  1-S ,  8-C ) :   1.1059
B(  2-S ,  6-C ) :   1.1040 B(  3-S ,  9-C ) :   1.1087 B(  4-S ,  7-C ) :   1.1044
B(  6-C ,  7-C ) :   1.6852 B(  6-C , 10-S ) :   0.9348 B(  7-C , 11-S ) :   0.9387
B(  8-C ,  9-C ) :   1.6907 B(  8-C , 13-S ) :   0.9381 B(  9-C , 12-S ) :   0.9397
B( 10-S , 14-C ) :   1.2468 B( 11-S , 14-C ) :   1.2467 B( 12-S , 15-C ) :   1.2594
B( 13-S , 15-C ) :   1.2593 B( 14-C , 16-C ) :   1.4591 B( 15-C , 17-C ) :   1.3942
B( 16-C , 18-S ) :   1.0854 B( 16-C , 19-S ) :   1.0873 B( 17-C , 20-S ) :   1.1017
B( 17-C , 21-S ) :   1.1020 B( 18-S , 32-C ) :   0.9995 B( 19-S , 31-C ) :   0.9989
B( 20-S , 23-C ) :   0.9431 B( 21-S , 22-C ) :   0.9433 B( 22-C , 24-C ) :   0.9063
B( 22-C , 25-H ) :   0.9662 B( 22-C , 26-H ) :   0.9667 B( 23-C , 24-C ) :   0.9070
B( 23-C , 29-H ) :   0.9667 B( 23-C , 30-H ) :   0.9660 B( 24-C , 27-H ) :   0.9377
B( 24-C , 28-H ) :   0.9826 B( 31-C , 33-C ) :   0.9146 B( 31-C , 38-H ) :   0.9646
B( 31-C , 39-H ) :   0.9651 B( 32-C , 33-C ) :   0.9141 B( 32-C , 34-H ) :   0.9649
B( 32-C , 35-H ) :   0.9645 B( 33-C , 36-H ) :   0.9696 B( 33-C , 37-H ) :   0.9653

FINAL SINGLE POINT ENERGY     -6337.681730225308

DIPOLE MOMENT
-------------
                                X             Y             Z
Electronic contribution:      1.68857      13.13800       4.02970
Nuclear contribution   :     -1.86442     -14.47846      -4.70436
                        -----------------------------------------
Total Dipole Moment    :     -0.17586      -1.34046      -0.67467
                        -----------------------------------------
Magnitude (a.u.)       :      1.51094
Magnitude (Debye)      :      3.84050

Rotational constants in cm-1:     0.010623     0.000804     0.000783
Rotational constants in MHz :   318.481852    24.096634    23.480006

                             ****ORCA TERMINATED NORMALLY****
TOTAL RUN TIME: 0 days 1 hours 1 minutes 53 seconds 704 msec
