                         Program Version 5.0.4 -  RELEASE  -
|  1> ! nofrozencore ReducedPop printbasis
|  2> ! B3LYP TZVP
|  3>
|  4> %basis
|  5> newgto V "CP(PPP)" end
|  6> end
|  7>
|  8> %pal
|  9> nprocs 6
| 10> end
| 11>
| 12> % sym SymThresh 1e-2 end
| 13> * xyz -2 2
| 14> V -0.4933443353710803 -0.9760771007998468 0.2077450641517933
| 15> S -2.450781857433397 0.447358783793111 -0.30040847759085954
| 16> S -0.023538641620352095 -0.8712186588414257 -2.2204005319777815
| 17> S -0.4384719224906367 0.1762863815209539 2.3979889808955783
| 18> S 1.956998136816795 -1.03775715983876 0.4863645149268009
| 19> O -1.0361083068128438 -2.4459653305731117 0.46746914859676986
| 20> C 1.6279899575467427 -1.470318673758874 -2.2166477564601683
| 21> C 2.4224991138871337 -1.533646287702116 -1.1320899800786905
| 22> C -2.761768985331605 1.1917593145419327 1.2764207620291113
| 23> C -1.9551677458732966 1.0851106803631327 2.3531737307499396
| 24> S 2.3680063200896084 -1.9753423173791829 -3.776207240439633
| 25> S 4.106941336262745 -2.0966106305637 -1.4025797012211665
| 26> S -2.4573055437811364 1.9736653651564646 3.816036578387095
| 27> S -4.219373992523452 2.201351456490561 1.4717355990124652
| 28> C 3.9815039278534945 -2.3409809584771173 -3.1495552352650917
| 29> C -3.887646161906211 2.6993359389643365 3.1166371716466172
| 30> C 5.017692143089894 -2.778330691926793 -3.9266141528528786
| 31> C -4.707662653796741 3.5574918546733554 3.817888556468896
| 32> S 4.831246863786873 -3.0627384244529074 -5.6756229202548525
| 33> S 6.624604268127399 -3.1228214534064946 -3.238338779424782
| 34> S -6.1426744784399645 4.333294847404184 3.0858597202574938
| 35> S -4.32865164516675 4.112473421894304 5.47517005710518
| 36> C -3.9709450025151187 5.841894435739282 5.2946644878384514
| 37> C -5.724294467412271 6.056012519703646 2.995947499466394
| 38> C -5.332807443557655 6.641494316361952 4.579791126744421
| 39> H -3.1855253841693627 5.850858384984958 4.503601698128604
| 40> H -3.4998236485611134 6.250038485349591 6.230892699237917
| 41> H -5.072487289446702 7.702036008784381 4.4791693031899795
| 42> H -6.203594951875528 6.567314663786311 5.238027584584845
| 43> H -6.462806883985303 6.609409891714064 2.353155364526627
| 44> H -4.7544786297013735 6.048143465607698 2.446416075235946
| 45> C 6.697017391321569 -4.936391346411897 -3.6276573876644127
| 46> C 5.179158260927523 -4.886841919537872 -5.678870935565237
| 47> C 6.533496797306792 -5.256977619922406 -5.102094142889844
| 48> H 4.370947423099485 -5.39164604832272 -5.144897185734712
| 49> H 5.133459579558823 -5.183168792983701 -6.729842868923584
| 50> H 7.319166148545168 -4.750522142720205 -5.671732305189
| 51> H 6.679279580262154 -6.338282831011728 -5.2359542641577725
| 52> H 7.683711526079513 -5.260828068329316 -3.287615194801892
| 53> H 5.9418684809026034 -5.446706449233927 -3.0255636549302225
| 54> *
| 55>
| 56> % eprnmr
| 57> gtensor true
| 58> Nuclei = all H {aiso,adip,aorb,fgrad,rho}
| 59> Nuclei = all V {aiso,adip,aorb,fgrad,rho}
| 60> end
| 61>
| 62>                          ****END OF INPUT****

CARTESIAN COORDINATES (ANGSTROEM)
---------------------------------
  V     -0.490531   -0.974324    0.205819
  S     -2.447969    0.449112   -0.302335
  S     -0.020725   -0.869466   -2.222327
  S     -0.435659    0.178039    2.396063
  S      1.959811   -1.036004    0.484438
  O     -1.033295   -2.444212    0.465543
  C      1.630803   -1.468566   -2.218574
  C      2.425312   -1.531893   -1.134016
  C     -2.758956    1.193512    1.274494
  C     -1.952355    1.086864    2.351247
  S      2.370819   -1.973589   -3.778134
  S      4.109755   -2.094858   -1.404506
  S     -2.454492    1.975418    3.814110
  S     -4.216561    2.203104    1.469809
  C      3.984317   -2.339228   -3.151482
  C     -3.884833    2.701089    3.114711
  C      5.020505   -2.776578   -3.928541
  C     -4.704849    3.559245    3.815962
  S      4.834060   -3.060985   -5.677549
  S      6.627417   -3.121068   -3.240265
  S     -6.139861    4.335048    3.083933
  S     -4.325838    4.114226    5.473244
  C     -3.968132    5.843647    5.292738
  C     -5.721481    6.057766    2.994021
  C     -5.329994    6.643247    4.577865
  H     -3.182712    5.852611    4.501675
  H     -3.497010    6.251792    6.228966
  H     -5.069674    7.703789    4.477243
  H     -6.200782    6.569068    5.236101
  H     -6.459994    6.611163    2.351229
  H     -4.751665    6.049896    2.444490
  C      6.699831   -4.934638   -3.629584
  C      5.181971   -4.885089   -5.680797
  C      6.536310   -5.255225   -5.104021
  H      4.373761   -5.389893   -5.146824
  H      5.136273   -5.181416   -6.731769
  H      7.321979   -4.748769   -5.673659
  H      6.682093   -6.336530   -5.237881
  H      7.686525   -5.259075   -3.289542
  H      5.944682   -5.444953   -3.027490

 Total Charge           Charge          ....   -2
 Multiplicity           Mult            ....    2
 Number of Electrons    NEL             ....  321
 Basis Dimension        Dim             ....  681

ORBITAL ENERGIES
----------------
                 SPIN UP ORBITALS
  NO   OCC          E(Eh)            E(eV)
   0   1.0000    -196.675699     -5351.8179
   1   1.0000     -88.734808     -2414.5969
   2   1.0000     -88.734683     -2414.5935
   3   1.0000     -88.733915     -2414.5726
   4   1.0000     -88.733904     -2414.5723
   5   1.0000     -88.730385     -2414.4765
   6   1.0000     -88.730213     -2414.4719
   7   1.0000     -88.727877     -2414.4083
   8   1.0000     -88.727825     -2414.4069
   9   1.0000     -88.641624     -2412.0612
  10   1.0000     -88.641114     -2412.0473
  11   1.0000     -88.640300     -2412.0252
  12   1.0000     -88.640053     -2412.0185
  13   1.0000     -22.051105      -600.0411
  14   1.0000     -18.891067      -514.0521
  15   1.0000     -18.557555      -504.9768
  16   1.0000     -18.552377      -504.8359
  17   1.0000     -18.552283      -504.8333
  18   1.0000     -10.079790      -274.2850
  19   1.0000     -10.078002      -274.2364
  20   1.0000     -10.077961      -274.2352
  21   1.0000     -10.075992      -274.1817
  22   1.0000     -10.068982      -273.9909
  23   1.0000     -10.063095      -273.8307
  24   1.0000     -10.063045      -273.8294
  25   1.0000     -10.050309      -273.4828
  26   1.0000     -10.049825      -273.4696
  27   1.0000     -10.048633      -273.4372
  28   1.0000     -10.020924      -272.6832
  29   1.0000     -10.020154      -272.6622
  30   1.0000     -10.018583      -272.6195
  31   1.0000     -10.017643      -272.5939
  32   1.0000      -7.788453      -211.9346
  33   1.0000      -7.788359      -211.9320
  34   1.0000      -7.787297      -211.9031
  35   1.0000      -7.787279      -211.9026
  36   1.0000      -7.783604      -211.8026
  37   1.0000      -7.783474      -211.7991
  38   1.0000      -7.782574      -211.7746
  39   1.0000      -7.782516      -211.7730
  40   1.0000      -7.695619      -209.4084
  41   1.0000      -7.695217      -209.3975
  42   1.0000      -7.694654      -209.3822
  43   1.0000      -7.694350      -209.3739
  44   1.0000      -5.753314      -156.5556
  45   1.0000      -5.753222      -156.5531
  46   1.0000      -5.752281      -156.5275
  47   1.0000      -5.752265      -156.5271
  48   1.0000      -5.748887      -156.4352
  49   1.0000      -5.748883      -156.4351
  50   1.0000      -5.748883      -156.4351
  51   1.0000      -5.748781      -156.4323
  52   1.0000      -5.748557      -156.4262
  53   1.0000      -5.748421      -156.4225
  54   1.0000      -5.747583      -156.3997
  55   1.0000      -5.747520      -156.3980
  56   1.0000      -5.744365      -156.3121
  57   1.0000      -5.744273      -156.3096
  58   1.0000      -5.744125      -156.3056
  59   1.0000      -5.743995      -156.3021
  60   1.0000      -5.743788      -156.2964
  61   1.0000      -5.743739      -156.2951
  62   1.0000      -5.742087      -156.2501
  63   1.0000      -5.742068      -156.2496
  64   1.0000      -5.739418      -156.1775
  65   1.0000      -5.739290      -156.1740
  66   1.0000      -5.737415      -156.1230
  67   1.0000      -5.737355      -156.1214
  68   1.0000      -5.661047      -154.0449
  69   1.0000      -5.660613      -154.0331
  70   1.0000      -5.659940      -154.0148
  71   1.0000      -5.659665      -154.0073
  72   1.0000      -5.654261      -153.8603
  73   1.0000      -5.653843      -153.8489
  74   1.0000      -5.653309      -153.8343
  75   1.0000      -5.653028      -153.8267
  76   1.0000      -5.652912      -153.8236
  77   1.0000      -5.652504      -153.8124
  78   1.0000      -5.651981      -153.7982
  79   1.0000      -5.651641      -153.7890
  80   1.0000      -2.444743       -66.5248
  81   1.0000      -1.486105       -40.4390
  82   1.0000      -1.474373       -40.1197
  83   1.0000      -1.473550       -40.0973
  84   1.0000      -0.711394       -19.3580
  85   1.0000      -0.710338       -19.3293
  86   1.0000      -0.686947       -18.6928
  87   1.0000      -0.676755       -18.4154
  88   1.0000      -0.650678       -17.7058
  89   1.0000      -0.633013       -17.2252
  90   1.0000      -0.625160       -17.0115
  91   1.0000      -0.617221       -16.7954
  92   1.0000      -0.612371       -16.6635
  93   1.0000      -0.581578       -15.8256
  94   1.0000      -0.574378       -15.6296
  95   1.0000      -0.574060       -15.6210
  96   1.0000      -0.564124       -15.3506
  97   1.0000      -0.501358       -13.6426
  98   1.0000      -0.497371       -13.5342
  99   1.0000      -0.496232       -13.5032
 100   1.0000      -0.486799       -13.2465
 101   1.0000      -0.479246       -13.0409
 102   1.0000      -0.468798       -12.7566
 103   1.0000      -0.452449       -12.3118
 104   1.0000      -0.445853       -12.1323
 105   1.0000      -0.416758       -11.3406
 106   1.0000      -0.411576       -11.1995
 107   1.0000      -0.356615        -9.7040
 108   1.0000      -0.344993        -9.3877
 109   1.0000      -0.328167        -8.9299
 110   1.0000      -0.323158        -8.7936
 111   1.0000      -0.316765        -8.6196
 112   1.0000      -0.315995        -8.5987
 113   1.0000      -0.304988        -8.2991
 114   1.0000      -0.293973        -7.9994
 115   1.0000      -0.289155        -7.8683
 116   1.0000      -0.281298        -7.6545
 117   1.0000      -0.262897        -7.1538
 118   1.0000      -0.257972        -7.0198
 119   1.0000      -0.256589        -6.9821
 120   1.0000      -0.251974        -6.8566
 121   1.0000      -0.236472        -6.4347
 122   1.0000      -0.235171        -6.3993
 123   1.0000      -0.229466        -6.2441
 124   1.0000      -0.228999        -6.2314
 125   1.0000      -0.224195        -6.1006
 126   1.0000      -0.218517        -5.9462
 127   1.0000      -0.214735        -5.8432
 128   1.0000      -0.213890        -5.8202
 129   1.0000      -0.193603        -5.2682
 130   1.0000      -0.186259        -5.0684
 131   1.0000      -0.184719        -5.0264
 132   1.0000      -0.184558        -5.0221
 133   1.0000      -0.178482        -4.8568
 134   1.0000      -0.159750        -4.3470
 135   1.0000      -0.150488        -4.0950
 136   1.0000      -0.139793        -3.8039
 137   1.0000      -0.136426        -3.7123
 138   1.0000      -0.135361        -3.6834
 139   1.0000      -0.134896        -3.6707
 140   1.0000      -0.125905        -3.4261
 141   1.0000      -0.122570        -3.3353
 142   1.0000      -0.114543        -3.1169
 143   1.0000      -0.110294        -3.0012
 144   1.0000      -0.103557        -2.8179
 145   1.0000      -0.098871        -2.6904
 146   1.0000      -0.096663        -2.6303
 147   1.0000      -0.090099        -2.4517
 148   1.0000      -0.075490        -2.0542
 149   1.0000      -0.068322        -1.8591
 150   1.0000      -0.059462        -1.6180
 151   1.0000      -0.053111        -1.4452
 152   1.0000      -0.046619        -1.2686
 153   1.0000      -0.038503        -1.0477
 154   1.0000      -0.037877        -1.0307
 155   1.0000      -0.032133        -0.8744
 156   1.0000      -0.025773        -0.7013
 157   1.0000      -0.019898        -0.5415
 158   1.0000      -0.016104        -0.4382
 159   1.0000       0.018867         0.5134
 160   1.0000       0.039787         1.0827
 161   0.0000       0.135652         3.6913
 162   0.0000       0.136389         3.7113
 163   0.0000       0.161008         4.3812
 164   0.0000       0.162874         4.4320
 165   0.0000       0.169532         4.6132

                 SPIN DOWN ORBITALS
  NO   OCC          E(Eh)            E(eV)
   0   1.0000    -196.675846     -5351.8219
   1   1.0000     -88.734816     -2414.5971
   2   1.0000     -88.734690     -2414.5937
   3   1.0000     -88.733915     -2414.5726
   4   1.0000     -88.733905     -2414.5723
   5   1.0000     -88.730393     -2414.4768
   6   1.0000     -88.730222     -2414.4721
   7   1.0000     -88.727877     -2414.4083
   8   1.0000     -88.727826     -2414.4069
   9   1.0000     -88.641761     -2412.0649
  10   1.0000     -88.641253     -2412.0511
  11   1.0000     -88.640440     -2412.0290
  12   1.0000     -88.640195     -2412.0223
  13   1.0000     -22.036191      -599.6352
  14   1.0000     -18.894841      -514.1548
  15   1.0000     -18.552299      -504.8337
  16   1.0000     -18.536362      -504.4001
  17   1.0000     -18.536180      -504.3951
  18   1.0000     -10.079788      -274.2850
  19   1.0000     -10.078002      -274.2364
  20   1.0000     -10.077961      -274.2352
  21   1.0000     -10.075987      -274.1815
  22   1.0000     -10.068982      -273.9909
  23   1.0000     -10.063094      -273.8307
  24   1.0000     -10.063044      -273.8293
  25   1.0000     -10.050309      -273.4828
  26   1.0000     -10.049820      -273.4695
  27   1.0000     -10.048621      -273.4369
  28   1.0000     -10.020704      -272.6772
  29   1.0000     -10.019935      -272.6563
  30   1.0000     -10.018345      -272.6130
  31   1.0000     -10.017420      -272.5878
  32   1.0000      -7.788462      -211.9348
  33   1.0000      -7.788368      -211.9323
  34   1.0000      -7.787298      -211.9031
  35   1.0000      -7.787279      -211.9026
  36   1.0000      -7.783613      -211.8029
  37   1.0000      -7.783484      -211.7994
  38   1.0000      -7.782575      -211.7746
  39   1.0000      -7.782516      -211.7730
  40   1.0000      -7.695746      -209.4119
  41   1.0000      -7.695346      -209.4010
  42   1.0000      -7.694784      -209.3857
  43   1.0000      -7.694481      -209.3775
  44   1.0000      -5.753324      -156.5559
  45   1.0000      -5.753232      -156.5534
  46   1.0000      -5.752283      -156.5276
  47   1.0000      -5.752266      -156.5271
  48   1.0000      -5.748896      -156.4354
  49   1.0000      -5.748889      -156.4352
  50   1.0000      -5.748884      -156.4351
  51   1.0000      -5.748794      -156.4326
  52   1.0000      -5.748567      -156.4265
  53   1.0000      -5.748431      -156.4228
  54   1.0000      -5.747584      -156.3997
  55   1.0000      -5.747521      -156.3980
  56   1.0000      -5.744370      -156.3123
  57   1.0000      -5.744279      -156.3098
  58   1.0000      -5.744139      -156.3060
  59   1.0000      -5.744009      -156.3024
  60   1.0000      -5.743788      -156.2964
  61   1.0000      -5.743739      -156.2951
  62   1.0000      -5.742088      -156.2501
  63   1.0000      -5.742069      -156.2496
  64   1.0000      -5.739426      -156.1777
  65   1.0000      -5.739299      -156.1743
  66   1.0000      -5.737416      -156.1230
  67   1.0000      -5.737356      -156.1214
  68   1.0000      -5.661191      -154.0488
  69   1.0000      -5.660757      -154.0370
  70   1.0000      -5.660078      -154.0185
  71   1.0000      -5.659807      -154.0112
  72   1.0000      -5.654613      -153.8698
  73   1.0000      -5.654204      -153.8587
  74   1.0000      -5.653696      -153.8449
  75   1.0000      -5.653411      -153.8371
  76   1.0000      -5.653017      -153.8264
  77   1.0000      -5.652608      -153.8153
  78   1.0000      -5.652067      -153.8006
  79   1.0000      -5.651734      -153.7915
  80   1.0000      -2.399911       -65.3049
  81   1.0000      -1.466852       -39.9151
  82   1.0000      -1.412062       -38.4242
  83   1.0000      -1.411875       -38.4191
  84   1.0000      -0.711357       -19.3570
  85   1.0000      -0.710315       -19.3286
  86   1.0000      -0.686890       -18.6912
  87   1.0000      -0.676715       -18.4144
  88   1.0000      -0.658770       -17.9260
  89   1.0000      -0.632937       -17.2231
  90   1.0000      -0.625162       -17.0115
  91   1.0000      -0.617221       -16.7954
  92   1.0000      -0.612290       -16.6613
  93   1.0000      -0.581549       -15.8248
  94   1.0000      -0.574348       -15.6288
  95   1.0000      -0.573977       -15.6187
  96   1.0000      -0.564077       -15.3493
  97   1.0000      -0.501372       -13.6430
  98   1.0000      -0.497412       -13.5353
  99   1.0000      -0.496252       -13.5037
 100   1.0000      -0.486982       -13.2515
 101   1.0000      -0.479476       -13.0472
 102   1.0000      -0.468870       -12.7586
 103   1.0000      -0.452488       -12.3128
 104   1.0000      -0.445889       -12.1333
 105   1.0000      -0.416751       -11.3404
 106   1.0000      -0.411680       -11.2024
 107   1.0000      -0.356606        -9.7037
 108   1.0000      -0.344977        -9.3873
 109   1.0000      -0.328153        -8.9295
 110   1.0000      -0.323100        -8.7920
 111   1.0000      -0.316746        -8.6191
 112   1.0000      -0.316002        -8.5988
 113   1.0000      -0.304944        -8.2980
 114   1.0000      -0.293968        -7.9993
 115   1.0000      -0.289125        -7.8675
 116   1.0000      -0.281287        -7.6542
 117   1.0000      -0.262801        -7.1512
 118   1.0000      -0.257906        -7.0180
 119   1.0000      -0.256510        -6.9800
 120   1.0000      -0.251911        -6.8548
 121   1.0000      -0.236468        -6.4346
 122   1.0000      -0.235145        -6.3986
 123   1.0000      -0.229425        -6.2430
 124   1.0000      -0.228944        -6.2299
 125   1.0000      -0.223946        -6.0939
 126   1.0000      -0.218278        -5.9396
 127   1.0000      -0.214506        -5.8370
 128   1.0000      -0.213817        -5.8183
 129   1.0000      -0.191857        -5.2207
 130   1.0000      -0.185915        -5.0590
 131   1.0000      -0.184579        -5.0226
 132   1.0000      -0.184345        -5.0163
 133   1.0000      -0.178336        -4.8528
 134   1.0000      -0.159108        -4.3296
 135   1.0000      -0.150333        -4.0908
 136   1.0000      -0.139705        -3.8016
 137   1.0000      -0.135688        -3.6923
 138   1.0000      -0.135175        -3.6783
 139   1.0000      -0.134616        -3.6631
 140   1.0000      -0.125352        -3.4110
 141   1.0000      -0.122213        -3.3256
 142   1.0000      -0.116288        -3.1644
 143   1.0000      -0.111907        -3.0452
 144   1.0000      -0.103708        -2.8220
 145   1.0000      -0.099070        -2.6958
 146   1.0000      -0.096859        -2.6357
 147   1.0000      -0.090106        -2.4519
 148   1.0000      -0.071700        -1.9511
 149   1.0000      -0.068323        -1.8592
 150   1.0000      -0.059453        -1.6178
 151   1.0000      -0.050523        -1.3748
 152   1.0000      -0.045671        -1.2428
 153   1.0000      -0.038537        -1.0486
 154   1.0000      -0.037317        -1.0154
 155   1.0000      -0.032183        -0.8758
 156   1.0000      -0.026811        -0.7296
 157   1.0000      -0.016312        -0.4439
 158   1.0000       0.019177         0.5218
 159   1.0000       0.038668         1.0522
 160   0.0000       0.135654         3.6913
 161   0.0000       0.136399         3.7116
 162   0.0000       0.154792         4.2121
 163   0.0000       0.161465         4.3937
 164   0.0000       0.163811         4.4575

MULLIKEN ATOMIC CHARGES AND SPIN POPULATIONS
--------------------------------------------
   0 V :    0.473521    1.209665
   1 S :   -0.292144   -0.022622
   2 S :   -0.289441   -0.025231
   3 S :   -0.290132   -0.023506
   4 S :   -0.285174   -0.025662
   5 O :   -0.467230   -0.146396
   6 C :   -0.076881    0.009711
   7 C :   -0.084080    0.008033
   8 C :   -0.088466    0.008152
   9 C :   -0.088834    0.007780
  10 S :    0.097952   -0.000590
  11 S :    0.099444   -0.000627
  12 S :    0.120517   -0.000360
  13 S :    0.119856   -0.000313
  14 C :   -0.214530    0.001533
  15 C :   -0.193224    0.001027
  16 C :   -0.188784   -0.000093
  17 C :   -0.235508   -0.000331
  18 S :    0.009100   -0.000116
  19 S :    0.009183   -0.000115
  20 S :    0.013751   -0.000057
  21 S :    0.013724   -0.000058
  22 C :   -0.323592   -0.000001
  23 C :   -0.323571   -0.000001
  24 C :   -0.177193   -0.000006
  25 H :    0.143301   -0.000000
  26 H :    0.132180   -0.000003
  27 H :    0.081814    0.000000
  28 H :    0.100904   -0.000001
  29 H :    0.131891   -0.000003
  30 H :    0.142995   -0.000000
  31 C :   -0.298170    0.000199
  32 C :   -0.299448    0.000195
  33 C :   -0.157072   -0.000245
  34 H :    0.142087   -0.000018
  35 H :    0.112135    0.000019
  36 H :    0.092072    0.000024
  37 H :    0.083172    0.000014
  38 H :    0.111975    0.000019
  39 H :    0.141901   -0.000018
Sum of atomic charges         :   -2.0000000

LOEWDIN ATOMIC CHARGES AND SPIN POPULATIONS
-------------------------------------------
   0 V :   -0.156897    1.163060
   1 S :    0.075066   -0.014581
   2 S :    0.080186   -0.016087
   3 S :    0.076608   -0.015328
   4 S :    0.084049   -0.016282
   5 O :   -0.318170   -0.131324
   6 C :   -0.549866    0.009050
   7 C :   -0.552092    0.007946
   8 C :   -0.551591    0.008475
   9 C :   -0.551438    0.007983
  10 S :    0.469287   -0.000905
  11 S :    0.470290   -0.000953
  12 S :    0.494307   -0.000770
  13 S :    0.493800   -0.000775
  14 C :   -0.465009    0.000151
  15 C :   -0.467688   -0.000030
  16 C :   -0.622212    0.000480
  17 C :   -0.627686    0.000103
  18 S :    0.358113   -0.000092
  19 S :    0.359474   -0.000089
  20 S :    0.370290   -0.000061
  21 S :    0.370035   -0.000062
  22 C :   -0.318439   -0.000004
  23 C :   -0.318588   -0.000005
  24 C :   -0.170805   -0.000004
  25 H :    0.062886   -0.000001
  26 H :    0.065570   -0.000001
  27 H :    0.048037   -0.000001
  28 H :    0.055341   -0.000000
  29 H :    0.065510   -0.000001
  30 H :    0.062704   -0.000002
  31 C :   -0.282141    0.000043
  32 C :   -0.281938    0.000037
  33 C :   -0.177520    0.000006
  34 H :    0.062348   -0.000001
  35 H :    0.053313    0.000008
  36 H :    0.060652    0.000005
  37 H :    0.058622    0.000002
  38 H :    0.053361    0.000008
  39 H :    0.062229   -0.000000

  Mayer bond orders larger than 0.100000
B(  0-V ,  1-S ) :   0.7696 B(  0-V ,  2-S ) :   0.7719 B(  0-V ,  3-S ) :   0.7629
B(  0-V ,  4-S ) :   0.7793 B(  0-V ,  5-O ) :   2.1493 B(  1-S ,  8-C ) :   1.0949
B(  2-S ,  6-C ) :   1.1056 B(  3-S ,  9-C ) :   1.0978 B(  4-S ,  7-C ) :   1.1060
B(  6-C ,  7-C ) :   1.6848 B(  6-C , 10-S ) :   0.9333 B(  7-C , 11-S ) :   0.9373
B(  8-C ,  9-C ) :   1.6921 B(  8-C , 13-S ) :   0.9467 B(  9-C , 12-S ) :   0.9482
B( 10-S , 14-C ) :   1.2475 B( 11-S , 14-C ) :   1.2472 B( 12-S , 15-C ) :   1.2627
B( 13-S , 15-C ) :   1.2625 B( 14-C , 16-C ) :   1.4534 B( 15-C , 17-C ) :   1.4208
B( 16-C , 18-S ) :   1.0875 B( 16-C , 19-S ) :   1.0887 B( 17-C , 20-S ) :   1.0963
B( 17-C , 21-S ) :   1.0967 B( 18-S , 32-C ) :   0.9924 B( 19-S , 31-C ) :   0.9925
B( 20-S , 23-C ) :   0.9827 B( 21-S , 22-C ) :   0.9819 B( 22-C , 24-C ) :   0.8886
B( 22-C , 25-H ) :   0.9760 B( 22-C , 26-H ) :   0.9404 B( 23-C , 24-C ) :   0.8888
B( 23-C , 29-H ) :   0.9404 B( 23-C , 30-H ) :   0.9758 B( 24-C , 27-H ) :   0.9597
B( 24-C , 28-H ) :   0.9635 B( 31-C , 33-C ) :   0.9144 B( 31-C , 38-H ) :   0.9671
B( 31-C , 39-H ) :   0.9651 B( 32-C , 33-C ) :   0.9141 B( 32-C , 34-H ) :   0.9649
B( 32-C , 35-H ) :   0.9670 B( 33-C , 36-H ) :   0.9722 B( 33-C , 37-H ) :   0.9620

FINAL SINGLE POINT ENERGY     -6337.657485550428

DIPOLE MOMENT
-------------
                                X             Y             Z
Electronic contribution:     -8.57668      -9.77096       3.96503
Nuclear contribution   :      9.74665      10.70171      -4.57588
                        -----------------------------------------
Total Dipole Moment    :      1.16997       0.93075      -0.61085
                        -----------------------------------------
Magnitude (a.u.)       :      1.61501
Magnitude (Debye)      :      4.10504

Rotational constants in cm-1:     0.010709     0.000804     0.000783
Rotational constants in MHz :   321.032982    24.116695    23.472169

                             ****ORCA TERMINATED NORMALLY****
TOTAL RUN TIME: 0 days 1 hours 6 minutes 15 seconds 984 msec
