                         Program Version 5.0.4 -  RELEASE  -
|  1> ! nofrozencore ReducedPop printbasis
|  2> ! B3LYP TZVP
|  3>
|  4> %basis
|  5> newgto V "CP(PPP)" end
|  6> end
|  7>
|  8> %pal
|  9> nprocs 8
| 10> end
| 11>
| 12> % sym SymThresh 1e-2 end
| 13> * xyz -2 2
| 14> V 1.0824086756790734 -0.2513303474306531 -0.06474728952675737
| 15> S 0.3716273142036556 -0.6025384108359813 -2.4079128033228336
| 16> S 0.8398179893066493 2.164058034622356 -0.548565985209038
| 17> S -0.033918645230321384 -2.409438226663563 0.41213291432750715
| 18> S 0.3452010755168848 0.3248230773356487 2.2177055429265593
| 19> O 2.648431648963235 -0.5124068475858734 -0.004314184741919185
| 20> C 0.8711501917173499 2.78915581720949 1.095047410139985
| 21> C 0.6693853293131556 2.051897702386958 2.203364224178436
| 22> C -0.2315430264648758 -2.2526656125841242 -2.3374240636926538
| 23> C -0.39579909934287105 -2.9716028588008028 -1.211823928798349
| 24> S 1.1143133485335823 4.551662691078036 1.3448635378625309
| 25> S 0.6565269881808224 2.9370705146802774 3.7644768632782104
| 26> S -1.0838131517924596 -4.619092430369556 -1.4068380737932695
| 27> S -0.7188563431070002 -3.049738043381601 -3.8720019197061095
| 28> C 0.9346523497558213 4.552437463118467 3.1037448094657236
| 29> C -1.3141385752568198 -4.553329668511941 -3.157760434737872
| 30> C 1.0135402273990117 5.679321455596139 3.8748999194848
| 31> C -1.8831638118404548 -5.562990651110663 -3.8836677146453833
| 32> S 1.352062432370563 7.2825554337607015 3.174079686403711
| 33> S 0.8188527650907007 5.620602654868557 5.645321377787615
| 34> S -2.097004865464011 -5.449400531755308 -5.649043473139875
| 35> S -2.4874422316137204 -7.051776503141001 -3.1118805700306096
| 36> C -4.280924909725131 -6.868482004453761 -3.5399520195029077
| 37> C -3.9477842958267746 -5.509500130686569 -5.703454108611129
| 38> C -4.539970101914473 -6.762138776683524 -5.0476316382419135
| 39> H -4.653879860635676 -6.0218083689237325 -3.0320483709457453
| 40> H -4.755178771822962 -7.730692595688197 -3.1460174983087668
| 41> H -5.62861675006703 -6.744064881374183 -5.203961844614668
| 42> H -4.165435813485821 -7.623633739891812 -5.530718487008257
| 43> H -4.202715044580486 -5.480294192788461 -6.742393941166587
| 44> H -4.3211956070777084 -4.625406021660625 -5.241540948152933
| 45> C 2.5184979987176717 6.193322917509989 6.143347654375555
| 46> C 2.9430250317611666 7.607317459032914 4.0397002494885905
| 47> C 2.8735382820947386 7.573931951123045 5.551063046644983
| 48> H 3.8666925954190328 6.703322235467483 3.5717624379065103
| 49> H 3.343637974580563 8.862893411341945 3.6047559716323843
| 50> H 2.1262279725279547 8.334252093673266 5.897213919162457
| 51> H 3.849326696653296 7.866867856374237 5.961919561165517
| 52> H 2.505016338072384 6.231120797819198 6.980895335553992
| 53> H 3.084075124738927 5.6057192897657675 5.890128819867996
| 54> *
| 55>
| 56> % eprnmr
| 57> gtensor true
| 58> Nuclei = all H {aiso,adip,aorb,fgrad,rho}
| 59> Nuclei = all V {aiso,adip,aorb,fgrad,rho}
| 60> end
| 61>
| 62>                          ****END OF INPUT****

CARTESIAN COORDINATES (ANGSTROEM)
---------------------------------
  V      1.079845   -0.248775   -0.063483
  S      0.369064   -0.599983   -2.406649
  S      0.837254    2.166613   -0.547302
  S     -0.036482   -2.406883    0.413397
  S      0.342637    0.327378    2.218970
  O      2.645868   -0.509852   -0.003050
  C      0.868587    2.791711    1.096311
  C      0.666822    2.054453    2.204628
  C     -0.234107   -2.250111   -2.336160
  C     -0.398363   -2.969048   -1.210560
  S      1.111750    4.554218    1.346128
  S      0.653963    2.939626    3.765741
  S     -1.086377   -4.616537   -1.405574
  S     -0.721420   -3.047183   -3.870738
  C      0.932089    4.554993    3.105009
  C     -1.316702   -4.550775   -3.156496
  C      1.010977    5.681877    3.876164
  C     -1.885727   -5.560436   -3.882404
  S      1.349499    7.285111    3.175344
  S      0.816289    5.623158    5.646585
  S     -2.099569   -5.446845   -5.647779
  S     -2.490006   -7.049221   -3.110616
  C     -4.283489   -6.865927   -3.538688
  C     -3.950348   -5.506945   -5.702190
  C     -4.542534   -6.759584   -5.046368
  H     -4.656444   -6.019253   -3.030784
  H     -4.757742   -7.728138   -3.144753
  H     -5.631180   -6.741510   -5.202698
  H     -4.167999   -7.621079   -5.529454
  H     -4.205279   -5.477739   -6.741130
  H     -4.323759   -4.622851   -5.240277
  C      2.515934    6.195878    6.144612
  C      2.940461    7.609873    4.040964
  C      2.870975    7.576487    5.552327
  H      3.864129    6.705877    3.573027
  H      3.341074    8.865448    3.606020
  H      2.123664    8.336807    5.898478
  H      3.846763    7.869423    5.963184
  H      2.502453    6.233676    6.982159
  H      3.081511    5.608274    5.891393

 Total Charge           Charge          ....   -2
 Multiplicity           Mult            ....    2
 Number of Electrons    NEL             ....  321
 Basis Dimension        Dim             ....  681

ORBITAL ENERGIES
----------------
                 SPIN UP ORBITALS
  NO   OCC          E(Eh)            E(eV)
   0   1.0000    -196.675063     -5351.8005
   1   1.0000     -88.738068     -2414.6856
   2   1.0000     -88.733306     -2414.5560
   3   1.0000     -88.732795     -2414.5421
   4   1.0000     -88.732655     -2414.5383
   5   1.0000     -88.731565     -2414.5086
   6   1.0000     -88.731465     -2414.5059
   7   1.0000     -88.729879     -2414.4628
   8   1.0000     -88.729831     -2414.4614
   9   1.0000     -88.640230     -2412.0233
  10   1.0000     -88.640006     -2412.0172
  11   1.0000     -88.639840     -2412.0127
  12   1.0000     -88.639421     -2412.0013
  13   1.0000     -22.050456      -600.0234
  14   1.0000     -18.890360      -514.0328
  15   1.0000     -18.556903      -504.9590
  16   1.0000     -18.551733      -504.8183
  17   1.0000     -18.551632      -504.8156
  18   1.0000     -10.109586      -275.0958
  19   1.0000     -10.077335      -274.2182
  20   1.0000     -10.075586      -274.1706
  21   1.0000     -10.058084      -273.6944
  22   1.0000     -10.056511      -273.6516
  23   1.0000     -10.056082      -273.6399
  24   1.0000     -10.050051      -273.4758
  25   1.0000     -10.048226      -273.4261
  26   1.0000     -10.046886      -273.3897
  27   1.0000     -10.019174      -272.6356
  28   1.0000     -10.018163      -272.6081
  29   1.0000     -10.017810      -272.5985
  30   1.0000     -10.017017      -272.5769
  31   1.0000     -10.015637      -272.5393
  32   1.0000      -7.791156      -212.0081
  33   1.0000      -7.786832      -211.8905
  34   1.0000      -7.786276      -211.8753
  35   1.0000      -7.786131      -211.8714
  36   1.0000      -7.784805      -211.8353
  37   1.0000      -7.784699      -211.8324
  38   1.0000      -7.783153      -211.7904
  39   1.0000      -7.783130      -211.7897
  40   1.0000      -7.694556      -209.3795
  41   1.0000      -7.694261      -209.3715
  42   1.0000      -7.694116      -209.3675
  43   1.0000      -7.693737      -209.3572
  44   1.0000      -5.756207      -156.6344
  45   1.0000      -5.752748      -156.5402
  46   1.0000      -5.751801      -156.5145
  47   1.0000      -5.751262      -156.4998
  48   1.0000      -5.751114      -156.4958
  49   1.0000      -5.749737      -156.4583
  50   1.0000      -5.749652      -156.4560
  51   1.0000      -5.748393      -156.4217
  52   1.0000      -5.748101      -156.4138
  53   1.0000      -5.748076      -156.4131
  54   1.0000      -5.747842      -156.4067
  55   1.0000      -5.747700      -156.4029
  56   1.0000      -5.745908      -156.3541
  57   1.0000      -5.745294      -156.3374
  58   1.0000      -5.745199      -156.3348
  59   1.0000      -5.743678      -156.2934
  60   1.0000      -5.743655      -156.2928
  61   1.0000      -5.741656      -156.2384
  62   1.0000      -5.741081      -156.2228
  63   1.0000      -5.740940      -156.2189
  64   1.0000      -5.740666      -156.2115
  65   1.0000      -5.740539      -156.2080
  66   1.0000      -5.738958      -156.1650
  67   1.0000      -5.738938      -156.1644
  68   1.0000      -5.659868      -154.0128
  69   1.0000      -5.659603      -154.0056
  70   1.0000      -5.659428      -154.0009
  71   1.0000      -5.659040      -153.9903
  72   1.0000      -5.653192      -153.8312
  73   1.0000      -5.652908      -153.8234
  74   1.0000      -5.652782      -153.8200
  75   1.0000      -5.652422      -153.8102
  76   1.0000      -5.651876      -153.7954
  77   1.0000      -5.651559      -153.7867
  78   1.0000      -5.651443      -153.7836
  79   1.0000      -5.651057      -153.7731
  80   1.0000      -2.444100       -66.5073
  81   1.0000      -1.485397       -40.4197
  82   1.0000      -1.473743       -40.1026
  83   1.0000      -1.472923       -40.0803
  84   1.0000      -0.714564       -19.4443
  85   1.0000      -0.709825       -19.3153
  86   1.0000      -0.692244       -18.8369
  87   1.0000      -0.686354       -18.6766
  88   1.0000      -0.649965       -17.6864
  89   1.0000      -0.640815       -17.4375
  90   1.0000      -0.631809       -17.1924
  91   1.0000      -0.619500       -16.8574
  92   1.0000      -0.619407       -16.8549
  93   1.0000      -0.576065       -15.6755
  94   1.0000      -0.574466       -15.6320
  95   1.0000      -0.574256       -15.6263
  96   1.0000      -0.572889       -15.5891
  97   1.0000      -0.518615       -14.1122
  98   1.0000      -0.498469       -13.5640
  99   1.0000      -0.497380       -13.5344
 100   1.0000      -0.491884       -13.3848
 101   1.0000      -0.481935       -13.1141
 102   1.0000      -0.478416       -13.0184
 103   1.0000      -0.451458       -12.2848
 104   1.0000      -0.434195       -11.8151
 105   1.0000      -0.416295       -11.3280
 106   1.0000      -0.411315       -11.1925
 107   1.0000      -0.373062       -10.1515
 108   1.0000      -0.358276        -9.7492
 109   1.0000      -0.329338        -8.9618
 110   1.0000      -0.327298        -8.9062
 111   1.0000      -0.319543        -8.6952
 112   1.0000      -0.315208        -8.5772
 113   1.0000      -0.310364        -8.4454
 114   1.0000      -0.304402        -8.2832
 115   1.0000      -0.297668        -8.1000
 116   1.0000      -0.288353        -7.8465
 117   1.0000      -0.265419        -7.2224
 118   1.0000      -0.257708        -7.0126
 119   1.0000      -0.256916        -6.9910
 120   1.0000      -0.254856        -6.9350
 121   1.0000      -0.236977        -6.4485
 122   1.0000      -0.233740        -6.3604
 123   1.0000      -0.231866        -6.3094
 124   1.0000      -0.221726        -6.0335
 125   1.0000      -0.220484        -5.9997
 126   1.0000      -0.217019        -5.9054
 127   1.0000      -0.212792        -5.7904
 128   1.0000      -0.204504        -5.5648
 129   1.0000      -0.193518        -5.2659
 130   1.0000      -0.187287        -5.0963
 131   1.0000      -0.186371        -5.0714
 132   1.0000      -0.184109        -5.0099
 133   1.0000      -0.179024        -4.8715
 134   1.0000      -0.159726        -4.3464
 135   1.0000      -0.151827        -4.1314
 136   1.0000      -0.147146        -4.0040
 137   1.0000      -0.136381        -3.7111
 138   1.0000      -0.134291        -3.6542
 139   1.0000      -0.133326        -3.6280
 140   1.0000      -0.125366        -3.4114
 141   1.0000      -0.121346        -3.3020
 142   1.0000      -0.113666        -3.0930
 143   1.0000      -0.109977        -2.9926
 144   1.0000      -0.100211        -2.7269
 145   1.0000      -0.098228        -2.6729
 146   1.0000      -0.097850        -2.6626
 147   1.0000      -0.095175        -2.5899
 148   1.0000      -0.074718        -2.0332
 149   1.0000      -0.069082        -1.8798
 150   1.0000      -0.067173        -1.8279
 151   1.0000      -0.052583        -1.4309
 152   1.0000      -0.045796        -1.2462
 153   1.0000      -0.037948        -1.0326
 154   1.0000      -0.037265        -1.0140
 155   1.0000      -0.031671        -0.8618
 156   1.0000      -0.025125        -0.6837
 157   1.0000      -0.019288        -0.5249
 158   1.0000      -0.015692        -0.4270
 159   1.0000       0.020107         0.5471
 160   1.0000       0.041014         1.1161
 161   0.0000       0.128048         3.4844
 162   0.0000       0.138285         3.7629
 163   0.0000       0.150776         4.1028
 164   0.0000       0.162898         4.4327
 165   0.0000       0.165774         4.5109

                 SPIN DOWN ORBITALS
  NO   OCC          E(Eh)            E(eV)
   0   1.0000    -196.675210     -5351.8045
   1   1.0000     -88.738069     -2414.6856
   2   1.0000     -88.733307     -2414.5560
   3   1.0000     -88.732795     -2414.5421
   4   1.0000     -88.732656     -2414.5383
   5   1.0000     -88.731574     -2414.5089
   6   1.0000     -88.731473     -2414.5061
   7   1.0000     -88.729887     -2414.4630
   8   1.0000     -88.729839     -2414.4617
   9   1.0000     -88.640369     -2412.0271
  10   1.0000     -88.640147     -2412.0210
  11   1.0000     -88.639977     -2412.0164
  12   1.0000     -88.639560     -2412.0050
  13   1.0000     -22.035531      -599.6173
  14   1.0000     -18.894135      -514.1356
  15   1.0000     -18.551641      -504.8158
  16   1.0000     -18.535704      -504.3821
  17   1.0000     -18.535520      -504.3772
  18   1.0000     -10.109585      -275.0958
  19   1.0000     -10.077329      -274.2181
  20   1.0000     -10.075586      -274.1706
  21   1.0000     -10.058084      -273.6944
  22   1.0000     -10.056511      -273.6516
  23   1.0000     -10.056082      -273.6399
  24   1.0000     -10.050040      -273.4755
  25   1.0000     -10.048221      -273.4260
  26   1.0000     -10.046886      -273.3897
  27   1.0000     -10.018935      -272.6291
  28   1.0000     -10.017941      -272.6020
  29   1.0000     -10.017596      -272.5927
  30   1.0000     -10.016804      -272.5711
  31   1.0000     -10.015636      -272.5393
  32   1.0000      -7.791157      -212.0081
  33   1.0000      -7.786833      -211.8905
  34   1.0000      -7.786277      -211.8754
  35   1.0000      -7.786131      -211.8714
  36   1.0000      -7.784814      -211.8356
  37   1.0000      -7.784709      -211.8327
  38   1.0000      -7.783162      -211.7906
  39   1.0000      -7.783139      -211.7900
  40   1.0000      -7.694686      -209.3831
  41   1.0000      -7.694392      -209.3750
  42   1.0000      -7.694243      -209.3710
  43   1.0000      -7.693866      -209.3607
  44   1.0000      -5.756208      -156.6344
  45   1.0000      -5.752749      -156.5403
  46   1.0000      -5.751803      -156.5145
  47   1.0000      -5.751263      -156.4998
  48   1.0000      -5.751115      -156.4958
  49   1.0000      -5.749748      -156.4586
  50   1.0000      -5.749662      -156.4563
  51   1.0000      -5.748394      -156.4218
  52   1.0000      -5.748112      -156.4141
  53   1.0000      -5.748087      -156.4134
  54   1.0000      -5.747843      -156.4068
  55   1.0000      -5.747701      -156.4029
  56   1.0000      -5.745908      -156.3541
  57   1.0000      -5.745307      -156.3378
  58   1.0000      -5.745213      -156.3352
  59   1.0000      -5.743692      -156.2938
  60   1.0000      -5.743669      -156.2932
  61   1.0000      -5.741657      -156.2384
  62   1.0000      -5.741082      -156.2228
  63   1.0000      -5.740941      -156.2190
  64   1.0000      -5.740676      -156.2117
  65   1.0000      -5.740547      -156.2082
  66   1.0000      -5.738963      -156.1651
  67   1.0000      -5.738944      -156.1646
  68   1.0000      -5.660006      -154.0166
  69   1.0000      -5.659744      -154.0095
  70   1.0000      -5.659570      -154.0047
  71   1.0000      -5.659182      -153.9942
  72   1.0000      -5.653577      -153.8416
  73   1.0000      -5.653289      -153.8338
  74   1.0000      -5.653134      -153.8296
  75   1.0000      -5.652782      -153.8200
  76   1.0000      -5.651962      -153.7977
  77   1.0000      -5.651652      -153.7893
  78   1.0000      -5.651548      -153.7864
  79   1.0000      -5.651163      -153.7760
  80   1.0000      -2.399233       -65.2865
  81   1.0000      -1.466125       -39.8953
  82   1.0000      -1.411380       -38.4056
  83   1.0000      -1.411222       -38.4013
  84   1.0000      -0.714547       -19.4438
  85   1.0000      -0.709810       -19.3149
  86   1.0000      -0.692185       -18.8353
  87   1.0000      -0.686311       -18.6755
  88   1.0000      -0.658050       -17.9065
  89   1.0000      -0.640766       -17.4361
  90   1.0000      -0.631751       -17.1908
  91   1.0000      -0.619502       -16.8575
  92   1.0000      -0.619382       -16.8542
  93   1.0000      -0.576033       -15.6747
  94   1.0000      -0.574444       -15.6314
  95   1.0000      -0.574175       -15.6241
  96   1.0000      -0.572823       -15.5873
  97   1.0000      -0.518617       -14.1123
  98   1.0000      -0.498501       -13.5649
  99   1.0000      -0.497404       -13.5350
 100   1.0000      -0.491926       -13.3860
 101   1.0000      -0.482152       -13.1200
 102   1.0000      -0.478673       -13.0254
 103   1.0000      -0.451491       -12.2857
 104   1.0000      -0.434230       -11.8160
 105   1.0000      -0.416301       -11.3281
 106   1.0000      -0.411413       -11.1951
 107   1.0000      -0.373057       -10.1514
 108   1.0000      -0.358272        -9.7491
 109   1.0000      -0.329312        -8.9610
 110   1.0000      -0.327287        -8.9059
 111   1.0000      -0.319468        -8.6932
 112   1.0000      -0.315231        -8.5779
 113   1.0000      -0.310343        -8.4449
 114   1.0000      -0.304368        -8.2823
 115   1.0000      -0.297662        -8.0998
 116   1.0000      -0.288336        -7.8460
 117   1.0000      -0.265350        -7.2205
 118   1.0000      -0.257604        -7.0098
 119   1.0000      -0.256844        -6.9891
 120   1.0000      -0.254806        -6.9336
 121   1.0000      -0.236943        -6.4475
 122   1.0000      -0.233686        -6.3589
 123   1.0000      -0.231826        -6.3083
 124   1.0000      -0.221406        -6.0248
 125   1.0000      -0.220428        -5.9982
 126   1.0000      -0.216783        -5.8990
 127   1.0000      -0.212604        -5.7852
 128   1.0000      -0.204464        -5.5637
 129   1.0000      -0.191801        -5.2192
 130   1.0000      -0.187219        -5.0945
 131   1.0000      -0.185983        -5.0609
 132   1.0000      -0.183901        -5.0042
 133   1.0000      -0.178909        -4.8684
 134   1.0000      -0.159103        -4.3294
 135   1.0000      -0.151660        -4.1269
 136   1.0000      -0.147066        -4.0019
 137   1.0000      -0.135815        -3.6957
 138   1.0000      -0.133894        -3.6434
 139   1.0000      -0.133113        -3.6222
 140   1.0000      -0.124737        -3.3943
 141   1.0000      -0.121018        -3.2931
 142   1.0000      -0.115438        -3.1412
 143   1.0000      -0.111532        -3.0349
 144   1.0000      -0.100236        -2.7276
 145   1.0000      -0.098526        -2.6810
 146   1.0000      -0.097865        -2.6631
 147   1.0000      -0.095480        -2.5981
 148   1.0000      -0.070891        -1.9291
 149   1.0000      -0.069075        -1.8796
 150   1.0000      -0.067165        -1.8277
 151   1.0000      -0.049999        -1.3606
 152   1.0000      -0.044856        -1.2206
 153   1.0000      -0.038008        -1.0343
 154   1.0000      -0.036685        -0.9982
 155   1.0000      -0.031700        -0.8626
 156   1.0000      -0.026162        -0.7119
 157   1.0000      -0.015898        -0.4326
 158   1.0000       0.020386         0.5547
 159   1.0000       0.039923         1.0864
 160   0.0000       0.128039         3.4841
 161   0.0000       0.138272         3.7626
 162   0.0000       0.150676         4.1001
 163   0.0000       0.156148         4.2490
 164   0.0000       0.163555         4.4506

MULLIKEN ATOMIC CHARGES AND SPIN POPULATIONS
--------------------------------------------
   0 V :    0.471106    1.210321
   1 S :   -0.291138   -0.022529
   2 S :   -0.288280   -0.025074
   3 S :   -0.289563   -0.023460
   4 S :   -0.284738   -0.025488
   5 O :   -0.467340   -0.146513
   6 C :   -0.077656    0.009664
   7 C :   -0.084724    0.007990
   8 C :   -0.083996    0.007728
   9 C :   -0.084320    0.007437
  10 S :    0.101932   -0.000596
  11 S :    0.103695   -0.000639
  12 S :    0.099700   -0.000393
  13 S :    0.098839   -0.000348
  14 C :   -0.211626    0.001546
  15 C :   -0.211332    0.001001
  16 C :   -0.194126   -0.000076
  17 C :   -0.190371   -0.000405
  18 S :    0.040855   -0.000110
  19 S :   -0.011161   -0.000117
  20 S :    0.005348   -0.000068
  21 S :    0.004205   -0.000071
  22 C :   -0.306999   -0.000001
  23 C :   -0.305275   -0.000002
  24 C :   -0.163156   -0.000011
  25 H :    0.149882   -0.000001
  26 H :    0.119259   -0.000004
  27 H :    0.079605   -0.000001
  28 H :    0.099759   -0.000001
  29 H :    0.117016   -0.000004
  30 H :    0.147957   -0.000001
  31 C :   -0.355922    0.000211
  32 C :   -0.255054    0.000183
  33 C :   -0.158678   -0.000250
  34 H :    0.089977   -0.000013
  35 H :    0.050668    0.000069
  36 H :    0.090228    0.000026
  37 H :    0.087737    0.000018
  38 H :    0.166488    0.000010
  39 H :    0.191203   -0.000028
Sum of atomic charges         :   -2.0000000

LOEWDIN ATOMIC CHARGES AND SPIN POPULATIONS
-------------------------------------------
   0 V :   -0.155795    1.163745
   1 S :    0.079989   -0.014543
   2 S :    0.080212   -0.015972
   3 S :    0.081152   -0.015321
   4 S :    0.083594   -0.016163
   5 O :   -0.318701   -0.131442
   6 C :   -0.549151    0.009030
   7 C :   -0.552140    0.007928
   8 C :   -0.552422    0.008130
   9 C :   -0.552445    0.007675
  10 S :    0.473967   -0.000912
  11 S :    0.474568   -0.000963
  12 S :    0.470910   -0.000820
  13 S :    0.470216   -0.000830
  14 C :   -0.463851    0.000184
  15 C :   -0.465412   -0.000079
  16 C :   -0.622359    0.000476
  17 C :   -0.621430    0.000086
  18 S :    0.370955   -0.000086
  19 S :    0.362182   -0.000089
  20 S :    0.358418   -0.000072
  21 S :    0.357839   -0.000075
  22 C :   -0.271931   -0.000007
  23 C :   -0.275002   -0.000009
  24 C :   -0.167631   -0.000002
  25 H :    0.056331   -0.000001
  26 H :    0.048516   -0.000002
  27 H :    0.058036   -0.000002
  28 H :    0.054169   -0.000001
  29 H :    0.050103   -0.000002
  30 H :    0.057849   -0.000001
  31 C :   -0.185646    0.000042
  32 C :   -0.322671    0.000041
  33 C :   -0.174595    0.000007
  34 H :    0.075744   -0.000002
  35 H :    0.062707    0.000038
  36 H :    0.065824    0.000005
  37 H :    0.059922    0.000002
  38 H :   -0.008345    0.000005
  39 H :    0.006325    0.000002

  Mayer bond orders larger than 0.100000
B(  0-V ,  1-S ) :   0.7728 B(  0-V ,  2-S ) :   0.7698 B(  0-V ,  3-S ) :   0.7661
B(  0-V ,  4-S ) :   0.7770 B(  0-V ,  5-O ) :   2.1491 B(  1-S ,  8-C ) :   1.1032
B(  2-S ,  6-C ) :   1.1063 B(  3-S ,  9-C ) :   1.1056 B(  4-S ,  7-C ) :   1.1056
B(  6-C ,  7-C ) :   1.6817 B(  6-C , 10-S ) :   0.9364 B(  7-C , 11-S ) :   0.9395
B(  8-C ,  9-C ) :   1.6991 B(  8-C , 13-S ) :   0.9335 B(  9-C , 12-S ) :   0.9354
B( 10-S , 14-C ) :   1.2494 B( 11-S , 14-C ) :   1.2518 B( 12-S , 15-C ) :   1.2459
B( 13-S , 15-C ) :   1.2458 B( 14-C , 16-C ) :   1.4448 B( 15-C , 17-C ) :   1.4539
B( 16-C , 18-S ) :   1.0850 B( 16-C , 19-S ) :   1.0898 B( 17-C , 20-S ) :   1.0896
B( 17-C , 21-S ) :   1.0899 B( 18-S , 32-C ) :   0.9975 B( 19-S , 31-C ) :   0.9637
B( 20-S , 23-C ) :   0.9912 B( 21-S , 22-C ) :   0.9898 B( 22-C , 24-C ) :   0.9101
B( 22-C , 25-H ) :   0.9696 B( 22-C , 26-H ) :   0.9680 B( 23-C , 24-C ) :   0.9112
B( 23-C , 29-H ) :   0.9675 B( 23-C , 30-H ) :   0.9687 B( 24-C , 27-H ) :   0.9632
B( 24-C , 28-H ) :   0.9762 B( 31-C , 33-C ) :   0.8866 B( 31-C , 38-H ) :   0.9769
B( 31-C , 39-H ) :   0.9787 B( 32-C , 33-C ) :   0.9368 B( 32-C , 34-H ) :   0.9289
B( 32-C , 35-H ) :   0.9356 B( 33-C , 36-H ) :   0.9657 B( 33-C , 37-H ) :   0.9603

FINAL SINGLE POINT ENERGY     -6337.523030513303

DIPOLE MOMENT
-------------
                                X             Y             Z
Electronic contribution:     11.78114      -5.87708      -2.72512
Nuclear contribution   :    -13.35344       6.22505       3.14384
                        -----------------------------------------
Total Dipole Moment    :     -1.57230       0.34797       0.41872
                        -----------------------------------------
Magnitude (a.u.)       :      1.66389
Magnitude (Debye)      :      4.22928

Rotational constants in cm-1:     0.010761     0.000804     0.000783
Rotational constants in MHz :   322.592663    24.115926    23.486810

                             ****ORCA TERMINATED NORMALLY****
TOTAL RUN TIME: 0 days 1 hours 1 minutes 54 seconds 873 msec
