                         Program Version 5.0.4 -  RELEASE  -
|  1> ! nofrozencore ReducedPop printbasis
|  2> ! B3LYP TZVP
|  3>
|  4> %basis
|  5> newgto V "CP(PPP)" end
|  6> end
|  7>
|  8> %pal
|  9> nprocs 6
| 10> end
| 11>
| 12> % sym SymThresh 1e-2 end
| 13> * xyz -2 2
| 14> V 0.1966754918643926 -0.6995013570884989 -0.6807829310016869
| 15> S -1.5391138389171914 0.12618481301626058 -1.6850623881995104
| 16> S 1.4401597673036688 0.9877526767230392 -1.2452310036070873
| 17> S -1.3310661909034758 -1.7233126127152278 0.5553442287980738
| 18> S 1.5924133569352577 -0.7927275893895344 0.9899114027764514
| 19> O 0.7652999805107478 -1.83626918160703 -1.6467924703837147
| 20> C 2.911043178537345 1.1319512982950197 -0.24901614240930103
| 21> C 2.979134113864708 0.30394328227158574 0.7955332784953211
| 22> C -3.0504972788809024 -0.5103128714698509 -1.0362878517561642
| 23> C -2.9502556955813435 -1.353264583510901 -0.006593689324590255
| 24> S 4.408938005591747 2.039328808640861 -0.6818011648641538
| 25> S 4.552168633067519 0.19229159595226153 1.6697808281272508
| 26> S -4.453586452512912 -2.0911645232640015 0.6134697031716347
| 27> S -4.685447925657154 -0.20366513554832524 -1.6949396695127967
| 28> C 5.365921711065626 1.4392702668639095 0.69473299776967
| 29> C -5.534105696038383 -1.2278058388003852 -0.5032031938136015
| 30> C 6.614291448941694 1.9152742049479072 0.9972104224359801
| 31> C -6.898920262056686 -1.3164399961750934 -0.4243546589778571
| 32> S 7.440655240518135 3.11202488169051 -0.03666520780226599
| 33> S 7.545440344322059 1.2787006608059308 2.3793876706366044
| 34> S -7.964138101788374 -0.40915415076648604 -1.5230258987545917
| 35> S -7.736197308317 -2.295072820759353 0.8140806695834844
| 36> C -8.619423953161036 -0.9346522493023692 1.7109052853357527
| 37> C -8.829162370529142 0.6564574712743874 -0.2770702789803879
| 38> C -9.559038575897995 -0.12805214656363573 0.8145706716764661
| 39> H -7.869142293323263 -0.28747618144586407 2.1708353569606347
| 40> H -9.176832997889482 -1.432478901891515 2.5083961491717006
| 41> H -10.111330265498982 0.5858971933240021 1.4415614249716762
| 42> H -10.293545244973464 -0.7984939374678958 0.35752522004637854
| 43> H -9.535602620565871 1.2549875781647475 -0.8575915139846344
| 44> H -8.090668400282595 1.3310648768961375 0.16208394576620938
| 45> C 8.935515448478686 0.5048048890542615 1.4358221502921864
| 46> C 8.842091131802407 2.0429199718183417 -0.6008621075637578
| 47> C 9.685111996556781 1.5064313870172756 0.5569653264945038
| 48> H 8.428919914719065 1.2221210076212192 -1.1928109456205624
| 49> H 9.445316592897457 2.6721429138206667 -1.2609339017267884
| 50> H 10.03508771318715 2.342808504594861 1.1720848342169228
| 51> H 10.573571219152326 1.0092885112826102 0.14058559526327966
| 52> H 9.600331460057856 0.07606241012207061 2.1905125126243443
| 53> H 8.527710993470937 -0.31155197351689135 0.834152746255536
| 54> *
| 55>
| 56> % eprnmr
| 57> gtensor true
| 58> Nuclei = all H {aiso,adip,aorb,fgrad,rho}
| 59> Nuclei = all V {aiso,adip,aorb,fgrad,rho}
| 60> end
| 61>
| 62>                          ****END OF INPUT****

CARTESIAN COORDINATES (ANGSTROEM)
---------------------------------
  V      0.198082   -0.696679   -0.678602
  S     -1.537708    0.129007   -1.682882
  S      1.441566    0.990575   -1.243051
  S     -1.329660   -1.720490    0.557525
  S      1.593819   -0.789905    0.992092
  O      0.766706   -1.833447   -1.644612
  C      2.912449    1.134774   -0.246836
  C      2.980540    0.306766    0.797714
  C     -3.049091   -0.507490   -1.034107
  C     -2.948850   -1.350442   -0.004413
  S      4.410344    2.042151   -0.679621
  S      4.553575    0.195114    1.671961
  S     -4.452180   -2.088342    0.615650
  S     -4.684042   -0.200843   -1.692759
  C      5.367328    1.442093    0.696913
  C     -5.532700   -1.224983   -0.501023
  C      6.615698    1.918097    0.999391
  C     -6.897514   -1.313618   -0.422174
  S      7.442061    3.114847   -0.034485
  S      7.546846    1.281523    2.381568
  S     -7.962732   -0.406332   -1.520845
  S     -7.734791   -2.292250    0.816261
  C     -8.618018   -0.931830    1.713086
  C     -8.827756    0.659280   -0.274890
  C     -9.557632   -0.125230    0.816751
  H     -7.867736   -0.284654    2.173016
  H     -9.175427   -1.429656    2.510577
  H    -10.109924    0.588720    1.443742
  H    -10.292139   -0.795672    0.359706
  H     -9.534197    1.257810   -0.855411
  H     -8.089262    1.333887    0.164264
  C      8.936922    0.507627    1.438003
  C      8.843497    2.045742   -0.598682
  C      9.686518    1.509254    0.559146
  H      8.430326    1.224943   -1.190630
  H      9.446723    2.674965   -1.258753
  H     10.036494    2.345631    1.174265
  H     10.574977    1.012111    0.142766
  H      9.601738    0.078885    2.192693
  H      8.529117   -0.308730    0.836333

 Total Charge           Charge          ....   -2
 Multiplicity           Mult            ....    2
 Number of Electrons    NEL             ....  321
 Basis Dimension        Dim             ....  681

ORBITAL ENERGIES
----------------
                 SPIN UP ORBITALS
  NO   OCC          E(Eh)            E(eV)
   0   1.0000    -196.620503     -5350.3159
   1   1.0000     -88.735007     -2414.6023
   2   1.0000     -88.734887     -2414.5990
   3   1.0000     -88.734184     -2414.5799
   4   1.0000     -88.733925     -2414.5729
   5   1.0000     -88.733892     -2414.5720
   6   1.0000     -88.733455     -2414.5601
   7   1.0000     -88.733327     -2414.5566
   8   1.0000     -88.732714     -2414.5399
   9   1.0000     -88.626156     -2411.6403
  10   1.0000     -88.626052     -2411.6375
  11   1.0000     -88.625469     -2411.6216
  12   1.0000     -88.624999     -2411.6088
  13   1.0000     -22.000501      -598.6641
  14   1.0000     -18.848638      -512.8975
  15   1.0000     -18.506375      -503.5841
  16   1.0000     -18.501810      -503.4598
  17   1.0000     -18.501744      -503.4581
  18   1.0000     -10.079628      -274.2806
  19   1.0000     -10.078726      -274.2561
  20   1.0000     -10.064802      -273.8772
  21   1.0000     -10.064693      -273.8742
  22   1.0000     -10.064159      -273.8597
  23   1.0000     -10.063833      -273.8508
  24   1.0000     -10.051766      -273.5225
  25   1.0000     -10.051676      -273.5200
  26   1.0000     -10.050892      -273.4987
  27   1.0000     -10.050294      -273.4824
  28   1.0000     -10.011653      -272.4309
  29   1.0000     -10.010732      -272.4059
  30   1.0000     -10.009664      -272.3768
  31   1.0000     -10.008768      -272.3524
  32   1.0000      -7.788459      -211.9347
  33   1.0000      -7.788367      -211.9322
  34   1.0000      -7.787539      -211.9097
  35   1.0000      -7.786968      -211.8942
  36   1.0000      -7.786411      -211.8790
  37   1.0000      -7.786365      -211.8778
  38   1.0000      -7.785943      -211.8663
  39   1.0000      -7.785601      -211.8570
  40   1.0000      -7.683729      -209.0849
  41   1.0000      -7.683141      -209.0689
  42   1.0000      -7.682540      -209.0525
  43   1.0000      -7.682215      -209.0437
  44   1.0000      -5.753439      -156.5590
  45   1.0000      -5.753349      -156.5566
  46   1.0000      -5.752554      -156.5350
  47   1.0000      -5.751981      -156.5194
  48   1.0000      -5.751359      -156.5024
  49   1.0000      -5.751314      -156.5012
  50   1.0000      -5.750907      -156.4901
  51   1.0000      -5.750502      -156.4791
  52   1.0000      -5.750071      -156.4674
  53   1.0000      -5.749970      -156.4646
  54   1.0000      -5.749113      -156.4413
  55   1.0000      -5.748498      -156.4246
  56   1.0000      -5.747159      -156.3881
  57   1.0000      -5.747120      -156.3871
  58   1.0000      -5.746610      -156.3732
  59   1.0000      -5.746253      -156.3635
  60   1.0000      -5.743225      -156.2811
  61   1.0000      -5.743135      -156.2787
  62   1.0000      -5.742316      -156.2564
  63   1.0000      -5.742165      -156.2523
  64   1.0000      -5.742121      -156.2511
  65   1.0000      -5.741766      -156.2414
  66   1.0000      -5.741741      -156.2407
  67   1.0000      -5.741432      -156.2323
  68   1.0000      -5.648919      -153.7149
  69   1.0000      -5.648467      -153.7026
  70   1.0000      -5.647858      -153.6860
  71   1.0000      -5.647428      -153.6743
  72   1.0000      -5.641663      -153.5175
  73   1.0000      -5.641228      -153.5056
  74   1.0000      -5.641194      -153.5047
  75   1.0000      -5.640599      -153.4885
  76   1.0000      -5.640405      -153.4832
  77   1.0000      -5.640247      -153.4789
  78   1.0000      -5.639812      -153.4671
  79   1.0000      -5.639635      -153.4623
  80   1.0000      -2.402331       -65.3707
  81   1.0000      -1.442830       -39.2614
  82   1.0000      -1.437956       -39.1288
  83   1.0000      -1.435552       -39.0634
  84   1.0000      -0.710151       -19.3242
  85   1.0000      -0.709210       -19.2986
  86   1.0000      -0.685824       -18.6622
  87   1.0000      -0.684955       -18.6386
  88   1.0000      -0.633191       -17.2300
  89   1.0000      -0.631820       -17.1927
  90   1.0000      -0.618835       -16.8394
  91   1.0000      -0.616910       -16.7870
  92   1.0000      -0.613551       -16.6956
  93   1.0000      -0.577296       -15.7090
  94   1.0000      -0.575180       -15.6514
  95   1.0000      -0.572789       -15.5864
  96   1.0000      -0.569920       -15.5083
  97   1.0000      -0.501665       -13.6510
  98   1.0000      -0.498653       -13.5690
  99   1.0000      -0.493926       -13.4404
 100   1.0000      -0.493806       -13.4371
 101   1.0000      -0.470602       -12.8057
 102   1.0000      -0.465204       -12.6589
 103   1.0000      -0.450335       -12.2542
 104   1.0000      -0.447217       -12.1694
 105   1.0000      -0.415805       -11.3146
 106   1.0000      -0.404770       -11.0144
 107   1.0000      -0.356409        -9.6984
 108   1.0000      -0.356298        -9.6954
 109   1.0000      -0.328809        -8.9474
 110   1.0000      -0.327832        -8.9208
 111   1.0000      -0.318646        -8.6708
 112   1.0000      -0.315410        -8.5827
 113   1.0000      -0.303660        -8.2630
 114   1.0000      -0.302154        -8.2220
 115   1.0000      -0.293237        -7.9794
 116   1.0000      -0.292336        -7.9549
 117   1.0000      -0.260106        -7.0779
 118   1.0000      -0.257724        -7.0130
 119   1.0000      -0.256287        -6.9739
 120   1.0000      -0.255791        -6.9604
 121   1.0000      -0.236463        -6.4345
 122   1.0000      -0.235707        -6.4139
 123   1.0000      -0.233341        -6.3495
 124   1.0000      -0.230982        -6.2853
 125   1.0000      -0.225049        -6.1239
 126   1.0000      -0.218231        -5.9384
 127   1.0000      -0.216171        -5.8823
 128   1.0000      -0.212429        -5.7805
 129   1.0000      -0.196771        -5.3544
 130   1.0000      -0.187444        -5.1006
 131   1.0000      -0.185923        -5.0592
 132   1.0000      -0.185710        -5.0534
 133   1.0000      -0.181502        -4.9389
 134   1.0000      -0.154255        -4.1975
 135   1.0000      -0.152422        -4.1476
 136   1.0000      -0.148174        -4.0320
 137   1.0000      -0.138820        -3.7775
 138   1.0000      -0.135246        -3.6802
 139   1.0000      -0.134009        -3.6466
 140   1.0000      -0.131123        -3.5680
 141   1.0000      -0.102005        -2.7757
 142   1.0000      -0.101649        -2.7660
 143   1.0000      -0.101466        -2.7610
 144   1.0000      -0.097732        -2.6594
 145   1.0000      -0.089974        -2.4483
 146   1.0000      -0.087307        -2.3758
 147   1.0000      -0.085568        -2.3284
 148   1.0000      -0.081845        -2.2271
 149   1.0000      -0.069941        -1.9032
 150   1.0000      -0.067392        -1.8338
 151   1.0000      -0.051941        -1.4134
 152   1.0000      -0.041231        -1.1219
 153   1.0000      -0.033871        -0.9217
 154   1.0000      -0.028726        -0.7817
 155   1.0000      -0.008447        -0.2299
 156   1.0000      -0.001645        -0.0448
 157   1.0000       0.000598         0.0163
 158   1.0000       0.014737         0.4010
 159   1.0000       0.021325         0.5803
 160   1.0000       0.050081         1.3628
 161   0.0000       0.133311         3.6276
 162   0.0000       0.135747         3.6939
 163   0.0000       0.161276         4.3885
 164   0.0000       0.162015         4.4086
 165   0.0000       0.171780         4.6744

                 SPIN DOWN ORBITALS
  NO   OCC          E(Eh)            E(eV)
   0   1.0000    -196.620559     -5350.3174
   1   1.0000     -88.735007     -2414.6023
   2   1.0000     -88.734888     -2414.5990
   3   1.0000     -88.734184     -2414.5799
   4   1.0000     -88.733940     -2414.5733
   5   1.0000     -88.733908     -2414.5724
   6   1.0000     -88.733456     -2414.5601
   7   1.0000     -88.733346     -2414.5571
   8   1.0000     -88.732731     -2414.5404
   9   1.0000     -88.626171     -2411.6407
  10   1.0000     -88.626086     -2411.6384
  11   1.0000     -88.625517     -2411.6229
  12   1.0000     -88.625041     -2411.6100
  13   1.0000     -21.988928      -598.3491
  14   1.0000     -18.851272      -512.9692
  15   1.0000     -18.502311      -503.4735
  16   1.0000     -18.490608      -503.1550
  17   1.0000     -18.488040      -503.0851
  18   1.0000     -10.079582      -274.2794
  19   1.0000     -10.078673      -274.2546
  20   1.0000     -10.064802      -273.8772
  21   1.0000     -10.064693      -273.8742
  22   1.0000     -10.064158      -273.8597
  23   1.0000     -10.063833      -273.8508
  24   1.0000     -10.051766      -273.5225
  25   1.0000     -10.051676      -273.5200
  26   1.0000     -10.050890      -273.4986
  27   1.0000     -10.050284      -273.4821
  28   1.0000     -10.011024      -272.4138
  29   1.0000     -10.010135      -272.3896
  30   1.0000     -10.009098      -272.3614
  31   1.0000     -10.008146      -272.3355
  32   1.0000      -7.788459      -211.9347
  33   1.0000      -7.788367      -211.9322
  34   1.0000      -7.787539      -211.9097
  35   1.0000      -7.786969      -211.8942
  36   1.0000      -7.786427      -211.8794
  37   1.0000      -7.786382      -211.8782
  38   1.0000      -7.785963      -211.8668
  39   1.0000      -7.785619      -211.8575
  40   1.0000      -7.683719      -209.0846
  41   1.0000      -7.683151      -209.0692
  42   1.0000      -7.682561      -209.0531
  43   1.0000      -7.682234      -209.0442
  44   1.0000      -5.753439      -156.5590
  45   1.0000      -5.753349      -156.5566
  46   1.0000      -5.752555      -156.5350
  47   1.0000      -5.751982      -156.5194
  48   1.0000      -5.751382      -156.5031
  49   1.0000      -5.751338      -156.5019
  50   1.0000      -5.750935      -156.4909
  51   1.0000      -5.750527      -156.4798
  52   1.0000      -5.750071      -156.4674
  53   1.0000      -5.749971      -156.4647
  54   1.0000      -5.749114      -156.4413
  55   1.0000      -5.748499      -156.4246
  56   1.0000      -5.747186      -156.3889
  57   1.0000      -5.747151      -156.3879
  58   1.0000      -5.746646      -156.3742
  59   1.0000      -5.746281      -156.3643
  60   1.0000      -5.743226      -156.2811
  61   1.0000      -5.743136      -156.2787
  62   1.0000      -5.742316      -156.2564
  63   1.0000      -5.742176      -156.2525
  64   1.0000      -5.742129      -156.2513
  65   1.0000      -5.741767      -156.2414
  66   1.0000      -5.741755      -156.2411
  67   1.0000      -5.741446      -156.2327
  68   1.0000      -5.649054      -153.7186
  69   1.0000      -5.648611      -153.7065
  70   1.0000      -5.648002      -153.6899
  71   1.0000      -5.647557      -153.6778
  72   1.0000      -5.641701      -153.5185
  73   1.0000      -5.641224      -153.5055
  74   1.0000      -5.641129      -153.5029
  75   1.0000      -5.640644      -153.4897
  76   1.0000      -5.640452      -153.4845
  77   1.0000      -5.640370      -153.4823
  78   1.0000      -5.639873      -153.4687
  79   1.0000      -5.639605      -153.4615
  80   1.0000      -2.366746       -64.4024
  81   1.0000      -1.427489       -38.8440
  82   1.0000      -1.389943       -37.8223
  83   1.0000      -1.385599       -37.7041
  84   1.0000      -0.710075       -19.3221
  85   1.0000      -0.709112       -19.2959
  86   1.0000      -0.685569       -18.6553
  87   1.0000      -0.684685       -18.6312
  88   1.0000      -0.632876       -17.2214
  89   1.0000      -0.631457       -17.1828
  90   1.0000      -0.619001       -16.8439
  91   1.0000      -0.618836       -16.8394
  92   1.0000      -0.616907       -16.7869
  93   1.0000      -0.576830       -15.6963
  94   1.0000      -0.574672       -15.6376
  95   1.0000      -0.572575       -15.5806
  96   1.0000      -0.569728       -15.5031
  97   1.0000      -0.501413       -13.6441
  98   1.0000      -0.498468       -13.5640
  99   1.0000      -0.493844       -13.4382
 100   1.0000      -0.493724       -13.4349
 101   1.0000      -0.469752       -12.7826
 102   1.0000      -0.464411       -12.6373
 103   1.0000      -0.450048       -12.2464
 104   1.0000      -0.447074       -12.1655
 105   1.0000      -0.414829       -11.2881
 106   1.0000      -0.403921       -10.9912
 107   1.0000      -0.356341        -9.6965
 108   1.0000      -0.356229        -9.6935
 109   1.0000      -0.328759        -8.9460
 110   1.0000      -0.327777        -8.9193
 111   1.0000      -0.317996        -8.6531
 112   1.0000      -0.315002        -8.5716
 113   1.0000      -0.303469        -8.2578
 114   1.0000      -0.302002        -8.2179
 115   1.0000      -0.293189        -7.9781
 116   1.0000      -0.292300        -7.9539
 117   1.0000      -0.259353        -7.0574
 118   1.0000      -0.257431        -7.0051
 119   1.0000      -0.256080        -6.9683
 120   1.0000      -0.255643        -6.9564
 121   1.0000      -0.236235        -6.4283
 122   1.0000      -0.235670        -6.4129
 123   1.0000      -0.233183        -6.3452
 124   1.0000      -0.230843        -6.2816
 125   1.0000      -0.223244        -6.0748
 126   1.0000      -0.217654        -5.9227
 127   1.0000      -0.216068        -5.8795
 128   1.0000      -0.212073        -5.7708
 129   1.0000      -0.193381        -5.2622
 130   1.0000      -0.186980        -5.0880
 131   1.0000      -0.185635        -5.0514
 132   1.0000      -0.185105        -5.0370
 133   1.0000      -0.181042        -4.9264
 134   1.0000      -0.151797        -4.1306
 135   1.0000      -0.151530        -4.1233
 136   1.0000      -0.147848        -4.0231
 137   1.0000      -0.138098        -3.7578
 138   1.0000      -0.134573        -3.6619
 139   1.0000      -0.133354        -3.6288
 140   1.0000      -0.129618        -3.5271
 141   1.0000      -0.101482        -2.7615
 142   1.0000      -0.101116        -2.7515
 143   1.0000      -0.100442        -2.7332
 144   1.0000      -0.097657        -2.6574
 145   1.0000      -0.088380        -2.4049
 146   1.0000      -0.087037        -2.3684
 147   1.0000      -0.081681        -2.2227
 148   1.0000      -0.076357        -2.0778
 149   1.0000      -0.069872        -1.9013
 150   1.0000      -0.067329        -1.8321
 151   1.0000      -0.050411        -1.3717
 152   1.0000      -0.041194        -1.1210
 153   1.0000      -0.029935        -0.8146
 154   1.0000      -0.029206        -0.7947
 155   1.0000      -0.009830        -0.2675
 156   1.0000      -0.001502        -0.0409
 157   1.0000       0.003946         0.1074
 158   1.0000       0.017127         0.4660
 159   1.0000       0.048783         1.3275
 160   0.0000       0.133356         3.6288
 161   0.0000       0.135729         3.6934
 162   0.0000       0.146454         3.9852
 163   0.0000       0.161378         4.3913
 164   0.0000       0.162121         4.4116

MULLIKEN ATOMIC CHARGES AND SPIN POPULATIONS
--------------------------------------------
   0 V :    0.126684    1.020973
   1 S :   -0.206081    0.007675
   2 S :   -0.196268    0.003384
   3 S :   -0.206680   -0.001580
   4 S :   -0.191383   -0.003118
   5 O :   -0.458925   -0.104931
   6 C :   -0.087393    0.021578
   7 C :   -0.098201    0.019458
   8 C :   -0.088242    0.020790
   9 C :   -0.101222    0.016243
  10 S :    0.096045   -0.001263
  11 S :    0.098277   -0.001281
  12 S :    0.102070   -0.001405
  13 S :    0.097926   -0.001483
  14 C :   -0.223927    0.002065
  15 C :   -0.188279    0.003140
  16 C :   -0.169112   -0.000048
  17 C :   -0.203564   -0.000015
  18 S :    0.009493   -0.000049
  19 S :    0.009760   -0.000060
  20 S :    0.008911   -0.000102
  21 S :    0.008407   -0.000090
  22 C :   -0.304695    0.000083
  23 C :   -0.306066    0.000063
  24 C :   -0.155044   -0.000044
  25 H :    0.144737   -0.000007
  26 H :    0.115637    0.000009
  27 H :    0.084217    0.000002
  28 H :    0.093640   -0.000002
  29 H :    0.114608    0.000004
  30 H :    0.143668   -0.000007
  31 C :   -0.301000    0.000024
  32 C :   -0.302256    0.000013
  33 C :   -0.167713   -0.000009
  34 H :    0.144659    0.000009
  35 H :    0.116187   -0.000004
  36 H :    0.097886   -0.000004
  37 H :    0.082865   -0.000013
  38 H :    0.116065   -0.000002
  39 H :    0.144308    0.000005
Sum of atomic charges         :   -2.0000000

LOEWDIN ATOMIC CHARGES AND SPIN POPULATIONS
-------------------------------------------
   0 V :   -0.680715    0.958068
   1 S :    0.213514    0.015825
   2 S :    0.213982    0.012082
   3 S :    0.197821    0.006979
   4 S :    0.211645    0.006794
   5 O :   -0.357939   -0.089972
   6 C :   -0.542232    0.025528
   7 C :   -0.543660    0.022051
   8 C :   -0.556082    0.025710
   9 C :   -0.556054    0.019305
  10 S :    0.467964   -0.001148
  11 S :    0.469180   -0.001037
  12 S :    0.477400   -0.001230
  13 S :    0.471997   -0.001542
  14 C :   -0.452329    0.001184
  15 C :   -0.451745    0.001521
  16 C :   -0.617939   -0.000100
  17 C :   -0.619741    0.000259
  18 S :    0.360619   -0.000059
  19 S :    0.362242   -0.000064
  20 S :    0.359402   -0.000105
  21 S :    0.356820   -0.000082
  22 C :   -0.282885    0.000040
  23 C :   -0.283474    0.000018
  24 C :   -0.176361   -0.000007
  25 H :    0.063245   -0.000001
  26 H :    0.054047    0.000006
  27 H :    0.057992    0.000002
  28 H :    0.060383   -0.000001
  29 H :    0.053823    0.000004
  30 H :    0.062651   -0.000002
  31 C :   -0.283743    0.000001
  32 C :   -0.283360   -0.000007
  33 C :   -0.178924   -0.000012
  34 H :    0.063250    0.000001
  35 H :    0.053818   -0.000001
  36 H :    0.060981   -0.000004
  37 H :    0.057467   -0.000002
  38 H :    0.053918   -0.000001
  39 H :    0.063019    0.000000

  Mayer bond orders larger than 0.100000
B(  0-V ,  1-S ) :   0.9448 B(  0-V ,  2-S ) :   0.9537 B(  0-V ,  3-S ) :   0.8972
B(  0-V ,  4-S ) :   0.9405 B(  0-V ,  5-O ) :   2.0740 B(  1-S ,  8-C ) :   1.0411
B(  2-S ,  6-C ) :   1.0346 B(  3-S ,  9-C ) :   1.0770 B(  4-S ,  7-C ) :   1.0488
B(  6-C ,  7-C ) :   1.7194 B(  6-C , 10-S ) :   0.9203 B(  7-C , 11-S ) :   0.9235
B(  8-C ,  9-C ) :   1.7038 B(  8-C , 13-S ) :   0.9319 B(  9-C , 12-S ) :   0.9393
B( 10-S , 14-C ) :   1.2363 B( 11-S , 14-C ) :   1.2372 B( 12-S , 15-C ) :   1.2391
B( 13-S , 15-C ) :   1.2379 B( 14-C , 16-C ) :   1.4602 B( 15-C , 17-C ) :   1.4582
B( 16-C , 18-S ) :   1.0759 B( 16-C , 19-S ) :   1.0794 B( 17-C , 20-S ) :   1.0933
B( 17-C , 21-S ) :   1.0944 B( 18-S , 32-C ) :   0.9899 B( 19-S , 31-C ) :   0.9897
B( 20-S , 23-C ) :   0.9893 B( 21-S , 22-C ) :   0.9868 B( 22-C , 24-C ) :   0.9102
B( 22-C , 25-H ) :   0.9660 B( 22-C , 26-H ) :   0.9660 B( 23-C , 24-C ) :   0.9110
B( 23-C , 29-H ) :   0.9660 B( 23-C , 30-H ) :   0.9656 B( 24-C , 27-H ) :   0.9628
B( 24-C , 28-H ) :   0.9719 B( 31-C , 33-C ) :   0.9092 B( 31-C , 38-H ) :   0.9650
B( 31-C , 39-H ) :   0.9675 B( 32-C , 33-C ) :   0.9086 B( 32-C , 34-H ) :   0.9674
B( 32-C , 35-H ) :   0.9649 B( 33-C , 36-H ) :   0.9718 B( 33-C , 37-H ) :   0.9600

FINAL SINGLE POINT ENERGY     -6337.616183231385

DIPOLE MOMENT
-------------
                                X             Y             Z
Electronic contribution:     -0.57315      -9.09945      -9.09630
Nuclear contribution   :      0.57096      10.40893      10.32496
                        -----------------------------------------
Total Dipole Moment    :     -0.00220       1.30949       1.22866
                        -----------------------------------------
Magnitude (a.u.)       :      1.79565
Magnitude (Debye)      :      4.56419

Rotational constants in cm-1:     0.011521     0.000806     0.000787
Rotational constants in MHz :   345.400916    24.150311    23.601153

                             ****ORCA TERMINATED NORMALLY****
TOTAL RUN TIME: 0 days 1 hours 10 minutes 48 seconds 302 msec
