                         Program Version 5.0.4 -  RELEASE  -
|  1> ! nofrozencore ReducedPop printbasis
|  2> ! B3LYP TZVP
|  3>
|  4> %basis
|  5> newgto V "CP(PPP)" end
|  6> end
|  7>
|  8> %pal
|  9> nprocs 6
| 10> end
| 11>
| 12> % sym SymThresh 1e-2 end
| 13> * xyz -2 2
| 14> V 0.7315857478967577 0.7728140144297582 -0.32646005978726317
| 15> S -1.1763979941512306 1.2652816482972238 -1.8174902532369253
| 16> S -0.6514264074212421 1.7587676983163905 1.4727249952279344
| 17> S 1.163074453931577 -1.165683288202173 -1.8096514192089406
| 18> S 1.6062319363845894 -0.7273922979023153 1.4269527820553844
| 19> O 1.8578871985076548 1.8514204588800067 -0.6303447965414823
| 20> C 0.24826000389856775 1.1998723906518614 2.872996521976605
| 21> C 1.1513898741058008 0.20156877502308987 2.8518387125439473
| 22> C -0.91422040092093 0.14844861090633502 -3.1332064337938146
| 23> C 0.01961059303750863 -0.8203838215019115 -3.1159172596517446
| 24> S -0.07717226068271861 1.9316860328332084 4.476802671207792
| 25> S 1.8832219377707848 -0.2650873141404874 4.426753487180152
| 26> S 0.11963912456113626 -1.9283457644410564 -4.546871577024854
| 27> S -1.9303481419291657 0.18654640074558945 -4.595873425252862
| 28> C 0.9804140806855265 0.9344383251908438 5.422939031516589
| 29> C -1.3861856596960713 -1.0641730465799928 -5.425786871288959
| 30> C 1.1207982470953506 1.0571032254787969 6.778115017948893
| 31> C -1.9331046172360795 -1.4505382313268385 -6.622657930068845
| 32> S 0.2952712608343615 2.243852096150261 7.728223942875321
| 33> S 2.264767476474436 -0.052318752088419365 7.686702940331019
| 34> S -3.092489275151113 -0.8881699774857432 -7.430284033794423
| 35> S -1.037446020216222 -3.109202750279906 -7.435291448684469
| 36> C -2.5293654180862535 -4.195070158160451 -7.425643320166004
| 37> C -4.283717086276991 -2.3111977008876425 -7.3261281801958145
| 38> C -3.762330574000049 -3.5798124225554675 -8.050781923601832
| 39> H -2.7954932252601874 -4.1550281228901005 -6.331043269217622
| 40> H -2.285450345217591 -5.273858646454622 -7.667792181704628
| 41> H -4.577100920505253 -4.317660493650597 -8.041812577193829
| 42> H -3.6314655802964215 -3.2572935450058975 -9.100179415327496
| 43> H -5.020788364424497 -1.9199403736069154 -8.096222895591358
| 44> H -4.805734179191846 -2.426886536390656 -6.3345215941186135
| 45> C 3.4348113899427983 1.2320084042140427 8.321975488808183
| 46> C 1.768807362333889 3.192078926921659 8.331635864193425
| 47> C 2.7608741939536343 2.3369241736056403 9.130724802344853
| 48> H 2.2406545628886283 3.711891968297863 7.4929662303316285
| 49> H 1.3373276296418215 3.940069239015257 9.0049373096843
| 50> H 2.232978357530606 1.9131807054344792 9.991474846608291
| 51> H 3.5422995898419063 3.003073909266034 9.522589642827443
| 52> H 4.204133955669734 0.7087980109003297 8.898092928039834
| 53> H 3.913575292969574 1.6755928412502445 7.444115901995551
| 54> *
| 55>
| 56> % eprnmr
| 57> gtensor true
| 58> Nuclei = all H {aiso,adip,aorb,fgrad,rho}
| 59> Nuclei = all V {aiso,adip,aorb,fgrad,rho}
| 60> end
| 61>
| 62>                          ****END OF INPUT****

CARTESIAN COORDINATES (ANGSTROEM)
---------------------------------
  V      0.729876    0.771180   -0.323443
  S     -1.178108    1.263648   -1.814473
  S     -0.653137    1.757134    1.475742
  S      1.161364   -1.167317   -1.806634
  S      1.604522   -0.729026    1.429970
  O      1.856177    1.849786   -0.627328
  C      0.246550    1.198238    2.876014
  C      1.149680    0.199935    2.854856
  C     -0.915931    0.146815   -3.130189
  C      0.017900   -0.822018   -3.112900
  S     -0.078882    1.930052    4.479820
  S      1.881512   -0.266721    4.429771
  S      0.117929   -1.929980   -4.543854
  S     -1.932058    0.184912   -4.592856
  C      0.978704    0.932804    5.425956
  C     -1.387896   -1.065807   -5.422770
  C      1.119088    1.055469    6.781132
  C     -1.934815   -1.452172   -6.619641
  S      0.293561    2.242218    7.731241
  S      2.263057   -0.053953    7.689720
  S     -3.094199   -0.889804   -7.427267
  S     -1.039156   -3.110837   -7.432274
  C     -2.531076   -4.196704   -7.422626
  C     -4.285427   -2.312832   -7.323111
  C     -3.764041   -3.581446   -8.047765
  H     -2.797203   -4.156662   -6.328026
  H     -2.287161   -5.275493   -7.664775
  H     -4.578811   -4.319295   -8.038795
  H     -3.633176   -3.258928   -9.097162
  H     -5.022499   -1.921574   -8.093206
  H     -4.807444   -2.428521   -6.331504
  C      3.433101    1.230374    8.324993
  C      1.767097    3.190445    8.334653
  C      2.759164    2.335290    9.133742
  H      2.238944    3.710258    7.495983
  H      1.335617    3.938435    9.007955
  H      2.231268    1.911547    9.994492
  H      3.540589    3.001440    9.525607
  H      4.202424    0.707164    8.901110
  H      3.911865    1.673959    7.447133

 Total Charge           Charge          ....   -2
 Multiplicity           Mult            ....    2
 Number of Electrons    NEL             ....  321
 Basis Dimension        Dim             ....  681

ORBITAL ENERGIES
----------------
                 SPIN UP ORBITALS
  NO   OCC          E(Eh)            E(eV)
   0   1.0000    -196.677341     -5351.8625
   1   1.0000     -88.734958     -2414.6010
   2   1.0000     -88.733977     -2414.5743
   3   1.0000     -88.733949     -2414.5735
   4   1.0000     -88.733626     -2414.5647
   5   1.0000     -88.732698     -2414.5395
   6   1.0000     -88.731564     -2414.5086
   7   1.0000     -88.731513     -2414.5072
   8   1.0000     -88.715900     -2414.0824
   9   1.0000     -88.643853     -2412.1219
  10   1.0000     -88.642361     -2412.0813
  11   1.0000     -88.641874     -2412.0680
  12   1.0000     -88.641337     -2412.0534
  13   1.0000     -22.052716      -600.0849
  14   1.0000     -18.892649      -514.0951
  15   1.0000     -18.559147      -505.0201
  16   1.0000     -18.554000      -504.8800
  17   1.0000     -18.553899      -504.8773
  18   1.0000     -10.076982      -274.2086
  19   1.0000     -10.075918      -274.1797
  20   1.0000     -10.065219      -273.8885
  21   1.0000     -10.064756      -273.8759
  22   1.0000     -10.064000      -273.8554
  23   1.0000     -10.062026      -273.8017
  24   1.0000     -10.052079      -273.5310
  25   1.0000     -10.050767      -273.4953
  26   1.0000     -10.049140      -273.4510
  27   1.0000     -10.040948      -273.2281
  28   1.0000     -10.022946      -272.7382
  29   1.0000     -10.020846      -272.6811
  30   1.0000     -10.019820      -272.6532
  31   1.0000     -10.019015      -272.6313
  32   1.0000      -7.793543      -212.0731
  33   1.0000      -7.792131      -212.0347
  34   1.0000      -7.789153      -211.9536
  35   1.0000      -7.785573      -211.8562
  36   1.0000      -7.785560      -211.8558
  37   1.0000      -7.784099      -211.8161
  38   1.0000      -7.783727      -211.8060
  39   1.0000      -7.767906      -211.3755
  40   1.0000      -7.697803      -209.4679
  41   1.0000      -7.696951      -209.4447
  42   1.0000      -7.696076      -209.4209
  43   1.0000      -7.695636      -209.4089
  44   1.0000      -5.758047      -156.6844
  45   1.0000      -5.756160      -156.6331
  46   1.0000      -5.754117      -156.5775
  47   1.0000      -5.753857      -156.5704
  48   1.0000      -5.751901      -156.5172
  49   1.0000      -5.750547      -156.4803
  50   1.0000      -5.750545      -156.4803
  51   1.0000      -5.750358      -156.4752
  52   1.0000      -5.749387      -156.4488
  53   1.0000      -5.749194      -156.4435
  54   1.0000      -5.748804      -156.4329
  55   1.0000      -5.748647      -156.4286
  56   1.0000      -5.747305      -156.3921
  57   1.0000      -5.745975      -156.3559
  58   1.0000      -5.744718      -156.3217
  59   1.0000      -5.744662      -156.3202
  60   1.0000      -5.744014      -156.3026
  61   1.0000      -5.741517      -156.2346
  62   1.0000      -5.740294      -156.2013
  63   1.0000      -5.739801      -156.1879
  64   1.0000      -5.739002      -156.1662
  65   1.0000      -5.732582      -155.9915
  66   1.0000      -5.730054      -155.9227
  67   1.0000      -5.722676      -155.7219
  68   1.0000      -5.663182      -154.1030
  69   1.0000      -5.662270      -154.0782
  70   1.0000      -5.661397      -154.0544
  71   1.0000      -5.660959      -154.0425
  72   1.0000      -5.656432      -153.9193
  73   1.0000      -5.655609      -153.8970
  74   1.0000      -5.655149      -153.8844
  75   1.0000      -5.654734      -153.8731
  76   1.0000      -5.654320      -153.8619
  77   1.0000      -5.654221      -153.8592
  78   1.0000      -5.653396      -153.8367
  79   1.0000      -5.652934      -153.8241
  80   1.0000      -2.446382       -66.5695
  81   1.0000      -1.487664       -40.4814
  82   1.0000      -1.476050       -40.1654
  83   1.0000      -1.475218       -40.1427
  84   1.0000      -0.728516       -19.8239
  85   1.0000      -0.711230       -19.3535
  86   1.0000      -0.692819       -18.8526
  87   1.0000      -0.686945       -18.6927
  88   1.0000      -0.652169       -17.7464
  89   1.0000      -0.649119       -17.6634
  90   1.0000      -0.634100       -17.2547
  91   1.0000      -0.616770       -16.7832
  92   1.0000      -0.606341       -16.4994
  93   1.0000      -0.588114       -16.0034
  94   1.0000      -0.578497       -15.7417
  95   1.0000      -0.572046       -15.5662
  96   1.0000      -0.561925       -15.2908
  97   1.0000      -0.498772       -13.5723
  98   1.0000      -0.497301       -13.5322
  99   1.0000      -0.495588       -13.4856
 100   1.0000      -0.487041       -13.2530
 101   1.0000      -0.480580       -13.0772
 102   1.0000      -0.478269       -13.0144
 103   1.0000      -0.447097       -12.1661
 104   1.0000      -0.436802       -11.8860
 105   1.0000      -0.417458       -11.3596
 106   1.0000      -0.412869       -11.2347
 107   1.0000      -0.356220        -9.6932
 108   1.0000      -0.353484        -9.6188
 109   1.0000      -0.327710        -8.9174
 110   1.0000      -0.325983        -8.8705
 111   1.0000      -0.323312        -8.7978
 112   1.0000      -0.317896        -8.6504
 113   1.0000      -0.304741        -8.2924
 114   1.0000      -0.298917        -8.1340
 115   1.0000      -0.292726        -7.9655
 116   1.0000      -0.279999        -7.6192
 117   1.0000      -0.270404        -7.3581
 118   1.0000      -0.260863        -7.0984
 119   1.0000      -0.254826        -6.9342
 120   1.0000      -0.243181        -6.6173
 121   1.0000      -0.240907        -6.5554
 122   1.0000      -0.235237        -6.4011
 123   1.0000      -0.231549        -6.3008
 124   1.0000      -0.223885        -6.0922
 125   1.0000      -0.219454        -5.9717
 126   1.0000      -0.216714        -5.8971
 127   1.0000      -0.215200        -5.8559
 128   1.0000      -0.209520        -5.7013
 129   1.0000      -0.196261        -5.3405
 130   1.0000      -0.193238        -5.2583
 131   1.0000      -0.187886        -5.1126
 132   1.0000      -0.182562        -4.9678
 133   1.0000      -0.172540        -4.6950
 134   1.0000      -0.163672        -4.4537
 135   1.0000      -0.152465        -4.1488
 136   1.0000      -0.147158        -4.0044
 137   1.0000      -0.137469        -3.7407
 138   1.0000      -0.136112        -3.7038
 139   1.0000      -0.133805        -3.6410
 140   1.0000      -0.127019        -3.4564
 141   1.0000      -0.122526        -3.3341
 142   1.0000      -0.115667        -3.1475
 143   1.0000      -0.111213        -3.0263
 144   1.0000      -0.100868        -2.7448
 145   1.0000      -0.098789        -2.6882
 146   1.0000      -0.096249        -2.6191
 147   1.0000      -0.085792        -2.3345
 148   1.0000      -0.076750        -2.0885
 149   1.0000      -0.068210        -1.8561
 150   1.0000      -0.060059        -1.6343
 151   1.0000      -0.054619        -1.4863
 152   1.0000      -0.047519        -1.2931
 153   1.0000      -0.039678        -1.0797
 154   1.0000      -0.037703        -1.0259
 155   1.0000      -0.031438        -0.8555
 156   1.0000      -0.027177        -0.7395
 157   1.0000      -0.021476        -0.5844
 158   1.0000      -0.017512        -0.4765
 159   1.0000       0.017906         0.4873
 160   1.0000       0.038613         1.0507
 161   0.0000       0.122931         3.3451
 162   0.0000       0.134576         3.6620
 163   0.0000       0.135406         3.6846
 164   0.0000       0.159311         4.3351
 165   0.0000       0.164689         4.4814

                 SPIN DOWN ORBITALS
  NO   OCC          E(Eh)            E(eV)
   0   1.0000    -196.677487     -5351.8665
   1   1.0000     -88.734958     -2414.6010
   2   1.0000     -88.733986     -2414.5745
   3   1.0000     -88.733949     -2414.5735
   4   1.0000     -88.733633     -2414.5649
   5   1.0000     -88.732699     -2414.5395
   6   1.0000     -88.731572     -2414.5088
   7   1.0000     -88.731522     -2414.5075
   8   1.0000     -88.715901     -2414.0824
   9   1.0000     -88.643995     -2412.1257
  10   1.0000     -88.642490     -2412.0848
  11   1.0000     -88.642017     -2412.0719
  12   1.0000     -88.641478     -2412.0572
  13   1.0000     -22.037786      -599.6786
  14   1.0000     -18.896434      -514.1981
  15   1.0000     -18.553879      -504.8767
  16   1.0000     -18.537965      -504.4437
  17   1.0000     -18.537787      -504.4388
  18   1.0000     -10.076976      -274.2085
  19   1.0000     -10.075919      -274.1797
  20   1.0000     -10.065219      -273.8885
  21   1.0000     -10.064755      -273.8759
  22   1.0000     -10.063999      -273.8553
  23   1.0000     -10.062026      -273.8017
  24   1.0000     -10.052079      -273.5310
  25   1.0000     -10.050767      -273.4953
  26   1.0000     -10.049129      -273.4507
  27   1.0000     -10.040944      -273.2280
  28   1.0000     -10.022734      -272.7325
  29   1.0000     -10.020632      -272.6753
  30   1.0000     -10.019585      -272.6468
  31   1.0000     -10.018788      -272.6251
  32   1.0000      -7.793543      -212.0731
  33   1.0000      -7.792142      -212.0350
  34   1.0000      -7.789154      -211.9536
  35   1.0000      -7.785583      -211.8565
  36   1.0000      -7.785561      -211.8559
  37   1.0000      -7.784108      -211.8164
  38   1.0000      -7.783735      -211.8062
  39   1.0000      -7.767907      -211.3755
  40   1.0000      -7.697936      -209.4715
  41   1.0000      -7.697071      -209.4480
  42   1.0000      -7.696209      -209.4245
  43   1.0000      -7.695767      -209.4125
  44   1.0000      -5.758048      -156.6844
  45   1.0000      -5.756176      -156.6335
  46   1.0000      -5.754118      -156.5775
  47   1.0000      -5.753857      -156.5704
  48   1.0000      -5.751915      -156.5176
  49   1.0000      -5.750548      -156.4804
  50   1.0000      -5.750546      -156.4803
  51   1.0000      -5.750370      -156.4755
  52   1.0000      -5.749393      -156.4489
  53   1.0000      -5.749204      -156.4438
  54   1.0000      -5.748805      -156.4329
  55   1.0000      -5.748655      -156.4288
  56   1.0000      -5.747306      -156.3921
  57   1.0000      -5.745989      -156.3563
  58   1.0000      -5.744732      -156.3221
  59   1.0000      -5.744676      -156.3206
  60   1.0000      -5.744015      -156.3026
  61   1.0000      -5.741525      -156.2348
  62   1.0000      -5.740295      -156.2014
  63   1.0000      -5.739810      -156.1882
  64   1.0000      -5.739006      -156.1663
  65   1.0000      -5.732584      -155.9915
  66   1.0000      -5.730056      -155.9228
  67   1.0000      -5.722677      -155.7220
  68   1.0000      -5.663325      -154.1069
  69   1.0000      -5.662407      -154.0819
  70   1.0000      -5.661537      -154.0582
  71   1.0000      -5.661101      -154.0464
  72   1.0000      -5.656803      -153.9294
  73   1.0000      -5.655936      -153.9058
  74   1.0000      -5.655255      -153.8873
  75   1.0000      -5.655130      -153.8839
  76   1.0000      -5.654700      -153.8722
  77   1.0000      -5.654323      -153.8620
  78   1.0000      -5.653485      -153.8391
  79   1.0000      -5.653027      -153.8267
  80   1.0000      -2.401504       -65.3482
  81   1.0000      -1.468361       -39.9561
  82   1.0000      -1.413718       -38.4692
  83   1.0000      -1.413473       -38.4626
  84   1.0000      -0.728509       -19.8237
  85   1.0000      -0.711203       -19.3528
  86   1.0000      -0.692781       -18.8515
  87   1.0000      -0.686890       -18.6912
  88   1.0000      -0.660261       -17.9666
  89   1.0000      -0.649125       -17.6636
  90   1.0000      -0.634032       -17.2529
  91   1.0000      -0.616762       -16.7830
  92   1.0000      -0.606265       -16.4973
  93   1.0000      -0.588096       -16.0029
  94   1.0000      -0.578451       -15.7404
  95   1.0000      -0.571981       -15.5644
  96   1.0000      -0.561889       -15.2898
  97   1.0000      -0.498795       -13.5729
  98   1.0000      -0.497330       -13.5330
  99   1.0000      -0.495633       -13.4868
 100   1.0000      -0.487176       -13.2567
 101   1.0000      -0.480743       -13.0817
 102   1.0000      -0.478458       -13.0195
 103   1.0000      -0.447127       -12.1669
 104   1.0000      -0.436840       -11.8870
 105   1.0000      -0.417452       -11.3594
 106   1.0000      -0.412966       -11.2374
 107   1.0000      -0.356210        -9.6930
 108   1.0000      -0.353481        -9.6187
 109   1.0000      -0.327694        -8.9170
 110   1.0000      -0.325966        -8.8700
 111   1.0000      -0.323282        -8.7970
 112   1.0000      -0.317897        -8.6504
 113   1.0000      -0.304694        -8.2912
 114   1.0000      -0.298872        -8.1327
 115   1.0000      -0.292721        -7.9653
 116   1.0000      -0.279997        -7.6191
 117   1.0000      -0.270335        -7.3562
 118   1.0000      -0.260799        -7.0967
 119   1.0000      -0.254733        -6.9316
 120   1.0000      -0.243122        -6.6157
 121   1.0000      -0.240830        -6.5533
 122   1.0000      -0.235206        -6.4003
 123   1.0000      -0.231513        -6.2998
 124   1.0000      -0.223566        -6.0835
 125   1.0000      -0.219213        -5.9651
 126   1.0000      -0.216564        -5.8930
 127   1.0000      -0.215090        -5.8529
 128   1.0000      -0.209478        -5.7002
 129   1.0000      -0.194470        -5.2918
 130   1.0000      -0.193145        -5.2557
 131   1.0000      -0.187627        -5.1056
 132   1.0000      -0.182389        -4.9631
 133   1.0000      -0.172380        -4.6907
 134   1.0000      -0.163097        -4.4381
 135   1.0000      -0.152260        -4.1432
 136   1.0000      -0.147009        -4.0003
 137   1.0000      -0.136547        -3.7156
 138   1.0000      -0.135946        -3.6993
 139   1.0000      -0.133612        -3.6358
 140   1.0000      -0.126576        -3.4443
 141   1.0000      -0.122211        -3.3255
 142   1.0000      -0.117487        -3.1970
 143   1.0000      -0.112875        -3.0715
 144   1.0000      -0.100908        -2.7458
 145   1.0000      -0.099010        -2.6942
 146   1.0000      -0.096440        -2.6243
 147   1.0000      -0.085746        -2.3333
 148   1.0000      -0.073074        -1.9884
 149   1.0000      -0.068199        -1.8558
 150   1.0000      -0.059998        -1.6326
 151   1.0000      -0.052040        -1.4161
 152   1.0000      -0.046573        -1.2673
 153   1.0000      -0.039062        -1.0629
 154   1.0000      -0.037767        -1.0277
 155   1.0000      -0.031398        -0.8544
 156   1.0000      -0.028168        -0.7665
 157   1.0000      -0.017754        -0.4831
 158   1.0000       0.018212         0.4956
 159   1.0000       0.037504         1.0205
 160   0.0000       0.123189         3.3522
 161   0.0000       0.134732         3.6662
 162   0.0000       0.135424         3.6851
 163   0.0000       0.154073         4.1925
 164   0.0000       0.160470         4.3666

MULLIKEN ATOMIC CHARGES AND SPIN POPULATIONS
--------------------------------------------
   0 V :    0.469863    1.210527
   1 S :   -0.287733   -0.020765
   2 S :   -0.289091   -0.024954
   3 S :   -0.280655   -0.024131
   4 S :   -0.284107   -0.026323
   5 O :   -0.466083   -0.146853
   6 C :   -0.083068    0.009853
   7 C :   -0.078389    0.007914
   8 C :   -0.115354    0.007264
   9 C :   -0.057012    0.007759
  10 S :    0.110898   -0.000615
  11 S :    0.092165   -0.000620
  12 S :    0.066426   -0.000274
  13 S :    0.167577   -0.000509
  14 C :   -0.214384    0.001512
  15 C :   -0.226691    0.000923
  16 C :   -0.191886   -0.000050
  17 C :   -0.199485   -0.000368
  18 S :    0.026008   -0.000099
  19 S :   -0.007131   -0.000134
  20 S :    0.104986   -0.000035
  21 S :   -0.094323   -0.000190
  22 C :   -0.298739    0.000001
  23 C :   -0.286846   -0.000002
  24 C :   -0.158682   -0.000005
  25 H :    0.135085   -0.000002
  26 H :    0.130339   -0.000008
  27 H :    0.083592   -0.000001
  28 H :    0.088234   -0.000000
  29 H :    0.073438   -0.000006
  30 H :    0.143100   -0.000003
  31 C :   -0.300724    0.000188
  32 C :   -0.299038    0.000199
  33 C :   -0.158410   -0.000236
  34 H :    0.142839   -0.000017
  35 H :    0.107502    0.000021
  36 H :    0.092455    0.000023
  37 H :    0.083038    0.000015
  38 H :    0.119122    0.000018
  39 H :    0.141160   -0.000019
Sum of atomic charges         :   -2.0000000

LOEWDIN ATOMIC CHARGES AND SPIN POPULATIONS
-------------------------------------------
   0 V :   -0.154999    1.163955
   1 S :    0.086571   -0.013093
   2 S :    0.081171   -0.015813
   3 S :    0.081532   -0.015924
   4 S :    0.082857   -0.016904
   5 O :   -0.317901   -0.131756
   6 C :   -0.552332    0.009210
   7 C :   -0.549312    0.007796
   8 C :   -0.563379    0.007801
   9 C :   -0.539211    0.008009
  10 S :    0.488756   -0.000934
  11 S :    0.456771   -0.000931
  12 S :    0.403789   -0.000678
  13 S :    0.574324   -0.001005
  14 C :   -0.465360    0.000161
  15 C :   -0.473439   -0.000158
  16 C :   -0.622615    0.000488
  17 C :   -0.631359    0.000099
  18 S :    0.383203   -0.000074
  19 S :    0.336019   -0.000106
  20 S :    0.495630   -0.000048
  21 S :    0.214296   -0.000175
  22 C :   -0.313382   -0.000006
  23 C :   -0.295990   -0.000006
  24 C :   -0.179164   -0.000002
  25 H :    0.068394   -0.000003
  26 H :    0.063292   -0.000006
  27 H :    0.059289   -0.000002
  28 H :    0.057979   -0.000000
  29 H :    0.051909   -0.000003
  30 H :    0.067549   -0.000002
  31 C :   -0.287158    0.000035
  32 C :   -0.282126    0.000049
  33 C :   -0.176409    0.000006
  34 H :    0.062231   -0.000000
  35 H :    0.052794    0.000009
  36 H :    0.060273    0.000004
  37 H :    0.058007    0.000002
  38 H :    0.055044    0.000007
  39 H :    0.062459   -0.000001

  Mayer bond orders larger than 0.100000
B(  0-V ,  1-S ) :   0.7665 B(  0-V ,  2-S ) :   0.7740 B(  0-V ,  3-S ) :   0.7619
B(  0-V ,  4-S ) :   0.7815 B(  0-V ,  5-O ) :   2.1501 B(  1-S ,  8-C ) :   1.1167
B(  2-S ,  6-C ) :   1.1050 B(  3-S ,  9-C ) :   1.1041 B(  4-S ,  7-C ) :   1.1022
B(  6-C ,  7-C ) :   1.6841 B(  6-C , 10-S ) :   0.9377 B(  7-C , 11-S ) :   0.9374
B(  8-C ,  9-C ) :   1.6833 B(  8-C , 13-S ) :   0.9452 B(  9-C , 12-S ) :   0.9308
B( 10-S , 14-C ) :   1.2774 B( 11-S , 14-C ) :   1.2193 B( 12-S , 15-C ) :   1.1099
B( 13-S , 15-C ) :   1.4153 B( 14-C , 16-C ) :   1.4521 B( 15-C , 17-C ) :   1.4366
B( 16-C , 18-S ) :   1.1353 B( 16-C , 19-S ) :   1.0458 B( 17-C , 20-S ) :   1.4020
B( 17-C , 21-S ) :   0.8566 B( 18-S , 32-C ) :   0.9863 B( 19-S , 31-C ) :   0.9942
B( 20-S , 23-C ) :   0.9189 B( 21-S , 22-C ) :   0.9983 B( 22-C , 24-C ) :   0.8973
B( 22-C , 25-H ) :   0.9902 B( 22-C , 26-H ) :   0.9479 B( 23-C , 24-C ) :   0.9271
B( 23-C , 29-H ) :   0.9767 B( 23-C , 30-H ) :   0.9305 B( 24-C , 27-H ) :   0.9664
B( 24-C , 28-H ) :   0.9706 B( 31-C , 33-C ) :   0.9106 B( 31-C , 38-H ) :   0.9620
B( 31-C , 39-H ) :   0.9717 B( 32-C , 33-C ) :   0.9165 B( 32-C , 34-H ) :   0.9591
B( 32-C , 35-H ) :   0.9689 B( 33-C , 36-H ) :   0.9718 B( 33-C , 37-H ) :   0.9626

FINAL SINGLE POINT ENERGY     -6337.614821083636

DIPOLE MOMENT
-------------
                                X             Y             Z
Electronic contribution:      7.73066       9.03855      -6.71363
Nuclear contribution   :     -8.64356      -9.53685       7.89446
                        -----------------------------------------
Total Dipole Moment    :     -0.91289      -0.49830       1.18082
                        -----------------------------------------
Magnitude (a.u.)       :      1.57354
Magnitude (Debye)      :      3.99962

Rotational constants in cm-1:     0.010749     0.000804     0.000783
Rotational constants in MHz :   322.252133    24.115950    23.484811

                             ****ORCA TERMINATED NORMALLY****
TOTAL RUN TIME: 0 days 1 hours 6 minutes 32 seconds 638 msec
