                         Program Version 5.0.4 -  RELEASE  -
|  1> ! nofrozencore ReducedPop printbasis
|  2> ! B3LYP TZVP
|  3>
|  4> %basis
|  5> newgto V "CP(PPP)" end
|  6> end
|  7>
|  8> %pal
|  9> nprocs 6
| 10> end
| 11>
| 12> % sym SymThresh 1e-2 end
| 13> * xyz -2 2
| 14> V -0.13767744597214637 -0.8406312658484932 0.7120404695349463
| 15> S 0.22520875218237962 -2.0653389302800607 -1.4083181373699163
| 16> S 2.2771312951417975 -0.36527288719584927 0.5920651385772074
| 17> S -2.4239202231220625 -0.3307959717288191 -0.12077084562458261
| 18> S -0.364818045815859 1.3638039389905634 1.7630617548778376
| 19> O -0.2999413266704796 -1.930322336806849 1.8560056649042584
| 20> C 2.361372632236383 0.9186020564405873 1.7959393436734263
| 21> C 1.305869659419065 1.6130300566017166 2.2622235307975638
| 22> C -1.4234339467526125 -2.066960770486226 -2.0450259019406745
| 23> C -2.4653499300162753 -1.3798671750474967 -1.537801277468642
| 24> S 3.970305810250778 1.3995151655772171 2.4382969264962973
| 25> S 1.673428544973131 2.9213749596557657 3.4388776338732066
| 26> S -4.005532230482388 -1.4786819946567702 -2.46636294903521
| 27> S -1.7490581312247668 -2.9755860322979664 -3.567893501143044
| 28> C 3.439306298831371 2.77055717412231 3.428045673692264
| 29> C -3.4716360817993395 -2.583905811968966 -3.7468463527278417
| 30> C 4.283742387168131 3.5729225149742754 4.157579570222797
| 31> C -4.267115077931884 -3.0131962597461994 -4.788550035628205
| 32> S 6.04325645918302 3.2419816774395827 4.270294936674834
| 33> S 3.6548501354211274 4.849149342480073 5.249230039649743
| 34> S -3.577216674962535 -3.9317370326171464 -6.1772164918602215
| 35> S -5.927904561522269 -2.354561152648091 -5.036340931206402
| 36> C -5.664076209928672 -1.3887607839194236 -6.598996807989571
| 37> C -3.7614089758551157 -2.6745004490731787 -7.5295438798146295
| 38> C -5.229745368234682 -2.3029472827867288 -7.746816922319394
| 39> H -4.902787106572322 -0.6118909676522075 -6.4173161796831275
| 40> H -6.627641967874672 -0.8924223634781246 -6.79267778248317
| 41> H -5.3542843828706905 -1.7824413861910682 -8.722090217027928
| 42> H -5.857862658828313 -3.2174531624761835 -7.765769740783388
| 43> H -3.3078667984474923 -3.144272146286531 -8.415545297113518
| 44> H -3.1734289309413475 -1.7785132273982573 -7.271155494171122
| 45> C 4.188787281278083 4.15568052422544 6.88292093496521
| 46> C 6.1592778073332415 2.8196216143910036 6.071863200026519
| 47> C 5.7031790406542475 3.9702306773104072 6.968597266520389
| 48> H 5.558755617866247 1.922480363289192 6.261425232066809
| 49> H 7.212982551074618 2.5703697152081206 6.238824019707802
| 50> H 6.212034564449527 4.899187292142692 6.67298227890918
| 51> H 5.984749249836383 3.7519364100939234 8.013129116082453
| 52> H 3.826437980777774 4.872294402146095 7.628078897148033
| 53> H 3.673988001570892 3.2015003588305246 7.043517282401537
| 54> *
| 55>
| 56> % eprnmr
| 57> gtensor true
| 58> Nuclei = all H {aiso,adip,aorb,fgrad,rho}
| 59> Nuclei = all V {aiso,adip,aorb,fgrad,rho}
| 60> end
| 61>
| 62>                          ****END OF INPUT****

CARTESIAN COORDINATES (ANGSTROEM)
---------------------------------
  V     -0.135823   -0.837337    0.711402
  S      0.227063   -2.062045   -1.408956
  S      2.278986   -0.361979    0.591427
  S     -2.422066   -0.327502   -0.121409
  S     -0.362964    1.367098    1.762424
  O     -0.298087   -1.927028    1.855368
  C      2.363227    0.921896    1.795301
  C      1.307724    1.616324    2.261585
  C     -1.421579   -2.063667   -2.045664
  C     -2.463495   -1.376573   -1.538439
  S      3.972160    1.402809    2.437659
  S      1.675283    2.924669    3.438240
  S     -4.003678   -1.475388   -2.467001
  S     -1.747204   -2.972292   -3.568532
  C      3.441161    2.773851    3.427408
  C     -3.469782   -2.580612   -3.747484
  C      4.285597    3.576217    4.156942
  C     -4.265261   -3.009902   -4.789188
  S      6.045111    3.245276    4.269657
  S      3.656705    4.852444    5.248592
  S     -3.575362   -3.928443   -6.177855
  S     -5.926050   -2.351267   -5.036979
  C     -5.662222   -1.385467   -6.599635
  C     -3.759554   -2.671206   -7.530182
  C     -5.227891   -2.299653   -7.747455
  H     -4.900933   -0.608597   -6.417954
  H     -6.625787   -0.889128   -6.793316
  H     -5.352430   -1.779147   -8.722728
  H     -5.856008   -3.214159   -7.766408
  H     -3.306012   -3.140978   -8.416183
  H     -3.171574   -1.775219   -7.271794
  C      4.190642    4.158975    6.882283
  C      6.161132    2.822916    6.071225
  C      5.705034    3.973525    6.967959
  H      5.560610    1.925775    6.260787
  H      7.214837    2.573664    6.238186
  H      6.213889    4.902481    6.672344
  H      5.986604    3.755231    8.012491
  H      3.828293    4.875589    7.627441
  H      3.675843    3.204795    7.042879

 Total Charge           Charge          ....   -2
 Multiplicity           Mult            ....    2
 Number of Electrons    NEL             ....  321
 Basis Dimension        Dim             ....  681

ORBITAL ENERGIES
----------------
                 SPIN UP ORBITALS
  NO   OCC          E(Eh)            E(eV)
   0   1.0000    -196.675702     -5351.8179
   1   1.0000     -88.734176     -2414.5797
   2   1.0000     -88.734056     -2414.5764
   3   1.0000     -88.733319     -2414.5564
   4   1.0000     -88.733246     -2414.5544
   5   1.0000     -88.731735     -2414.5133
   6   1.0000     -88.731713     -2414.5127
   7   1.0000     -88.731403     -2414.5042
   8   1.0000     -88.731234     -2414.4996
   9   1.0000     -88.642038     -2412.0725
  10   1.0000     -88.641998     -2412.0714
  11   1.0000     -88.641768     -2412.0651
  12   1.0000     -88.641301     -2412.0524
  13   1.0000     -22.051130      -600.0418
  14   1.0000     -18.891349      -514.0598
  15   1.0000     -18.557581      -504.9774
  16   1.0000     -18.552386      -504.8361
  17   1.0000     -18.552309      -504.8340
  18   1.0000     -10.079260      -274.2706
  19   1.0000     -10.078622      -274.2532
  20   1.0000     -10.064731      -273.8752
  21   1.0000     -10.064657      -273.8732
  22   1.0000     -10.064593      -273.8715
  23   1.0000     -10.064495      -273.8688
  24   1.0000     -10.051852      -273.5248
  25   1.0000     -10.051626      -273.5187
  26   1.0000     -10.051443      -273.5137
  27   1.0000     -10.051423      -273.5131
  28   1.0000     -10.021085      -272.6876
  29   1.0000     -10.020645      -272.6756
  30   1.0000     -10.020297      -272.6661
  31   1.0000     -10.019748      -272.6512
  32   1.0000      -7.787351      -211.9046
  33   1.0000      -7.787262      -211.9022
  34   1.0000      -7.786319      -211.8765
  35   1.0000      -7.786262      -211.8750
  36   1.0000      -7.784843      -211.8363
  37   1.0000      -7.784806      -211.8353
  38   1.0000      -7.784359      -211.8232
  39   1.0000      -7.784252      -211.8203
  40   1.0000      -7.696289      -209.4267
  41   1.0000      -7.696047      -209.4201
  42   1.0000      -7.696011      -209.4191
  43   1.0000      -7.695400      -209.4025
  44   1.0000      -5.752425      -156.5314
  45   1.0000      -5.752327      -156.5288
  46   1.0000      -5.751445      -156.5048
  47   1.0000      -5.751387      -156.5032
  48   1.0000      -5.749793      -156.4598
  49   1.0000      -5.749759      -156.4589
  50   1.0000      -5.749322      -156.4470
  51   1.0000      -5.749213      -156.4441
  52   1.0000      -5.748931      -156.4364
  53   1.0000      -5.748836      -156.4338
  54   1.0000      -5.747908      -156.4085
  55   1.0000      -5.747837      -156.4066
  56   1.0000      -5.745337      -156.3386
  57   1.0000      -5.745305      -156.3377
  58   1.0000      -5.744843      -156.3251
  59   1.0000      -5.744722      -156.3218
  60   1.0000      -5.742105      -156.2506
  61   1.0000      -5.742026      -156.2485
  62   1.0000      -5.741047      -156.2218
  63   1.0000      -5.741004      -156.2207
  64   1.0000      -5.740701      -156.2124
  65   1.0000      -5.740666      -156.2115
  66   1.0000      -5.740241      -156.1999
  67   1.0000      -5.740145      -156.1973
  68   1.0000      -5.661641      -154.0611
  69   1.0000      -5.661477      -154.0566
  70   1.0000      -5.661379      -154.0540
  71   1.0000      -5.660800      -154.0382
  72   1.0000      -5.654897      -153.8776
  73   1.0000      -5.654730      -153.8730
  74   1.0000      -5.654647      -153.8708
  75   1.0000      -5.654101      -153.8559
  76   1.0000      -5.653593      -153.8421
  77   1.0000      -5.653294      -153.8340
  78   1.0000      -5.653288      -153.8338
  79   1.0000      -5.652624      -153.8157
  80   1.0000      -2.444945       -66.5303
  81   1.0000      -1.486329       -40.4451
  82   1.0000      -1.474544       -40.1244
  83   1.0000      -1.473889       -40.1065
  84   1.0000      -0.708733       -19.2856
  85   1.0000      -0.706471       -19.2241
  86   1.0000      -0.686667       -18.6851
  87   1.0000      -0.685141       -18.6436
  88   1.0000      -0.650938       -17.7129
  89   1.0000      -0.630662       -17.1612
  90   1.0000      -0.627780       -17.0828
  91   1.0000      -0.615608       -16.7515
  92   1.0000      -0.612335       -16.6625
  93   1.0000      -0.574081       -15.6215
  94   1.0000      -0.573256       -15.5991
  95   1.0000      -0.572300       -15.5731
  96   1.0000      -0.570508       -15.5243
  97   1.0000      -0.496498       -13.5104
  98   1.0000      -0.494172       -13.4471
  99   1.0000      -0.493247       -13.4219
 100   1.0000      -0.490760       -13.3543
 101   1.0000      -0.479590       -13.0503
 102   1.0000      -0.476398       -12.9634
 103   1.0000      -0.449508       -12.2317
 104   1.0000      -0.447175       -12.1682
 105   1.0000      -0.419208       -11.4072
 106   1.0000      -0.413513       -11.2523
 107   1.0000      -0.356864        -9.7108
 108   1.0000      -0.355856        -9.6833
 109   1.0000      -0.330499        -8.9933
 110   1.0000      -0.330299        -8.9879
 111   1.0000      -0.318950        -8.6791
 112   1.0000      -0.313458        -8.5296
 113   1.0000      -0.302474        -8.2307
 114   1.0000      -0.299209        -8.1419
 115   1.0000      -0.290582        -7.9071
 116   1.0000      -0.286177        -7.7873
 117   1.0000      -0.256145        -6.9701
 118   1.0000      -0.254508        -6.9255
 119   1.0000      -0.252672        -6.8756
 120   1.0000      -0.249672        -6.7939
 121   1.0000      -0.236519        -6.4360
 122   1.0000      -0.236055        -6.4234
 123   1.0000      -0.232884        -6.3371
 124   1.0000      -0.231622        -6.3028
 125   1.0000      -0.219377        -5.9696
 126   1.0000      -0.216676        -5.8961
 127   1.0000      -0.216055        -5.8791
 128   1.0000      -0.214000        -5.8232
 129   1.0000      -0.194864        -5.3025
 130   1.0000      -0.187192        -5.0937
 131   1.0000      -0.186305        -5.0696
 132   1.0000      -0.182930        -4.9778
 133   1.0000      -0.175600        -4.7783
 134   1.0000      -0.159991        -4.3536
 135   1.0000      -0.148993        -4.0543
 136   1.0000      -0.143246        -3.8979
 137   1.0000      -0.137473        -3.7408
 138   1.0000      -0.135341        -3.6828
 139   1.0000      -0.131499        -3.5783
 140   1.0000      -0.126362        -3.4385
 141   1.0000      -0.120259        -3.2724
 142   1.0000      -0.114737        -3.1222
 143   1.0000      -0.110806        -3.0152
 144   1.0000      -0.099621        -2.7108
 145   1.0000      -0.097671        -2.6578
 146   1.0000      -0.096093        -2.6148
 147   1.0000      -0.093060        -2.5323
 148   1.0000      -0.076112        -2.0711
 149   1.0000      -0.068969        -1.8768
 150   1.0000      -0.067949        -1.8490
 151   1.0000      -0.054879        -1.4933
 152   1.0000      -0.046430        -1.2634
 153   1.0000      -0.040291        -1.0964
 154   1.0000      -0.038585        -1.0499
 155   1.0000      -0.032517        -0.8848
 156   1.0000      -0.026545        -0.7223
 157   1.0000      -0.020366        -0.5542
 158   1.0000      -0.016846        -0.4584
 159   1.0000       0.018058         0.4914
 160   1.0000       0.039249         1.0680
 161   0.0000       0.135306         3.6819
 162   0.0000       0.135644         3.6911
 163   0.0000       0.162612         4.4249
 164   0.0000       0.163735         4.4554
 165   0.0000       0.169732         4.6186

                 SPIN DOWN ORBITALS
  NO   OCC          E(Eh)            E(eV)
   0   1.0000    -196.675849     -5351.8219
   1   1.0000     -88.734177     -2414.5797
   2   1.0000     -88.734056     -2414.5764
   3   1.0000     -88.733319     -2414.5564
   4   1.0000     -88.733247     -2414.5544
   5   1.0000     -88.731743     -2414.5135
   6   1.0000     -88.731721     -2414.5129
   7   1.0000     -88.731410     -2414.5044
   8   1.0000     -88.731241     -2414.4998
   9   1.0000     -88.642177     -2412.0763
  10   1.0000     -88.642140     -2412.0753
  11   1.0000     -88.641911     -2412.0690
  12   1.0000     -88.641442     -2412.0563
  13   1.0000     -22.036204      -599.6356
  14   1.0000     -18.895137      -514.1628
  15   1.0000     -18.552320      -504.8343
  16   1.0000     -18.536284      -504.3979
  17   1.0000     -18.536269      -504.3975
  18   1.0000     -10.079259      -274.2706
  19   1.0000     -10.078612      -274.2530
  20   1.0000     -10.064731      -273.8753
  21   1.0000     -10.064657      -273.8732
  22   1.0000     -10.064592      -273.8715
  23   1.0000     -10.064494      -273.8688
  24   1.0000     -10.051847      -273.5247
  25   1.0000     -10.051626      -273.5187
  26   1.0000     -10.051431      -273.5134
  27   1.0000     -10.051422      -273.5131
  28   1.0000     -10.020866      -272.6816
  29   1.0000     -10.020398      -272.6689
  30   1.0000     -10.020082      -272.6603
  31   1.0000     -10.019513      -272.6448
  32   1.0000      -7.787351      -211.9046
  33   1.0000      -7.787263      -211.9022
  34   1.0000      -7.786320      -211.8765
  35   1.0000      -7.786263      -211.8750
  36   1.0000      -7.784852      -211.8366
  37   1.0000      -7.784815      -211.8356
  38   1.0000      -7.784366      -211.8234
  39   1.0000      -7.784260      -211.8205
  40   1.0000      -7.696421      -209.4303
  41   1.0000      -7.696176      -209.4236
  42   1.0000      -7.696144      -209.4227
  43   1.0000      -7.695532      -209.4061
  44   1.0000      -5.752425      -156.5315
  45   1.0000      -5.752328      -156.5288
  46   1.0000      -5.751445      -156.5048
  47   1.0000      -5.751388      -156.5032
  48   1.0000      -5.749803      -156.4601
  49   1.0000      -5.749769      -156.4592
  50   1.0000      -5.749330      -156.4472
  51   1.0000      -5.749222      -156.4443
  52   1.0000      -5.748932      -156.4364
  53   1.0000      -5.748837      -156.4338
  54   1.0000      -5.747909      -156.4086
  55   1.0000      -5.747837      -156.4066
  56   1.0000      -5.745350      -156.3389
  57   1.0000      -5.745318      -156.3381
  58   1.0000      -5.744855      -156.3254
  59   1.0000      -5.744733      -156.3221
  60   1.0000      -5.742106      -156.2507
  61   1.0000      -5.742027      -156.2485
  62   1.0000      -5.741048      -156.2218
  63   1.0000      -5.741005      -156.2207
  64   1.0000      -5.740708      -156.2126
  65   1.0000      -5.740674      -156.2117
  66   1.0000      -5.740245      -156.2000
  67   1.0000      -5.740150      -156.1974
  68   1.0000      -5.661783      -154.0650
  69   1.0000      -5.661620      -154.0605
  70   1.0000      -5.661523      -154.0579
  71   1.0000      -5.660940      -154.0420
  72   1.0000      -5.655283      -153.8881
  73   1.0000      -5.655086      -153.8827
  74   1.0000      -5.655030      -153.8812
  75   1.0000      -5.654470      -153.8659
  76   1.0000      -5.653686      -153.8446
  77   1.0000      -5.653402      -153.8369
  78   1.0000      -5.653387      -153.8365
  79   1.0000      -5.652732      -153.8187
  80   1.0000      -2.400068       -65.3092
  81   1.0000      -1.467061       -39.9207
  82   1.0000      -1.412412       -38.4337
  83   1.0000      -1.411920       -38.4203
  84   1.0000      -0.708705       -19.2848
  85   1.0000      -0.706454       -19.2236
  86   1.0000      -0.686603       -18.6834
  87   1.0000      -0.685094       -18.6424
  88   1.0000      -0.659059       -17.9339
  89   1.0000      -0.630579       -17.1589
  90   1.0000      -0.627716       -17.0810
  91   1.0000      -0.615608       -16.7515
  92   1.0000      -0.612337       -16.6625
  93   1.0000      -0.574040       -15.6204
  94   1.0000      -0.573163       -15.5965
  95   1.0000      -0.572267       -15.5722
  96   1.0000      -0.570441       -15.5225
  97   1.0000      -0.496507       -13.5106
  98   1.0000      -0.494235       -13.4488
  99   1.0000      -0.493274       -13.4227
 100   1.0000      -0.490848       -13.3567
 101   1.0000      -0.479759       -13.0549
 102   1.0000      -0.476608       -12.9692
 103   1.0000      -0.449526       -12.2322
 104   1.0000      -0.447220       -12.1695
 105   1.0000      -0.419215       -11.4074
 106   1.0000      -0.413637       -11.2556
 107   1.0000      -0.356852        -9.7104
 108   1.0000      -0.355849        -9.6831
 109   1.0000      -0.330479        -8.9928
 110   1.0000      -0.330288        -8.9876
 111   1.0000      -0.318850        -8.6764
 112   1.0000      -0.313471        -8.5300
 113   1.0000      -0.302419        -8.2292
 114   1.0000      -0.299169        -8.1408
 115   1.0000      -0.290575        -7.9070
 116   1.0000      -0.286171        -7.7871
 117   1.0000      -0.255991        -6.9659
 118   1.0000      -0.254436        -6.9236
 119   1.0000      -0.252623        -6.8742
 120   1.0000      -0.249620        -6.7925
 121   1.0000      -0.236494        -6.4353
 122   1.0000      -0.236046        -6.4231
 123   1.0000      -0.232846        -6.3361
 124   1.0000      -0.231600        -6.3021
 125   1.0000      -0.218654        -5.9499
 126   1.0000      -0.216610        -5.8943
 127   1.0000      -0.215983        -5.8772
 128   1.0000      -0.213886        -5.8201
 129   1.0000      -0.193220        -5.2578
 130   1.0000      -0.187063        -5.0903
 131   1.0000      -0.185987        -5.0610
 132   1.0000      -0.182662        -4.9705
 133   1.0000      -0.175455        -4.7744
 134   1.0000      -0.159366        -4.3366
 135   1.0000      -0.148843        -4.0502
 136   1.0000      -0.143168        -3.8958
 137   1.0000      -0.136817        -3.7230
 138   1.0000      -0.135010        -3.6738
 139   1.0000      -0.131314        -3.5732
 140   1.0000      -0.125758        -3.4220
 141   1.0000      -0.120041        -3.2665
 142   1.0000      -0.116464        -3.1691
 143   1.0000      -0.112433        -3.0595
 144   1.0000      -0.099630        -2.7111
 145   1.0000      -0.097947        -2.6653
 146   1.0000      -0.096126        -2.6157
 147   1.0000      -0.093300        -2.5388
 148   1.0000      -0.072546        -1.9741
 149   1.0000      -0.068965        -1.8766
 150   1.0000      -0.067949        -1.8490
 151   1.0000      -0.052256        -1.4220
 152   1.0000      -0.045453        -1.2368
 153   1.0000      -0.039731        -1.0811
 154   1.0000      -0.038624        -1.0510
 155   1.0000      -0.032524        -0.8850
 156   1.0000      -0.027645        -0.7523
 157   1.0000      -0.017086        -0.4649
 158   1.0000       0.018259         0.4969
 159   1.0000       0.038283         1.0417
 160   0.0000       0.135317         3.6822
 161   0.0000       0.135630         3.6907
 162   0.0000       0.154637         4.2079
 163   0.0000       0.162968         4.4346
 164   0.0000       0.164589         4.4787

MULLIKEN ATOMIC CHARGES AND SPIN POPULATIONS
--------------------------------------------
   0 V :    0.470907    1.211584
   1 S :   -0.289820   -0.023397
   2 S :   -0.283566   -0.025589
   3 S :   -0.289278   -0.024445
   4 S :   -0.278527   -0.026051
   5 O :   -0.465437   -0.146810
   6 C :   -0.078895    0.009923
   7 C :   -0.082492    0.008511
   8 C :   -0.082104    0.008354
   9 C :   -0.085960    0.007518
  10 S :    0.102339   -0.000571
  11 S :    0.103035   -0.000602
  12 S :    0.104782   -0.000263
  13 S :    0.103093   -0.000178
  14 C :   -0.227869    0.001762
  15 C :   -0.239756    0.001021
  16 C :   -0.170342   -0.000108
  17 C :   -0.150540   -0.000485
  18 S :    0.002009   -0.000090
  19 S :    0.001881   -0.000092
  20 S :   -0.005175   -0.000048
  21 S :   -0.005034   -0.000049
  22 C :   -0.317465   -0.000016
  23 C :   -0.316310   -0.000018
  24 C :   -0.171526    0.000005
  25 H :    0.147014    0.000000
  26 H :    0.120727   -0.000004
  27 H :    0.081721   -0.000002
  28 H :    0.111325   -0.000002
  29 H :    0.120238   -0.000005
  30 H :    0.146063    0.000000
  31 C :   -0.309733    0.000154
  32 C :   -0.310572    0.000150
  33 C :   -0.165751   -0.000182
  34 H :    0.144662   -0.000014
  35 H :    0.118260    0.000012
  36 H :    0.103089    0.000016
  37 H :    0.082507    0.000010
  38 H :    0.118042    0.000013
  39 H :    0.144458   -0.000015
Sum of atomic charges         :   -2.0000000

LOEWDIN ATOMIC CHARGES AND SPIN POPULATIONS
-------------------------------------------
   0 V :   -0.156091    1.164090
   1 S :    0.076078   -0.015072
   2 S :    0.084004   -0.016220
   3 S :    0.075279   -0.016070
   4 S :    0.088842   -0.016418
   5 O :   -0.317389   -0.131675
   6 C :   -0.548158    0.009374
   7 C :   -0.549664    0.008394
   8 C :   -0.547185    0.008484
   9 C :   -0.547655    0.007647
  10 S :    0.471079   -0.000857
  11 S :    0.471178   -0.000892
  12 S :    0.470738   -0.000672
  13 S :    0.469000   -0.000657
  14 C :   -0.463849    0.000310
  15 C :   -0.464187   -0.000069
  16 C :   -0.616964    0.000422
  17 C :   -0.613498    0.000105
  18 S :    0.355134   -0.000075
  19 S :    0.356574   -0.000075
  20 S :    0.352070   -0.000059
  21 S :    0.351354   -0.000059
  22 C :   -0.286602   -0.000011
  23 C :   -0.286729   -0.000012
  24 C :   -0.186971   -0.000002
  25 H :    0.065383   -0.000001
  26 H :    0.054999   -0.000002
  27 H :    0.056597   -0.000002
  28 H :    0.064056   -0.000001
  29 H :    0.054888   -0.000003
  30 H :    0.064980   -0.000001
  31 C :   -0.285210    0.000034
  32 C :   -0.284948    0.000029
  33 C :   -0.181778    0.000005
  34 H :    0.063677   -0.000001
  35 H :    0.054278    0.000006
  36 H :    0.062075    0.000003
  37 H :    0.056820    0.000001
  38 H :    0.054321    0.000006
  39 H :    0.063474   -0.000001

  Mayer bond orders larger than 0.100000
B(  0-V ,  1-S ) :   0.7653 B(  0-V ,  2-S ) :   0.7768 B(  0-V ,  3-S ) :   0.7531
B(  0-V ,  4-S ) :   0.7855 B(  0-V ,  5-O ) :   2.1505 B(  1-S ,  8-C ) :   1.1024
B(  2-S ,  6-C ) :   1.1002 B(  3-S ,  9-C ) :   1.1085 B(  4-S ,  7-C ) :   1.0990
B(  6-C ,  7-C ) :   1.6858 B(  6-C , 10-S ) :   0.9362 B(  7-C , 11-S ) :   0.9385
B(  8-C ,  9-C ) :   1.7015 B(  8-C , 13-S ) :   0.9326 B(  9-C , 12-S ) :   0.9363
B( 10-S , 14-C ) :   1.2459 B( 11-S , 14-C ) :   1.2463 B( 12-S , 15-C ) :   1.2459
B( 13-S , 15-C ) :   1.2460 B( 14-C , 16-C ) :   1.4506 B( 15-C , 17-C ) :   1.4504
B( 16-C , 18-S ) :   1.0771 B( 16-C , 19-S ) :   1.0781 B( 17-C , 20-S ) :   1.0676
B( 17-C , 21-S ) :   1.0676 B( 18-S , 32-C ) :   0.9869 B( 19-S , 31-C ) :   0.9866
B( 20-S , 23-C ) :   0.9819 B( 21-S , 22-C ) :   0.9811 B( 22-C , 24-C ) :   0.8922
B( 22-C , 25-H ) :   0.9711 B( 22-C , 26-H ) :   0.9634 B( 23-C , 24-C ) :   0.8932
B( 23-C , 29-H ) :   0.9636 B( 23-C , 30-H ) :   0.9708 B( 24-C , 27-H ) :   0.9525
B( 24-C , 28-H ) :   0.9721 B( 31-C , 33-C ) :   0.9023 B( 31-C , 38-H ) :   0.9652
B( 31-C , 39-H ) :   0.9684 B( 32-C , 33-C ) :   0.9018 B( 32-C , 34-H ) :   0.9684
B( 32-C , 35-H ) :   0.9651 B( 33-C , 36-H ) :   0.9720 B( 33-C , 37-H ) :   0.9575

FINAL SINGLE POINT ENERGY     -6337.698556126938

DIPOLE MOMENT
-------------
                                X             Y             Z
Electronic contribution:     -3.22738     -11.67416       5.99427
Nuclear contribution   :      3.69418      13.05645      -6.54762
                        -----------------------------------------
Total Dipole Moment    :      0.46679       1.38229      -0.55335
                        -----------------------------------------
Magnitude (a.u.)       :      1.56039
Magnitude (Debye)      :      3.96620

Rotational constants in cm-1:     0.010746     0.000803     0.000782
Rotational constants in MHz :   322.165618    24.081115    23.455106

                             ****ORCA TERMINATED NORMALLY****
TOTAL RUN TIME: 0 days 1 hours 6 minutes 8 seconds 693 msec
