                         Program Version 5.0.4 -  RELEASE  -
|  1> ! nofrozencore ReducedPop printbasis
|  2> ! B3LYP TZVP
|  3>
|  4> %basis
|  5> newgto V "CP(PPP)" end
|  6> end
|  7>
|  8> %pal
|  9> nprocs 8
| 10> end
| 11>
| 12> % sym SymThresh 1e-2 end
| 13> * xyz -2 2
| 14> V -0.6336090114727446 0.914923342495349 -0.027936106290418695
| 15> S 1.422737629794089 1.7923016584390816 1.0246777823132567
| 16> S 0.6850282894327249 0.846630068228638 -2.1224979534767625
| 17> S -1.1034802085376627 -0.10440473070081605 2.1763189432029413
| 18> S -1.7714146219695823 -1.093000049296998 -0.9009361894685555
| 19> O -1.633367198941503 2.137322154846652 -0.20164418371143725
| 20> C -0.37376907948739874 -0.1690499393786098 -3.0938575620851116
| 21> C -1.3560026837769394 -0.9489794061079015 -2.6032239699109314
| 22> C 1.1454337553538914 1.3901723760559177 2.7067674767339964
| 23> C 0.1384310198049031 0.6305223010709649 3.165318196590818
| 24> S -0.10430517445031152 -0.24847240916468666 -4.869322552818593
| 25> S -2.242599901773975 -1.9658553859064871 -3.788049123061212
| 26> S 0.15038870518383052 0.337999856914429 4.924392172043262
| 27> S 2.288982697378679 1.9591736286101025 3.951935411100585
| 28> C -1.3295831806162726 -1.4745312561448631 -5.220118376370709
| 29> C 1.5636680763511532 1.2409846811770144 5.349833981513563
| 30> C -1.5983670167945048 -1.938419357366903 -6.478411023088047
| 31> C 2.1245982618103025 1.2486371130665244 6.599445164498872
| 32> S -0.7165400770990372 -1.3666235897209589 -7.912336797486258
| 33> S -2.8533005425650773 -3.1591821075196007 -6.786619918218704
| 34> S 3.6012309931017152 2.106346428877614 6.9686108271799165
| 35> S 1.4084621695018635 0.42286543255724773 7.96318428744251
| 36> C 2.715410315335416 -0.7990477719366509 8.36645216165479
| 37> C 4.701897521801595 0.7284404764296653 7.471258504971498
| 38> C 4.020192594901947 -0.03660589338058812 8.607741270758511
| 39> H 2.7722914808958947 -1.6103216869575776 7.61910419553586
| 40> H 2.390548564290702 -1.228181690603854 9.334887418106396
| 41> H 4.760695807089022 -0.7239202309313998 9.07732593532893
| 42> H 3.770299665522157 0.7328082583726072 9.36738897949783
| 43> H 5.590481391178132 1.2381403805504947 7.893356727354674
| 44> H 5.020035737222682 0.11296167682578158 6.611058036106916
| 45> C -3.9707207495787866 -2.1658395767900855 -7.86808129724771
| 46> C -2.127254362215059 -0.6135245880986586 -8.834484439865768
| 47> C -3.248334485292985 -1.619602459254803 -9.100427792543554
| 48> H -2.484798407070444 0.26324641564416085 -8.288406981877198
| 49> H -1.7006089899275012 -0.27771961090098507 -9.784292546780465
| 50> H -2.8234083086362975 -2.466301313642923 -9.651206792098524
| 51> H -3.992217926061391 -1.1454865432540962 -9.757535243071525
| 52> H -4.757597316122726 -2.8594694019524844 -8.178931008291812
| 53> H -4.427820391603801 -1.3699313709158694 -7.27446347615514
| 54> *
| 55>
| 56> % eprnmr
| 57> gtensor true
| 58> Nuclei = all H {aiso,adip,aorb,fgrad,rho}
| 59> Nuclei = all V {aiso,adip,aorb,fgrad,rho}
| 60> end
| 61>
| 62>                          ****END OF INPUT****

CARTESIAN COORDINATES (ANGSTROEM)
---------------------------------
  V     -0.632293    0.911947   -0.029962
  S      1.424054    1.789325    1.022652
  S      0.686345    0.843653   -2.124524
  S     -1.102164   -0.107381    2.174293
  S     -1.770098   -1.095977   -0.902962
  O     -1.632051    2.134345   -0.203670
  C     -0.372453   -0.172027   -3.095884
  C     -1.354686   -0.951956   -2.605250
  C      1.146750    1.387196    2.704741
  C      0.139747    0.627546    3.163292
  S     -0.102989   -0.251449   -4.871349
  S     -2.241284   -1.968832   -3.790075
  S      0.151705    0.335023    4.922366
  S      2.290299    1.956197    3.949909
  C     -1.328267   -1.477508   -5.222145
  C      1.564984    1.238008    5.347808
  C     -1.597051   -1.941396   -6.480437
  C      2.125915    1.245660    6.597419
  S     -0.715224   -1.369600   -7.914363
  S     -2.851984   -3.162159   -6.788646
  S      3.602547    2.103370    6.966585
  S      1.409778    0.419889    7.961158
  C      2.716727   -0.802025    8.364426
  C      4.703214    0.725464    7.469232
  C      4.021509   -0.039583    8.605715
  H      2.773608   -1.613298    7.617078
  H      2.391865   -1.231158    9.332861
  H      4.762012   -0.726897    9.075300
  H      3.771616    0.729832    9.365363
  H      5.591798    1.235164    7.891331
  H      5.021352    0.109985    6.609032
  C     -3.969404   -2.168816   -7.870107
  C     -2.125938   -0.616501   -8.836511
  C     -3.247018   -1.622579   -9.102454
  H     -2.483482    0.260270   -8.290433
  H     -1.699293   -0.280696   -9.786319
  H     -2.822092   -2.469278   -9.653233
  H     -3.990902   -1.148463   -9.759561
  H     -4.756281   -2.862446   -8.180957
  H     -4.426504   -1.372908   -7.276490

 Total Charge           Charge          ....   -2
 Multiplicity           Mult            ....    2
 Number of Electrons    NEL             ....  321
 Basis Dimension        Dim             ....  681

ORBITAL ENERGIES
----------------
                 SPIN UP ORBITALS
  NO   OCC          E(Eh)            E(eV)
   0   1.0000    -196.676480     -5351.8391
   1   1.0000     -88.732622     -2414.5374
   2   1.0000     -88.732618     -2414.5373
   3   1.0000     -88.731329     -2414.5022
   4   1.0000     -88.731148     -2414.4973
   5   1.0000     -88.729970     -2414.4652
   6   1.0000     -88.729882     -2414.4628
   7   1.0000     -88.725216     -2414.3359
   8   1.0000     -88.725208     -2414.3357
   9   1.0000     -88.641809     -2412.0662
  10   1.0000     -88.641387     -2412.0548
  11   1.0000     -88.641000     -2412.0442
  12   1.0000     -88.640754     -2412.0375
  13   1.0000     -22.051878      -600.0621
  14   1.0000     -18.891776      -514.0714
  15   1.0000     -18.558312      -504.9973
  16   1.0000     -18.553162      -504.8572
  17   1.0000     -18.553062      -504.8545
  18   1.0000     -10.076754      -274.2024
  19   1.0000     -10.073026      -274.1010
  20   1.0000     -10.064062      -273.8570
  21   1.0000     -10.063971      -273.8546
  22   1.0000     -10.062795      -273.8226
  23   1.0000     -10.062785      -273.8223
  24   1.0000     -10.050949      -273.5002
  25   1.0000     -10.048520      -273.4341
  26   1.0000     -10.048481      -273.4331
  27   1.0000     -10.040593      -273.2184
  28   1.0000     -10.019411      -272.6420
  29   1.0000     -10.019207      -272.6365
  30   1.0000     -10.018488      -272.6169
  31   1.0000     -10.018391      -272.6143
  32   1.0000      -7.786324      -211.8766
  33   1.0000      -7.786317      -211.8764
  34   1.0000      -7.784523      -211.8276
  35   1.0000      -7.784388      -211.8240
  36   1.0000      -7.784362      -211.8233
  37   1.0000      -7.784311      -211.8219
  38   1.0000      -7.779900      -211.7018
  39   1.0000      -7.779872      -211.7011
  40   1.0000      -7.696264      -209.4260
  41   1.0000      -7.695861      -209.4150
  42   1.0000      -7.695304      -209.3999
  43   1.0000      -7.694986      -209.3912
  44   1.0000      -5.751289      -156.5005
  45   1.0000      -5.751286      -156.5004
  46   1.0000      -5.749469      -156.4510
  47   1.0000      -5.749329      -156.4472
  48   1.0000      -5.749103      -156.4410
  49   1.0000      -5.749047      -156.4395
  50   1.0000      -5.747874      -156.4076
  51   1.0000      -5.747869      -156.4075
  52   1.0000      -5.745048      -156.3307
  53   1.0000      -5.744915      -156.3271
  54   1.0000      -5.744812      -156.3243
  55   1.0000      -5.744781      -156.3234
  56   1.0000      -5.744637      -156.3195
  57   1.0000      -5.744580      -156.3180
  58   1.0000      -5.741284      -156.2283
  59   1.0000      -5.741266      -156.2278
  60   1.0000      -5.741117      -156.2237
  61   1.0000      -5.741108      -156.2235
  62   1.0000      -5.740387      -156.2039
  63   1.0000      -5.740349      -156.2028
  64   1.0000      -5.740334      -156.2024
  65   1.0000      -5.740205      -156.1989
  66   1.0000      -5.734708      -156.0493
  67   1.0000      -5.734688      -156.0488
  68   1.0000      -5.661570      -154.0592
  69   1.0000      -5.661166      -154.0482
  70   1.0000      -5.660604      -154.0329
  71   1.0000      -5.660313      -154.0249
  72   1.0000      -5.654877      -153.8770
  73   1.0000      -5.654502      -153.8668
  74   1.0000      -5.653944      -153.8516
  75   1.0000      -5.653656      -153.8438
  76   1.0000      -5.653590      -153.8420
  77   1.0000      -5.653182      -153.8309
  78   1.0000      -5.652629      -153.8159
  79   1.0000      -5.652279      -153.8063
  80   1.0000      -2.445524       -66.5461
  81   1.0000      -1.486809       -40.4581
  82   1.0000      -1.475193       -40.1420
  83   1.0000      -1.474364       -40.1195
  84   1.0000      -0.717842       -19.5335
  85   1.0000      -0.710780       -19.3413
  86   1.0000      -0.691321       -18.8118
  87   1.0000      -0.686554       -18.6821
  88   1.0000      -0.651342       -17.7239
  89   1.0000      -0.632370       -17.2077
  90   1.0000      -0.631788       -17.1918
  91   1.0000      -0.619203       -16.8494
  92   1.0000      -0.618405       -16.8277
  93   1.0000      -0.578574       -15.7438
  94   1.0000      -0.578320       -15.7369
  95   1.0000      -0.575309       -15.6550
  96   1.0000      -0.573704       -15.6113
  97   1.0000      -0.496778       -13.5180
  98   1.0000      -0.496690       -13.5156
  99   1.0000      -0.495506       -13.4834
 100   1.0000      -0.493441       -13.4272
 101   1.0000      -0.480967       -13.0878
 102   1.0000      -0.478542       -13.0218
 103   1.0000      -0.447768       -12.1844
 104   1.0000      -0.445104       -12.1119
 105   1.0000      -0.416976       -11.3465
 106   1.0000      -0.412132       -11.2147
 107   1.0000      -0.355445        -9.6722
 108   1.0000      -0.351786        -9.5726
 109   1.0000      -0.327357        -8.9078
 110   1.0000      -0.324625        -8.8335
 111   1.0000      -0.323849        -8.8124
 112   1.0000      -0.316948        -8.6246
 113   1.0000      -0.303777        -8.2662
 114   1.0000      -0.301467        -8.2033
 115   1.0000      -0.295831        -8.0500
 116   1.0000      -0.295047        -8.0286
 117   1.0000      -0.259576        -7.0634
 118   1.0000      -0.258727        -7.0403
 119   1.0000      -0.257273        -7.0008
 120   1.0000      -0.256660        -6.9841
 121   1.0000      -0.233420        -6.3517
 122   1.0000      -0.232697        -6.3320
 123   1.0000      -0.232262        -6.3202
 124   1.0000      -0.229373        -6.2416
 125   1.0000      -0.219742        -5.9795
 126   1.0000      -0.217112        -5.9079
 127   1.0000      -0.214829        -5.8458
 128   1.0000      -0.212204        -5.7744
 129   1.0000      -0.194738        -5.2991
 130   1.0000      -0.187405        -5.0996
 131   1.0000      -0.186361        -5.0711
 132   1.0000      -0.184543        -5.0217
 133   1.0000      -0.177320        -4.8251
 134   1.0000      -0.161439        -4.3930
 135   1.0000      -0.150887        -4.1058
 136   1.0000      -0.145834        -3.9683
 137   1.0000      -0.136412        -3.7120
 138   1.0000      -0.134753        -3.6668
 139   1.0000      -0.132297        -3.6000
 140   1.0000      -0.126299        -3.4368
 141   1.0000      -0.121737        -3.3126
 142   1.0000      -0.115037        -3.1303
 143   1.0000      -0.110837        -3.0160
 144   1.0000      -0.100802        -2.7430
 145   1.0000      -0.099148        -2.6980
 146   1.0000      -0.097429        -2.6512
 147   1.0000      -0.095030        -2.5859
 148   1.0000      -0.076036        -2.0690
 149   1.0000      -0.066919        -1.8209
 150   1.0000      -0.059973        -1.6320
 151   1.0000      -0.053923        -1.4673
 152   1.0000      -0.047401        -1.2898
 153   1.0000      -0.038580        -1.0498
 154   1.0000      -0.037493        -1.0202
 155   1.0000      -0.031257        -0.8505
 156   1.0000      -0.026649        -0.7252
 157   1.0000      -0.020580        -0.5600
 158   1.0000      -0.016938        -0.4609
 159   1.0000       0.019050         0.5184
 160   1.0000       0.039762         1.0820
 161   0.0000       0.135636         3.6909
 162   0.0000       0.137071         3.7299
 163   0.0000       0.162008         4.4085
 164   0.0000       0.167455         4.5567
 165   0.0000       0.170297         4.6340

                 SPIN DOWN ORBITALS
  NO   OCC          E(Eh)            E(eV)
   0   1.0000    -196.676627     -5351.8431
   1   1.0000     -88.732623     -2414.5374
   2   1.0000     -88.732619     -2414.5373
   3   1.0000     -88.731337     -2414.5024
   4   1.0000     -88.731157     -2414.4975
   5   1.0000     -88.729978     -2414.4654
   6   1.0000     -88.729890     -2414.4631
   7   1.0000     -88.725217     -2414.3359
   8   1.0000     -88.725209     -2414.3357
   9   1.0000     -88.641943     -2412.0699
  10   1.0000     -88.641523     -2412.0585
  11   1.0000     -88.641141     -2412.0481
  12   1.0000     -88.640896     -2412.0414
  13   1.0000     -22.036962      -599.6562
  14   1.0000     -18.895547      -514.1740
  15   1.0000     -18.553052      -504.8542
  16   1.0000     -18.537155      -504.4216
  17   1.0000     -18.536947      -504.4160
  18   1.0000     -10.076748      -274.2023
  19   1.0000     -10.073024      -274.1009
  20   1.0000     -10.064061      -273.8570
  21   1.0000     -10.063970      -273.8546
  22   1.0000     -10.062795      -273.8226
  23   1.0000     -10.062786      -273.8223
  24   1.0000     -10.050949      -273.5002
  25   1.0000     -10.048520      -273.4341
  26   1.0000     -10.048470      -273.4328
  27   1.0000     -10.040590      -273.2183
  28   1.0000     -10.019172      -272.6355
  29   1.0000     -10.018995      -272.6307
  30   1.0000     -10.018263      -272.6108
  31   1.0000     -10.018181      -272.6086
  32   1.0000      -7.786325      -211.8767
  33   1.0000      -7.786317      -211.8765
  34   1.0000      -7.784533      -211.8279
  35   1.0000      -7.784398      -211.8242
  36   1.0000      -7.784371      -211.8235
  37   1.0000      -7.784320      -211.8221
  38   1.0000      -7.779901      -211.7019
  39   1.0000      -7.779873      -211.7011
  40   1.0000      -7.696389      -209.4294
  41   1.0000      -7.695988      -209.4185
  42   1.0000      -7.695434      -209.4034
  43   1.0000      -7.695119      -209.3948
  44   1.0000      -5.751290      -156.5006
  45   1.0000      -5.751287      -156.5005
  46   1.0000      -5.749480      -156.4513
  47   1.0000      -5.749340      -156.4475
  48   1.0000      -5.749115      -156.4414
  49   1.0000      -5.749059      -156.4398
  50   1.0000      -5.747875      -156.4076
  51   1.0000      -5.747870      -156.4075
  52   1.0000      -5.745062      -156.3311
  53   1.0000      -5.744928      -156.3274
  54   1.0000      -5.744812      -156.3243
  55   1.0000      -5.744781      -156.3234
  56   1.0000      -5.744650      -156.3199
  57   1.0000      -5.744594      -156.3183
  58   1.0000      -5.741284      -156.2283
  59   1.0000      -5.741267      -156.2278
  60   1.0000      -5.741118      -156.2238
  61   1.0000      -5.741109      -156.2235
  62   1.0000      -5.740392      -156.2040
  63   1.0000      -5.740357      -156.2031
  64   1.0000      -5.740340      -156.2026
  65   1.0000      -5.740214      -156.1992
  66   1.0000      -5.734708      -156.0493
  67   1.0000      -5.734688      -156.0488
  68   1.0000      -5.661710      -154.0630
  69   1.0000      -5.661305      -154.0519
  70   1.0000      -5.660743      -154.0366
  71   1.0000      -5.660456      -154.0288
  72   1.0000      -5.655219      -153.8863
  73   1.0000      -5.654855      -153.8764
  74   1.0000      -5.654334      -153.8622
  75   1.0000      -5.654042      -153.8543
  76   1.0000      -5.653696      -153.8449
  77   1.0000      -5.653288      -153.8338
  78   1.0000      -5.652717      -153.8182
  79   1.0000      -5.652374      -153.8089
  80   1.0000      -2.400683       -65.3259
  81   1.0000      -1.467545       -39.9339
  82   1.0000      -1.412844       -38.4454
  83   1.0000      -1.412714       -38.4419
  84   1.0000      -0.717819       -19.5328
  85   1.0000      -0.710754       -19.3406
  86   1.0000      -0.691287       -18.8109
  87   1.0000      -0.686496       -18.6805
  88   1.0000      -0.659431       -17.9440
  89   1.0000      -0.632317       -17.2062
  90   1.0000      -0.631710       -17.1897
  91   1.0000      -0.619202       -16.8494
  92   1.0000      -0.618407       -16.8277
  93   1.0000      -0.578551       -15.7432
  94   1.0000      -0.578256       -15.7351
  95   1.0000      -0.575279       -15.6542
  96   1.0000      -0.573620       -15.6090
  97   1.0000      -0.496798       -13.5186
  98   1.0000      -0.496741       -13.5170
  99   1.0000      -0.495585       -13.4855
 100   1.0000      -0.493476       -13.4282
 101   1.0000      -0.481122       -13.0920
 102   1.0000      -0.478776       -13.0281
 103   1.0000      -0.447787       -12.1849
 104   1.0000      -0.445154       -12.1133
 105   1.0000      -0.416972       -11.3464
 106   1.0000      -0.412235       -11.2175
 107   1.0000      -0.355435        -9.6719
 108   1.0000      -0.351776        -9.5723
 109   1.0000      -0.327341        -8.9074
 110   1.0000      -0.324613        -8.8332
 111   1.0000      -0.323794        -8.8109
 112   1.0000      -0.316955        -8.6248
 113   1.0000      -0.303728        -8.2649
 114   1.0000      -0.301433        -8.2024
 115   1.0000      -0.295824        -8.0498
 116   1.0000      -0.295042        -8.0285
 117   1.0000      -0.259445        -7.0598
 118   1.0000      -0.258653        -7.0383
 119   1.0000      -0.257231        -6.9996
 120   1.0000      -0.256626        -6.9831
 121   1.0000      -0.233372        -6.3504
 122   1.0000      -0.232658        -6.3310
 123   1.0000      -0.232236        -6.3195
 124   1.0000      -0.229286        -6.2392
 125   1.0000      -0.219187        -5.9644
 126   1.0000      -0.216951        -5.9035
 127   1.0000      -0.214725        -5.8430
 128   1.0000      -0.212152        -5.7729
 129   1.0000      -0.193058        -5.2534
 130   1.0000      -0.187335        -5.0976
 131   1.0000      -0.186092        -5.0638
 132   1.0000      -0.184274        -5.0143
 133   1.0000      -0.177146        -4.8204
 134   1.0000      -0.160799        -4.3756
 135   1.0000      -0.150740        -4.1019
 136   1.0000      -0.145744        -3.9659
 137   1.0000      -0.135634        -3.6908
 138   1.0000      -0.134466        -3.6590
 139   1.0000      -0.132093        -3.5944
 140   1.0000      -0.125807        -3.4234
 141   1.0000      -0.121452        -3.3049
 142   1.0000      -0.116793        -3.1781
 143   1.0000      -0.112436        -3.0595
 144   1.0000      -0.100805        -2.7430
 145   1.0000      -0.099467        -2.7066
 146   1.0000      -0.097462        -2.6521
 147   1.0000      -0.095248        -2.5918
 148   1.0000      -0.072118        -1.9624
 149   1.0000      -0.066919        -1.8210
 150   1.0000      -0.059962        -1.6316
 151   1.0000      -0.051330        -1.3968
 152   1.0000      -0.046459        -1.2642
 153   1.0000      -0.037994        -1.0339
 154   1.0000      -0.037547        -1.0217
 155   1.0000      -0.031176        -0.8483
 156   1.0000      -0.027703        -0.7538
 157   1.0000      -0.017162        -0.4670
 158   1.0000       0.019334         0.5261
 159   1.0000       0.038688         1.0528
 160   0.0000       0.135635         3.6908
 161   0.0000       0.137076         3.7300
 162   0.0000       0.154606         4.2070
 163   0.0000       0.162555         4.4233
 164   0.0000       0.167620         4.5612

MULLIKEN ATOMIC CHARGES AND SPIN POPULATIONS
--------------------------------------------
   0 V :    0.467043    1.209716
   1 S :   -0.283700   -0.021661
   2 S :   -0.289006   -0.025481
   3 S :   -0.281728   -0.022639
   4 S :   -0.284727   -0.025896
   5 O :   -0.466695   -0.146431
   6 C :   -0.077386    0.009813
   7 C :   -0.084630    0.008157
   8 C :   -0.092144    0.007394
   9 C :   -0.092672    0.007085
  10 S :    0.100836   -0.000626
  11 S :    0.102154   -0.000654
  12 S :    0.122072   -0.000396
  13 S :    0.121294   -0.000349
  14 C :   -0.204708    0.001823
  15 C :   -0.203317    0.000859
  16 C :   -0.205248   -0.000220
  17 C :   -0.236504   -0.000302
  18 S :    0.010631   -0.000113
  19 S :    0.010768   -0.000112
  20 S :    0.012527   -0.000059
  21 S :    0.012534   -0.000061
  22 C :   -0.254932   -0.000009
  23 C :   -0.254501   -0.000010
  24 C :   -0.232075    0.000003
  25 H :    0.138323   -0.000001
  26 H :    0.102266   -0.000004
  27 H :    0.076764   -0.000001
  28 H :    0.098341   -0.000003
  29 H :    0.102124   -0.000004
  30 H :    0.137857   -0.000000
  31 C :   -0.288492    0.000192
  32 C :   -0.289575    0.000189
  33 C :   -0.175887   -0.000245
  34 H :    0.141916   -0.000016
  35 H :    0.111434    0.000018
  36 H :    0.094301    0.000028
  37 H :    0.081640    0.000014
  38 H :    0.111329    0.000019
  39 H :    0.141773   -0.000016
Sum of atomic charges         :   -2.0000000

LOEWDIN ATOMIC CHARGES AND SPIN POPULATIONS
-------------------------------------------
   0 V :   -0.157143    1.163250
   1 S :    0.087000   -0.013981
   2 S :    0.079240   -0.016227
   3 S :    0.088281   -0.014795
   4 S :    0.083195   -0.016417
   5 O :   -0.318428   -0.131354
   6 C :   -0.549074    0.009089
   7 C :   -0.551266    0.008003
   8 C :   -0.557552    0.007937
   9 C :   -0.557573    0.007480
  10 S :    0.471951   -0.000916
  11 S :    0.472848   -0.000959
  12 S :    0.498295   -0.000819
  13 S :    0.497595   -0.000828
  14 C :   -0.463299    0.000214
  15 C :   -0.488109   -0.000009
  16 C :   -0.625053    0.000481
  17 C :   -0.656284    0.000063
  18 S :    0.360950   -0.000087
  19 S :    0.362337   -0.000084
  20 S :    0.369773   -0.000063
  21 S :    0.369313   -0.000064
  22 C :   -0.288016   -0.000007
  23 C :   -0.288265   -0.000008
  24 C :   -0.194093   -0.000001
  25 H :    0.061210   -0.000001
  26 H :    0.057235   -0.000002
  27 H :    0.053239   -0.000001
  28 H :    0.062559   -0.000001
  29 H :    0.057222   -0.000003
  30 H :    0.060997   -0.000001
  31 C :   -0.284233    0.000045
  32 C :   -0.283945    0.000039
  33 C :   -0.180245    0.000007
  34 H :    0.061662   -0.000001
  35 H :    0.054332    0.000008
  36 H :    0.060825    0.000005
  37 H :    0.056565    0.000002
  38 H :    0.054401    0.000008
  39 H :    0.061553   -0.000000

  Mayer bond orders larger than 0.100000
B(  0-V ,  1-S ) :   0.7726 B(  0-V ,  2-S ) :   0.7729 B(  0-V ,  3-S ) :   0.7660
B(  0-V ,  4-S ) :   0.7801 B(  0-V ,  5-O ) :   2.1491 B(  1-S ,  8-C ) :   1.1160
B(  2-S ,  6-C ) :   1.1032 B(  3-S ,  9-C ) :   1.1187 B(  4-S ,  7-C ) :   1.1036
B(  6-C ,  7-C ) :   1.6834 B(  6-C , 10-S ) :   0.9351 B(  7-C , 11-S ) :   0.9394
B(  8-C ,  9-C ) :   1.6736 B(  8-C , 13-S ) :   0.9522 B(  9-C , 12-S ) :   0.9538
B( 10-S , 14-C ) :   1.2506 B( 11-S , 14-C ) :   1.2500 B( 12-S , 15-C ) :   1.2967
B( 13-S , 15-C ) :   1.2968 B( 14-C , 16-C ) :   1.4431 B( 15-C , 17-C ) :   1.3446
B( 16-C , 18-S ) :   1.0923 B( 16-C , 19-S ) :   1.0932 B( 17-C , 20-S ) :   1.1208
B( 17-C , 21-S ) :   1.1217 B( 18-S , 32-C ) :   0.9939 B( 19-S , 31-C ) :   0.9941
B( 20-S , 23-C ) :   1.0003 B( 21-S , 22-C ) :   0.9997 B( 22-C , 24-C ) :   0.9134
B( 22-C , 25-H ) :   0.9524 B( 22-C , 26-H ) :   0.9706 B( 23-C , 24-C ) :   0.9139
B( 23-C , 29-H ) :   0.9707 B( 23-C , 30-H ) :   0.9523 B( 24-C , 27-H ) :   0.9374
B( 24-C , 28-H ) :   0.9870 B( 31-C , 33-C ) :   0.9136 B( 31-C , 38-H ) :   0.9672
B( 31-C , 39-H ) :   0.9630 B( 32-C , 33-C ) :   0.9127 B( 32-C , 34-H ) :   0.9629
B( 32-C , 35-H ) :   0.9673 B( 33-C , 36-H ) :   0.9764 B( 33-C , 37-H ) :   0.9565

FINAL SINGLE POINT ENERGY     -6337.695013746757

DIPOLE MOMENT
-------------
                                X             Y             Z
Electronic contribution:     -6.20383      11.64333       2.18025
Nuclear contribution   :      6.75482     -12.96077      -2.74909
                        -----------------------------------------
Total Dipole Moment    :      0.55099      -1.31744      -0.56884
                        -----------------------------------------
Magnitude (a.u.)       :      1.53715
Magnitude (Debye)      :      3.90712

Rotational constants in cm-1:     0.010884     0.000805     0.000784
Rotational constants in MHz :   326.290093    24.126806    23.509960

                             ****ORCA TERMINATED NORMALLY****
TOTAL RUN TIME: 0 days 1 hours 1 minutes 53 seconds 923 msec
