                         Program Version 5.0.4 -  RELEASE  -
|  1> ! nofrozencore ReducedPop printbasis
|  2> ! B3LYP TZVP
|  3>
|  4> %basis
|  5> newgto V "CP(PPP)" end
|  6> end
|  7>
|  8> %pal
|  9> nprocs 6
| 10> end
| 11>
| 12> % sym SymThresh 1e-2 end
| 13> * xyz -2 2
| 14> V 0.5786071734772109 0.7478518968402158 -0.5872739616015714
| 15> S -1.2918418411121328 0.27199526980994443 -2.134556358640369
| 16> S -1.0939414602440536 1.97880499159937 0.7598431269048409
| 17> S 1.489046445460906 -1.4434857798662133 -1.2944221680411192
| 18> S 1.6224679944503897 0.17936486683266825 1.5741320025996008
| 19> O 1.4773419240534162 1.8680766186025994 -1.2666953748239667
| 20> C -0.18478311340089235 2.144741867069032 2.2561025207616607
| 21> C 0.9012045849680609 1.421028099888117 2.5874372301313735
| 22> C -0.6954912857265234 -1.1617210801820341 -2.9594931885721847
| 23> C 0.4122434276475194 -1.8470245399855216 -2.6218161601833745
| 24> S -0.7695588986696152 3.3082976673171838 3.499204114326013
| 25> S 1.598075889832774 1.7098401593982175 4.212292399253435
| 26> S 0.7735812979809794 -3.31424090897054 -3.5927097933483565
| 27> S -1.647447011053372 -1.811838992161419 -4.337381897910859
| 28> C 0.42698111543589695 2.939735702872406 4.732294385796429
| 29> C -0.6486785039598874 -3.239272632312234 -4.6387488424851515
| 30> C 0.47404237731358667 3.5392760465475166 5.960922363606397
| 31> C -0.9398592627830846 -4.180249915654051 -5.587273319766998
| 32> S -0.6306858601278159 4.889571679539922 6.438256826826107
| 33> S 1.6553675947332362 3.034297410289227 7.1647887092773495
| 34> S -2.3882779284375757 -4.061741029250476 -6.617819108523155
| 35> S 0.0885629964602597 -5.615048516933552 -5.8369421479538675
| 36> C -1.1443990142685427 -6.911584100331321 -5.378677852614383
| 37> C -3.2550743152026596 -5.599902922933627 -6.045111263172612
| 38> C -2.422886491612362 -6.872794784376682 -6.218850191804273
| 39> H -1.3740588145518464 -6.80042259506712 -4.316532233668361
| 40> H -0.6283449539369262 -7.864950321089037 -5.517747026090764
| 41> H -3.0456154151646038 -7.731608762697023 -5.93156542728472
| 42> H -2.16581832704847 -6.996338063960389 -7.275572697514949
| 43> H -4.168659828471362 -5.658426562131716 -6.641917563781591
| 44> H -3.537638794987093 -5.458676636704418 -4.999590915965989
| 45> C 2.7066029974321664 4.927972399731088 7.302378796844686
| 46> C 0.41921879544883633 6.0127338594013615 6.652756561542428
| 47> C 1.5767885829688622 5.940635506988906 7.665278115818807
| 48> H 0.8650047973377094 6.327371641988125 5.698169191904207
| 49> H -0.21526393257599943 6.8514643408313844 6.964709646419502
| 50> H 1.188244089436563 5.65847103660448 8.653874007884117
| 51> H 1.941858542411784 7.0179624505018285 7.725963889526068
| 52> H 3.4873072602601325 4.839307910039067 8.057979965888181
| 53> H 3.1284207970663864 5.075290289103909 6.3059400469119655
| 54> *
| 55>
| 56> % eprnmr
| 57> gtensor true
| 58> Nuclei = all H {aiso,adip,aorb,fgrad,rho}
| 59> Nuclei = all V {aiso,adip,aorb,fgrad,rho}
| 60> end
| 61>
| 62>                          ****END OF INPUT****

CARTESIAN COORDINATES (ANGSTROEM)
---------------------------------
  V      0.577072    0.747046   -0.583854
  S     -1.293377    0.271189   -2.131137
  S     -1.095476    1.977999    0.763263
  S      1.487512   -1.444292   -1.291003
  S      1.620933    0.178559    1.577552
  O      1.475807    1.867271   -1.263276
  C     -0.186318    2.143936    2.259522
  C      0.899670    1.420222    2.590857
  C     -0.697026   -1.162527   -2.956074
  C      0.410709   -1.847830   -2.618397
  S     -0.771094    3.307492    3.502624
  S      1.596541    1.709034    4.215712
  S      0.772047   -3.315047   -3.589290
  S     -1.648982   -1.812645   -4.333962
  C      0.425446    2.938930    4.735714
  C     -0.650213   -3.240079   -4.635329
  C      0.472508    3.538470    5.964342
  C     -0.941394   -4.181056   -5.583854
  S     -0.632221    4.888766    6.441676
  S      1.653833    3.033491    7.168208
  S     -2.389813   -4.062547   -6.614399
  S      0.087028   -5.615854   -5.833523
  C     -1.145934   -6.912390   -5.375258
  C     -3.256609   -5.600709   -6.041692
  C     -2.424421   -6.873601   -6.215431
  H     -1.375593   -6.801229   -4.313113
  H     -0.629880   -7.865756   -5.514327
  H     -3.047150   -7.732415   -5.928146
  H     -2.167353   -6.997144   -7.272153
  H     -4.170195   -5.659232   -6.638498
  H     -3.539173   -5.459483   -4.996171
  C      2.705068    4.927166    7.305798
  C      0.417684    6.011928    6.656176
  C      1.575254    5.939830    7.668698
  H      0.863470    6.326566    5.701589
  H     -0.216799    6.850658    6.968129
  H      1.186709    5.657665    8.657294
  H      1.940324    7.017157    7.729384
  H      3.485773    4.838502    8.061400
  H      3.126886    5.074484    6.309360

 Total Charge           Charge          ....   -2
 Multiplicity           Mult            ....    2
 Number of Electrons    NEL             ....  321
 Basis Dimension        Dim             ....  681

ORBITAL ENERGIES
----------------
                 SPIN UP ORBITALS
  NO   OCC          E(Eh)            E(eV)
   0   1.0000    -196.675892     -5351.8231
   1   1.0000     -88.733851     -2414.5708
   2   1.0000     -88.733717     -2414.5672
   3   1.0000     -88.733598     -2414.5639
   4   1.0000     -88.733429     -2414.5594
   5   1.0000     -88.731606     -2414.5098
   6   1.0000     -88.730634     -2414.4833
   7   1.0000     -88.730576     -2414.4817
   8   1.0000     -88.722054     -2414.2498
   9   1.0000     -88.641427     -2412.0558
  10   1.0000     -88.641020     -2412.0448
  11   1.0000     -88.640600     -2412.0333
  12   1.0000     -88.640157     -2412.0213
  13   1.0000     -22.051283      -600.0459
  14   1.0000     -18.891191      -514.0554
  15   1.0000     -18.557730      -504.9815
  16   1.0000     -18.552559      -504.8408
  17   1.0000     -18.552458      -504.8381
  18   1.0000     -10.076776      -274.2030
  19   1.0000     -10.076357      -274.1916
  20   1.0000     -10.070144      -274.0225
  21   1.0000     -10.063815      -273.8503
  22   1.0000     -10.063374      -273.8383
  23   1.0000     -10.055351      -273.6200
  24   1.0000     -10.051454      -273.5140
  25   1.0000     -10.048857      -273.4433
  26   1.0000     -10.048704      -273.4391
  27   1.0000     -10.047507      -273.4066
  28   1.0000     -10.020742      -272.6782
  29   1.0000     -10.019427      -272.6425
  30   1.0000     -10.018557      -272.6188
  31   1.0000     -10.017763      -272.5972
  32   1.0000      -7.787090      -211.8975
  33   1.0000      -7.786934      -211.8933
  34   1.0000      -7.786924      -211.8930
  35   1.0000      -7.784661      -211.8314
  36   1.0000      -7.784640      -211.8308
  37   1.0000      -7.783889      -211.8104
  38   1.0000      -7.783862      -211.8097
  39   1.0000      -7.783373      -211.7964
  40   1.0000      -7.695710      -209.4109
  41   1.0000      -7.695251      -209.3984
  42   1.0000      -7.694885      -209.3885
  43   1.0000      -7.694497      -209.3779
  44   1.0000      -5.752080      -156.5221
  45   1.0000      -5.751916      -156.5176
  46   1.0000      -5.751746      -156.5130
  47   1.0000      -5.749646      -156.4558
  48   1.0000      -5.749616      -156.4550
  49   1.0000      -5.748837      -156.4338
  50   1.0000      -5.748811      -156.4331
  51   1.0000      -5.748671      -156.4293
  52   1.0000      -5.748497      -156.4246
  53   1.0000      -5.748072      -156.4130
  54   1.0000      -5.747385      -156.3943
  55   1.0000      -5.746757      -156.3772
  56   1.0000      -5.745183      -156.3344
  57   1.0000      -5.744416      -156.3135
  58   1.0000      -5.744384      -156.3126
  59   1.0000      -5.743782      -156.2962
  60   1.0000      -5.742938      -156.2733
  61   1.0000      -5.741893      -156.2448
  62   1.0000      -5.741741      -156.2407
  63   1.0000      -5.740485      -156.2065
  64   1.0000      -5.739692      -156.1850
  65   1.0000      -5.739671      -156.1844
  66   1.0000      -5.739379      -156.1764
  67   1.0000      -5.737927      -156.1369
  68   1.0000      -5.661028      -154.0444
  69   1.0000      -5.660602      -154.0328
  70   1.0000      -5.660187      -154.0215
  71   1.0000      -5.659786      -154.0106
  72   1.0000      -5.654326      -153.8620
  73   1.0000      -5.653917      -153.8509
  74   1.0000      -5.653553      -153.8410
  75   1.0000      -5.653182      -153.8309
  76   1.0000      -5.653058      -153.8275
  77   1.0000      -5.652538      -153.8134
  78   1.0000      -5.652215      -153.8046
  79   1.0000      -5.651809      -153.7935
  80   1.0000      -2.444939       -66.5302
  81   1.0000      -1.486241       -40.4427
  82   1.0000      -1.474582       -40.1254
  83   1.0000      -1.473767       -40.1032
  84   1.0000      -0.727631       -19.7999
  85   1.0000      -0.709966       -19.3191
  86   1.0000      -0.695469       -18.9247
  87   1.0000      -0.685949       -18.6656
  88   1.0000      -0.650767       -17.7083
  89   1.0000      -0.631712       -17.1898
  90   1.0000      -0.629830       -17.1386
  91   1.0000      -0.618590       -16.8327
  92   1.0000      -0.617532       -16.8039
  93   1.0000      -0.578087       -15.7305
  94   1.0000      -0.575057       -15.6481
  95   1.0000      -0.573558       -15.6073
  96   1.0000      -0.567828       -15.4514
  97   1.0000      -0.497962       -13.5502
  98   1.0000      -0.496642       -13.5143
  99   1.0000      -0.496243       -13.5034
 100   1.0000      -0.491756       -13.3813
 101   1.0000      -0.480362       -13.0713
 102   1.0000      -0.478032       -13.0079
 103   1.0000      -0.446865       -12.1598
 104   1.0000      -0.441306       -12.0086
 105   1.0000      -0.416875       -11.3437
 106   1.0000      -0.411930       -11.2092
 107   1.0000      -0.362809        -9.8725
 108   1.0000      -0.355552        -9.6751
 109   1.0000      -0.326838        -8.8937
 110   1.0000      -0.325085        -8.8460
 111   1.0000      -0.319353        -8.6900
 112   1.0000      -0.314857        -8.5677
 113   1.0000      -0.304307        -8.2806
 114   1.0000      -0.299085        -8.1385
 115   1.0000      -0.295697        -8.0463
 116   1.0000      -0.292548        -7.9606
 117   1.0000      -0.267484        -7.2786
 118   1.0000      -0.257478        -7.0063
 119   1.0000      -0.257079        -6.9955
 120   1.0000      -0.245812        -6.6889
 121   1.0000      -0.237774        -6.4702
 122   1.0000      -0.234795        -6.3891
 123   1.0000      -0.230960        -6.2847
 124   1.0000      -0.229300        -6.2396
 125   1.0000      -0.220408        -5.9976
 126   1.0000      -0.217982        -5.9316
 127   1.0000      -0.213598        -5.8123
 128   1.0000      -0.212488        -5.7821
 129   1.0000      -0.193468        -5.2645
 130   1.0000      -0.188472        -5.1286
 131   1.0000      -0.187636        -5.1058
 132   1.0000      -0.181786        -4.9466
 133   1.0000      -0.172681        -4.6989
 134   1.0000      -0.160482        -4.3669
 135   1.0000      -0.150832        -4.1044
 136   1.0000      -0.145637        -3.9630
 137   1.0000      -0.135190        -3.6787
 138   1.0000      -0.134556        -3.6614
 139   1.0000      -0.130828        -3.5600
 140   1.0000      -0.124889        -3.3984
 141   1.0000      -0.122000        -3.3198
 142   1.0000      -0.114485        -3.1153
 143   1.0000      -0.109686        -2.9847
 144   1.0000      -0.100829        -2.7437
 145   1.0000      -0.098905        -2.6913
 146   1.0000      -0.097012        -2.6398
 147   1.0000      -0.091510        -2.4901
 148   1.0000      -0.075524        -2.0551
 149   1.0000      -0.067734        -1.8431
 150   1.0000      -0.063848        -1.7374
 151   1.0000      -0.053411        -1.4534
 152   1.0000      -0.046609        -1.2683
 153   1.0000      -0.038102        -1.0368
 154   1.0000      -0.037857        -1.0301
 155   1.0000      -0.031735        -0.8636
 156   1.0000      -0.025975        -0.7068
 157   1.0000      -0.020114        -0.5473
 158   1.0000      -0.016558        -0.4506
 159   1.0000       0.019281         0.5247
 160   1.0000       0.040120         1.0917
 161   0.0000       0.109420         2.9775
 162   0.0000       0.136947         3.7265
 163   0.0000       0.151614         4.1256
 164   0.0000       0.161936         4.4065
 165   0.0000       0.165067         4.4917

                 SPIN DOWN ORBITALS
  NO   OCC          E(Eh)            E(eV)
   0   1.0000    -196.676039     -5351.8271
   1   1.0000     -88.733852     -2414.5709
   2   1.0000     -88.733717     -2414.5672
   3   1.0000     -88.733607     -2414.5642
   4   1.0000     -88.733430     -2414.5594
   5   1.0000     -88.731615     -2414.5100
   6   1.0000     -88.730642     -2414.4835
   7   1.0000     -88.730584     -2414.4819
   8   1.0000     -88.722055     -2414.2499
   9   1.0000     -88.641567     -2412.0597
  10   1.0000     -88.641160     -2412.0486
  11   1.0000     -88.640738     -2412.0371
  12   1.0000     -88.640297     -2412.0251
  13   1.0000     -22.036352      -599.6396
  14   1.0000     -18.894977      -514.1585
  15   1.0000     -18.552462      -504.8382
  16   1.0000     -18.536526      -504.4045
  17   1.0000     -18.536342      -504.3995
  18   1.0000     -10.076769      -274.2028
  19   1.0000     -10.076356      -274.1916
  20   1.0000     -10.070136      -274.0223
  21   1.0000     -10.063815      -273.8503
  22   1.0000     -10.063374      -273.8383
  23   1.0000     -10.055351      -273.6200
  24   1.0000     -10.051454      -273.5140
  25   1.0000     -10.048853      -273.4432
  26   1.0000     -10.048704      -273.4391
  27   1.0000     -10.047497      -273.4063
  28   1.0000     -10.020502      -272.6717
  29   1.0000     -10.019208      -272.6365
  30   1.0000     -10.018343      -272.6130
  31   1.0000     -10.017551      -272.5914
  32   1.0000      -7.787091      -211.8975
  33   1.0000      -7.786935      -211.8933
  34   1.0000      -7.786934      -211.8932
  35   1.0000      -7.784671      -211.8317
  36   1.0000      -7.784641      -211.8308
  37   1.0000      -7.783899      -211.8107
  38   1.0000      -7.783871      -211.8099
  39   1.0000      -7.783374      -211.7964
  40   1.0000      -7.695840      -209.4145
  41   1.0000      -7.695382      -209.4020
  42   1.0000      -7.695014      -209.3920
  43   1.0000      -7.694627      -209.3815
  44   1.0000      -5.752081      -156.5221
  45   1.0000      -5.751917      -156.5176
  46   1.0000      -5.751757      -156.5133
  47   1.0000      -5.749648      -156.4559
  48   1.0000      -5.749626      -156.4553
  49   1.0000      -5.748847      -156.4341
  50   1.0000      -5.748822      -156.4334
  51   1.0000      -5.748672      -156.4293
  52   1.0000      -5.748498      -156.4246
  53   1.0000      -5.748074      -156.4130
  54   1.0000      -5.747399      -156.3947
  55   1.0000      -5.746759      -156.3773
  56   1.0000      -5.745197      -156.3348
  57   1.0000      -5.744430      -156.3139
  58   1.0000      -5.744398      -156.3130
  59   1.0000      -5.743783      -156.2963
  60   1.0000      -5.742948      -156.2736
  61   1.0000      -5.741894      -156.2449
  62   1.0000      -5.741741      -156.2407
  63   1.0000      -5.740495      -156.2068
  64   1.0000      -5.739698      -156.1851
  65   1.0000      -5.739677      -156.1846
  66   1.0000      -5.739379      -156.1765
  67   1.0000      -5.737927      -156.1369
  68   1.0000      -5.661166      -154.0482
  69   1.0000      -5.660744      -154.0367
  70   1.0000      -5.660330      -154.0254
  71   1.0000      -5.659928      -154.0145
  72   1.0000      -5.654713      -153.8726
  73   1.0000      -5.654297      -153.8612
  74   1.0000      -5.653907      -153.8506
  75   1.0000      -5.653544      -153.8407
  76   1.0000      -5.653145      -153.8299
  77   1.0000      -5.652631      -153.8159
  78   1.0000      -5.652322      -153.8075
  79   1.0000      -5.651916      -153.7964
  80   1.0000      -2.400054       -65.3088
  81   1.0000      -1.466945       -39.9176
  82   1.0000      -1.412201       -38.4279
  83   1.0000      -1.412044       -38.4237
  84   1.0000      -0.727626       -19.7997
  85   1.0000      -0.709950       -19.3187
  86   1.0000      -0.695397       -18.9227
  87   1.0000      -0.685906       -18.6645
  88   1.0000      -0.658891       -17.9293
  89   1.0000      -0.631655       -17.1882
  90   1.0000      -0.629741       -17.1361
  91   1.0000      -0.618583       -16.8325
  92   1.0000      -0.617534       -16.8040
  93   1.0000      -0.578054       -15.7297
  94   1.0000      -0.575035       -15.6475
  95   1.0000      -0.573495       -15.6056
  96   1.0000      -0.567757       -15.4495
  97   1.0000      -0.497973       -13.5505
  98   1.0000      -0.496677       -13.5153
  99   1.0000      -0.496284       -13.5046
 100   1.0000      -0.491834       -13.3835
 101   1.0000      -0.480535       -13.0760
 102   1.0000      -0.478271       -13.0144
 103   1.0000      -0.446895       -12.1606
 104   1.0000      -0.441345       -12.0096
 105   1.0000      -0.416874       -11.3437
 106   1.0000      -0.412038       -11.2121
 107   1.0000      -0.362803        -9.8724
 108   1.0000      -0.355547        -9.6749
 109   1.0000      -0.326827        -8.8934
 110   1.0000      -0.325061        -8.8454
 111   1.0000      -0.319271        -8.6878
 112   1.0000      -0.314877        -8.5682
 113   1.0000      -0.304268        -8.2796
 114   1.0000      -0.299047        -8.1375
 115   1.0000      -0.295691        -8.0462
 116   1.0000      -0.292544        -7.9605
 117   1.0000      -0.267428        -7.2771
 118   1.0000      -0.257393        -7.0040
 119   1.0000      -0.257010        -6.9936
 120   1.0000      -0.245701        -6.6859
 121   1.0000      -0.237752        -6.4696
 122   1.0000      -0.234758        -6.3881
 123   1.0000      -0.230917        -6.2836
 124   1.0000      -0.229235        -6.2378
 125   1.0000      -0.220081        -5.9887
 126   1.0000      -0.217758        -5.9255
 127   1.0000      -0.213526        -5.8103
 128   1.0000      -0.212334        -5.7779
 129   1.0000      -0.191550        -5.2124
 130   1.0000      -0.188246        -5.1224
 131   1.0000      -0.187522        -5.1027
 132   1.0000      -0.181639        -4.9427
 133   1.0000      -0.172536        -4.6950
 134   1.0000      -0.159872        -4.3503
 135   1.0000      -0.150667        -4.0999
 136   1.0000      -0.145546        -3.9605
 137   1.0000      -0.134667        -3.6645
 138   1.0000      -0.134274        -3.6538
 139   1.0000      -0.130119        -3.5407
 140   1.0000      -0.124690        -3.3930
 141   1.0000      -0.121701        -3.3116
 142   1.0000      -0.116274        -3.1640
 143   1.0000      -0.111322        -3.0292
 144   1.0000      -0.100854        -2.7444
 145   1.0000      -0.099207        -2.6995
 146   1.0000      -0.097064        -2.6412
 147   1.0000      -0.091670        -2.4945
 148   1.0000      -0.071696        -1.9509
 149   1.0000      -0.067723        -1.8428
 150   1.0000      -0.063846        -1.7374
 151   1.0000      -0.050841        -1.3835
 152   1.0000      -0.045672        -1.2428
 153   1.0000      -0.037927        -1.0320
 154   1.0000      -0.037504        -1.0205
 155   1.0000      -0.031755        -0.8641
 156   1.0000      -0.027014        -0.7351
 157   1.0000      -0.016776        -0.4565
 158   1.0000       0.019552         0.5320
 159   1.0000       0.039030         1.0621
 160   0.0000       0.109437         2.9779
 161   0.0000       0.136936         3.7262
 162   0.0000       0.151506         4.1227
 163   0.0000       0.155172         4.2224
 164   0.0000       0.162504         4.4220

MULLIKEN ATOMIC CHARGES AND SPIN POPULATIONS
--------------------------------------------
   0 V :    0.470959    1.210839
   1 S :   -0.291029   -0.022688
   2 S :   -0.288649   -0.025040
   3 S :   -0.288833   -0.023554
   4 S :   -0.281135   -0.025651
   5 O :   -0.466955   -0.146812
   6 C :   -0.079281    0.009588
   7 C :   -0.084355    0.008044
   8 C :   -0.083675    0.007777
   9 C :   -0.084600    0.007369
  10 S :    0.104402   -0.000684
  11 S :    0.110862   -0.000670
  12 S :    0.100242   -0.000392
  13 S :    0.099354   -0.000348
  14 C :   -0.220359    0.001521
  15 C :   -0.211822    0.000990
  16 C :   -0.183919    0.000016
  17 C :   -0.190643   -0.000401
  18 S :    0.062880   -0.000114
  19 S :   -0.041904   -0.000134
  20 S :    0.007594   -0.000068
  21 S :    0.009136   -0.000070
  22 C :   -0.300053   -0.000001
  23 C :   -0.299870   -0.000003
  24 C :   -0.158572   -0.000010
  25 H :    0.143035   -0.000001
  26 H :    0.113777   -0.000004
  27 H :    0.083688   -0.000001
  28 H :    0.092157   -0.000001
  29 H :    0.113699   -0.000005
  30 H :    0.142844   -0.000001
  31 C :   -0.320713    0.000533
  32 C :   -0.289376    0.000164
  33 C :   -0.127346   -0.000227
  34 H :    0.123461   -0.000019
  35 H :    0.098696    0.000027
  36 H :    0.084645    0.000029
  37 H :    0.071526    0.000016
  38 H :    0.117135    0.000015
  39 H :    0.142995   -0.000029
Sum of atomic charges         :   -2.0000000

LOEWDIN ATOMIC CHARGES AND SPIN POPULATIONS
-------------------------------------------
   0 V :   -0.155629    1.164156
   1 S :    0.080154   -0.014652
   2 S :    0.079576   -0.015934
   3 S :    0.081648   -0.015394
   4 S :    0.086433   -0.016296
   5 O :   -0.318430   -0.131712
   6 C :   -0.547805    0.008981
   7 C :   -0.551319    0.007910
   8 C :   -0.552310    0.008124
   9 C :   -0.552289    0.007668
  10 S :    0.479735   -0.000990
  11 S :    0.477173   -0.000985
  12 S :    0.471512   -0.000826
  13 S :    0.470650   -0.000831
  14 C :   -0.466122    0.000272
  15 C :   -0.465166   -0.000081
  16 C :   -0.617063    0.000433
  17 C :   -0.621890    0.000084
  18 S :    0.456433   -0.000087
  19 S :    0.285984   -0.000093
  20 S :    0.357923   -0.000073
  21 S :    0.359913   -0.000075
  22 C :   -0.284588   -0.000007
  23 C :   -0.281984   -0.000009
  24 C :   -0.176033   -0.000002
  25 H :    0.062467   -0.000002
  26 H :    0.053693   -0.000002
  27 H :    0.058082   -0.000002
  28 H :    0.060213   -0.000001
  29 H :    0.053597   -0.000002
  30 H :    0.062484   -0.000002
  31 C :   -0.217744    0.000379
  32 C :   -0.391972    0.000012
  33 C :   -0.180490   -0.000001
  34 H :    0.049112   -0.000004
  35 H :    0.058380    0.000011
  36 H :    0.058302    0.000007
  37 H :    0.060025    0.000010
  38 H :    0.052849    0.000011
  39 H :    0.064499    0.000003

  Mayer bond orders larger than 0.100000
B(  0-V ,  1-S ) :   0.7731 B(  0-V ,  2-S ) :   0.7687 B(  0-V ,  3-S ) :   0.7667
B(  0-V ,  4-S ) :   0.7768 B(  0-V ,  5-O ) :   2.1494 B(  1-S ,  8-C ) :   1.1032
B(  2-S ,  6-C ) :   1.1073 B(  3-S ,  9-C ) :   1.1060 B(  4-S ,  7-C ) :   1.1085
B(  6-C ,  7-C ) :   1.6754 B(  6-C , 10-S ) :   0.9342 B(  7-C , 11-S ) :   0.9481
B(  8-C ,  9-C ) :   1.6985 B(  8-C , 13-S ) :   0.9337 B(  9-C , 12-S ) :   0.9356
B( 10-S , 14-C ) :   1.2611 B( 11-S , 14-C ) :   1.2407 B( 12-S , 15-C ) :   1.2464
B( 13-S , 15-C ) :   1.2460 B( 14-C , 16-C ) :   1.4255 B( 15-C , 17-C ) :   1.4541
B( 16-C , 18-S ) :   1.0238 B( 16-C , 19-S ) :   1.1542 B( 17-C , 20-S ) :   1.0889
B( 17-C , 21-S ) :   1.0881 B( 18-S , 32-C ) :   1.1734 B( 19-S , 31-C ) :   0.8729
B( 20-S , 23-C ) :   0.9894 B( 21-S , 22-C ) :   0.9924 B( 22-C , 24-C ) :   0.9131
B( 22-C , 25-H ) :   0.9657 B( 22-C , 26-H ) :   0.9655 B( 23-C , 24-C ) :   0.9143
B( 23-C , 29-H ) :   0.9657 B( 23-C , 30-H ) :   0.9656 B( 24-C , 27-H ) :   0.9625
B( 24-C , 28-H ) :   0.9719 B( 31-C , 33-C ) :   0.9314 B( 31-C , 38-H ) :   0.9630
B( 31-C , 39-H ) :   0.9635 B( 32-C , 33-C ) :   0.8638 B( 32-C , 34-H ) :   0.9531
B( 32-C , 35-H ) :   0.9423 B( 33-C , 36-H ) :   0.9695 B( 33-C , 37-H ) :   0.9569

FINAL SINGLE POINT ENERGY     -6337.640992822625

DIPOLE MOMENT
-------------
                                X             Y             Z
Electronic contribution:      6.01962       6.92001     -10.06261
Nuclear contribution   :     -6.89066      -7.85735      10.90727
                        -----------------------------------------
Total Dipole Moment    :     -0.87104      -0.93733       0.84466
                        -----------------------------------------
Magnitude (a.u.)       :      1.53322
Magnitude (Debye)      :      3.89713

Rotational constants in cm-1:     0.010749     0.000804     0.000783
Rotational constants in MHz :   322.242743    24.112840    23.485293

                             ****ORCA TERMINATED NORMALLY****
TOTAL RUN TIME: 0 days 1 hours 6 minutes 39 seconds 507 msec
