                         Program Version 5.0.4 -  RELEASE  -
|  1> ! nofrozencore ReducedPop printbasis
|  2> ! B3LYP TZVP
|  3>
|  4> %basis
|  5> newgto V "CP(PPP)" end
|  6> end
|  7>
|  8> %pal
|  9> nprocs 8
| 10> end
| 11>
| 12> % sym SymThresh 1e-2 end
| 13> * xyz -2 2
| 14> V 1.050613142938072 -0.1613404331062911 0.29322614831535737
| 15> S 0.8530500138868707 -1.523922167613112 -1.6172739540779615
| 16> S 1.0481385993812629 1.819273650386537 -1.3149120178864928
| 17> S -0.15390464488026756 -1.9366359565292728 1.2519358198163464
| 18> S -0.2093987383087594 1.2686570244360196 1.9739061025116782
| 19> O 2.537389966187977 -0.5316033597102222 0.7742975864933205
| 20> C 0.9073464091602496 2.978442763346753 0.025298846166547328
| 21> C 0.4268498867670389 2.769923752247559 1.2710917101809647
| 22> C 0.07567033857903725 -3.047030581460167 -1.1831859952935753
| 23> C -0.3668077078785301 -3.227454901415595 0.0683459994100026
| 24> S 1.0268058148198247 4.695690368833838 -0.4905382353062131
| 25> S -0.02900286656396237 4.240343703730271 2.1957113551378113
| 26> S -1.02691280002537 -4.8560273780386485 0.47439191837565714
| 27> S -0.03715451456927492 -4.456225042196418 -2.300587498252709
| 28> C 0.4862272430446374 5.447302173947096 1.0134938244614262
| 29> C -0.8229774830329875 -5.549808851792966 -1.1467837817492568
| 30> C 0.49697726582669527 6.797740360775125 1.2497846711627194
| 31> C -1.2782366617212941 -6.793324710003829 -1.4888748411941786
| 32> S 1.0359146697573742 7.995587162929541 0.04592525334480192
| 33> S -0.10007139994988694 7.518485826604417 2.765390264344177
| 34> S -1.1381499367160002 -7.399156932525167 -3.1665852374783956
| 35> S -2.1733386403210124 -7.792384664844647 -0.3066429353215057
| 36> C -3.8000444813802976 -7.869867862445181 -1.1850037570082421
| 37> C -2.940694148090271 -7.542420867136828 -3.5601136501078967
| 38> C -3.687520162309113 -8.460548011760052 -2.5913106644761417
| 39> H -4.222974225743072 -6.861923748428002 -1.2206299265520533
| 40> H -4.441088021139977 -8.488476857160233 -0.5510651219811507
| 41> H -4.70264602983663 -8.633453506537583 -2.982306598957874
| 42> H -3.1829691140706595 -9.43369549139477 -2.5426450520267676
| 43> H -2.982979982586444 -7.933164055405423 -4.580603825547453
| 44> H -3.3770930933461294 -6.539517471445405 -3.558155409012958
| 45> C 1.4655735483688415 8.328578956296058 3.34134943573087
| 46> C 2.451463165946484 8.733508767597902 0.9909899480157117
| 47> C 2.067173418964247 9.32843588476863 2.349182950784927
| 48> H 3.2149368043846884 7.9605040157846565 1.107541785676336
| 49> H 2.853766197811057 9.513992823516094 0.3391867544587444
| 50> H 1.3641776008897868 10.155876330132951 2.196206243753719
| 51> H 2.9756616228622876 9.752854471392004 2.8037181807206584
| 52> H 1.19794849765043 8.83690236393709 4.271863916569926
| 53> H 2.181856198677739 7.538322983421394 3.5790922358939423
| 54> *
| 55>
| 56> % eprnmr
| 57> gtensor true
| 58> Nuclei = all H {aiso,adip,aorb,fgrad,rho}
| 59> Nuclei = all V {aiso,adip,aorb,fgrad,rho}
| 60> end
| 61>
| 62>                          ****END OF INPUT****

CARTESIAN COORDINATES (ANGSTROEM)
---------------------------------
  V      1.047988   -0.158597    0.292698
  S      0.850425   -1.521179   -1.617802
  S      1.045513    1.822017   -1.315440
  S     -0.156530   -1.933892    1.251408
  S     -0.212024    1.271401    1.973378
  O      2.534765   -0.528860    0.773770
  C      0.904721    2.981186    0.024771
  C      0.424225    2.772667    1.270564
  C      0.073045   -3.044287   -1.183714
  C     -0.369433   -3.224711    0.067818
  S      1.024181    4.698434   -0.491066
  S     -0.031628    4.243087    2.195183
  S     -1.029538   -4.853284    0.473864
  S     -0.039780   -4.453481   -2.301115
  C      0.483602    5.450046    1.012966
  C     -0.825603   -5.547065   -1.147312
  C      0.494352    6.800484    1.249257
  C     -1.280862   -6.790581   -1.489403
  S      1.033290    7.998331    0.045397
  S     -0.102697    7.521229    2.764862
  S     -1.140775   -7.396413   -3.167113
  S     -2.175964   -7.789641   -0.307171
  C     -3.802670   -7.867124   -1.185532
  C     -2.943319   -7.539677   -3.560642
  C     -3.690145   -8.457804   -2.591839
  H     -4.225599   -6.859180   -1.221158
  H     -4.443713   -8.485733   -0.551593
  H     -4.705271   -8.630710   -2.982835
  H     -3.185594   -9.430952   -2.543173
  H     -2.985605   -7.930420   -4.581132
  H     -3.379718   -6.536774   -3.558683
  C      1.462948    8.331323    3.340821
  C      2.448838    8.736252    0.990462
  C      2.064548    9.331180    2.348655
  H      3.212312    7.963248    1.107014
  H      2.851141    9.516736    0.338659
  H      1.361552   10.158620    2.195678
  H      2.973037    9.755598    2.803190
  H      1.195323    8.839646    4.271336
  H      2.179231    7.541067    3.578564

 Total Charge           Charge          ....   -2
 Multiplicity           Mult            ....    2
 Number of Electrons    NEL             ....  321
 Basis Dimension        Dim             ....  681

ORBITAL ENERGIES
----------------
                 SPIN UP ORBITALS
  NO   OCC          E(Eh)            E(eV)
   0   1.0000    -196.670456     -5351.6752
   1   1.0000     -88.738166     -2414.6883
   2   1.0000     -88.737750     -2414.6769
   3   1.0000     -88.736421     -2414.6408
   4   1.0000     -88.736198     -2414.6347
   5   1.0000     -88.729119     -2414.4421
   6   1.0000     -88.729091     -2414.4413
   7   1.0000     -88.724938     -2414.3283
   8   1.0000     -88.724757     -2414.3234
   9   1.0000     -88.640446     -2412.0292
  10   1.0000     -88.640021     -2412.0176
  11   1.0000     -88.638673     -2411.9809
  12   1.0000     -88.638499     -2411.9762
  13   1.0000     -22.045259      -599.8820
  14   1.0000     -18.882947      -513.8311
  15   1.0000     -18.552070      -504.8275
  16   1.0000     -18.546425      -504.6739
  17   1.0000     -18.546323      -504.6711
  18   1.0000     -10.081313      -274.3265
  19   1.0000     -10.071402      -274.0568
  20   1.0000     -10.067223      -273.9431
  21   1.0000     -10.067027      -273.9377
  22   1.0000     -10.060682      -273.7651
  23   1.0000     -10.060608      -273.7631
  24   1.0000     -10.054279      -273.5908
  25   1.0000     -10.054064      -273.5850
  26   1.0000     -10.049729      -273.4670
  27   1.0000     -10.045427      -273.3500
  28   1.0000     -10.019420      -272.6423
  29   1.0000     -10.019146      -272.6348
  30   1.0000     -10.018569      -272.6191
  31   1.0000     -10.018315      -272.6122
  32   1.0000      -7.791482      -212.0170
  33   1.0000      -7.791111      -212.0069
  34   1.0000      -7.789176      -211.9542
  35   1.0000      -7.789028      -211.9502
  36   1.0000      -7.782541      -211.7737
  37   1.0000      -7.782526      -211.7733
  38   1.0000      -7.778349      -211.6596
  39   1.0000      -7.778190      -211.6553
  40   1.0000      -7.695329      -209.4005
  41   1.0000      -7.694955      -209.3904
  42   1.0000      -7.692332      -209.3190
  43   1.0000      -7.692068      -209.3118
  44   1.0000      -5.756520      -156.6429
  45   1.0000      -5.756147      -156.6327
  46   1.0000      -5.754106      -156.5772
  47   1.0000      -5.753952      -156.5730
  48   1.0000      -5.753049      -156.5484
  49   1.0000      -5.752667      -156.5380
  50   1.0000      -5.749865      -156.4618
  51   1.0000      -5.749709      -156.4575
  52   1.0000      -5.747542      -156.3986
  53   1.0000      -5.747530      -156.3982
  54   1.0000      -5.746257      -156.3636
  55   1.0000      -5.745894      -156.3537
  56   1.0000      -5.744937      -156.3277
  57   1.0000      -5.744794      -156.3238
  58   1.0000      -5.744112      -156.3052
  59   1.0000      -5.744086      -156.3045
  60   1.0000      -5.743368      -156.2850
  61   1.0000      -5.743213      -156.2808
  62   1.0000      -5.738747      -156.1592
  63   1.0000      -5.738590      -156.1550
  64   1.0000      -5.737326      -156.1206
  65   1.0000      -5.737324      -156.1205
  66   1.0000      -5.734176      -156.0349
  67   1.0000      -5.734004      -156.0302
  68   1.0000      -5.660648      -154.0341
  69   1.0000      -5.660303      -154.0247
  70   1.0000      -5.657779      -153.9560
  71   1.0000      -5.657554      -153.9499
  72   1.0000      -5.653761      -153.8467
  73   1.0000      -5.653375      -153.8362
  74   1.0000      -5.652752      -153.8192
  75   1.0000      -5.652346      -153.8082
  76   1.0000      -5.651107      -153.7744
  77   1.0000      -5.650855      -153.7676
  78   1.0000      -5.649527      -153.7315
  79   1.0000      -5.649249      -153.7239
  80   1.0000      -2.439014       -66.3689
  81   1.0000      -1.479005       -40.2458
  82   1.0000      -1.469155       -39.9777
  83   1.0000      -1.468636       -39.9636
  84   1.0000      -0.713142       -19.4056
  85   1.0000      -0.704669       -19.1750
  86   1.0000      -0.688661       -18.7394
  87   1.0000      -0.681813       -18.5531
  88   1.0000      -0.642866       -17.4933
  89   1.0000      -0.634702       -17.2711
  90   1.0000      -0.627609       -17.0781
  91   1.0000      -0.621308       -16.9066
  92   1.0000      -0.612409       -16.6645
  93   1.0000      -0.577917       -15.7259
  94   1.0000      -0.575528       -15.6609
  95   1.0000      -0.570815       -15.5327
  96   1.0000      -0.568265       -15.4633
  97   1.0000      -0.501864       -13.6564
  98   1.0000      -0.497662       -13.5421
  99   1.0000      -0.491926       -13.3860
 100   1.0000      -0.490442       -13.3456
 101   1.0000      -0.477923       -13.0049
 102   1.0000      -0.473524       -12.8853
 103   1.0000      -0.451028       -12.2731
 104   1.0000      -0.441993       -12.0272
 105   1.0000      -0.417293       -11.3551
 106   1.0000      -0.411564       -11.1992
 107   1.0000      -0.358801        -9.7635
 108   1.0000      -0.352248        -9.5851
 109   1.0000      -0.331479        -9.0200
 110   1.0000      -0.322228        -8.7683
 111   1.0000      -0.321158        -8.7392
 112   1.0000      -0.311584        -8.4786
 113   1.0000      -0.305198        -8.3049
 114   1.0000      -0.301720        -8.2102
 115   1.0000      -0.294994        -8.0272
 116   1.0000      -0.289026        -7.8648
 117   1.0000      -0.259880        -7.0717
 118   1.0000      -0.259488        -7.0610
 119   1.0000      -0.254085        -6.9140
 120   1.0000      -0.253617        -6.9013
 121   1.0000      -0.238793        -6.4979
 122   1.0000      -0.235834        -6.4174
 123   1.0000      -0.231108        -6.2888
 124   1.0000      -0.225711        -6.1419
 125   1.0000      -0.224386        -6.1058
 126   1.0000      -0.216367        -5.8876
 127   1.0000      -0.215187        -5.8555
 128   1.0000      -0.207162        -5.6372
 129   1.0000      -0.194649        -5.2967
 130   1.0000      -0.189289        -5.1508
 131   1.0000      -0.186985        -5.0881
 132   1.0000      -0.182664        -4.9705
 133   1.0000      -0.176136        -4.7929
 134   1.0000      -0.160057        -4.3554
 135   1.0000      -0.153478        -4.1764
 136   1.0000      -0.144383        -3.9289
 137   1.0000      -0.138950        -3.7810
 138   1.0000      -0.136187        -3.7058
 139   1.0000      -0.131062        -3.5664
 140   1.0000      -0.118614        -3.2277
 141   1.0000      -0.117810        -3.2058
 142   1.0000      -0.106788        -2.9059
 143   1.0000      -0.106048        -2.8857
 144   1.0000      -0.100217        -2.7270
 145   1.0000      -0.096468        -2.6250
 146   1.0000      -0.095331        -2.5941
 147   1.0000      -0.091807        -2.4982
 148   1.0000      -0.077160        -2.0996
 149   1.0000      -0.073151        -1.9905
 150   1.0000      -0.061532        -1.6744
 151   1.0000      -0.050179        -1.3655
 152   1.0000      -0.048551        -1.3212
 153   1.0000      -0.038834        -1.0567
 154   1.0000      -0.029043        -0.7903
 155   1.0000      -0.028973        -0.7884
 156   1.0000      -0.020334        -0.5533
 157   1.0000      -0.013666        -0.3719
 158   1.0000      -0.010071        -0.2740
 159   1.0000       0.019483         0.5302
 160   1.0000       0.039872         1.0850
 161   0.0000       0.133397         3.6299
 162   0.0000       0.140685         3.8282
 163   0.0000       0.158155         4.3036
 164   0.0000       0.165023         4.4905
 165   0.0000       0.168801         4.5933

                 SPIN DOWN ORBITALS
  NO   OCC          E(Eh)            E(eV)
   0   1.0000    -196.670582     -5351.6786
   1   1.0000     -88.738167     -2414.6883
   2   1.0000     -88.737751     -2414.6770
   3   1.0000     -88.736433     -2414.6411
   4   1.0000     -88.736210     -2414.6350
   5   1.0000     -88.729120     -2414.4421
   6   1.0000     -88.729092     -2414.4413
   7   1.0000     -88.724931     -2414.3281
   8   1.0000     -88.724751     -2414.3232
   9   1.0000     -88.640553     -2412.0321
  10   1.0000     -88.640133     -2412.0206
  11   1.0000     -88.638772     -2411.9836
  12   1.0000     -88.638602     -2411.9790
  13   1.0000     -22.030629      -599.4839
  14   1.0000     -18.886639      -513.9316
  15   1.0000     -18.546877      -504.6862
  16   1.0000     -18.530927      -504.2522
  17   1.0000     -18.530327      -504.2358
  18   1.0000     -10.081310      -274.3264
  19   1.0000     -10.071386      -274.0563
  20   1.0000     -10.067223      -273.9431
  21   1.0000     -10.067027      -273.9377
  22   1.0000     -10.060680      -273.7650
  23   1.0000     -10.060606      -273.7630
  24   1.0000     -10.054279      -273.5908
  25   1.0000     -10.054065      -273.5850
  26   1.0000     -10.049729      -273.4670
  27   1.0000     -10.045393      -273.3490
  28   1.0000     -10.019193      -272.6361
  29   1.0000     -10.018915      -272.6285
  30   1.0000     -10.018359      -272.6134
  31   1.0000     -10.018086      -272.6060
  32   1.0000      -7.791483      -212.0170
  33   1.0000      -7.791112      -212.0069
  34   1.0000      -7.789189      -211.9546
  35   1.0000      -7.789041      -211.9506
  36   1.0000      -7.782542      -211.7737
  37   1.0000      -7.782527      -211.7733
  38   1.0000      -7.778341      -211.6594
  39   1.0000      -7.778183      -211.6551
  40   1.0000      -7.695429      -209.4033
  41   1.0000      -7.695061      -209.3933
  42   1.0000      -7.692421      -209.3214
  43   1.0000      -7.692162      -209.3144
  44   1.0000      -5.756521      -156.6429
  45   1.0000      -5.756148      -156.6328
  46   1.0000      -5.754124      -156.5777
  47   1.0000      -5.753970      -156.5735
  48   1.0000      -5.753050      -156.5485
  49   1.0000      -5.752668      -156.5380
  50   1.0000      -5.749886      -156.4624
  51   1.0000      -5.749730      -156.4581
  52   1.0000      -5.747544      -156.3986
  53   1.0000      -5.747532      -156.3983
  54   1.0000      -5.746257      -156.3636
  55   1.0000      -5.745895      -156.3537
  56   1.0000      -5.744946      -156.3279
  57   1.0000      -5.744802      -156.3240
  58   1.0000      -5.744113      -156.3053
  59   1.0000      -5.744087      -156.3046
  60   1.0000      -5.743353      -156.2846
  61   1.0000      -5.743200      -156.2804
  62   1.0000      -5.738730      -156.1588
  63   1.0000      -5.738574      -156.1545
  64   1.0000      -5.737327      -156.1206
  65   1.0000      -5.737324      -156.1205
  66   1.0000      -5.734178      -156.0349
  67   1.0000      -5.734007      -156.0303
  68   1.0000      -5.660779      -154.0376
  69   1.0000      -5.660437      -154.0283
  70   1.0000      -5.657857      -153.9581
  71   1.0000      -5.657639      -153.9522
  72   1.0000      -5.653997      -153.8531
  73   1.0000      -5.653631      -153.8431
  74   1.0000      -5.652846      -153.8218
  75   1.0000      -5.652441      -153.8107
  76   1.0000      -5.651452      -153.7838
  77   1.0000      -5.651205      -153.7771
  78   1.0000      -5.649542      -153.7319
  79   1.0000      -5.649274      -153.7246
  80   1.0000      -2.395016       -65.1717
  81   1.0000      -1.459892       -39.7257
  82   1.0000      -1.408911       -38.3384
  83   1.0000      -1.407565       -38.3018
  84   1.0000      -0.713127       -19.4052
  85   1.0000      -0.704608       -19.1734
  86   1.0000      -0.688599       -18.7377
  87   1.0000      -0.681728       -18.5508
  88   1.0000      -0.650906       -17.7120
  89   1.0000      -0.634651       -17.2697
  90   1.0000      -0.627517       -17.0756
  91   1.0000      -0.621310       -16.9067
  92   1.0000      -0.612404       -16.6644
  93   1.0000      -0.577853       -15.7242
  94   1.0000      -0.575514       -15.6605
  95   1.0000      -0.570688       -15.5292
  96   1.0000      -0.568122       -15.4594
  97   1.0000      -0.501888       -13.6571
  98   1.0000      -0.497661       -13.5420
  99   1.0000      -0.491933       -13.3862
 100   1.0000      -0.490377       -13.3438
 101   1.0000      -0.477986       -13.0067
 102   1.0000      -0.473639       -12.8884
 103   1.0000      -0.451008       -12.2726
 104   1.0000      -0.442002       -12.0275
 105   1.0000      -0.417132       -11.3507
 106   1.0000      -0.411586       -11.1998
 107   1.0000      -0.358786        -9.7631
 108   1.0000      -0.352223        -9.5845
 109   1.0000      -0.331467        -9.0197
 110   1.0000      -0.322193        -8.7673
 111   1.0000      -0.321022        -8.7355
 112   1.0000      -0.311531        -8.4772
 113   1.0000      -0.305157        -8.3038
 114   1.0000      -0.301646        -8.2082
 115   1.0000      -0.294984        -8.0269
 116   1.0000      -0.289018        -7.8646
 117   1.0000      -0.259728        -7.0676
 118   1.0000      -0.259380        -7.0581
 119   1.0000      -0.254037        -6.9127
 120   1.0000      -0.253536        -6.8991
 121   1.0000      -0.238738        -6.4964
 122   1.0000      -0.235772        -6.4157
 123   1.0000      -0.231054        -6.2873
 124   1.0000      -0.225677        -6.1410
 125   1.0000      -0.224086        -6.0977
 126   1.0000      -0.216042        -5.8788
 127   1.0000      -0.215095        -5.8530
 128   1.0000      -0.206918        -5.6305
 129   1.0000      -0.193331        -5.2608
 130   1.0000      -0.188688        -5.1345
 131   1.0000      -0.186677        -5.0797
 132   1.0000      -0.182297        -4.9606
 133   1.0000      -0.176039        -4.7903
 134   1.0000      -0.159147        -4.3306
 135   1.0000      -0.153211        -4.1691
 136   1.0000      -0.144304        -3.9267
 137   1.0000      -0.138746        -3.7755
 138   1.0000      -0.135800        -3.6953
 139   1.0000      -0.130697        -3.5565
 140   1.0000      -0.117826        -3.2062
 141   1.0000      -0.117517        -3.1978
 142   1.0000      -0.107643        -2.9291
 143   1.0000      -0.106825        -2.9069
 144   1.0000      -0.100797        -2.7428
 145   1.0000      -0.096649        -2.6300
 146   1.0000      -0.095472        -2.5979
 147   1.0000      -0.092311        -2.5119
 148   1.0000      -0.073118        -1.9896
 149   1.0000      -0.071964        -1.9582
 150   1.0000      -0.061472        -1.6727
 151   1.0000      -0.048257        -1.3131
 152   1.0000      -0.045421        -1.2360
 153   1.0000      -0.039045        -1.0625
 154   1.0000      -0.028919        -0.7869
 155   1.0000      -0.027902        -0.7592
 156   1.0000      -0.020696        -0.5632
 157   1.0000      -0.013811        -0.3758
 158   1.0000       0.019798         0.5387
 159   1.0000       0.037630         1.0240
 160   0.0000       0.133393         3.6298
 161   0.0000       0.140633         3.8268
 162   0.0000       0.157177         4.2770
 163   0.0000       0.158886         4.3235
 164   0.0000       0.165941         4.5155

MULLIKEN ATOMIC CHARGES AND SPIN POPULATIONS
--------------------------------------------
   0 V :    0.417872    1.180898
   1 S :   -0.225285   -0.011140
   2 S :   -0.318815   -0.024577
   3 S :   -0.220100   -0.012906
   4 S :   -0.312340   -0.024147
   5 O :   -0.469506   -0.145313
   6 C :   -0.082252    0.012059
   7 C :   -0.083200    0.009396
   8 C :   -0.097522    0.006348
   9 C :   -0.093491    0.006298
  10 S :    0.099262    0.000667
  11 S :    0.099671    0.000563
  12 S :    0.101070   -0.000818
  13 S :    0.101309   -0.000778
  14 C :   -0.194020    0.004760
  15 C :   -0.214433    0.000390
  16 C :   -0.227262   -0.001642
  17 C :   -0.171425    0.000006
  18 S :    0.007699   -0.000141
  19 S :    0.008012   -0.000142
  20 S :    0.007153   -0.000084
  21 S :    0.007095   -0.000087
  22 C :   -0.305042    0.000003
  23 C :   -0.304926    0.000003
  24 C :   -0.164629    0.000008
  25 H :    0.145338   -0.000000
  26 H :    0.117727    0.000000
  27 H :    0.085638    0.000002
  28 H :    0.099468   -0.000002
  29 H :    0.117753   -0.000001
  30 H :    0.145511    0.000000
  31 C :   -0.297596    0.000362
  32 C :   -0.297789    0.000358
  33 C :   -0.154950   -0.000474
  34 H :    0.140934   -0.000020
  35 H :    0.111194    0.000034
  36 H :    0.088033    0.000059
  37 H :    0.081831    0.000035
  38 H :    0.111034    0.000036
  39 H :    0.140981   -0.000019
Sum of atomic charges         :   -2.0000000

LOEWDIN ATOMIC CHARGES AND SPIN POPULATIONS
-------------------------------------------
   0 V :   -0.203544    1.139451
   1 S :    0.149216   -0.006800
   2 S :    0.029858   -0.014511
   3 S :    0.153255   -0.008091
   4 S :    0.036113   -0.014145
   5 O :   -0.336332   -0.130966
   6 C :   -0.543443    0.009254
   7 C :   -0.544823    0.007733
   8 C :   -0.549939    0.008766
   9 C :   -0.549167    0.008498
  10 S :    0.470091    0.000744
  11 S :    0.470127    0.000629
  12 S :    0.469688   -0.001179
  13 S :    0.470676   -0.001180
  14 C :   -0.469453    0.000684
  15 C :   -0.460741   -0.000083
  16 C :   -0.624067    0.001316
  17 C :   -0.614785   -0.000045
  18 S :    0.353482   -0.000069
  19 S :    0.354921   -0.000065
  20 S :    0.361378   -0.000097
  21 S :    0.361684   -0.000101
  22 C :   -0.282561    0.000005
  23 C :   -0.282541    0.000004
  24 C :   -0.178470   -0.000003
  25 H :    0.063501   -0.000001
  26 H :    0.054479   -0.000001
  27 H :    0.058146    0.000000
  28 H :    0.061878   -0.000000
  29 H :    0.054472   -0.000001
  30 H :    0.063605   -0.000001
  31 C :   -0.284922    0.000089
  32 C :   -0.284615    0.000080
  33 C :   -0.174864    0.000023
  34 H :    0.061694    0.000003
  35 H :    0.053332    0.000020
  36 H :    0.059560    0.000012
  37 H :    0.058106    0.000006
  38 H :    0.053386    0.000020
  39 H :    0.061621    0.000004

  Mayer bond orders larger than 0.100000
B(  0-V ,  1-S ) :   0.8825 B(  0-V ,  2-S ) :   0.7012 B(  0-V ,  3-S ) :   0.8807
B(  0-V ,  4-S ) :   0.7107 B(  0-V ,  5-O ) :   2.1371 B(  1-S ,  8-C ) :   1.0792
B(  2-S ,  6-C ) :   1.1293 B(  3-S ,  9-C ) :   1.0785 B(  4-S ,  7-C ) :   1.1274
B(  6-C ,  7-C ) :   1.6540 B(  6-C , 10-S ) :   0.9538 B(  7-C , 11-S ) :   0.9565
B(  8-C ,  9-C ) :   1.7145 B(  8-C , 13-S ) :   0.9276 B(  9-C , 12-S ) :   0.9268
B( 10-S , 14-C ) :   1.2387 B( 11-S , 14-C ) :   1.2372 B( 12-S , 15-C ) :   1.2419
B( 13-S , 15-C ) :   1.2428 B( 14-C , 16-C ) :   1.4536 B( 15-C , 17-C ) :   1.4606
B( 16-C , 18-S ) :   1.0980 B( 16-C , 19-S ) :   1.0979 B( 17-C , 20-S ) :   1.0810
B( 17-C , 21-S ) :   1.0811 B( 18-S , 32-C ) :   0.9910 B( 19-S , 31-C ) :   0.9914
B( 20-S , 23-C ) :   0.9877 B( 21-S , 22-C ) :   0.9875 B( 22-C , 24-C ) :   0.9086
B( 22-C , 25-H ) :   0.9668 B( 22-C , 26-H ) :   0.9656 B( 23-C , 24-C ) :   0.9088
B( 23-C , 29-H ) :   0.9656 B( 23-C , 30-H ) :   0.9667 B( 24-C , 27-H ) :   0.9599
B( 24-C , 28-H ) :   0.9713 B( 31-C , 33-C ) :   0.9138 B( 31-C , 38-H ) :   0.9663
B( 31-C , 39-H ) :   0.9652 B( 32-C , 33-C ) :   0.9135 B( 32-C , 34-H ) :   0.9651
B( 32-C , 35-H ) :   0.9663 B( 33-C , 36-H ) :   0.9726 B( 33-C , 37-H ) :   0.9645

FINAL SINGLE POINT ENERGY     -6337.683435303104

DIPOLE MOMENT
-------------
                                X             Y             Z
Electronic contribution:     11.77252      -6.35351       1.96291
Nuclear contribution   :    -13.36789       6.27316      -2.40091
                        -----------------------------------------
Total Dipole Moment    :     -1.59537      -0.08035      -0.43800
                        -----------------------------------------
Magnitude (a.u.)       :      1.65635
Magnitude (Debye)      :      4.21011

Rotational constants in cm-1:     0.010802     0.000804     0.000784
Rotational constants in MHz :   323.827437    24.108695    23.492698

                             ****ORCA TERMINATED NORMALLY****
TOTAL RUN TIME: 0 days 1 hours 1 minutes 32 seconds 108 msec
