                         Program Version 5.0.4 -  RELEASE  -
|  1> ! nofrozencore ReducedPop printbasis
|  2> ! B3LYP TZVP
|  3>
|  4> %basis
|  5> newgto V "CP(PPP)" end
|  6> end
|  7>
|  8> %pal
|  9> nprocs 6
| 10> end
| 11>
| 12> % sym SymThresh 1e-2 end
| 13> * xyz -2 2
| 14> V 0.7349064073686308 0.15763233885859795 0.8209937550733869
| 15> S 1.4518235590486843 1.8856508177498108 -0.7973021371905891
| 16> S -1.2050402156573732 1.6329479152886575 1.2532047124308376
| 17> S 1.829137057732422 -1.465186989567594 -0.6956018516830081
| 18> S -0.8253199586821925 -1.7048957748071425 1.2468784380646645
| 19> O 1.663761868964114 0.2990028147212283 2.1021756156410487
| 20> C -2.236100028855146 0.47888467400592466 2.116113884537941
| 21> C -2.090169186421857 -0.8167224578513895 2.1105636638959218
| 22> C 2.500928462010438 0.9537649032028118 -1.8528235433266806
| 23> C 2.6494286864807606 -0.3911281969416411 -1.8132682921947911
| 24> S -3.652769061626906 1.1379396031999065 3.020869057513837
| 25> S -3.3277018893159345 -1.788888961891696 2.9917387149037955
| 26> S 3.7430583480349586 -1.1087189497555512 -3.0415136590892953
| 27> S 3.4264594786017235 1.818001454344092 -3.1249013179748846
| 28> C -4.341706363372338 -0.4260407419661345 3.554351592954345
| 29> C 4.146287511419738 0.39247061679890927 -3.8743260284469088
| 30> C -5.417712397289494 -0.5558011199849202 4.2534105934981445
| 31> C 4.952221213337358 0.4468116144147823 -4.994610604536606
| 32> S -6.379555826017424 0.8483125995584421 4.85150144804869
| 33> S -6.067665654695154 -2.160114390743568 4.760589068072394
| 34> S 5.328932290329762 1.985714036299105 -5.8019090581235
| 35> S 5.6373075109302695 -1.0235591416282817 -5.724460758649617
| 36> C 4.789711147189476 -0.9182467496646225 -7.366039430167152
| 37> C 4.534006495153753 1.6280745820412152 -7.4342686011506816
| 38> C 5.062903159624341 0.375873317847832 -8.118862921814662
| 39> H 3.7211751248441054 -1.1121762085968492 -7.2232176443724585
| 40> H 5.104202676677023 -1.8045779845846033 -7.929149886147864
| 41> H 4.620542725623603 0.3048348912374868 -9.12349052281187
| 42> H 6.135542652155133 0.47769953406460286 -8.319112613123448
| 43> H 4.6737747063520185 2.528161936577083 -8.043955080293085
| 44> H 3.446960273249439 1.6143423638441945 -7.301032120917432
| 45> C -5.895724294833979 -2.0057823652668625 6.603165793696147
| 46> C -6.160515330442015 0.617831115275374 6.681685857047345
| 47> C -6.692006245981544 -0.77693133602096 7.180871927961585
| 48> H -5.043673447040459 0.4557928256085984 6.794582911096292
| 49> H -6.981790896904308 1.278936787329052 7.0817171135354995
| 50> H -7.7058940667933 -0.8659217643141197 6.737549737195336
| 51> H -6.44322622162962 -0.7844416059825018 8.261821655469095
| 52> H -6.5724991439965 -2.839084642794017 6.951397531465846
| 53> H -4.832866569061662 -1.629643433275579 6.735955063370149
| 54> *
| 55>
| 56> % eprnmr
| 57> gtensor true
| 58> Nuclei = all H {aiso,adip,aorb,fgrad,rho}
| 59> Nuclei = all V {aiso,adip,aorb,fgrad,rho}
| 60> end
| 61>
| 62>                          ****END OF INPUT****

CARTESIAN COORDINATES (ANGSTROEM)
---------------------------------
  V      0.731195    0.157192    0.820138
  S      1.448112    1.885211   -0.798158
  S     -1.208751    1.632508    1.252349
  S      1.825426   -1.465627   -0.696457
  S     -0.829031   -1.705336    1.246023
  O      1.660051    0.298563    2.101320
  C     -2.239811    0.478445    2.115258
  C     -2.093880   -0.817163    2.109708
  C      2.497217    0.953325   -1.853679
  C      2.645717   -0.391568   -1.814124
  S     -3.656480    1.137500    3.020014
  S     -3.331413   -1.789329    2.990883
  S      3.739347   -1.109159   -3.042369
  S      3.422748    1.817561   -3.125757
  C     -4.345418   -0.426481    3.553496
  C      4.142576    0.392031   -3.875181
  C     -5.421424   -0.556241    4.252555
  C      4.948510    0.446372   -4.995466
  S     -6.383267    0.847873    4.850646
  S     -6.071377   -2.160554    4.759734
  S      5.325221    1.985274   -5.802765
  S      5.633596   -1.023999   -5.725316
  C      4.786000   -0.918687   -7.366895
  C      4.530295    1.627635   -7.435124
  C      5.059192    0.375433   -8.119718
  H      3.717464   -1.112616   -7.224073
  H      5.100491   -1.805018   -7.930005
  H      4.616832    0.304395   -9.124346
  H      6.131831    0.477259   -8.319968
  H      4.670063    2.527722   -8.044811
  H      3.443249    1.613902   -7.301888
  C     -5.899436   -2.006222    6.602310
  C     -6.164227    0.617391    6.680830
  C     -6.695717   -0.777371    7.180016
  H     -5.047385    0.455353    6.793727
  H     -6.985502    1.278497    7.080862
  H     -7.709605   -0.866362    6.736694
  H     -6.446937   -0.784882    8.260966
  H     -6.576210   -2.839525    6.950542
  H     -4.836578   -1.630084    6.735100

 Total Charge           Charge          ....   -2
 Multiplicity           Mult            ....    2
 Number of Electrons    NEL             ....  321
 Basis Dimension        Dim             ....  681

ORBITAL ENERGIES
----------------
                 SPIN UP ORBITALS
  NO   OCC          E(Eh)            E(eV)
   0   1.0000    -196.673895     -5351.7688
   1   1.0000     -88.736118     -2414.6325
   2   1.0000     -88.736115     -2414.6324
   3   1.0000     -88.732338     -2414.5297
   4   1.0000     -88.732314     -2414.5290
   5   1.0000     -88.729840     -2414.4617
   6   1.0000     -88.729739     -2414.4590
   7   1.0000     -88.728561     -2414.4269
   8   1.0000     -88.728399     -2414.4225
   9   1.0000     -88.639138     -2411.9936
  10   1.0000     -88.638687     -2411.9813
  11   1.0000     -88.638567     -2411.9780
  12   1.0000     -88.638363     -2411.9725
  13   1.0000     -22.049286      -599.9916
  14   1.0000     -18.889168      -514.0004
  15   1.0000     -18.555756      -504.9278
  16   1.0000     -18.550550      -504.7861
  17   1.0000     -18.550452      -504.7835
  18   1.0000     -10.079342      -274.2728
  19   1.0000     -10.079177      -274.2684
  20   1.0000     -10.075643      -274.1722
  21   1.0000     -10.072638      -274.0904
  22   1.0000     -10.062035      -273.8019
  23   1.0000     -10.061989      -273.8006
  24   1.0000     -10.055728      -273.6303
  25   1.0000     -10.051294      -273.5096
  26   1.0000     -10.050476      -273.4874
  27   1.0000     -10.047201      -273.3982
  28   1.0000     -10.017895      -272.6008
  29   1.0000     -10.017148      -272.5804
  30   1.0000     -10.014017      -272.4953
  31   1.0000     -10.012819      -272.4627
  32   1.0000      -7.789579      -211.9652
  33   1.0000      -7.789562      -211.9648
  34   1.0000      -7.785782      -211.8619
  35   1.0000      -7.785719      -211.8602
  36   1.0000      -7.783145      -211.7901
  37   1.0000      -7.783097      -211.7888
  38   1.0000      -7.781520      -211.7459
  39   1.0000      -7.781406      -211.7428
  40   1.0000      -7.693455      -209.3495
  41   1.0000      -7.693055      -209.3387
  42   1.0000      -7.692704      -209.3291
  43   1.0000      -7.692409      -209.3211
  44   1.0000      -5.754548      -156.5892
  45   1.0000      -5.754536      -156.5889
  46   1.0000      -5.751159      -156.4970
  47   1.0000      -5.751156      -156.4969
  48   1.0000      -5.750778      -156.4866
  49   1.0000      -5.750719      -156.4850
  50   1.0000      -5.748048      -156.4123
  51   1.0000      -5.748002      -156.4111
  52   1.0000      -5.747347      -156.3933
  53   1.0000      -5.747286      -156.3916
  54   1.0000      -5.746697      -156.3756
  55   1.0000      -5.746582      -156.3725
  56   1.0000      -5.744353      -156.3118
  57   1.0000      -5.744328      -156.3111
  58   1.0000      -5.743655      -156.2928
  59   1.0000      -5.743597      -156.2912
  60   1.0000      -5.742087      -156.2501
  61   1.0000      -5.741970      -156.2469
  62   1.0000      -5.740583      -156.2092
  63   1.0000      -5.740531      -156.2078
  64   1.0000      -5.739011      -156.1664
  65   1.0000      -5.738959      -156.1650
  66   1.0000      -5.737095      -156.1143
  67   1.0000      -5.736973      -156.1110
  68   1.0000      -5.658742      -153.9822
  69   1.0000      -5.658341      -153.9713
  70   1.0000      -5.658137      -153.9657
  71   1.0000      -5.657868      -153.9584
  72   1.0000      -5.652108      -153.8017
  73   1.0000      -5.651720      -153.7911
  74   1.0000      -5.651359      -153.7813
  75   1.0000      -5.651100      -153.7742
  76   1.0000      -5.650804      -153.7662
  77   1.0000      -5.650397      -153.7551
  78   1.0000      -5.649910      -153.7419
  79   1.0000      -5.649584      -153.7330
  80   1.0000      -2.442922       -66.4753
  81   1.0000      -1.484259       -40.3887
  82   1.0000      -1.472544       -40.0700
  83   1.0000      -1.471734       -40.0479
  84   1.0000      -0.714669       -19.4471
  85   1.0000      -0.708337       -19.2748
  86   1.0000      -0.685351       -18.6494
  87   1.0000      -0.685134       -18.6434
  88   1.0000      -0.648833       -17.6556
  89   1.0000      -0.638449       -17.3731
  90   1.0000      -0.629688       -17.1347
  91   1.0000      -0.618066       -16.8184
  92   1.0000      -0.616292       -16.7701
  93   1.0000      -0.574797       -15.6410
  94   1.0000      -0.573332       -15.6011
  95   1.0000      -0.572196       -15.5703
  96   1.0000      -0.569196       -15.4886
  97   1.0000      -0.504171       -13.7192
  98   1.0000      -0.496120       -13.5001
  99   1.0000      -0.494455       -13.4548
 100   1.0000      -0.490919       -13.3586
 101   1.0000      -0.479065       -13.0360
 102   1.0000      -0.472655       -12.8616
 103   1.0000      -0.447777       -12.1846
 104   1.0000      -0.435252       -11.8438
 105   1.0000      -0.419402       -11.4125
 106   1.0000      -0.411084       -11.1862
 107   1.0000      -0.379445       -10.3252
 108   1.0000      -0.350340        -9.5332
 109   1.0000      -0.328804        -8.9472
 110   1.0000      -0.322147        -8.7661
 111   1.0000      -0.320675        -8.7260
 112   1.0000      -0.316487        -8.6121
 113   1.0000      -0.312620        -8.5068
 114   1.0000      -0.311723        -8.4824
 115   1.0000      -0.300026        -8.1641
 116   1.0000      -0.286844        -7.8054
 117   1.0000      -0.261125        -7.1056
 118   1.0000      -0.257115        -6.9965
 119   1.0000      -0.254814        -6.9338
 120   1.0000      -0.252985        -6.8841
 121   1.0000      -0.234496        -6.3810
 122   1.0000      -0.232430        -6.3247
 123   1.0000      -0.229160        -6.2358
 124   1.0000      -0.220003        -5.9866
 125   1.0000      -0.217144        -5.9088
 126   1.0000      -0.209802        -5.7090
 127   1.0000      -0.209007        -5.6874
 128   1.0000      -0.201272        -5.4769
 129   1.0000      -0.192389        -5.2352
 130   1.0000      -0.186350        -5.0708
 131   1.0000      -0.185545        -5.0489
 132   1.0000      -0.182733        -4.9724
 133   1.0000      -0.178688        -4.8623
 134   1.0000      -0.159186        -4.3317
 135   1.0000      -0.149911        -4.0793
 136   1.0000      -0.143529        -3.9056
 137   1.0000      -0.141580        -3.8526
 138   1.0000      -0.132809        -3.6139
 139   1.0000      -0.130881        -3.5614
 140   1.0000      -0.124644        -3.3917
 141   1.0000      -0.117601        -3.2001
 142   1.0000      -0.112275        -3.0552
 143   1.0000      -0.109262        -2.9732
 144   1.0000      -0.099155        -2.6981
 145   1.0000      -0.098810        -2.6888
 146   1.0000      -0.095648        -2.6027
 147   1.0000      -0.094847        -2.5809
 148   1.0000      -0.074173        -2.0183
 149   1.0000      -0.067072        -1.8251
 150   1.0000      -0.066169        -1.8006
 151   1.0000      -0.051161        -1.3922
 152   1.0000      -0.045080        -1.2267
 153   1.0000      -0.041618        -1.1325
 154   1.0000      -0.036029        -0.9804
 155   1.0000      -0.031572        -0.8591
 156   1.0000      -0.023774        -0.6469
 157   1.0000      -0.018245        -0.4965
 158   1.0000      -0.013599        -0.3701
 159   1.0000       0.019096         0.5196
 160   1.0000       0.040843         1.1114
 161   0.0000       0.133411         3.6303
 162   0.0000       0.137447         3.7401
 163   0.0000       0.156107         4.2479
 164   0.0000       0.162459         4.4207
 165   0.0000       0.167675         4.5627

                 SPIN DOWN ORBITALS
  NO   OCC          E(Eh)            E(eV)
   0   1.0000    -196.674042     -5351.7728
   1   1.0000     -88.736119     -2414.6326
   2   1.0000     -88.736116     -2414.6325
   3   1.0000     -88.732339     -2414.5297
   4   1.0000     -88.732314     -2414.5290
   5   1.0000     -88.729848     -2414.4619
   6   1.0000     -88.729747     -2414.4592
   7   1.0000     -88.728569     -2414.4271
   8   1.0000     -88.728407     -2414.4227
   9   1.0000     -88.639275     -2411.9973
  10   1.0000     -88.638825     -2411.9851
  11   1.0000     -88.638709     -2411.9819
  12   1.0000     -88.638506     -2411.9764
  13   1.0000     -22.034356      -599.5853
  14   1.0000     -18.892953      -514.1034
  15   1.0000     -18.550491      -504.7845
  16   1.0000     -18.534521      -504.3500
  17   1.0000     -18.534333      -504.3448
  18   1.0000     -10.079341      -274.2728
  19   1.0000     -10.079177      -274.2683
  20   1.0000     -10.075643      -274.1722
  21   1.0000     -10.072633      -274.0903
  22   1.0000     -10.062036      -273.8019
  23   1.0000     -10.061989      -273.8006
  24   1.0000     -10.055728      -273.6303
  25   1.0000     -10.051294      -273.5096
  26   1.0000     -10.050468      -273.4871
  27   1.0000     -10.047197      -273.3981
  28   1.0000     -10.017682      -272.5950
  29   1.0000     -10.016936      -272.5747
  30   1.0000     -10.013776      -272.4887
  31   1.0000     -10.012589      -272.4564
  32   1.0000      -7.789580      -211.9653
  33   1.0000      -7.789563      -211.9648
  34   1.0000      -7.785783      -211.8619
  35   1.0000      -7.785719      -211.8602
  36   1.0000      -7.783154      -211.7904
  37   1.0000      -7.783106      -211.7891
  38   1.0000      -7.781529      -211.7462
  39   1.0000      -7.781416      -211.7431
  40   1.0000      -7.693582      -209.3530
  41   1.0000      -7.693184      -209.3422
  42   1.0000      -7.692836      -209.3327
  43   1.0000      -7.692542      -209.3247
  44   1.0000      -5.754549      -156.5893
  45   1.0000      -5.754538      -156.5889
  46   1.0000      -5.751161      -156.4970
  47   1.0000      -5.751157      -156.4969
  48   1.0000      -5.750779      -156.4867
  49   1.0000      -5.750719      -156.4850
  50   1.0000      -5.748058      -156.4126
  51   1.0000      -5.748013      -156.4114
  52   1.0000      -5.747348      -156.3933
  53   1.0000      -5.747287      -156.3916
  54   1.0000      -5.746707      -156.3759
  55   1.0000      -5.746592      -156.3727
  56   1.0000      -5.744354      -156.3118
  57   1.0000      -5.744329      -156.3111
  58   1.0000      -5.743669      -156.2932
  59   1.0000      -5.743611      -156.2916
  60   1.0000      -5.742101      -156.2505
  61   1.0000      -5.741984      -156.2473
  62   1.0000      -5.740584      -156.2092
  63   1.0000      -5.740532      -156.2078
  64   1.0000      -5.739017      -156.1666
  65   1.0000      -5.738965      -156.1652
  66   1.0000      -5.737102      -156.1145
  67   1.0000      -5.736981      -156.1112
  68   1.0000      -5.658884      -153.9861
  69   1.0000      -5.658482      -153.9751
  70   1.0000      -5.658278      -153.9696
  71   1.0000      -5.658012      -153.9623
  72   1.0000      -5.652457      -153.8112
  73   1.0000      -5.652078      -153.8009
  74   1.0000      -5.651752      -153.7920
  75   1.0000      -5.651488      -153.7848
  76   1.0000      -5.650910      -153.7691
  77   1.0000      -5.650503      -153.7580
  78   1.0000      -5.649997      -153.7442
  79   1.0000      -5.649679      -153.7356
  80   1.0000      -2.398040       -65.2540
  81   1.0000      -1.464971       -39.8639
  82   1.0000      -1.410146       -38.3720
  83   1.0000      -1.410023       -38.3687
  84   1.0000      -0.714648       -19.4466
  85   1.0000      -0.708321       -19.2744
  86   1.0000      -0.685293       -18.6478
  87   1.0000      -0.685091       -18.6423
  88   1.0000      -0.656938       -17.8762
  89   1.0000      -0.638361       -17.3707
  90   1.0000      -0.629633       -17.1332
  91   1.0000      -0.618067       -16.8185
  92   1.0000      -0.616293       -16.7702
  93   1.0000      -0.574774       -15.6404
  94   1.0000      -0.573259       -15.5992
  95   1.0000      -0.572130       -15.5684
  96   1.0000      -0.569166       -15.4878
  97   1.0000      -0.504181       -13.7195
  98   1.0000      -0.496163       -13.5013
  99   1.0000      -0.494481       -13.4555
 100   1.0000      -0.490976       -13.3601
 101   1.0000      -0.479269       -13.0416
 102   1.0000      -0.472897       -12.8682
 103   1.0000      -0.447809       -12.1855
 104   1.0000      -0.435303       -11.8452
 105   1.0000      -0.419418       -11.4129
 106   1.0000      -0.411168       -11.1884
 107   1.0000      -0.379442       -10.3251
 108   1.0000      -0.350333        -9.5331
 109   1.0000      -0.328796        -8.9470
 110   1.0000      -0.322140        -8.7659
 111   1.0000      -0.320648        -8.7253
 112   1.0000      -0.316455        -8.6112
 113   1.0000      -0.312560        -8.5052
 114   1.0000      -0.311732        -8.4827
 115   1.0000      -0.299989        -8.1631
 116   1.0000      -0.286841        -7.8053
 117   1.0000      -0.261037        -7.1032
 118   1.0000      -0.257041        -6.9944
 119   1.0000      -0.254731        -6.9316
 120   1.0000      -0.252912        -6.8821
 121   1.0000      -0.234466        -6.3801
 122   1.0000      -0.232395        -6.3238
 123   1.0000      -0.229123        -6.2348
 124   1.0000      -0.219423        -5.9708
 125   1.0000      -0.217056        -5.9064
 126   1.0000      -0.209640        -5.7046
 127   1.0000      -0.208966        -5.6863
 128   1.0000      -0.201193        -5.4748
 129   1.0000      -0.190756        -5.1907
 130   1.0000      -0.186263        -5.0685
 131   1.0000      -0.185144        -5.0380
 132   1.0000      -0.182552        -4.9675
 133   1.0000      -0.178599        -4.8599
 134   1.0000      -0.158550        -4.3144
 135   1.0000      -0.149748        -4.0748
 136   1.0000      -0.143436        -3.9031
 137   1.0000      -0.141263        -3.8440
 138   1.0000      -0.132300        -3.6001
 139   1.0000      -0.130658        -3.5554
 140   1.0000      -0.123891        -3.3712
 141   1.0000      -0.117299        -3.1919
 142   1.0000      -0.114068        -3.1039
 143   1.0000      -0.110804        -3.0151
 144   1.0000      -0.099343        -2.7033
 145   1.0000      -0.098919        -2.6917
 146   1.0000      -0.095834        -2.6078
 147   1.0000      -0.095022        -2.5857
 148   1.0000      -0.070393        -1.9155
 149   1.0000      -0.067060        -1.8248
 150   1.0000      -0.066176        -1.8007
 151   1.0000      -0.048534        -1.3207
 152   1.0000      -0.044097        -1.1999
 153   1.0000      -0.041793        -1.1372
 154   1.0000      -0.035487        -0.9656
 155   1.0000      -0.031598        -0.8598
 156   1.0000      -0.024785        -0.6744
 157   1.0000      -0.013844        -0.3767
 158   1.0000       0.019289         0.5249
 159   1.0000       0.039803         1.0831
 160   0.0000       0.133411         3.6303
 161   0.0000       0.137438         3.7399
 162   0.0000       0.155094         4.2203
 163   0.0000       0.158205         4.3050
 164   0.0000       0.163275         4.4429

MULLIKEN ATOMIC CHARGES AND SPIN POPULATIONS
--------------------------------------------
   0 V :    0.472877    1.210886
   1 S :   -0.290062   -0.022293
   2 S :   -0.296656   -0.025608
   3 S :   -0.288169   -0.023247
   4 S :   -0.292543   -0.026072
   5 O :   -0.468285   -0.146722
   6 C :   -0.062422    0.009981
   7 C :   -0.070698    0.008437
   8 C :   -0.086882    0.007669
   9 C :   -0.087446    0.007345
  10 S :    0.082019   -0.000572
  11 S :    0.083208   -0.000617
  12 S :    0.103369   -0.000375
  13 S :    0.102499   -0.000330
  14 C :   -0.229023    0.001881
  15 C :   -0.208580    0.000944
  16 C :   -0.169516   -0.000705
  17 C :   -0.198601   -0.000355
  18 S :    0.013360   -0.000131
  19 S :    0.013840   -0.000131
  20 S :    0.009767   -0.000065
  21 S :    0.009854   -0.000067
  22 C :   -0.301410   -0.000002
  23 C :   -0.301035   -0.000003
  24 C :   -0.151375   -0.000009
  25 H :    0.141655   -0.000001
  26 H :    0.111446   -0.000004
  27 H :    0.080296   -0.000001
  28 H :    0.092779   -0.000002
  29 H :    0.111199   -0.000005
  30 H :    0.141436   -0.000001
  31 C :   -0.303151    0.000186
  32 C :   -0.304590    0.000181
  33 C :   -0.230626   -0.000243
  34 H :    0.154519   -0.000024
  35 H :    0.131384    0.000030
  36 H :    0.099340    0.000025
  37 H :    0.100261    0.000012
  38 H :    0.131510    0.000031
  39 H :    0.154449   -0.000024
Sum of atomic charges         :   -2.0000000

LOEWDIN ATOMIC CHARGES AND SPIN POPULATIONS
-------------------------------------------
   0 V :   -0.155768    1.164198
   1 S :    0.081377   -0.014361
   2 S :    0.070937   -0.016420
   3 S :    0.082721   -0.015153
   4 S :    0.074903   -0.016624
   5 O :   -0.319216   -0.131646
   6 C :   -0.540719    0.009269
   7 C :   -0.542868    0.008300
   8 C :   -0.554221    0.008102
   9 C :   -0.554203    0.007635
  10 S :    0.452014   -0.000859
  11 S :    0.452985   -0.000908
  12 S :    0.475032   -0.000817
  13 S :    0.474278   -0.000824
  14 C :   -0.453218    0.000121
  15 C :   -0.467281   -0.000084
  16 C :   -0.598077    0.000292
  17 C :   -0.627297    0.000088
  18 S :    0.348291   -0.000111
  19 S :    0.349639   -0.000110
  20 S :    0.361090   -0.000069
  21 S :    0.360676   -0.000071
  22 C :   -0.286823   -0.000008
  23 C :   -0.286905   -0.000009
  24 C :   -0.174410   -0.000002
  25 H :    0.062060   -0.000001
  26 H :    0.053286   -0.000002
  27 H :    0.058132   -0.000002
  28 H :    0.060784   -0.000001
  29 H :    0.053230   -0.000002
  30 H :    0.061898   -0.000002
  31 C :   -0.303049    0.000027
  32 C :   -0.302402    0.000022
  33 C :   -0.203191    0.000008
  34 H :    0.080090   -0.000001
  35 H :    0.074011    0.000009
  36 H :    0.063289    0.000005
  37 H :    0.063941    0.000002
  38 H :    0.074490    0.000009
  39 H :    0.080495   -0.000000

  Mayer bond orders larger than 0.100000
B(  0-V ,  1-S ) :   0.7704 B(  0-V ,  2-S ) :   0.7718 B(  0-V ,  3-S ) :   0.7637
B(  0-V ,  4-S ) :   0.7790 B(  0-V ,  5-O ) :   2.1485 B(  1-S ,  8-C ) :   1.1057
B(  2-S ,  6-C ) :   1.0934 B(  3-S ,  9-C ) :   1.1085 B(  4-S ,  7-C ) :   1.0940
B(  6-C ,  7-C ) :   1.7417 B(  6-C , 10-S ) :   0.9206 B(  7-C , 11-S ) :   0.9249
B(  8-C ,  9-C ) :   1.6874 B(  8-C , 13-S ) :   0.9365 B(  9-C , 12-S ) :   0.9382
B( 10-S , 14-C ) :   1.2491 B( 11-S , 14-C ) :   1.2491 B( 12-S , 15-C ) :   1.2475
B( 13-S , 15-C ) :   1.2475 B( 14-C , 16-C ) :   1.4868 B( 15-C , 17-C ) :   1.4432
B( 16-C , 18-S ) :   1.0916 B( 16-C , 19-S ) :   1.0939 B( 17-C , 20-S ) :   1.0855
B( 17-C , 21-S ) :   1.0859 B( 18-S , 32-C ) :   1.0028 B( 19-S , 31-C ) :   1.0030
B( 20-S , 23-C ) :   0.9915 B( 21-S , 22-C ) :   0.9908 B( 22-C , 24-C ) :   0.9210
B( 22-C , 25-H ) :   0.9649 B( 22-C , 26-H ) :   0.9639 B( 23-C , 24-C ) :   0.9213
B( 23-C , 29-H ) :   0.9641 B( 23-C , 30-H ) :   0.9647 B( 24-C , 27-H ) :   0.9602
B( 24-C , 28-H ) :   0.9731 B( 31-C , 33-C ) :   0.8999 B( 31-C , 38-H ) :   0.9615
B( 31-C , 39-H ) :   0.9473 B( 32-C , 33-C ) :   0.8993 B( 32-C , 34-H ) :   0.9474
B( 32-C , 35-H ) :   0.9615 B( 33-C , 36-H ) :   0.9589 B( 33-C , 37-H ) :   0.9582

FINAL SINGLE POINT ENERGY     -6337.635649863973

DIPOLE MOMENT
-------------
                                X             Y             Z
Electronic contribution:     11.17306       2.63320       8.00529
Nuclear contribution   :    -12.66253      -2.95801      -8.78400
                        -----------------------------------------
Total Dipole Moment    :     -1.48947      -0.32480      -0.77871
                        -----------------------------------------
Magnitude (a.u.)       :      1.71184
Magnitude (Debye)      :      4.35116

Rotational constants in cm-1:     0.010763     0.000804     0.000783
Rotational constants in MHz :   322.654277    24.115932    23.487384

                             ****ORCA TERMINATED NORMALLY****
TOTAL RUN TIME: 0 days 1 hours 6 minutes 24 seconds 734 msec
