                         Program Version 5.0.4 -  RELEASE  -
|  1> ! nofrozencore ReducedPop printbasis
|  2> ! B3LYP TZVP
|  3>
|  4> %basis
|  5> newgto V "CP(PPP)" end
|  6> end
|  7>
|  8> %pal
|  9> nprocs 6
| 10> end
| 11>
| 12> % sym SymThresh 1e-2 end
| 13> * xyz -2 2
| 14> V 0.2309206107100085 -1.0187925020463937 0.525949221633957
| 15> S -2.224462737633339 -0.8861470639769239 0.8015650450686266
| 16> S -0.25587735486564983 -1.4711133185450578 -1.862607961410104
| 17> S 0.3478180304276147 0.668046352688358 2.338425777808275
| 18> S 2.2444075466228774 0.1457855492565287 -0.3038454098127
| 19> O 0.6902362829418217 -2.4062989521278997 1.1515752672382422
| 20> C 1.3033046904891585 -1.0831275143319365 -2.592151895726807
| 21> C 2.302354802402367 -0.43320798739787997 -1.9680377952243284
| 22> C -2.3575685091866156 0.12404895705343164 2.235457616794502
| 23> C -1.3321485446633585 0.7459438090218294 2.8461221889634847
| 24> S 1.6027149021338944 -1.548021900316068 -4.306946635106797
| 25> S 3.7829799653330403 -0.11078521149255496 -2.937203017368118
| 26> S -1.7439316639484155 1.7554814638899872 4.274232119409026
| 27> S -3.9870508677417886 0.38879594971209874 2.9432364003912284
| 28> C 3.2954490399125858 -1.0196860505145244 -4.380090142803034
| 29> C -3.48095070989461 1.4301431043554143 4.278272706559841
| 30> C 4.1372226349938765 -1.2753954077770135 -5.439003357867103
| 31> C -4.345213827673831 1.9316941292909382 5.216328328326837
| 32> S 3.5740974754741424 -2.133685645689496 -6.898593641933837
| 33> S 5.783790920929788 -0.5894688900495293 -5.497123601993584
| 34> S -6.099657891853825 1.6394443848177793 5.1304341955588715
| 35> S -3.802869639242777 3.040967216965988 6.499609653413398
| 36> C -4.660128140753878 4.5679237960825185 5.89046718106585
| 37> C -6.623473539122165 3.37032599703548 4.721615967261132
| 38> C -6.177746617710423 4.4078916406496065 5.756350429842918
| 39> H -4.210543632003703 4.845045530821614 4.933409774344572
| 40> H -4.425462118045991 5.349691719249173 6.617688193546345
| 41> H -6.5991089824524005 5.381718927749979 5.4656362515168935
| 42> H -6.601184481711597 4.149249506958581 6.7333392337674445
| 43> H -7.714786984078238 3.3428357307451213 4.660886253542102
| 44> H -6.231729227325078 3.6140565879115707 3.7306418593154116
| 45> C 6.754472348556126 -2.1307624396497737 -5.843072877135149
| 46> C 4.891919657156853 -3.433740221988947 -7.018120902556158
| 47> C 6.312168141715808 -2.8698762810671514 -7.108274689637645
| 48> H 4.794747116951886 -4.106553410466177 -6.158193988990699
| 49> H 4.649226041755695 -3.9969287831755045 -7.923854794395329
| 50> H 6.385861565197747 -2.1957879003938 -7.973128426699984
| 51> H 7.008440824406728 -3.70773874515054 -7.283213901915804
| 52> H 7.790203954072944 -1.7935208050578038 -5.942630309490996
| 53> H 6.688140360753357 -2.7856277230992377 -4.966573846093593
| 54> *
| 55>
| 56> % eprnmr
| 57> gtensor true
| 58> Nuclei = all H {aiso,adip,aorb,fgrad,rho}
| 59> Nuclei = all V {aiso,adip,aorb,fgrad,rho}
| 60> end
| 61>
| 62>                          ****END OF INPUT****

CARTESIAN COORDINATES (ANGSTROEM)
---------------------------------
  V      0.231483   -1.016626    0.522837
  S     -2.223900   -0.883980    0.798453
  S     -0.255315   -1.468947   -1.865720
  S      0.348381    0.670213    2.335313
  S      2.244970    0.147952   -0.306958
  O      0.690799   -2.404132    1.148463
  C      1.303867   -1.080961   -2.595264
  C      2.302918   -0.431041   -1.971150
  C     -2.357006    0.126216    2.232345
  C     -1.331586    0.748111    2.843010
  S      1.603278   -1.545855   -4.310059
  S      3.783543   -0.108618   -2.940315
  S     -1.743369    1.757648    4.271120
  S     -3.986488    0.390963    2.940124
  C      3.296012   -1.017519   -4.383202
  C     -3.480388    1.432310    4.275160
  C      4.137785   -1.273229   -5.442116
  C     -4.344651    1.933861    5.213216
  S      3.574660   -2.131519   -6.901706
  S      5.784354   -0.587302   -5.500236
  S     -6.099095    1.641611    5.127322
  S     -3.802307    3.043134    6.496497
  C     -4.659565    4.570091    5.887355
  C     -6.622911    3.372493    4.718504
  C     -6.177184    4.410058    5.753238
  H     -4.209981    4.847212    4.930297
  H     -4.424899    5.351858    6.614576
  H     -6.598546    5.383886    5.462524
  H     -6.600622    4.151416    6.730227
  H     -7.714224    3.345002    4.657774
  H     -6.231167    3.616223    3.727530
  C      6.755035   -2.128596   -5.846185
  C      4.892482   -3.431573   -7.021233
  C      6.312731   -2.867710   -7.111387
  H      4.795310   -4.104387   -6.161306
  H      4.649789   -3.994762   -7.926967
  H      6.386424   -2.193621   -7.976241
  H      7.009004   -3.705572   -7.286326
  H      7.790767   -1.791354   -5.945743
  H      6.688703   -2.783461   -4.969686

 Total Charge           Charge          ....   -2
 Multiplicity           Mult            ....    2
 Number of Electrons    NEL             ....  321
 Basis Dimension        Dim             ....  681

ORBITAL ENERGIES
----------------
                 SPIN UP ORBITALS
  NO   OCC          E(Eh)            E(eV)
   0   1.0000    -196.675541     -5351.8136
   1   1.0000     -88.735726     -2414.6218
   2   1.0000     -88.735704     -2414.6213
   3   1.0000     -88.731971     -2414.5197
   4   1.0000     -88.731942     -2414.5189
   5   1.0000     -88.730477     -2414.4790
   6   1.0000     -88.730372     -2414.4762
   7   1.0000     -88.729915     -2414.4637
   8   1.0000     -88.729451     -2414.4511
   9   1.0000     -88.639636     -2412.0071
  10   1.0000     -88.639417     -2412.0011
  11   1.0000     -88.639258     -2411.9968
  12   1.0000     -88.639199     -2411.9952
  13   1.0000     -22.050899      -600.0355
  14   1.0000     -18.890068      -514.0249
  15   1.0000     -18.557336      -504.9708
  16   1.0000     -18.552198      -504.8310
  17   1.0000     -18.552077      -504.8277
  18   1.0000     -10.076636      -274.1992
  19   1.0000     -10.076372      -274.1920
  20   1.0000     -10.066613      -273.9265
  21   1.0000     -10.066540      -273.9245
  22   1.0000     -10.062131      -273.8045
  23   1.0000     -10.062121      -273.8042
  24   1.0000     -10.054511      -273.5972
  25   1.0000     -10.052636      -273.5461
  26   1.0000     -10.050348      -273.4839
  27   1.0000     -10.047174      -273.3975
  28   1.0000     -10.018220      -272.6096
  29   1.0000     -10.017948      -272.6022
  30   1.0000     -10.017262      -272.5836
  31   1.0000     -10.017153      -272.5806
  32   1.0000      -7.789023      -211.9501
  33   1.0000      -7.788980      -211.9489
  34   1.0000      -7.785432      -211.8524
  35   1.0000      -7.785403      -211.8516
  36   1.0000      -7.783725      -211.8059
  37   1.0000      -7.783630      -211.8033
  38   1.0000      -7.782947      -211.7847
  39   1.0000      -7.782575      -211.7746
  40   1.0000      -7.693890      -209.3614
  41   1.0000      -7.693596      -209.3534
  42   1.0000      -7.693499      -209.3507
  43   1.0000      -7.693359      -209.3469
  44   1.0000      -5.754013      -156.5747
  45   1.0000      -5.753975      -156.5736
  46   1.0000      -5.750596      -156.4817
  47   1.0000      -5.750566      -156.4809
  48   1.0000      -5.750433      -156.4772
  49   1.0000      -5.750407      -156.4765
  50   1.0000      -5.748658      -156.4289
  51   1.0000      -5.748565      -156.4264
  52   1.0000      -5.747934      -156.4092
  53   1.0000      -5.747554      -156.3989
  54   1.0000      -5.747004      -156.3839
  55   1.0000      -5.746979      -156.3832
  56   1.0000      -5.744243      -156.3088
  57   1.0000      -5.744147      -156.3062
  58   1.0000      -5.743825      -156.2974
  59   1.0000      -5.743775      -156.2961
  60   1.0000      -5.743521      -156.2892
  61   1.0000      -5.743144      -156.2789
  62   1.0000      -5.740224      -156.1994
  63   1.0000      -5.740190      -156.1985
  64   1.0000      -5.739557      -156.1813
  65   1.0000      -5.739462      -156.1787
  66   1.0000      -5.738724      -156.1586
  67   1.0000      -5.738341      -156.1482
  68   1.0000      -5.659213      -153.9950
  69   1.0000      -5.658959      -153.9881
  70   1.0000      -5.658824      -153.9844
  71   1.0000      -5.658744      -153.9823
  72   1.0000      -5.652579      -153.8145
  73   1.0000      -5.652253      -153.8056
  74   1.0000      -5.652190      -153.8039
  75   1.0000      -5.652043      -153.7999
  76   1.0000      -5.651185      -153.7766
  77   1.0000      -5.650868      -153.7679
  78   1.0000      -5.650780      -153.7655
  79   1.0000      -5.650596      -153.7605
  80   1.0000      -2.444363       -66.5145
  81   1.0000      -1.485439       -40.4209
  82   1.0000      -1.474234       -40.1160
  83   1.0000      -1.473012       -40.0827
  84   1.0000      -0.708896       -19.2900
  85   1.0000      -0.708214       -19.2715
  86   1.0000      -0.685161       -18.6442
  87   1.0000      -0.684449       -18.6248
  88   1.0000      -0.649728       -17.6800
  89   1.0000      -0.631608       -17.1869
  90   1.0000      -0.630089       -17.1456
  91   1.0000      -0.618104       -16.8195
  92   1.0000      -0.615588       -16.7510
  93   1.0000      -0.574469       -15.6321
  94   1.0000      -0.572884       -15.5890
  95   1.0000      -0.572272       -15.5723
  96   1.0000      -0.571879       -15.5616
  97   1.0000      -0.497000       -13.5240
  98   1.0000      -0.496782       -13.5181
  99   1.0000      -0.494769       -13.4634
 100   1.0000      -0.494141       -13.4463
 101   1.0000      -0.479237       -13.0407
 102   1.0000      -0.476290       -12.9605
 103   1.0000      -0.447098       -12.1661
 104   1.0000      -0.444622       -12.0988
 105   1.0000      -0.416162       -11.3244
 106   1.0000      -0.410881       -11.1806
 107   1.0000      -0.356938        -9.7128
 108   1.0000      -0.353599        -9.6219
 109   1.0000      -0.327931        -8.9235
 110   1.0000      -0.325158        -8.8480
 111   1.0000      -0.318225        -8.6593
 112   1.0000      -0.313551        -8.5322
 113   1.0000      -0.304026        -8.2730
 114   1.0000      -0.303104        -8.2479
 115   1.0000      -0.293770        -7.9939
 116   1.0000      -0.290759        -7.9119
 117   1.0000      -0.258881        -7.0445
 118   1.0000      -0.257570        -7.0088
 119   1.0000      -0.255217        -6.9448
 120   1.0000      -0.255058        -6.9405
 121   1.0000      -0.236643        -6.4394
 122   1.0000      -0.232757        -6.3336
 123   1.0000      -0.232237        -6.3195
 124   1.0000      -0.228975        -6.2307
 125   1.0000      -0.221535        -6.0283
 126   1.0000      -0.217643        -5.9224
 127   1.0000      -0.213369        -5.8061
 128   1.0000      -0.209331        -5.6962
 129   1.0000      -0.192396        -5.2354
 130   1.0000      -0.187372        -5.0986
 131   1.0000      -0.185987        -5.0610
 132   1.0000      -0.184095        -5.0095
 133   1.0000      -0.178857        -4.8669
 134   1.0000      -0.159200        -4.3321
 135   1.0000      -0.151647        -4.1265
 136   1.0000      -0.146772        -3.9939
 137   1.0000      -0.137041        -3.7291
 138   1.0000      -0.132997        -3.6190
 139   1.0000      -0.132489        -3.6052
 140   1.0000      -0.125122        -3.4047
 141   1.0000      -0.120738        -3.2854
 142   1.0000      -0.113362        -3.0847
 143   1.0000      -0.109925        -2.9912
 144   1.0000      -0.098793        -2.6883
 145   1.0000      -0.097328        -2.6484
 146   1.0000      -0.096895        -2.6366
 147   1.0000      -0.094615        -2.5746
 148   1.0000      -0.074528        -2.0280
 149   1.0000      -0.070057        -1.9064
 150   1.0000      -0.065820        -1.7911
 151   1.0000      -0.051535        -1.4023
 152   1.0000      -0.045960        -1.2506
 153   1.0000      -0.037136        -1.0105
 154   1.0000      -0.036408        -0.9907
 155   1.0000      -0.029406        -0.8002
 156   1.0000      -0.024980        -0.6797
 157   1.0000      -0.019298        -0.5251
 158   1.0000      -0.014051        -0.3824
 159   1.0000       0.020328         0.5532
 160   1.0000       0.041888         1.1398
 161   0.0000       0.135970         3.6999
 162   0.0000       0.137026         3.7287
 163   0.0000       0.159615         4.3433
 164   0.0000       0.163282         4.4431
 165   0.0000       0.169331         4.6077

                 SPIN DOWN ORBITALS
  NO   OCC          E(Eh)            E(eV)
   0   1.0000    -196.675688     -5351.8176
   1   1.0000     -88.735726     -2414.6219
   2   1.0000     -88.735705     -2414.6213
   3   1.0000     -88.731971     -2414.5197
   4   1.0000     -88.731943     -2414.5189
   5   1.0000     -88.730485     -2414.4793
   6   1.0000     -88.730380     -2414.4764
   7   1.0000     -88.729924     -2414.4640
   8   1.0000     -88.729459     -2414.4513
   9   1.0000     -88.639776     -2412.0109
  10   1.0000     -88.639565     -2412.0052
  11   1.0000     -88.639407     -2412.0009
  12   1.0000     -88.639341     -2411.9991
  13   1.0000     -22.035957      -599.6289
  14   1.0000     -18.893839      -514.1275
  15   1.0000     -18.552056      -504.8271
  16   1.0000     -18.536282      -504.3979
  17   1.0000     -18.535831      -504.3856
  18   1.0000     -10.076636      -274.1992
  19   1.0000     -10.076372      -274.1920
  20   1.0000     -10.066612      -273.9264
  21   1.0000     -10.066539      -273.9245
  22   1.0000     -10.062132      -273.8045
  23   1.0000     -10.062121      -273.8042
  24   1.0000     -10.054511      -273.5972
  25   1.0000     -10.052622      -273.5457
  26   1.0000     -10.050348      -273.4839
  27   1.0000     -10.047170      -273.3974
  28   1.0000     -10.017994      -272.6035
  29   1.0000     -10.017732      -272.5964
  30   1.0000     -10.017047      -272.5777
  31   1.0000     -10.016938      -272.5747
  32   1.0000      -7.789024      -211.9501
  33   1.0000      -7.788980      -211.9489
  34   1.0000      -7.785432      -211.8524
  35   1.0000      -7.785404      -211.8516
  36   1.0000      -7.783734      -211.8062
  37   1.0000      -7.783639      -211.8036
  38   1.0000      -7.782956      -211.7850
  39   1.0000      -7.782585      -211.7749
  40   1.0000      -7.694020      -209.3649
  41   1.0000      -7.693735      -209.3572
  42   1.0000      -7.693631      -209.3543
  43   1.0000      -7.693497      -209.3507
  44   1.0000      -5.754014      -156.5747
  45   1.0000      -5.753977      -156.5737
  46   1.0000      -5.750598      -156.4817
  47   1.0000      -5.750568      -156.4809
  48   1.0000      -5.750434      -156.4773
  49   1.0000      -5.750407      -156.4765
  50   1.0000      -5.748669      -156.4292
  51   1.0000      -5.748576      -156.4267
  52   1.0000      -5.747945      -156.4095
  53   1.0000      -5.747565      -156.3992
  54   1.0000      -5.747005      -156.3840
  55   1.0000      -5.746979      -156.3833
  56   1.0000      -5.744257      -156.3092
  57   1.0000      -5.744161      -156.3066
  58   1.0000      -5.743826      -156.2975
  59   1.0000      -5.743775      -156.2961
  60   1.0000      -5.743535      -156.2895
  61   1.0000      -5.743157      -156.2793
  62   1.0000      -5.740224      -156.1994
  63   1.0000      -5.740191      -156.1985
  64   1.0000      -5.739562      -156.1814
  65   1.0000      -5.739467      -156.1788
  66   1.0000      -5.738732      -156.1588
  67   1.0000      -5.738349      -156.1484
  68   1.0000      -5.659358      -153.9990
  69   1.0000      -5.659106      -153.9921
  70   1.0000      -5.658968      -153.9883
  71   1.0000      -5.658892      -153.9863
  72   1.0000      -5.652938      -153.8243
  73   1.0000      -5.652639      -153.8161
  74   1.0000      -5.652559      -153.8139
  75   1.0000      -5.652423      -153.8102
  76   1.0000      -5.651294      -153.7795
  77   1.0000      -5.650985      -153.7711
  78   1.0000      -5.650890      -153.7685
  79   1.0000      -5.650715      -153.7638
  80   1.0000      -2.399431       -65.2918
  81   1.0000      -1.466089       -39.8943
  82   1.0000      -1.411682       -38.4138
  83   1.0000      -1.411368       -38.4053
  84   1.0000      -0.708880       -19.2896
  85   1.0000      -0.708196       -19.2710
  86   1.0000      -0.685111       -18.6428
  87   1.0000      -0.684406       -18.6236
  88   1.0000      -0.657825       -17.9003
  89   1.0000      -0.631542       -17.1851
  90   1.0000      -0.630031       -17.1440
  91   1.0000      -0.618103       -16.8194
  92   1.0000      -0.615590       -16.7511
  93   1.0000      -0.574446       -15.6315
  94   1.0000      -0.572819       -15.5872
  95   1.0000      -0.572250       -15.5717
  96   1.0000      -0.571813       -15.5598
  97   1.0000      -0.497035       -13.5250
  98   1.0000      -0.496807       -13.5188
  99   1.0000      -0.494821       -13.4648
 100   1.0000      -0.494174       -13.4472
 101   1.0000      -0.479444       -13.0463
 102   1.0000      -0.476575       -12.9683
 103   1.0000      -0.447128       -12.1670
 104   1.0000      -0.444675       -12.1002
 105   1.0000      -0.416170       -11.3246
 106   1.0000      -0.411009       -11.1841
 107   1.0000      -0.356931        -9.7126
 108   1.0000      -0.353594        -9.6218
 109   1.0000      -0.327918        -8.9231
 110   1.0000      -0.325148        -8.8477
 111   1.0000      -0.318151        -8.6573
 112   1.0000      -0.313585        -8.5331
 113   1.0000      -0.303977        -8.2716
 114   1.0000      -0.303080        -8.2472
 115   1.0000      -0.293765        -7.9938
 116   1.0000      -0.290754        -7.9118
 117   1.0000      -0.258808        -7.0425
 118   1.0000      -0.257406        -7.0044
 119   1.0000      -0.255181        -6.9438
 120   1.0000      -0.255022        -6.9395
 121   1.0000      -0.236607        -6.4384
 122   1.0000      -0.232733        -6.3330
 123   1.0000      -0.232194        -6.3183
 124   1.0000      -0.228940        -6.2298
 125   1.0000      -0.221330        -6.0227
 126   1.0000      -0.217385        -5.9153
 127   1.0000      -0.213252        -5.8029
 128   1.0000      -0.209094        -5.6897
 129   1.0000      -0.190558        -5.1853
 130   1.0000      -0.187185        -5.0935
 131   1.0000      -0.185828        -5.0566
 132   1.0000      -0.183868        -5.0033
 133   1.0000      -0.178747        -4.8639
 134   1.0000      -0.158595        -4.3156
 135   1.0000      -0.151473        -4.1218
 136   1.0000      -0.146692        -3.9917
 137   1.0000      -0.136647        -3.7183
 138   1.0000      -0.132546        -3.6068
 139   1.0000      -0.132264        -3.5991
 140   1.0000      -0.124484        -3.3874
 141   1.0000      -0.120374        -3.2756
 142   1.0000      -0.115064        -3.1310
 143   1.0000      -0.111440        -3.0324
 144   1.0000      -0.098871        -2.6904
 145   1.0000      -0.097432        -2.6513
 146   1.0000      -0.097162        -2.6439
 147   1.0000      -0.094923        -2.5830
 148   1.0000      -0.070642        -1.9223
 149   1.0000      -0.070055        -1.9063
 150   1.0000      -0.065815        -1.7909
 151   1.0000      -0.048925        -1.3313
 152   1.0000      -0.044943        -1.2230
 153   1.0000      -0.036999        -1.0068
 154   1.0000      -0.035934        -0.9778
 155   1.0000      -0.029699        -0.8082
 156   1.0000      -0.025996        -0.7074
 157   1.0000      -0.014325        -0.3898
 158   1.0000       0.020689         0.5630
 159   1.0000       0.041054         1.1171
 160   0.0000       0.135841         3.6964
 161   0.0000       0.136974         3.7273
 162   0.0000       0.155067         4.2196
 163   0.0000       0.160391         4.3645
 164   0.0000       0.163873         4.4592

MULLIKEN ATOMIC CHARGES AND SPIN POPULATIONS
--------------------------------------------
   0 V :    0.475143    1.213526
   1 S :   -0.289097   -0.023088
   2 S :   -0.288345   -0.025375
   3 S :   -0.287605   -0.024029
   4 S :   -0.283429   -0.026102
   5 O :   -0.470220   -0.146363
   6 C :   -0.081274    0.008778
   7 C :   -0.091247    0.007710
   8 C :   -0.084501    0.007883
   9 C :   -0.084401    0.007576
  10 S :    0.091819   -0.000549
  11 S :    0.093516   -0.000568
  12 S :    0.102468   -0.000381
  13 S :    0.102254   -0.000326
  14 C :   -0.207706    0.000740
  15 C :   -0.218419    0.000951
  16 C :   -0.192896    0.000323
  17 C :   -0.184181   -0.000467
  18 S :    0.014315   -0.000106
  19 S :    0.014723   -0.000103
  20 S :    0.005340   -0.000060
  21 S :    0.005105   -0.000062
  22 C :   -0.298819   -0.000019
  23 C :   -0.298999   -0.000019
  24 C :   -0.164105    0.000013
  25 H :    0.144628    0.000001
  26 H :    0.112988   -0.000006
  27 H :    0.082725   -0.000002
  28 H :    0.091911   -0.000003
  29 H :    0.112827   -0.000007
  30 H :    0.144720    0.000000
  31 C :   -0.298529    0.000123
  32 C :   -0.299780    0.000124
  33 C :   -0.155594   -0.000156
  34 H :    0.138692   -0.000006
  35 H :    0.115058    0.000015
  36 H :    0.093135    0.000025
  37 H :    0.083967    0.000002
  38 H :    0.115049    0.000013
  39 H :    0.138764   -0.000005
Sum of atomic charges         :   -2.0000000

LOEWDIN ATOMIC CHARGES AND SPIN POPULATIONS
-------------------------------------------
   0 V :   -0.153173    1.166840
   1 S :    0.080743   -0.014962
   2 S :    0.076608   -0.016759
   3 S :    0.081334   -0.015782
   4 S :    0.081036   -0.017183
   5 O :   -0.320823   -0.131381
   6 C :   -0.547296    0.008556
   7 C :   -0.549547    0.007875
   8 C :   -0.552462    0.008258
   9 C :   -0.552185    0.007806
  10 S :    0.463774   -0.000945
  11 S :    0.465056   -0.000949
  12 S :    0.472732   -0.000807
  13 S :    0.472796   -0.000816
  14 C :   -0.466150   -0.000078
  15 C :   -0.463559   -0.000137
  16 C :   -0.613725    0.000626
  17 C :   -0.626152    0.000057
  18 S :    0.360553   -0.000081
  19 S :    0.362239   -0.000077
  20 S :    0.356888   -0.000068
  21 S :    0.356711   -0.000070
  22 C :   -0.283037   -0.000012
  23 C :   -0.283050   -0.000013
  24 C :   -0.176214   -0.000001
  25 H :    0.063104   -0.000002
  26 H :    0.053269   -0.000003
  27 H :    0.058171   -0.000002
  28 H :    0.060136   -0.000001
  29 H :    0.053300   -0.000004
  30 H :    0.063102   -0.000002
  31 C :   -0.284632    0.000048
  32 C :   -0.284455    0.000046
  33 C :   -0.177001    0.000002
  34 H :    0.061702    0.000001
  35 H :    0.054355    0.000007
  36 H :    0.061389    0.000005
  37 H :    0.058353    0.000001
  38 H :    0.054411    0.000006
  39 H :    0.061698    0.000002

  Mayer bond orders larger than 0.100000
B(  0-V ,  1-S ) :   0.7734 B(  0-V ,  2-S ) :   0.7708 B(  0-V ,  3-S ) :   0.7658
B(  0-V ,  4-S ) :   0.7779 B(  0-V ,  5-O ) :   2.1433 B(  1-S ,  8-C ) :   1.1059
B(  2-S ,  6-C ) :   1.1016 B(  3-S ,  9-C ) :   1.1099 B(  4-S ,  7-C ) :   1.1034
B(  6-C ,  7-C ) :   1.6977 B(  6-C , 10-S ) :   0.9322 B(  7-C , 11-S ) :   0.9367
B(  8-C ,  9-C ) :   1.6977 B(  8-C , 13-S ) :   0.9342 B(  9-C , 12-S ) :   0.9348
B( 10-S , 14-C ) :   1.2264 B( 11-S , 14-C ) :   1.2252 B( 12-S , 15-C ) :   1.2500
B( 13-S , 15-C ) :   1.2503 B( 14-C , 16-C ) :   1.4816 B( 15-C , 17-C ) :   1.4406
B( 16-C , 18-S ) :   1.0856 B( 16-C , 19-S ) :   1.0864 B( 17-C , 20-S ) :   1.0872
B( 17-C , 21-S ) :   1.0870 B( 18-S , 32-C ) :   0.9858 B( 19-S , 31-C ) :   0.9852
B( 20-S , 23-C ) :   0.9926 B( 21-S , 22-C ) :   0.9924 B( 22-C , 24-C ) :   0.9153
B( 22-C , 25-H ) :   0.9671 B( 22-C , 26-H ) :   0.9650 B( 23-C , 24-C ) :   0.9154
B( 23-C , 29-H ) :   0.9650 B( 23-C , 30-H ) :   0.9670 B( 24-C , 27-H ) :   0.9620
B( 24-C , 28-H ) :   0.9712 B( 31-C , 33-C ) :   0.9091 B( 31-C , 38-H ) :   0.9671
B( 31-C , 39-H ) :   0.9630 B( 32-C , 33-C ) :   0.9089 B( 32-C , 34-H ) :   0.9628
B( 32-C , 35-H ) :   0.9671 B( 33-C , 36-H ) :   0.9725 B( 33-C , 37-H ) :   0.9623

FINAL SINGLE POINT ENERGY     -6337.704891915972

DIPOLE MOMENT
-------------
                                X             Y             Z
Electronic contribution:     -0.33675     -10.91633       8.88443
Nuclear contribution   :      0.40759      12.25835     -10.04443
                        -----------------------------------------
Total Dipole Moment    :      0.07084       1.34202      -1.16000
                        -----------------------------------------
Magnitude (a.u.)       :      1.77529
Magnitude (Debye)      :      4.51242

Rotational constants in cm-1:     0.010717     0.000802     0.000782
Rotational constants in MHz :   321.290311    24.056323    23.434650

                             ****ORCA TERMINATED NORMALLY****
TOTAL RUN TIME: 0 days 1 hours 6 minutes 47 seconds 807 msec
