                         Program Version 5.0.4 -  RELEASE  -
|  1> ! nofrozencore ReducedPop printbasis
|  2> ! B3LYP TZVP
|  3>
|  4> %basis
|  5> newgto V "CP(PPP)" end
|  6> end
|  7>
|  8> %pal
|  9> nprocs 6
| 10> end
| 11>
| 12> % sym SymThresh 1e-2 end
| 13> * xyz -2 2
| 14> V -1.0738210698271338 -0.15164230774452597 -0.81718752468159
| 15> S -1.3790689653250359 1.9144165794888068 0.5562538963033989
| 16> S 0.8143040196757206 1.2179527439230424 -1.7461642698106312
| 17> S -1.3757244676297675 -1.2453693365872904 1.433869041615002
| 18> S 0.8080712895074795 -1.8470209113595388 -0.7493799329280824
| 19> O -2.2604720736229904 -0.4015526313603205 -1.8694495343681201
| 20> C 1.8056098608576545 -0.024774430040408725 -2.5112842464975516
| 21> C 1.8044697899553004 -1.3062687886746118 -2.1040604140564114
| 22> C -2.1331352815318843 1.3160815790065628 2.032018904496826
| 23> C -2.136475519503358 0.02115362680833346 2.393386788819707
| 24> S 2.877869869841713 0.3717818455959895 -3.905893909818402
| 25> S 2.8736746450601443 -2.4365117898111714 -3.032671377865827
| 26> S -3.0108526949485714 -0.37546210394003204 3.927244724021136
| 27> S -2.989147619112988 2.4579384335089367 3.1352592399219223
| 28> C 3.6170035762353616 -1.2282641546804796 -4.109065011831117
| 29> C -3.4080096723133693 1.290387820530839 4.40326787621003
| 30> C 4.63043465526247 -1.4980764612737276 -5.000419370444335
| 31> C -3.9858985404432343 1.636587256568783 5.600589394758659
| 32> S 5.305464641317913 -0.29259402858841826 -6.141469469971562
| 33> S 5.368773321385552 -3.1159033965824583 -5.173041861615528
| 34> S -4.380943140702295 3.323752389739393 6.050018465067374
| 35> S -4.392676125363817 0.43932636170090456 6.864159834631065
| 36> C -3.208111683023272 1.0245150462191956 8.165989891915496
| 37> C -3.262579805358143 3.5131214255886083 7.519134117072157
| 38> C -3.4643432967246515 2.46437105140372 8.617401807830497
| 39> H -2.1950643057052552 0.9084832551336246 7.770985624565684
| 40> H -3.328367188909575 0.3343122379378337 9.00608842464636
| 41> H -2.772195238309014 2.6972038955247655 9.440480691605902
| 42> H -4.482235467037355 2.5422524900323147 9.016463530447728
| 43> H -3.4758703279978023 4.513490457437211 7.906460249973605
| 44> H -2.2303527856854615 3.5006312551665952 7.159314255906207
| 45> C 4.753510563406264 -3.4992094424449207 -6.881870924493089
| 46> C 4.805433451496987 -1.0763679309115906 -7.75045814748063
| 47> C 5.275160259223501 -2.5238180780577553 -7.940249907656365
| 48> H 3.7156400340306357 -1.0127896352201564 -7.831541331563311
| 49> H 5.2418835533610215 -0.4322772896058089 -8.52091148433055
| 50> H 6.372188572847489 -2.555461787414131 -7.951804321465667
| 51> H 4.928163124760662 -2.865777135787912 -8.927923422546726
| 52> H 5.092616324155028 -4.517131473048265 -7.101595887147236
| 53> H 3.6587568312302845 -3.503026241584641 -6.84830792575802
| 54> *
| 55>
| 56> % eprnmr
| 57> gtensor true
| 58> Nuclei = all H {aiso,adip,aorb,fgrad,rho}
| 59> Nuclei = all V {aiso,adip,aorb,fgrad,rho}
| 60> end
| 61>
| 62>                          ****END OF INPUT****

CARTESIAN COORDINATES (ANGSTROEM)
---------------------------------
  V     -1.069991   -0.151628   -0.817029
  S     -1.375238    1.914431    0.556412
  S      0.818134    1.217967   -1.746006
  S     -1.371894   -1.245355    1.434027
  S      0.811902   -1.847006   -0.749222
  O     -2.256642   -0.401538   -1.869291
  C      1.809440   -0.024760   -2.511126
  C      1.808300   -1.306254   -2.103902
  C     -2.129305    1.316096    2.032177
  C     -2.132645    0.021168    2.393545
  S      2.881700    0.371797   -3.905736
  S      2.877505   -2.436497   -3.032513
  S     -3.007022   -0.375447    3.927403
  S     -2.985317    2.457953    3.135417
  C      3.620834   -1.228249   -4.108907
  C     -3.404179    1.290403    4.403426
  C      4.634265   -1.498062   -5.000261
  C     -3.982068    1.636602    5.600747
  S      5.309295   -0.292579   -6.141311
  S      5.372604   -3.115889   -5.172884
  S     -4.377113    3.323767    6.050177
  S     -4.388846    0.439341    6.864318
  C     -3.204281    1.024530    8.166148
  C     -3.258749    3.513136    7.519292
  C     -3.460513    2.464386    8.617560
  H     -2.191234    0.908498    7.771144
  H     -3.324537    0.334327    9.006246
  H     -2.768365    2.697219    9.440639
  H     -4.478405    2.542267    9.016622
  H     -3.472040    4.513505    7.906618
  H     -2.226522    3.500646    7.159472
  C      4.757341   -3.499195   -6.881713
  C      4.809264   -1.076353   -7.750300
  C      5.278991   -2.523803   -7.940092
  H      3.719471   -1.012775   -7.831383
  H      5.245714   -0.432263   -8.520753
  H      6.376019   -2.555447   -7.951646
  H      4.931994   -2.865762   -8.927765
  H      5.096447   -4.517117   -7.101438
  H      3.662587   -3.503012   -6.848150

 Total Charge           Charge          ....   -2
 Multiplicity           Mult            ....    2
 Number of Electrons    NEL             ....  321
 Basis Dimension        Dim             ....  681

ORBITAL ENERGIES
----------------
                 SPIN UP ORBITALS
  NO   OCC          E(Eh)            E(eV)
   0   1.0000    -196.684255     -5352.0507
   1   1.0000     -88.734258     -2414.5819
   2   1.0000     -88.733747     -2414.5680
   3   1.0000     -88.733637     -2414.5650
   4   1.0000     -88.733294     -2414.5557
   5   1.0000     -88.733027     -2414.5484
   6   1.0000     -88.732958     -2414.5465
   7   1.0000     -88.732361     -2414.5303
   8   1.0000     -88.732170     -2414.5251
   9   1.0000     -88.642927     -2412.0967
  10   1.0000     -88.642006     -2412.0716
  11   1.0000     -88.641547     -2412.0591
  12   1.0000     -88.640908     -2412.0417
  13   1.0000     -22.058873      -600.2525
  14   1.0000     -18.893241      -514.1112
  15   1.0000     -18.565314      -505.1879
  16   1.0000     -18.560160      -505.0476
  17   1.0000     -18.560152      -505.0474
  18   1.0000     -10.080603      -274.3072
  19   1.0000     -10.080267      -274.2980
  20   1.0000     -10.064976      -273.8819
  21   1.0000     -10.064722      -273.8750
  22   1.0000     -10.063951      -273.8540
  23   1.0000     -10.063849      -273.8513
  24   1.0000     -10.052571      -273.5444
  25   1.0000     -10.052515      -273.5428
  26   1.0000     -10.052462      -273.5414
  27   1.0000     -10.051877      -273.5255
  28   1.0000     -10.020703      -272.6772
  29   1.0000     -10.020311      -272.6665
  30   1.0000     -10.019866      -272.6544
  31   1.0000     -10.019510      -272.6447
  32   1.0000      -7.787469      -211.9078
  33   1.0000      -7.787100      -211.8978
  34   1.0000      -7.786767      -211.8887
  35   1.0000      -7.786372      -211.8780
  36   1.0000      -7.785852      -211.8638
  37   1.0000      -7.785711      -211.8600
  38   1.0000      -7.785314      -211.8492
  39   1.0000      -7.785093      -211.8432
  40   1.0000      -7.696849      -209.4419
  41   1.0000      -7.695867      -209.4152
  42   1.0000      -7.695373      -209.4017
  43   1.0000      -7.694532      -209.3789
  44   1.0000      -5.752517      -156.5340
  45   1.0000      -5.752097      -156.5225
  46   1.0000      -5.751822      -156.5150
  47   1.0000      -5.751339      -156.5019
  48   1.0000      -5.750845      -156.4885
  49   1.0000      -5.750688      -156.4842
  50   1.0000      -5.750273      -156.4729
  51   1.0000      -5.750050      -156.4668
  52   1.0000      -5.749052      -156.4396
  53   1.0000      -5.748719      -156.4306
  54   1.0000      -5.748375      -156.4212
  55   1.0000      -5.748036      -156.4120
  56   1.0000      -5.746452      -156.3689
  57   1.0000      -5.746313      -156.3651
  58   1.0000      -5.745878      -156.3533
  59   1.0000      -5.745633      -156.3466
  60   1.0000      -5.742233      -156.2541
  61   1.0000      -5.741863      -156.2440
  62   1.0000      -5.741675      -156.2389
  63   1.0000      -5.741512      -156.2345
  64   1.0000      -5.741511      -156.2345
  65   1.0000      -5.741134      -156.2242
  66   1.0000      -5.741120      -156.2238
  67   1.0000      -5.740944      -156.2190
  68   1.0000      -5.662180      -154.0757
  69   1.0000      -5.661236      -154.0501
  70   1.0000      -5.660761      -154.0371
  71   1.0000      -5.659995      -154.0163
  72   1.0000      -5.655613      -153.8971
  73   1.0000      -5.654622      -153.8701
  74   1.0000      -5.654171      -153.8578
  75   1.0000      -5.654089      -153.8556
  76   1.0000      -5.653316      -153.8345
  77   1.0000      -5.653064      -153.8277
  78   1.0000      -5.652517      -153.8128
  79   1.0000      -5.651637      -153.7889
  80   1.0000      -2.451455       -66.7075
  81   1.0000      -1.490341       -40.5542
  82   1.0000      -1.481195       -40.3054
  83   1.0000      -1.480701       -40.2919
  84   1.0000      -0.707829       -19.2610
  85   1.0000      -0.706632       -19.2284
  86   1.0000      -0.684957       -18.6386
  87   1.0000      -0.684031       -18.6134
  88   1.0000      -0.653610       -17.7856
  89   1.0000      -0.631271       -17.1778
  90   1.0000      -0.630387       -17.1537
  91   1.0000      -0.616009       -16.7625
  92   1.0000      -0.614792       -16.7293
  93   1.0000      -0.575959       -15.6726
  94   1.0000      -0.574970       -15.6457
  95   1.0000      -0.572251       -15.5717
  96   1.0000      -0.570659       -15.5284
  97   1.0000      -0.498434       -13.5631
  98   1.0000      -0.496537       -13.5115
  99   1.0000      -0.494722       -13.4621
 100   1.0000      -0.493008       -13.4154
 101   1.0000      -0.479863       -13.0577
 102   1.0000      -0.474873       -12.9219
 103   1.0000      -0.448292       -12.1987
 104   1.0000      -0.445823       -12.1315
 105   1.0000      -0.417228       -11.3534
 106   1.0000      -0.410463       -11.1693
 107   1.0000      -0.355820        -9.6824
 108   1.0000      -0.355082        -9.6623
 109   1.0000      -0.326616        -8.8877
 110   1.0000      -0.326007        -8.8711
 111   1.0000      -0.319034        -8.6814
 112   1.0000      -0.312347        -8.4994
 113   1.0000      -0.305480        -8.3125
 114   1.0000      -0.304734        -8.2922
 115   1.0000      -0.292291        -7.9536
 116   1.0000      -0.291462        -7.9311
 117   1.0000      -0.258937        -7.0460
 118   1.0000      -0.257804        -7.0152
 119   1.0000      -0.256413        -6.9773
 120   1.0000      -0.255175        -6.9437
 121   1.0000      -0.235177        -6.3995
 122   1.0000      -0.234231        -6.3737
 123   1.0000      -0.230554        -6.2737
 124   1.0000      -0.228650        -6.2219
 125   1.0000      -0.221919        -6.0387
 126   1.0000      -0.217715        -5.9243
 127   1.0000      -0.214308        -5.8316
 128   1.0000      -0.210610        -5.7310
 129   1.0000      -0.194683        -5.2976
 130   1.0000      -0.188222        -5.1218
 131   1.0000      -0.186281        -5.0690
 132   1.0000      -0.185466        -5.0468
 133   1.0000      -0.178306        -4.8519
 134   1.0000      -0.157964        -4.2984
 135   1.0000      -0.152792        -4.1577
 136   1.0000      -0.146262        -3.9800
 137   1.0000      -0.136964        -3.7270
 138   1.0000      -0.134180        -3.6512
 139   1.0000      -0.133521        -3.6333
 140   1.0000      -0.127844        -3.4788
 141   1.0000      -0.118803        -3.2328
 142   1.0000      -0.111799        -3.0422
 143   1.0000      -0.111483        -3.0336
 144   1.0000      -0.100546        -2.7360
 145   1.0000      -0.099368        -2.7039
 146   1.0000      -0.098990        -2.6936
 147   1.0000      -0.098071        -2.6686
 148   1.0000      -0.072811        -1.9813
 149   1.0000      -0.066047        -1.7972
 150   1.0000      -0.064889        -1.7657
 151   1.0000      -0.048468        -1.3189
 152   1.0000      -0.045170        -1.2291
 153   1.0000      -0.041621        -1.1326
 154   1.0000      -0.037949        -1.0326
 155   1.0000      -0.034131        -0.9288
 156   1.0000      -0.026604        -0.7239
 157   1.0000      -0.023841        -0.6487
 158   1.0000      -0.005375        -0.1462
 159   1.0000       0.014564         0.3963
 160   1.0000       0.038792         1.0556
 161   0.0000       0.133964         3.6454
 162   0.0000       0.135388         3.6841
 163   0.0000       0.156761         4.2657
 164   0.0000       0.161395         4.3918
 165   0.0000       0.161845         4.4040

                 SPIN DOWN ORBITALS
  NO   OCC          E(Eh)            E(eV)
   0   1.0000    -196.684401     -5352.0547
   1   1.0000     -88.734258     -2414.5819
   2   1.0000     -88.733747     -2414.5680
   3   1.0000     -88.733638     -2414.5650
   4   1.0000     -88.733305     -2414.5560
   5   1.0000     -88.733028     -2414.5484
   6   1.0000     -88.732968     -2414.5468
   7   1.0000     -88.732370     -2414.5305
   8   1.0000     -88.732181     -2414.5254
   9   1.0000     -88.643096     -2412.1013
  10   1.0000     -88.642178     -2412.0763
  11   1.0000     -88.641718     -2412.0638
  12   1.0000     -88.641072     -2412.0462
  13   1.0000     -22.043488      -599.8338
  14   1.0000     -18.897011      -514.2138
  15   1.0000     -18.559836      -505.0388
  16   1.0000     -18.543643      -504.5982
  17   1.0000     -18.543591      -504.5968
  18   1.0000     -10.080598      -274.3070
  19   1.0000     -10.080266      -274.2980
  20   1.0000     -10.064975      -273.8819
  21   1.0000     -10.064722      -273.8750
  22   1.0000     -10.063951      -273.8540
  23   1.0000     -10.063847      -273.8512
  24   1.0000     -10.052571      -273.5444
  25   1.0000     -10.052511      -273.5427
  26   1.0000     -10.052462      -273.5414
  27   1.0000     -10.051867      -273.5252
  28   1.0000     -10.020536      -272.6726
  29   1.0000     -10.020127      -272.6615
  30   1.0000     -10.019688      -272.6496
  31   1.0000     -10.019329      -272.6398
  32   1.0000      -7.787470      -211.9078
  33   1.0000      -7.787101      -211.8978
  34   1.0000      -7.786767      -211.8887
  35   1.0000      -7.786373      -211.8780
  36   1.0000      -7.785864      -211.8641
  37   1.0000      -7.785722      -211.8603
  38   1.0000      -7.785323      -211.8494
  39   1.0000      -7.785105      -211.8435
  40   1.0000      -7.697008      -209.4462
  41   1.0000      -7.696028      -209.4196
  42   1.0000      -7.695534      -209.4061
  43   1.0000      -7.694687      -209.3831
  44   1.0000      -5.752518      -156.5340
  45   1.0000      -5.752098      -156.5225
  46   1.0000      -5.751823      -156.5151
  47   1.0000      -5.751340      -156.5019
  48   1.0000      -5.750859      -156.4888
  49   1.0000      -5.750701      -156.4845
  50   1.0000      -5.750285      -156.4732
  51   1.0000      -5.750063      -156.4672
  52   1.0000      -5.749052      -156.4397
  53   1.0000      -5.748720      -156.4306
  54   1.0000      -5.748376      -156.4213
  55   1.0000      -5.748038      -156.4121
  56   1.0000      -5.746469      -156.3694
  57   1.0000      -5.746329      -156.3656
  58   1.0000      -5.745893      -156.3537
  59   1.0000      -5.745650      -156.3471
  60   1.0000      -5.742234      -156.2541
  61   1.0000      -5.741864      -156.2441
  62   1.0000      -5.741689      -156.2393
  63   1.0000      -5.741520      -156.2347
  64   1.0000      -5.741512      -156.2345
  65   1.0000      -5.741140      -156.2244
  66   1.0000      -5.741121      -156.2239
  67   1.0000      -5.740954      -156.2193
  68   1.0000      -5.662339      -154.0801
  69   1.0000      -5.661390      -154.0543
  70   1.0000      -5.660916      -154.0414
  71   1.0000      -5.660137      -154.0202
  72   1.0000      -5.656040      -153.9087
  73   1.0000      -5.655061      -153.8820
  74   1.0000      -5.654640      -153.8706
  75   1.0000      -5.654241      -153.8597
  76   1.0000      -5.653793      -153.8475
  77   1.0000      -5.653217      -153.8318
  78   1.0000      -5.652638      -153.8161
  79   1.0000      -5.651731      -153.7914
  80   1.0000      -2.405254       -65.4503
  81   1.0000      -1.470202       -40.0062
  82   1.0000      -1.417718       -38.5781
  83   1.0000      -1.416771       -38.5523
  84   1.0000      -0.707822       -19.2608
  85   1.0000      -0.706615       -19.2280
  86   1.0000      -0.684932       -18.6379
  87   1.0000      -0.683991       -18.6123
  88   1.0000      -0.661766       -18.0076
  89   1.0000      -0.631244       -17.1770
  90   1.0000      -0.630338       -17.1524
  91   1.0000      -0.616011       -16.7625
  92   1.0000      -0.614791       -16.7293
  93   1.0000      -0.575971       -15.6730
  94   1.0000      -0.574971       -15.6458
  95   1.0000      -0.572275       -15.5724
  96   1.0000      -0.570688       -15.5292
  97   1.0000      -0.498531       -13.5657
  98   1.0000      -0.496627       -13.5139
  99   1.0000      -0.494822       -13.4648
 100   1.0000      -0.493076       -13.4173
 101   1.0000      -0.480223       -13.0675
 102   1.0000      -0.475327       -12.9343
 103   1.0000      -0.448379       -12.2010
 104   1.0000      -0.445908       -12.1338
 105   1.0000      -0.417341       -11.3564
 106   1.0000      -0.410675       -11.1750
 107   1.0000      -0.355820        -9.6823
 108   1.0000      -0.355076        -9.6621
 109   1.0000      -0.326611        -8.8875
 110   1.0000      -0.326000        -8.8709
 111   1.0000      -0.319010        -8.6807
 112   1.0000      -0.312445        -8.5021
 113   1.0000      -0.305457        -8.3119
 114   1.0000      -0.304722        -8.2919
 115   1.0000      -0.292287        -7.9535
 116   1.0000      -0.291463        -7.9311
 117   1.0000      -0.258842        -7.0434
 118   1.0000      -0.257736        -7.0134
 119   1.0000      -0.256398        -6.9769
 120   1.0000      -0.255166        -6.9434
 121   1.0000      -0.235134        -6.3983
 122   1.0000      -0.234224        -6.3736
 123   1.0000      -0.230511        -6.2725
 124   1.0000      -0.228637        -6.2215
 125   1.0000      -0.221571        -6.0293
 126   1.0000      -0.217523        -5.9191
 127   1.0000      -0.214276        -5.8307
 128   1.0000      -0.210519        -5.7285
 129   1.0000      -0.193682        -5.2703
 130   1.0000      -0.188176        -5.1205
 131   1.0000      -0.186014        -5.0617
 132   1.0000      -0.185274        -5.0416
 133   1.0000      -0.178234        -4.8500
 134   1.0000      -0.157419        -4.2836
 135   1.0000      -0.152598        -4.1524
 136   1.0000      -0.146213        -3.9787
 137   1.0000      -0.135806        -3.6955
 138   1.0000      -0.133964        -3.6454
 139   1.0000      -0.133473        -3.6320
 140   1.0000      -0.127461        -3.4684
 141   1.0000      -0.118598        -3.2272
 142   1.0000      -0.113844        -3.0978
 143   1.0000      -0.113157        -3.0792
 144   1.0000      -0.100427        -2.7328
 145   1.0000      -0.099362        -2.7038
 146   1.0000      -0.099065        -2.6957
 147   1.0000      -0.098115        -2.6698
 148   1.0000      -0.069495        -1.8911
 149   1.0000      -0.066029        -1.7967
 150   1.0000      -0.064881        -1.7655
 151   1.0000      -0.048039        -1.3072
 152   1.0000      -0.043475        -1.1830
 153   1.0000      -0.041670        -1.1339
 154   1.0000      -0.037646        -1.0244
 155   1.0000      -0.034151        -0.9293
 156   1.0000      -0.025122        -0.6836
 157   1.0000      -0.005374        -0.1462
 158   1.0000       0.014823         0.4033
 159   1.0000       0.037950         1.0327
 160   0.0000       0.133978         3.6457
 161   0.0000       0.135386         3.6840
 162   0.0000       0.155043         4.2189
 163   0.0000       0.161583         4.3969
 164   0.0000       0.162273         4.4157

MULLIKEN ATOMIC CHARGES AND SPIN POPULATIONS
--------------------------------------------
   0 V :    0.545531    1.234525
   1 S :   -0.278200   -0.027694
   2 S :   -0.277943   -0.029997
   3 S :   -0.282513   -0.028412
   4 S :   -0.278870   -0.029774
   5 O :   -0.531024   -0.143971
   6 C :   -0.098409    0.008931
   7 C :   -0.090679    0.005461
   8 C :   -0.098017    0.007041
   9 C :   -0.087693    0.005586
  10 S :    0.100922   -0.000960
  11 S :    0.097797   -0.001097
  12 S :    0.096857   -0.000722
  13 S :    0.098934   -0.000592
  14 C :   -0.196200    0.000678
  15 C :   -0.188462    0.000533
  16 C :   -0.211011    0.000684
  17 C :   -0.212185   -0.000095
  18 S :    0.008233   -0.000105
  19 S :    0.009128   -0.000112
  20 S :    0.007969   -0.000061
  21 S :    0.008117   -0.000058
  22 C :   -0.306747   -0.000012
  23 C :   -0.299210   -0.000012
  24 C :   -0.156114    0.000004
  25 H :    0.147707    0.000001
  26 H :    0.115589   -0.000003
  27 H :    0.084297    0.000002
  28 H :    0.091557   -0.000001
  29 H :    0.112557   -0.000005
  30 H :    0.142192    0.000001
  31 C :   -0.305729    0.000197
  32 C :   -0.296456    0.000178
  33 C :   -0.158938   -0.000180
  34 H :    0.139154   -0.000016
  35 H :    0.111602    0.000021
  36 H :    0.091752    0.000017
  37 H :    0.082548    0.000013
  38 H :    0.115313    0.000028
  39 H :    0.146643   -0.000020
Sum of atomic charges         :   -2.0000000

LOEWDIN ATOMIC CHARGES AND SPIN POPULATIONS
-------------------------------------------
   0 V :   -0.074451    1.192391
   1 S :    0.080801   -0.020076
   2 S :    0.073636   -0.021358
   3 S :    0.074006   -0.021220
   4 S :    0.064873   -0.021421
   5 O :   -0.356281   -0.130519
   6 C :   -0.550505    0.008068
   7 C :   -0.549476    0.005422
   8 C :   -0.550977    0.007046
   9 C :   -0.549186    0.005622
  10 S :    0.468323   -0.001188
  11 S :    0.462525   -0.001315
  12 S :    0.463862   -0.001039
  13 S :    0.467346   -0.000970
  14 C :   -0.459444    0.000193
  15 C :   -0.461203   -0.000066
  16 C :   -0.617970    0.000502
  17 C :   -0.615979    0.000073
  18 S :    0.351203   -0.000076
  19 S :    0.354010   -0.000078
  20 S :    0.353023   -0.000063
  21 S :    0.353199   -0.000064
  22 C :   -0.282717   -0.000005
  23 C :   -0.283800   -0.000007
  24 C :   -0.175605   -0.000002
  25 H :    0.064637   -0.000001
  26 H :    0.054048   -0.000002
  27 H :    0.058642   -0.000001
  28 H :    0.060220   -0.000000
  29 H :    0.054149   -0.000002
  30 H :    0.062049   -0.000001
  31 C :   -0.284115    0.000071
  32 C :   -0.285257    0.000059
  33 C :   -0.176387    0.000001
  34 H :    0.061145   -0.000001
  35 H :    0.054256    0.000009
  36 H :    0.060324    0.000004
  37 H :    0.058388    0.000005
  38 H :    0.053988    0.000011
  39 H :    0.064698   -0.000001

  Mayer bond orders larger than 0.100000
B(  0-V ,  1-S ) :   0.7688 B(  0-V ,  2-S ) :   0.7593 B(  0-V ,  3-S ) :   0.7452
B(  0-V ,  4-S ) :   0.7407 B(  0-V ,  5-O ) :   2.0815 B(  1-S ,  8-C ) :   1.1027
B(  2-S ,  6-C ) :   1.1074 B(  3-S ,  9-C ) :   1.1046 B(  4-S ,  7-C ) :   1.1102
B(  6-C ,  7-C ) :   1.6998 B(  6-C , 10-S ) :   0.9301 B(  7-C , 11-S ) :   0.9246
B(  8-C ,  9-C ) :   1.7072 B(  8-C , 13-S ) :   0.9292 B(  9-C , 12-S ) :   0.9256
B( 10-S , 14-C ) :   1.2404 B( 11-S , 14-C ) :   1.2353 B( 12-S , 15-C ) :   1.2325
B( 13-S , 15-C ) :   1.2366 B( 14-C , 16-C ) :   1.4555 B( 15-C , 17-C ) :   1.4569
B( 16-C , 18-S ) :   1.0836 B( 16-C , 19-S ) :   1.0954 B( 17-C , 20-S ) :   1.0886
B( 17-C , 21-S ) :   1.0947 B( 18-S , 32-C ) :   0.9985 B( 19-S , 31-C ) :   0.9876
B( 20-S , 23-C ) :   0.9950 B( 21-S , 22-C ) :   0.9865 B( 22-C , 24-C ) :   0.9096
B( 22-C , 25-H ) :   0.9661 B( 22-C , 26-H ) :   0.9654 B( 23-C , 24-C ) :   0.9148
B( 23-C , 29-H ) :   0.9660 B( 23-C , 30-H ) :   0.9643 B( 24-C , 27-H ) :   0.9631
B( 24-C , 28-H ) :   0.9727 B( 31-C , 33-C ) :   0.9091 B( 31-C , 38-H ) :   0.9649
B( 31-C , 39-H ) :   0.9669 B( 32-C , 33-C ) :   0.9159 B( 32-C , 34-H ) :   0.9641
B( 32-C , 35-H ) :   0.9657 B( 33-C , 36-H ) :   0.9729 B( 33-C , 37-H ) :   0.9624

FINAL SINGLE POINT ENERGY     -6337.690761694356

DIPOLE MOMENT
-------------
                                X             Y             Z
Electronic contribution:    -13.54141      -0.29832      -6.00017
Nuclear contribution   :     14.81498       0.31737       6.64135
                        -----------------------------------------
Total Dipole Moment    :      1.27357       0.01905       0.64117
                        -----------------------------------------
Magnitude (a.u.)       :      1.42599
Magnitude (Debye)      :      3.62458

Rotational constants in cm-1:     0.010609     0.000796     0.000779
Rotational constants in MHz :   318.036335    23.869735    23.343972

                             ****ORCA TERMINATED NORMALLY****
TOTAL RUN TIME: 0 days 1 hours 7 minutes 13 seconds 133 msec
