                         Program Version 5.0.4 -  RELEASE  -
|  1> ! nofrozencore ReducedPop printbasis
|  2> ! B3LYP TZVP
|  3>
|  4> %basis
|  5> newgto V "CP(PPP)" end
|  6> end
|  7>
|  8> %pal
|  9> nprocs 6
| 10> end
| 11>
| 12> % sym SymThresh 1e-2 end
| 13> * xyz -2 2
| 14> V -0.7221382169022432 -0.8276265528491816 0.181468572987803
| 15> S -0.07025548980314035 -1.2717552370562213 -2.1627471774087685
| 16> S 1.534512889838187 -1.6497136451687546 0.7803351579862828
| 17> S -2.100188281391065 1.0161914355360795 -0.7302461507428625
| 18> S -0.4515840330213751 0.6792335425663255 2.1158423434670053
| 19> O -1.7195909192870238 -1.9833505210970919 0.6190576816246626
| 20> C 1.8571368224140654 -1.3690742734636694 2.254856234373206
| 21> C 0.5787834026572233 0.13792540849789725 3.1137397393316633
| 22> C -1.2228247659646518 -0.1510845441180028 -2.9973390574099468
| 23> C -1.932164116736036 0.6525450237742991 -2.494791824970583
| 24> S 2.9058250604188043 -1.7379982385104649 3.4927833251817346
| 25> S 1.172325135417367 0.32546162627440856 4.652366269050349
| 26> S -2.970324923163051 1.71104911133572 -3.5722533830934573
| 27> S -1.2102008895388616 -0.2933040100366671 -4.825055265511138
| 28> C 2.648738770840876 -0.7563122142625242 5.074869819012373
| 29> C -2.345510058114644 1.0147441439442486 -5.045823478444712
| 30> C 3.1797902326086587 -0.7924310582550897 5.93992297736505
| 31> C -2.745603354963306 1.4806027219162956 -6.350991449465925
| 32> S 4.61397888711437 -1.9452204892225258 6.31774692357661
| 33> S 2.8564004724385086 0.23007585809023925 7.4808296924104685
| 34> S -2.0888307677080364 0.7500261194262366 -7.814751783351259
| 35> S -3.880756526345271 2.8188300786736233 -6.5256253652805905
| 36> C -2.7433426277641106 4.003489637719869 -7.380672864501984
| 37> C -1.2247782504371207 2.2462274510803155 -8.480424981756718
| 38> C -2.1424603841332406 3.454039873354405 -8.675185500354129
| 39> H -1.9608758170823697 4.293545139296642 -6.675567202396941
| 40> H -3.3493114711245777 4.890412490180198 -7.582722688612305
| 41> H -1.5582306381377153 4.254943070464863 -9.14894109104753
| 42> H -2.9499351118814725 3.188579090023841 -9.364736162350361
| 43> H -0.7968578529338646 1.9299375584058993 -9.435095931473771
| 44> H -0.39521285086846825 2.4869157858190425 -7.811580691443791
| 45> C 2.392287094646762 -1.0936168476861703 8.688114396332066
| 46> C 3.8887301280129956 -2.9545551330568722 7.689904170941034
| 47> C 3.5097271804945582 -2.1213767079283947 8.924365921460168
| 48> H 2.9986114697580457 -3.4499839900696454 7.296279472459824
| 49> H 4.658863123526758 -3.6744046455202812 7.9780086932384
| 50> H 4.399985375775958 -1.6083854437949614 9.301401584540052
| 51> H 3.1728583391645935 -2.8136778391763166 9.710056943884922
| 52> H 2.180541368122932 -0.5844853335394745 9.631636400095406
| 53> H 1.5077226162774624 -1.598988661270872 8.294561121982381
| 54> *
| 55>
| 56> % eprnmr
| 57> gtensor true
| 58> Nuclei = all H {aiso,adip,aorb,fgrad,rho}
| 59> Nuclei = all V {aiso,adip,aorb,fgrad,rho}
| 60> end
| 61>
| 62>                          ****END OF INPUT****

CARTESIAN COORDINATES (ANGSTROEM)
---------------------------------
  V     -0.719075   -0.825770    0.182835
  S     -0.067192   -1.269899   -2.161380
  S      1.537576   -1.647857    0.781702
  S     -2.097125    1.018048   -0.728879
  S     -0.448521    0.681090    2.117209
  O     -1.716528   -1.981494    0.620424
  C      1.860200   -1.367218    2.256223
  C      0.581847    0.139782    3.115107
  C     -1.219761   -0.149228   -2.995972
  C     -1.929101    0.654402   -2.493425
  S      2.908888   -1.736142    3.494150
  S      1.175388    0.327318    4.653733
  S     -2.967262    1.712906   -3.570887
  S     -1.207138   -0.291447   -4.823688
  C      2.651802   -0.754456    5.076237
  C     -2.342447    1.016601   -5.044457
  C      3.182854   -0.790574    5.941290
  C     -2.742540    1.482459   -6.349625
  S      4.617042   -1.943364    6.319114
  S      2.859464    0.231933    7.482197
  S     -2.085767    0.751883   -7.813385
  S     -3.877693    2.820687   -6.524259
  C     -2.740279    4.005346   -7.379306
  C     -1.221715    2.248084   -8.479058
  C     -2.139397    3.455897   -8.673819
  H     -1.957813    4.295402   -6.674200
  H     -3.346248    4.892269   -7.581356
  H     -1.555167    4.256800   -9.147574
  H     -2.946872    3.190436   -9.363369
  H     -0.793795    1.931794   -9.433729
  H     -0.392150    2.488772   -7.810214
  C      2.395350   -1.091760    8.689481
  C      3.891793   -2.952698    7.691271
  C      3.512790   -2.119520    8.925733
  H      3.001675   -3.448127    7.297646
  H      4.661926   -3.672548    7.979376
  H      4.403049   -1.606529    9.302768
  H      3.175922   -2.811821    9.711424
  H      2.183605   -0.582629    9.633003
  H      1.510786   -1.597132    8.295928

 Total Charge           Charge          ....   -2
 Multiplicity           Mult            ....    2
 Number of Electrons    NEL             ....  321
 Basis Dimension        Dim             ....  681

ORBITAL ENERGIES
----------------
                 SPIN UP ORBITALS
  NO   OCC          E(Eh)            E(eV)
   0   1.0000    -196.674949     -5351.7974
   1   1.0000     -88.740917     -2414.7631
   2   1.0000     -88.740898     -2414.7626
   3   1.0000     -88.737931     -2414.6819
   4   1.0000     -88.737811     -2414.6786
   5   1.0000     -88.708089     -2413.8698
   6   1.0000     -88.707726     -2413.8599
   7   1.0000     -88.703974     -2413.7579
   8   1.0000     -88.703877     -2413.7552
   9   1.0000     -88.672591     -2412.9039
  10   1.0000     -88.672155     -2412.8920
  11   1.0000     -88.649144     -2412.2658
  12   1.0000     -88.648582     -2412.2506
  13   1.0000     -22.049178      -599.9886
  14   1.0000     -18.896958      -514.2124
  15   1.0000     -18.555568      -504.9227
  16   1.0000     -18.550546      -504.7860
  17   1.0000     -18.550028      -504.7719
  18   1.0000     -10.088920      -274.5335
  19   1.0000     -10.066542      -273.9245
  20   1.0000     -10.066505      -273.9235
  21   1.0000     -10.057149      -273.6689
  22   1.0000     -10.055080      -273.6126
  23   1.0000     -10.051539      -273.5163
  24   1.0000     -10.051511      -273.5155
  25   1.0000     -10.035801      -273.0880
  26   1.0000     -10.021566      -272.7007
  27   1.0000     -10.020612      -272.6747
  28   1.0000     -10.015757      -272.5426
  29   1.0000     -10.012882      -272.4644
  30   1.0000      -9.997932      -272.0576
  31   1.0000      -9.985893      -271.7300
  32   1.0000      -7.794145      -212.0895
  33   1.0000      -7.794119      -212.0888
  34   1.0000      -7.791561      -212.0192
  35   1.0000      -7.791459      -212.0164
  36   1.0000      -7.761579      -211.2033
  37   1.0000      -7.761359      -211.1973
  38   1.0000      -7.758095      -211.1085
  39   1.0000      -7.758022      -211.1065
  40   1.0000      -7.730766      -210.3648
  41   1.0000      -7.730470      -210.3568
  42   1.0000      -7.702714      -209.6015
  43   1.0000      -7.702197      -209.5874
  44   1.0000      -5.759094      -156.7129
  45   1.0000      -5.759067      -156.7122
  46   1.0000      -5.756527      -156.6431
  47   1.0000      -5.756425      -156.6403
  48   1.0000      -5.754733      -156.5942
  49   1.0000      -5.754712      -156.5937
  50   1.0000      -5.753055      -156.5486
  51   1.0000      -5.752959      -156.5460
  52   1.0000      -5.749871      -156.4620
  53   1.0000      -5.749860      -156.4616
  54   1.0000      -5.746444      -156.3687
  55   1.0000      -5.746328      -156.3655
  56   1.0000      -5.726054      -155.8139
  57   1.0000      -5.725813      -155.8073
  58   1.0000      -5.723331      -155.7398
  59   1.0000      -5.723254      -155.7377
  60   1.0000      -5.722168      -155.7081
  61   1.0000      -5.721929      -155.7016
  62   1.0000      -5.720031      -155.6500
  63   1.0000      -5.719962      -155.6481
  64   1.0000      -5.717567      -155.5829
  65   1.0000      -5.717349      -155.5770
  66   1.0000      -5.712522      -155.4456
  67   1.0000      -5.712450      -155.4437
  68   1.0000      -5.694241      -154.9482
  69   1.0000      -5.693922      -154.9395
  70   1.0000      -5.689536      -154.8201
  71   1.0000      -5.689245      -154.8122
  72   1.0000      -5.688675      -154.7967
  73   1.0000      -5.688349      -154.7878
  74   1.0000      -5.668475      -154.2470
  75   1.0000      -5.667954      -154.2329
  76   1.0000      -5.661326      -154.0525
  77   1.0000      -5.660825      -154.0389
  78   1.0000      -5.659694      -154.0081
  79   1.0000      -5.659158      -153.9935
  80   1.0000      -2.447666       -66.6044
  81   1.0000      -1.488814       -40.5127
  82   1.0000      -1.478349       -40.2279
  83   1.0000      -1.478148       -40.2225
  84   1.0000      -0.719653       -19.5828
  85   1.0000      -0.703641       -19.1470
  86   1.0000      -0.698455       -19.0059
  87   1.0000      -0.664101       -18.0711
  88   1.0000      -0.656604       -17.8671
  89   1.0000      -0.640807       -17.4373
  90   1.0000      -0.635386       -17.2897
  91   1.0000      -0.622287       -16.9333
  92   1.0000      -0.613077       -16.6827
  93   1.0000      -0.596122       -16.2213
  94   1.0000      -0.591967       -16.1082
  95   1.0000      -0.578835       -15.7509
  96   1.0000      -0.563918       -15.3450
  97   1.0000      -0.531196       -14.4546
  98   1.0000      -0.527315       -14.3490
  99   1.0000      -0.499861       -13.6019
 100   1.0000      -0.493418       -13.4266
 101   1.0000      -0.479299       -13.0424
 102   1.0000      -0.469120       -12.7654
 103   1.0000      -0.457741       -12.4558
 104   1.0000      -0.435300       -11.8451
 105   1.0000      -0.429922       -11.6988
 106   1.0000      -0.361257        -9.8303
 107   1.0000      -0.355160        -9.6644
 108   1.0000      -0.336287        -9.1508
 109   1.0000      -0.332956        -9.0602
 110   1.0000      -0.331356        -9.0167
 111   1.0000      -0.317437        -8.6379
 112   1.0000      -0.306816        -8.3489
 113   1.0000      -0.303302        -8.2533
 114   1.0000      -0.295357        -8.0371
 115   1.0000      -0.282482        -7.6867
 116   1.0000      -0.266235        -7.2446
 117   1.0000      -0.263258        -7.1636
 118   1.0000      -0.260668        -7.0931
 119   1.0000      -0.248274        -6.7559
 120   1.0000      -0.242256        -6.5921
 121   1.0000      -0.241625        -6.5749
 122   1.0000      -0.234465        -6.3801
 123   1.0000      -0.232006        -6.3132
 124   1.0000      -0.230416        -6.2699
 125   1.0000      -0.223454        -6.0805
 126   1.0000      -0.222972        -6.0674
 127   1.0000      -0.218482        -5.9452
 128   1.0000      -0.208717        -5.6795
 129   1.0000      -0.199826        -5.4376
 130   1.0000      -0.196031        -5.3343
 131   1.0000      -0.187314        -5.0971
 132   1.0000      -0.182179        -4.9573
 133   1.0000      -0.166373        -4.5272
 134   1.0000      -0.158881        -4.3234
 135   1.0000      -0.157260        -4.2793
 136   1.0000      -0.153105        -4.1662
 137   1.0000      -0.146444        -3.9849
 138   1.0000      -0.141921        -3.8619
 139   1.0000      -0.134505        -3.6601
 140   1.0000      -0.131171        -3.5693
 141   1.0000      -0.123219        -3.3530
 142   1.0000      -0.117654        -3.2015
 143   1.0000      -0.115131        -3.1329
 144   1.0000      -0.106730        -2.9043
 145   1.0000      -0.104308        -2.8384
 146   1.0000      -0.104099        -2.8327
 147   1.0000      -0.078564        -2.1378
 148   1.0000      -0.072812        -1.9813
 149   1.0000      -0.072348        -1.9687
 150   1.0000      -0.071884        -1.9561
 151   1.0000      -0.051567        -1.4032
 152   1.0000      -0.051457        -1.4002
 153   1.0000      -0.044475        -1.2102
 154   1.0000      -0.040022        -1.0891
 155   1.0000      -0.035719        -0.9720
 156   1.0000      -0.026372        -0.7176
 157   1.0000      -0.025485        -0.6935
 158   1.0000      -0.004101        -0.1116
 159   1.0000       0.005268         0.1433
 160   1.0000       0.069399         1.8884
 161   0.0000       0.124906         3.3989
 162   0.0000       0.136711         3.7201
 163   0.0000       0.146819         3.9951
 164   0.0000       0.148926         4.0525
 165   0.0000       0.164847         4.4857

                 SPIN DOWN ORBITALS
  NO   OCC          E(Eh)            E(eV)
   0   1.0000    -196.675153     -5351.8030
   1   1.0000     -88.740926     -2414.7633
   2   1.0000     -88.740907     -2414.7628
   3   1.0000     -88.737931     -2414.6819
   4   1.0000     -88.737811     -2414.6786
   5   1.0000     -88.707764     -2413.8610
   6   1.0000     -88.707406     -2413.8512
   7   1.0000     -88.703033     -2413.7322
   8   1.0000     -88.702935     -2413.7296
   9   1.0000     -88.673128     -2412.9185
  10   1.0000     -88.672685     -2412.9064
  11   1.0000     -88.649396     -2412.2727
  12   1.0000     -88.648840     -2412.2576
  13   1.0000     -22.032755      -599.5417
  14   1.0000     -18.901382      -514.3327
  15   1.0000     -18.549820      -504.7663
  16   1.0000     -18.533098      -504.3112
  17   1.0000     -18.532111      -504.2844
  18   1.0000     -10.088921      -274.5335
  19   1.0000     -10.066542      -273.9245
  20   1.0000     -10.066504      -273.9235
  21   1.0000     -10.057145      -273.6688
  22   1.0000     -10.055080      -273.6126
  23   1.0000     -10.051650      -273.5193
  24   1.0000     -10.051620      -273.5185
  25   1.0000     -10.035807      -273.0882
  26   1.0000     -10.024466      -272.7796
  27   1.0000     -10.023542      -272.7544
  28   1.0000     -10.015520      -272.5361
  29   1.0000     -10.012648      -272.4580
  30   1.0000      -9.996219      -272.0109
  31   1.0000      -9.983096      -271.6539
  32   1.0000      -7.794155      -212.0897
  33   1.0000      -7.794129      -212.0890
  34   1.0000      -7.791562      -212.0192
  35   1.0000      -7.791460      -212.0164
  36   1.0000      -7.761114      -211.1906
  37   1.0000      -7.760902      -211.1849
  38   1.0000      -7.757104      -211.0815
  39   1.0000      -7.757033      -211.0796
  40   1.0000      -7.731252      -210.3781
  41   1.0000      -7.730950      -210.3698
  42   1.0000      -7.702952      -209.6080
  43   1.0000      -7.702441      -209.5941
  44   1.0000      -5.759107      -156.7133
  45   1.0000      -5.759081      -156.7126
  46   1.0000      -5.756528      -156.6431
  47   1.0000      -5.756426      -156.6403
  48   1.0000      -5.754747      -156.5946
  49   1.0000      -5.754727      -156.5941
  50   1.0000      -5.753056      -156.5486
  51   1.0000      -5.752960      -156.5460
  52   1.0000      -5.749876      -156.4621
  53   1.0000      -5.749865      -156.4618
  54   1.0000      -5.746444      -156.3687
  55   1.0000      -5.746328      -156.3655
  56   1.0000      -5.725307      -155.7935
  57   1.0000      -5.725063      -155.7869
  58   1.0000      -5.721807      -155.6983
  59   1.0000      -5.721725      -155.6961
  60   1.0000      -5.721476      -155.6893
  61   1.0000      -5.721252      -155.6832
  62   1.0000      -5.718345      -155.6041
  63   1.0000      -5.718275      -155.6022
  64   1.0000      -5.717919      -155.5925
  65   1.0000      -5.717708      -155.5868
  66   1.0000      -5.711852      -155.4274
  67   1.0000      -5.711782      -155.4255
  68   1.0000      -5.694565      -154.9570
  69   1.0000      -5.694241      -154.9482
  70   1.0000      -5.691188      -154.8651
  71   1.0000      -5.690877      -154.8566
  72   1.0000      -5.689100      -154.8083
  73   1.0000      -5.688768      -154.7993
  74   1.0000      -5.668691      -154.2529
  75   1.0000      -5.668170      -154.2387
  76   1.0000      -5.661849      -154.0668
  77   1.0000      -5.661359      -154.0534
  78   1.0000      -5.660050      -154.0178
  79   1.0000      -5.659527      -154.0036
  80   1.0000      -2.397969       -65.2521
  81   1.0000      -1.467710       -39.9384
  82   1.0000      -1.409937       -38.3663
  83   1.0000      -1.408756       -38.3342
  84   1.0000      -0.719592       -19.5811
  85   1.0000      -0.698408       -19.0046
  86   1.0000      -0.695634       -18.9292
  87   1.0000      -0.666173       -18.1275
  88   1.0000      -0.662449       -18.0261
  89   1.0000      -0.640751       -17.4357
  90   1.0000      -0.635836       -17.3020
  91   1.0000      -0.622288       -16.9333
  92   1.0000      -0.614590       -16.7239
  93   1.0000      -0.593757       -16.1570
  94   1.0000      -0.591923       -16.1070
  95   1.0000      -0.578857       -15.7515
  96   1.0000      -0.562825       -15.3153
  97   1.0000      -0.529640       -14.4122
  98   1.0000      -0.522221       -14.2104
  99   1.0000      -0.499931       -13.6038
 100   1.0000      -0.493503       -13.4289
 101   1.0000      -0.479968       -13.0606
 102   1.0000      -0.464791       -12.6476
 103   1.0000      -0.458169       -12.4674
 104   1.0000      -0.435373       -11.8471
 105   1.0000      -0.428899       -11.6709
 106   1.0000      -0.361261        -9.8304
 107   1.0000      -0.356793        -9.7088
 108   1.0000      -0.332494        -9.0476
 109   1.0000      -0.331326        -9.0158
 110   1.0000      -0.330027        -8.9805
 111   1.0000      -0.317231        -8.6323
 112   1.0000      -0.306780        -8.3479
 113   1.0000      -0.303010        -8.2453
 114   1.0000      -0.295346        -8.0368
 115   1.0000      -0.281924        -7.6715
 116   1.0000      -0.266128        -7.2417
 117   1.0000      -0.263129        -7.1601
 118   1.0000      -0.261012        -7.1025
 119   1.0000      -0.246508        -6.7078
 120   1.0000      -0.241583        -6.5738
 121   1.0000      -0.240753        -6.5512
 122   1.0000      -0.234396        -6.3782
 123   1.0000      -0.231892        -6.3101
 124   1.0000      -0.229902        -6.2560
 125   1.0000      -0.223387        -6.0787
 126   1.0000      -0.222283        -6.0486
 127   1.0000      -0.218567        -5.9475
 128   1.0000      -0.208943        -5.6856
 129   1.0000      -0.199795        -5.4367
 130   1.0000      -0.195286        -5.3140
 131   1.0000      -0.187128        -5.0920
 132   1.0000      -0.182230        -4.9587
 133   1.0000      -0.175030        -4.7628
 134   1.0000      -0.158793        -4.3210
 135   1.0000      -0.158119        -4.3026
 136   1.0000      -0.148750        -4.0477
 137   1.0000      -0.146237        -3.9793
 138   1.0000      -0.145397        -3.9564
 139   1.0000      -0.143818        -3.9135
 140   1.0000      -0.132565        -3.6073
 141   1.0000      -0.122921        -3.3449
 142   1.0000      -0.119399        -3.2490
 143   1.0000      -0.119209        -3.2438
 144   1.0000      -0.104510        -2.8439
 145   1.0000      -0.104355        -2.8396
 146   1.0000      -0.102008        -2.7758
 147   1.0000      -0.077382        -2.1057
 148   1.0000      -0.072530        -1.9736
 149   1.0000      -0.070347        -1.9142
 150   1.0000      -0.065712        -1.7881
 151   1.0000      -0.056189        -1.5290
 152   1.0000      -0.052408        -1.4261
 153   1.0000      -0.046066        -1.2535
 154   1.0000      -0.038544        -1.0488
 155   1.0000      -0.036042        -0.9807
 156   1.0000      -0.028017        -0.7624
 157   1.0000      -0.003845        -0.1046
 158   1.0000       0.003489         0.0949
 159   1.0000       0.080497         2.1904
 160   0.0000       0.124099         3.3769
 161   0.0000       0.124912         3.3990
 162   0.0000       0.144920         3.9435
 163   0.0000       0.146713         3.9923
 164   0.0000       0.150104         4.0845

MULLIKEN ATOMIC CHARGES AND SPIN POPULATIONS
--------------------------------------------
   0 V :    0.413162    1.322016
   1 S :   -0.318077   -0.036858
   2 S :   -0.083925   -0.117436
   3 S :   -0.316392   -0.038251
   4 S :   -0.080282   -0.118424
   5 O :   -0.474326   -0.167726
   6 C :   -0.208142   -0.180767
   7 C :   -0.210406   -0.182378
   8 C :   -0.051629    0.011201
   9 C :   -0.053768    0.010198
  10 S :    0.103947    0.035271
  11 S :    0.105811    0.034736
  12 S :    0.102411   -0.000445
  13 S :    0.101369   -0.000404
  14 C :   -0.541241    0.149366
  15 C :   -0.176037    0.000857
  16 C :    0.202527    0.003103
  17 C :   -0.238524   -0.000197
  18 S :   -0.071587    0.141336
  19 S :   -0.072114    0.142457
  20 S :    0.013971   -0.000049
  21 S :    0.014069   -0.000045
  22 C :   -0.296863   -0.000002
  23 C :   -0.295859   -0.000001
  24 C :   -0.163693    0.000020
  25 H :    0.141013    0.000003
  26 H :    0.113919   -0.000003
  27 H :    0.086491   -0.000000
  28 H :    0.093267   -0.000002
  29 H :    0.113472   -0.000001
  30 H :    0.140487    0.000002
  31 C :   -0.308149   -0.008669
  32 C :   -0.310043   -0.008236
  33 C :   -0.146790    0.001920
  34 H :    0.137879    0.003854
  35 H :    0.117868    0.001424
  36 H :    0.091119   -0.001583
  37 H :    0.069555   -0.001674
  38 H :    0.117841    0.001480
  39 H :    0.137669    0.003908
Sum of atomic charges         :   -2.0000000

LOEWDIN ATOMIC CHARGES AND SPIN POPULATIONS
-------------------------------------------
   0 V :   -0.201537    1.271428
   1 S :    0.046760   -0.028498
   2 S :    0.317186   -0.102932
   3 S :    0.047583   -0.029748
   4 S :    0.319304   -0.103284
   5 O :   -0.327491   -0.157472
   6 C :   -0.703840   -0.172641
   7 C :   -0.706438   -0.174227
   8 C :   -0.505294    0.009795
   9 C :   -0.505838    0.009232
  10 S :    0.443370    0.026996
  11 S :    0.445643    0.026011
  12 S :    0.474197   -0.000935
  13 S :    0.473355   -0.000906
  14 C :   -0.485106    0.163012
  15 C :   -0.472546   -0.000159
  16 C :   -0.502874    0.017119
  17 C :   -0.642529    0.000180
  18 S :    0.279650    0.119660
  19 S :    0.280923    0.120118
  20 S :    0.364797   -0.000056
  21 S :    0.364387   -0.000052
  22 C :   -0.283226    0.000008
  23 C :   -0.283320    0.000009
  24 C :   -0.174712   -0.000003
  25 H :    0.061922    0.000000
  26 H :    0.053256   -0.000001
  27 H :    0.059146   -0.000000
  28 H :    0.060833   -0.000000
  29 H :    0.053175   -0.000001
  30 H :    0.061734   -0.000000
  31 C :   -0.285807   -0.001102
  32 C :   -0.285743   -0.001108
  33 C :   -0.181366   -0.000450
  34 H :    0.059163    0.002197
  35 H :    0.055594    0.003457
  36 H :    0.058825   -0.000605
  37 H :    0.052080   -0.000723
  38 H :    0.055763    0.003487
  39 H :    0.059021    0.002192

  Mayer bond orders larger than 0.100000
B(  0-V ,  1-S ) :   0.7809 B(  0-V ,  2-S ) :   0.6939 B(  0-V ,  3-S ) :   0.7740
B(  0-V ,  4-S ) :   0.7001 B(  0-V ,  5-O ) :   2.1317 B(  1-S ,  8-C ) :   1.0624
B(  2-S ,  6-C ) :   1.4527 B(  3-S ,  9-C ) :   1.0624 B(  4-S ,  7-C ) :   1.4537
B(  6-C ,  7-C ) :   0.5552 B(  6-C , 10-S ) :   1.2904 B(  7-C , 11-S ) :   1.2950
B(  8-C ,  9-C ) :   1.8961 B(  8-C , 13-S ) :   0.9152 B(  9-C , 12-S ) :   0.9170
B( 10-S , 14-C ) :   1.0769 B( 10-S , 16-C ) :  -0.2261 B( 11-S , 14-C ) :   1.0832
B( 11-S , 16-C ) :  -0.2346 B( 12-S , 15-C ) :   1.2371 B( 13-S , 15-C ) :   1.2371
B( 14-C , 16-C ) :   2.0265 B( 14-C , 18-S ) :  -0.1030 B( 14-C , 19-S ) :  -0.1020
B( 15-C , 17-C ) :   1.4056 B( 16-C , 18-S ) :   0.9143 B( 16-C , 19-S ) :   0.9148
B( 17-C , 20-S ) :   1.0995 B( 17-C , 21-S ) :   1.1000 B( 18-S , 32-C ) :   1.0381
B( 19-S , 31-C ) :   1.0386 B( 20-S , 23-C ) :   0.9862 B( 21-S , 22-C ) :   0.9856
B( 22-C , 24-C ) :   0.9156 B( 22-C , 25-H ) :   0.9650 B( 22-C , 26-H ) :   0.9653
B( 23-C , 24-C ) :   0.9162 B( 23-C , 29-H ) :   0.9655 B( 23-C , 30-H ) :   0.9648
B( 24-C , 27-H ) :   0.9630 B( 24-C , 28-H ) :   0.9725 B( 31-C , 33-C ) :   0.8992
B( 31-C , 38-H ) :   0.9676 B( 31-C , 39-H ) :   0.9677 B( 32-C , 33-C ) :   0.8988
B( 32-C , 34-H ) :   0.9679 B( 32-C , 35-H ) :   0.9675 B( 33-C , 36-H ) :   0.9711
B( 33-C , 37-H ) :   0.9591

FINAL SINGLE POINT ENERGY     -6337.259243711701

DIPOLE MOMENT
-------------
                                X             Y             Z
Electronic contribution:    -10.65981      -9.30273      -3.10430
Nuclear contribution   :     10.74296      10.65282       1.25934
                        -----------------------------------------
Total Dipole Moment    :      0.08315       1.35009      -1.84497
                        -----------------------------------------
Magnitude (a.u.)       :      2.28769
Magnitude (Debye)      :      5.81486

Rotational constants in cm-1:     0.010678     0.000805     0.000783
Rotational constants in MHz :   320.118062    24.119892    23.476632

                             ****ORCA TERMINATED NORMALLY****
TOTAL RUN TIME: 0 days 1 hours 16 minutes 18 seconds 526 msec
