                         Program Version 5.0.4 -  RELEASE  -
|  1> ! nofrozencore ReducedPop printbasis
|  2> ! B3LYP TZVP
|  3>
|  4> %basis
|  5> newgto V "CP(PPP)" end
|  6> end
|  7>
|  8> %pal
|  9> nprocs 6
| 10> end
| 11>
| 12> % sym SymThresh 1e-2 end
| 13> * xyz -2 2
| 14> V -0.152242724490404 0.18288688350134816 1.0887136967085989
| 15> S -2.4895239889525946 0.15382010019558046 0.2783246343865075
| 16> S -0.19148602658437391 -2.2651984817471345 0.7222001708518249
| 17> S -0.0187544688614263 2.4430213018626152 0.0855016406521991
| 18> S 2.224281163898379 0.050772622426944 0.4391939424260804
| 19> O -0.2025105302438419 0.37256296708629993 2.659914569365755
| 20> C 1.533914033494109 -2.594733599095208 0.8078686018142205
| 21> C 2.5021864630114843 -1.6660093106571592 0.6908800995083983
| 22> C -2.687945096171898 1.8185247982697683 -0.2523384496749269
| 23> C -1.7003789953586441 2.7310919825196285 -0.33189839518011033
| 24> S 2.0812096659467647 -4.296227865472059 0.990165464946721
| 25> S 4.194227966611604 -2.2635291114834493 0.717771734456043
| 26> S -2.1554202733057353 4.350318613446165 -0.960200384602854
| 27> S -4.317453506660623 2.358688250560449 -0.7807942261614014
| 28> C 3.8161997028440013 -3.9791240941970485 0.8958920118356221
| 29> C -3.8511759927013136 3.986472927804289 -1.27338323008769
| 30> C 4.772399147756103 -4.959245058428688 0.9605944955393295
| 31> C -4.7294563274348995 4.891041012337934 -1.8249139849295153
| 32> S 4.352541723542617 -6.670609600959271 1.2074312045655713
| 33> S 6.508234731519131 -4.58114444309069 0.8644838016020958
| 34> S -6.4219349652659155 4.4713739177280125 -2.1503991714209043
| 35> S -4.201572237702022 6.502253119919623 -2.3497141560071015
| 36> C -4.573018630171097 6.399764330021414 -4.151518917525927
| 37> C -6.467911271669891 4.675076785574083 -3.981792889504412
| 38> C -5.918031370609743 5.92715991430298 -4.528000131825072
| 39> H -3.8200786467186396 5.56105140596064 -4.258487446972866
| 40> H -4.253856652121062 7.2598483531403115 -4.788626471352438
| 41> H -6.196025772890831 6.125069444123671 -5.600137086046655
| 42> H -6.526479377038279 6.654106871559298 -3.929670298654503
| 43> H -7.413538148006096 4.389255045523962 -4.502767080000784
| 44> H -5.715465275995334 3.8368321655858573 -4.094176094691497
| 45> C 7.036120804230909 -5.174679099622851 2.532782594663514
| 46> C 5.197816967032148 -6.947277733042923 2.8275477993071525
| 47> C 6.6664389431589 -6.602400824888091 2.8451648542573977
| 48> H 4.631132112686353 -6.278227088845912 3.486563231372784
| 49> H 5.033104943640706 -7.978140886505836 3.1600762033763297
| 50> H 7.1201489051035205 -7.206456978458922 2.046357086396178
| 51> H 7.133510842161862 -6.928838558824687 3.7880610676728015
| 52> H 8.111788290547734 -5.010601735469838 2.6609374537576604
| 53> H 6.500900405752561 -4.4795511267923525 3.1910759032587346
| 54> *
| 55>
| 56> % eprnmr
| 57> gtensor true
| 58> Nuclei = all H {aiso,adip,aorb,fgrad,rho}
| 59> Nuclei = all V {aiso,adip,aorb,fgrad,rho}
| 60> end
| 61>
| 62>                          ****END OF INPUT****

CARTESIAN COORDINATES (ANGSTROEM)
---------------------------------
  V     -0.150444    0.180721    1.086112
  S     -2.487725    0.151654    0.275723
  S     -0.189687   -2.267365    0.719598
  S     -0.016956    2.440855    0.082900
  S      2.226080    0.048607    0.436592
  O     -0.200712    0.370397    2.657313
  C      1.535713   -2.596900    0.805267
  C      2.503985   -1.668175    0.688278
  C     -2.686146    1.816359   -0.254940
  C     -1.698580    2.728926   -0.334500
  S      2.083009   -4.298394    0.987563
  S      4.196027   -2.265695    0.715170
  S     -2.153621    4.348153   -0.962802
  S     -4.315655    2.356522   -0.783396
  C      3.817999   -3.981290    0.893290
  C     -3.849377    3.984307   -1.275985
  C      4.774198   -4.961411    0.957992
  C     -4.727657    4.888875   -1.827516
  S      4.354341   -6.672776    1.204829
  S      6.510034   -4.583310    0.861882
  S     -6.420136    4.469208   -2.153001
  S     -4.199773    6.500087   -2.352316
  C     -4.571220    6.397598   -4.154121
  C     -6.466112    4.672911   -3.984395
  C     -5.916233    5.924994   -4.530602
  H     -3.818280    5.558885   -4.261089
  H     -4.252058    7.257682   -4.791228
  H     -6.194227    6.122903   -5.602739
  H     -6.524681    6.651941   -3.932272
  H     -7.411739    4.387089   -4.505369
  H     -5.713666    3.834666   -4.096778
  C      7.037920   -5.176845    2.530181
  C      5.199616   -6.949444    2.824946
  C      6.668238   -6.604567    2.842563
  H      4.632931   -6.280393    3.483961
  H      5.034904   -7.980307    3.157474
  H      7.121948   -7.208623    2.043755
  H      7.135310   -6.931005    3.785459
  H      8.113587   -5.012768    2.658335
  H      6.502699   -4.481717    3.188474

 Total Charge           Charge          ....   -2
 Multiplicity           Mult            ....    2
 Number of Electrons    NEL             ....  321
 Basis Dimension        Dim             ....  681

ORBITAL ENERGIES
----------------
                 SPIN UP ORBITALS
  NO   OCC          E(Eh)            E(eV)
   0   1.0000    -196.676041     -5351.8272
   1   1.0000     -88.733998     -2414.5749
   2   1.0000     -88.733951     -2414.5736
   3   1.0000     -88.733520     -2414.5618
   4   1.0000     -88.733424     -2414.5592
   5   1.0000     -88.733045     -2414.5489
   6   1.0000     -88.733000     -2414.5477
   7   1.0000     -88.731946     -2414.5190
   8   1.0000     -88.731748     -2414.5136
   9   1.0000     -88.641886     -2412.0684
  10   1.0000     -88.641358     -2412.0540
  11   1.0000     -88.641113     -2412.0473
  12   1.0000     -88.640863     -2412.0405
  13   1.0000     -22.051443      -600.0503
  14   1.0000     -18.892589      -514.0935
  15   1.0000     -18.557889      -504.9858
  16   1.0000     -18.552715      -504.8450
  17   1.0000     -18.552618      -504.8424
  18   1.0000     -10.080170      -274.2954
  19   1.0000     -10.077604      -274.2255
  20   1.0000     -10.064842      -273.8783
  21   1.0000     -10.064778      -273.8765
  22   1.0000     -10.062832      -273.8236
  23   1.0000     -10.062722      -273.8206
  24   1.0000     -10.052488      -273.5421
  25   1.0000     -10.050043      -273.4756
  26   1.0000     -10.049390      -273.4578
  27   1.0000     -10.048421      -273.4314
  28   1.0000     -10.020947      -272.6838
  29   1.0000     -10.020161      -272.6624
  30   1.0000     -10.019765      -272.6517
  31   1.0000     -10.018833      -272.6263
  32   1.0000      -7.787321      -211.9038
  33   1.0000      -7.787260      -211.9021
  34   1.0000      -7.787246      -211.9017
  35   1.0000      -7.787219      -211.9010
  36   1.0000      -7.786663      -211.8859
  37   1.0000      -7.786614      -211.8845
  38   1.0000      -7.785207      -211.8462
  39   1.0000      -7.785058      -211.8422
  40   1.0000      -7.696141      -209.4227
  41   1.0000      -7.695710      -209.4109
  42   1.0000      -7.695413      -209.4028
  43   1.0000      -7.695108      -209.3945
  44   1.0000      -5.752359      -156.5296
  45   1.0000      -5.752253      -156.5268
  46   1.0000      -5.752183      -156.5248
  47   1.0000      -5.752181      -156.5248
  48   1.0000      -5.751666      -156.5108
  49   1.0000      -5.751621      -156.5096
  50   1.0000      -5.750145      -156.4694
  51   1.0000      -5.749996      -156.4653
  52   1.0000      -5.748860      -156.4344
  53   1.0000      -5.748765      -156.4318
  54   1.0000      -5.748220      -156.4170
  55   1.0000      -5.748177      -156.4159
  56   1.0000      -5.747747      -156.4041
  57   1.0000      -5.747735      -156.4038
  58   1.0000      -5.745716      -156.3489
  59   1.0000      -5.745558      -156.3446
  60   1.0000      -5.743117      -156.2782
  61   1.0000      -5.743114      -156.2781
  62   1.0000      -5.741962      -156.2467
  63   1.0000      -5.741856      -156.2439
  64   1.0000      -5.741410      -156.2317
  65   1.0000      -5.741359      -156.2303
  66   1.0000      -5.741041      -156.2217
  67   1.0000      -5.740889      -156.2175
  68   1.0000      -5.661477      -154.0566
  69   1.0000      -5.661029      -154.0444
  70   1.0000      -5.660723      -154.0361
  71   1.0000      -5.660443      -154.0285
  72   1.0000      -5.654804      -153.8750
  73   1.0000      -5.654362      -153.8630
  74   1.0000      -5.654069      -153.8550
  75   1.0000      -5.653783      -153.8472
  76   1.0000      -5.653463      -153.8385
  77   1.0000      -5.653016      -153.8264
  78   1.0000      -5.652739      -153.8188
  79   1.0000      -5.652397      -153.8095
  80   1.0000      -2.445381       -66.5422
  81   1.0000      -1.487279       -40.4709
  82   1.0000      -1.474924       -40.1347
  83   1.0000      -1.474114       -40.1127
  84   1.0000      -0.717288       -19.5184
  85   1.0000      -0.712389       -19.3851
  86   1.0000      -0.693470       -18.8703
  87   1.0000      -0.689043       -18.7498
  88   1.0000      -0.652412       -17.7530
  89   1.0000      -0.636697       -17.3254
  90   1.0000      -0.633785       -17.2462
  91   1.0000      -0.622851       -16.9486
  92   1.0000      -0.619632       -16.8610
  93   1.0000      -0.578398       -15.7390
  94   1.0000      -0.577186       -15.7060
  95   1.0000      -0.576199       -15.6792
  96   1.0000      -0.574936       -15.6448
  97   1.0000      -0.498421       -13.5627
  98   1.0000      -0.498072       -13.5532
  99   1.0000      -0.497229       -13.5303
 100   1.0000      -0.496662       -13.5149
 101   1.0000      -0.481948       -13.1145
 102   1.0000      -0.479112       -13.0373
 103   1.0000      -0.446327       -12.1452
 104   1.0000      -0.440785       -11.9944
 105   1.0000      -0.416276       -11.3274
 106   1.0000      -0.411577       -11.1996
 107   1.0000      -0.353309        -9.6140
 108   1.0000      -0.348482        -9.4827
 109   1.0000      -0.341752        -9.2996
 110   1.0000      -0.333813        -9.0835
 111   1.0000      -0.322683        -8.7806
 112   1.0000      -0.317043        -8.6272
 113   1.0000      -0.304650        -8.2900
 114   1.0000      -0.301697        -8.2096
 115   1.0000      -0.296102        -8.0573
 116   1.0000      -0.294842        -8.0231
 117   1.0000      -0.264438        -7.1957
 118   1.0000      -0.260357        -7.0847
 119   1.0000      -0.259813        -7.0699
 120   1.0000      -0.258858        -7.0439
 121   1.0000      -0.245146        -6.6708
 122   1.0000      -0.237791        -6.4706
 123   1.0000      -0.234243        -6.3741
 124   1.0000      -0.233154        -6.3444
 125   1.0000      -0.219271        -5.9667
 126   1.0000      -0.217158        -5.9092
 127   1.0000      -0.209647        -5.7048
 128   1.0000      -0.203170        -5.5285
 129   1.0000      -0.195234        -5.3126
 130   1.0000      -0.184231        -5.0132
 131   1.0000      -0.182771        -4.9735
 132   1.0000      -0.176306        -4.7975
 133   1.0000      -0.167635        -4.5616
 134   1.0000      -0.160766        -4.3747
 135   1.0000      -0.149280        -4.0621
 136   1.0000      -0.143160        -3.8956
 137   1.0000      -0.140926        -3.8348
 138   1.0000      -0.138732        -3.7751
 139   1.0000      -0.133964        -3.6453
 140   1.0000      -0.128493        -3.4965
 141   1.0000      -0.122936        -3.3453
 142   1.0000      -0.116572        -3.1721
 143   1.0000      -0.113175        -3.0796
 144   1.0000      -0.102464        -2.7882
 145   1.0000      -0.100285        -2.7289
 146   1.0000      -0.096537        -2.6269
 147   1.0000      -0.092866        -2.5270
 148   1.0000      -0.076045        -2.0693
 149   1.0000      -0.067382        -1.8336
 150   1.0000      -0.065167        -1.7733
 151   1.0000      -0.053851        -1.4654
 152   1.0000      -0.047212        -1.2847
 153   1.0000      -0.038742        -1.0542
 154   1.0000      -0.037212        -1.0126
 155   1.0000      -0.031400        -0.8544
 156   1.0000      -0.026849        -0.7306
 157   1.0000      -0.020498        -0.5578
 158   1.0000      -0.017035        -0.4635
 159   1.0000       0.018669         0.5080
 160   1.0000       0.039459         1.0737
 161   0.0000       0.133788         3.6406
 162   0.0000       0.135854         3.6968
 163   0.0000       0.155634         4.2350
 164   0.0000       0.160017         4.3543
 165   0.0000       0.166337         4.5263

                 SPIN DOWN ORBITALS
  NO   OCC          E(Eh)            E(eV)
   0   1.0000    -196.676189     -5351.8312
   1   1.0000     -88.734007     -2414.5751
   2   1.0000     -88.733959     -2414.5738
   3   1.0000     -88.733520     -2414.5618
   4   1.0000     -88.733424     -2414.5592
   5   1.0000     -88.733046     -2414.5489
   6   1.0000     -88.733000     -2414.5477
   7   1.0000     -88.731955     -2414.5192
   8   1.0000     -88.731756     -2414.5138
   9   1.0000     -88.642021     -2412.0720
  10   1.0000     -88.641495     -2412.0577
  11   1.0000     -88.641252     -2412.0511
  12   1.0000     -88.641004     -2412.0443
  13   1.0000     -22.036560      -599.6453
  14   1.0000     -18.896310      -514.1947
  15   1.0000     -18.552668      -504.8438
  16   1.0000     -18.536719      -504.4098
  17   1.0000     -18.536538      -504.4049
  18   1.0000     -10.080170      -274.2954
  19   1.0000     -10.077598      -274.2254
  20   1.0000     -10.064842      -273.8783
  21   1.0000     -10.064778      -273.8765
  22   1.0000     -10.062831      -273.8236
  23   1.0000     -10.062721      -273.8206
  24   1.0000     -10.052483      -273.5420
  25   1.0000     -10.050031      -273.4752
  26   1.0000     -10.049390      -273.4578
  27   1.0000     -10.048421      -273.4314
  28   1.0000     -10.020732      -272.6780
  29   1.0000     -10.019948      -272.6566
  30   1.0000     -10.019527      -272.6452
  31   1.0000     -10.018610      -272.6202
  32   1.0000      -7.787322      -211.9038
  33   1.0000      -7.787269      -211.9024
  34   1.0000      -7.787255      -211.9020
  35   1.0000      -7.787220      -211.9010
  36   1.0000      -7.786664      -211.8859
  37   1.0000      -7.786615      -211.8846
  38   1.0000      -7.785216      -211.8465
  39   1.0000      -7.785068      -211.8425
  40   1.0000      -7.696267      -209.4261
  41   1.0000      -7.695837      -209.4144
  42   1.0000      -7.695542      -209.4064
  43   1.0000      -7.695239      -209.3981
  44   1.0000      -5.752360      -156.5297
  45   1.0000      -5.752254      -156.5268
  46   1.0000      -5.752193      -156.5251
  47   1.0000      -5.752191      -156.5251
  48   1.0000      -5.751667      -156.5108
  49   1.0000      -5.751622      -156.5096
  50   1.0000      -5.750156      -156.4697
  51   1.0000      -5.750007      -156.4656
  52   1.0000      -5.748861      -156.4345
  53   1.0000      -5.748766      -156.4319
  54   1.0000      -5.748221      -156.4171
  55   1.0000      -5.748178      -156.4159
  56   1.0000      -5.747761      -156.4045
  57   1.0000      -5.747749      -156.4042
  58   1.0000      -5.745730      -156.3493
  59   1.0000      -5.745571      -156.3449
  60   1.0000      -5.743124      -156.2783
  61   1.0000      -5.743120      -156.2782
  62   1.0000      -5.741962      -156.2467
  63   1.0000      -5.741857      -156.2439
  64   1.0000      -5.741411      -156.2317
  65   1.0000      -5.741360      -156.2303
  66   1.0000      -5.741049      -156.2219
  67   1.0000      -5.740899      -156.2178
  68   1.0000      -5.661617      -154.0604
  69   1.0000      -5.661169      -154.0482
  70   1.0000      -5.660861      -154.0398
  71   1.0000      -5.660584      -154.0323
  72   1.0000      -5.655149      -153.8844
  73   1.0000      -5.654717      -153.8727
  74   1.0000      -5.654454      -153.8655
  75   1.0000      -5.654164      -153.8576
  76   1.0000      -5.653566      -153.8414
  77   1.0000      -5.653120      -153.8292
  78   1.0000      -5.652824      -153.8212
  79   1.0000      -5.652490      -153.8121
  80   1.0000      -2.400650       -65.3250
  81   1.0000      -1.468178       -39.9511
  82   1.0000      -1.412697       -38.4414
  83   1.0000      -1.412521       -38.4366
  84   1.0000      -0.717279       -19.5182
  85   1.0000      -0.712366       -19.3845
  86   1.0000      -0.693424       -18.8690
  87   1.0000      -0.688986       -18.7483
  88   1.0000      -0.660318       -17.9682
  89   1.0000      -0.636641       -17.3239
  90   1.0000      -0.633708       -17.2441
  91   1.0000      -0.622853       -16.9487
  92   1.0000      -0.619631       -16.8610
  93   1.0000      -0.578374       -15.7384
  94   1.0000      -0.577113       -15.7041
  95   1.0000      -0.576169       -15.6784
  96   1.0000      -0.574850       -15.6425
  97   1.0000      -0.498436       -13.5631
  98   1.0000      -0.498119       -13.5545
  99   1.0000      -0.497272       -13.5315
 100   1.0000      -0.496690       -13.5156
 101   1.0000      -0.482130       -13.1194
 102   1.0000      -0.479357       -13.0440
 103   1.0000      -0.446351       -12.1458
 104   1.0000      -0.440835       -11.9957
 105   1.0000      -0.416269       -11.3273
 106   1.0000      -0.411671       -11.2021
 107   1.0000      -0.353299        -9.6137
 108   1.0000      -0.348479        -9.4826
 109   1.0000      -0.341740        -9.2992
 110   1.0000      -0.333800        -9.0832
 111   1.0000      -0.322622        -8.7790
 112   1.0000      -0.317055        -8.6275
 113   1.0000      -0.304603        -8.2887
 114   1.0000      -0.301664        -8.2087
 115   1.0000      -0.296089        -8.0570
 116   1.0000      -0.294842        -8.0230
 117   1.0000      -0.264334        -7.1929
 118   1.0000      -0.260293        -7.0829
 119   1.0000      -0.259747        -7.0681
 120   1.0000      -0.258834        -7.0432
 121   1.0000      -0.245082        -6.6690
 122   1.0000      -0.237749        -6.4695
 123   1.0000      -0.234133        -6.3711
 124   1.0000      -0.233136        -6.3440
 125   1.0000      -0.218679        -5.9505
 126   1.0000      -0.217079        -5.9070
 127   1.0000      -0.209599        -5.7035
 128   1.0000      -0.203116        -5.5271
 129   1.0000      -0.193326        -5.2607
 130   1.0000      -0.184038        -5.0079
 131   1.0000      -0.182513        -4.9664
 132   1.0000      -0.176166        -4.7937
 133   1.0000      -0.167538        -4.5590
 134   1.0000      -0.160192        -4.3590
 135   1.0000      -0.149123        -4.0578
 136   1.0000      -0.143071        -3.8932
 137   1.0000      -0.140586        -3.8255
 138   1.0000      -0.138227        -3.7614
 139   1.0000      -0.133785        -3.6405
 140   1.0000      -0.127632        -3.4731
 141   1.0000      -0.122624        -3.3368
 142   1.0000      -0.118292        -3.2189
 143   1.0000      -0.114736        -3.1221
 144   1.0000      -0.102520        -2.7897
 145   1.0000      -0.100508        -2.7350
 146   1.0000      -0.096563        -2.6276
 147   1.0000      -0.093058        -2.5322
 148   1.0000      -0.072254        -1.9661
 149   1.0000      -0.067380        -1.8335
 150   1.0000      -0.065165        -1.7732
 151   1.0000      -0.051272        -1.3952
 152   1.0000      -0.046267        -1.2590
 153   1.0000      -0.038162        -1.0384
 154   1.0000      -0.037252        -1.0137
 155   1.0000      -0.031343        -0.8529
 156   1.0000      -0.027849        -0.7578
 157   1.0000      -0.017246        -0.4693
 158   1.0000       0.018964         0.5160
 159   1.0000       0.038370         1.0441
 160   0.0000       0.133788         3.6405
 161   0.0000       0.135857         3.6968
 162   0.0000       0.153286         4.1711
 163   0.0000       0.157046         4.2734
 164   0.0000       0.160924         4.3790

MULLIKEN ATOMIC CHARGES AND SPIN POPULATIONS
--------------------------------------------
   0 V :    0.472354    1.207265
   1 S :   -0.289051   -0.022057
   2 S :   -0.289291   -0.025091
   3 S :   -0.287189   -0.023029
   4 S :   -0.285081   -0.025531
   5 O :   -0.464766   -0.144354
   6 C :   -0.077530    0.009696
   7 C :   -0.084124    0.008031
   8 C :   -0.084096    0.007716
   9 C :   -0.084967    0.007396
  10 S :    0.101643   -0.000603
  11 S :    0.102852   -0.000637
  12 S :    0.106675   -0.000393
  13 S :    0.105488   -0.000345
  14 C :   -0.206686    0.001542
  15 C :   -0.196155    0.001025
  16 C :   -0.203461   -0.000071
  17 C :   -0.220060   -0.000400
  18 S :    0.009000   -0.000112
  19 S :    0.009441   -0.000111
  20 S :    0.007004   -0.000062
  21 S :    0.006581   -0.000064
  22 C :   -0.328027    0.000003
  23 C :   -0.327710    0.000003
  24 C :   -0.126242   -0.000018
  25 H :    0.139940   -0.000001
  26 H :    0.127476   -0.000002
  27 H :    0.097119   -0.000004
  28 H :    0.075534   -0.000001
  29 H :    0.127163   -0.000003
  30 H :    0.139347   -0.000001
  31 C :   -0.313310    0.000220
  32 C :   -0.313928    0.000214
  33 C :   -0.146027   -0.000277
  34 H :    0.144376   -0.000020
  35 H :    0.119684    0.000025
  36 H :    0.086536    0.000035
  37 H :    0.085694    0.000009
  38 H :    0.119585    0.000026
  39 H :    0.144205   -0.000020
Sum of atomic charges         :   -2.0000000

LOEWDIN ATOMIC CHARGES AND SPIN POPULATIONS
-------------------------------------------
   0 V :   -0.156530    1.160877
   1 S :    0.081015   -0.014170
   2 S :    0.079576   -0.015982
   3 S :    0.082276   -0.014974
   4 S :    0.083475   -0.016182
   5 O :   -0.314074   -0.129340
   6 C :   -0.549611    0.009051
   7 C :   -0.551767    0.007943
   8 C :   -0.551407    0.008142
   9 C :   -0.551473    0.007686
  10 S :    0.473769   -0.000912
  11 S :    0.474598   -0.000959
  12 S :    0.479392   -0.000819
  13 S :    0.478306   -0.000827
  14 C :   -0.465852    0.000174
  15 C :   -0.467343   -0.000072
  16 C :   -0.624816    0.000487
  17 C :   -0.631195    0.000092
  18 S :    0.359174   -0.000087
  19 S :    0.360571   -0.000084
  20 S :    0.363276   -0.000068
  21 S :    0.362850   -0.000070
  22 C :   -0.303229   -0.000007
  23 C :   -0.303124   -0.000008
  24 C :   -0.200040   -0.000001
  25 H :    0.063724   -0.000001
  26 H :    0.067827   -0.000001
  27 H :    0.067247   -0.000002
  28 H :    0.061629   -0.000001
  29 H :    0.067784   -0.000001
  30 H :    0.063511   -0.000001
  31 C :   -0.288010    0.000045
  32 C :   -0.287806    0.000038
  33 C :   -0.182322    0.000006
  34 H :    0.061761   -0.000001
  35 H :    0.057532    0.000010
  36 H :    0.059942    0.000006
  37 H :    0.060092    0.000002
  38 H :    0.057607    0.000010
  39 H :    0.061665   -0.000000

  Mayer bond orders larger than 0.100000
B(  0-V ,  1-S ) :   0.7689 B(  0-V ,  2-S ) :   0.7711 B(  0-V ,  3-S ) :   0.7622
B(  0-V ,  4-S ) :   0.7784 B(  0-V ,  5-O ) :   2.1519 B(  1-S ,  8-C ) :   1.1058
B(  2-S ,  6-C ) :   1.1049 B(  3-S ,  9-C ) :   1.1086 B(  4-S ,  7-C ) :   1.1053
B(  6-C ,  7-C ) :   1.6820 B(  6-C , 10-S ) :   0.9357 B(  7-C , 11-S ) :   0.9396
B(  8-C ,  9-C ) :   1.6901 B(  8-C , 13-S ) :   0.9362 B(  9-C , 12-S ) :   0.9381
B( 10-S , 14-C ) :   1.2488 B( 11-S , 14-C ) :   1.2485 B( 12-S , 15-C ) :   1.2490
B( 13-S , 15-C ) :   1.2487 B( 14-C , 16-C ) :   1.4299 B( 15-C , 17-C ) :   1.3958
B( 16-C , 18-S ) :   1.0960 B( 16-C , 19-S ) :   1.0979 B( 17-C , 20-S ) :   1.1034
B( 17-C , 21-S ) :   1.1030 B( 18-S , 32-C ) :   0.9757 B( 19-S , 31-C ) :   0.9760
B( 20-S , 23-C ) :   0.9316 B( 21-S , 22-C ) :   0.9308 B( 22-C , 24-C ) :   0.8986
B( 22-C , 25-H ) :   1.0048 B( 22-C , 26-H ) :   0.9513 B( 23-C , 24-C ) :   0.9000
B( 23-C , 29-H ) :   0.9514 B( 23-C , 30-H ) :   1.0045 B( 24-C , 27-H ) :   0.9276
B( 24-C , 28-H ) :   0.9825 B( 31-C , 33-C ) :   0.9071 B( 31-C , 38-H ) :   0.9607
B( 31-C , 39-H ) :   0.9803 B( 32-C , 33-C ) :   0.9069 B( 32-C , 34-H ) :   0.9802
B( 32-C , 35-H ) :   0.9606 B( 33-C , 36-H ) :   0.9772 B( 33-C , 37-H ) :   0.9519

FINAL SINGLE POINT ENERGY     -6337.658069938612

DIPOLE MOMENT
-------------
                                X             Y             Z
Electronic contribution:     -4.43594       4.10008      12.03030
Nuclear contribution   :      5.04529      -4.66598     -13.27790
                        -----------------------------------------
Total Dipole Moment    :      0.60935      -0.56590      -1.24760
                        -----------------------------------------
Magnitude (a.u.)       :      1.49936
Magnitude (Debye)      :      3.81106

Rotational constants in cm-1:     0.010791     0.000805     0.000784
Rotational constants in MHz :   323.519634    24.118533    23.488939

                             ****ORCA TERMINATED NORMALLY****
TOTAL RUN TIME: 0 days 1 hours 6 minutes 39 seconds 367 msec
