                         Program Version 5.0.4 -  RELEASE  -
|  1> ! nofrozencore ReducedPop printbasis
|  2> ! B3LYP TZVP
|  3>
|  4> %basis
|  5> newgto V "CP(PPP)" end
|  6> end
|  7>
|  8> %pal
|  9> nprocs 8
| 10> end
| 11>
| 12> % sym SymThresh 1e-2 end
| 13> * xyz -2 2
| 14> V 0.15786104408572058 0.677443551596098 -0.8689799030259739
| 15> S -1.491003323979052 1.9687701819321235 0.447295109463956
| 16> S 1.7814813349378797 1.3145280930840118 0.8873654376252561
| 17> S -1.7525034188761641 -0.752868362584931 -1.5291412188732088
| 18> S 1.436345733860991 -1.426719637755503 -1.0220678588191385
| 19> O 0.5416615559665658 1.5572626087063917 -2.1350188713612916
| 20> C 3.0751394722792553 0.18526687321296964 0.5072123067966263
| 21> C 2.932842540522743 -0.9138100865124359 -0.25719196001671474
| 22> C -3.000750364410958 1.2554583485872592 -0.1037299887450916
| 23> C -3.1042109236903794 0.16805975420348604 -0.8896111673654881
| 24> S 4.694225587729587 0.45111947794543417 1.2319873402393637
| 25> S 4.381350172882815 -1.964735028084982 -0.4227353415798572
| 26> S -4.768215368619636 -0.39420292690261605 -1.2642507050240979
| 27> S -4.544076282047326 1.9896857951234435 0.4503985011675045
| 28> C 5.465368198900755 -1.0133865936802655 0.5864017361429184
| 29> C -5.6282275880469514 0.8141698091046375 -0.3030709546537274
| 30> C 6.764691614074651 -1.3552835676384754 0.8427514363827742
| 31> C -6.9884843426866325 0.8420719990082615 -0.1657593126283541
| 32> S 7.788437367430472 -0.35470864786321743 1.8736929270352065
| 33> S 7.543076051389407 -2.8132309157167246 0.121438341792227
| 34> S -7.81142369914212 2.07929018417076 0.8182840226119406
| 35> S -8.03628582282784 -0.3800095471178577 -0.9306027889768717
| 36> C -8.740721419814749 -1.1322972882889226 0.6120473302541342
| 37> C -8.552521395770308 0.9640477235010805 2.0917466335934467
| 38> C -9.459533056644519 -0.12308882275467267 1.5106917071542014
| 39> H -7.926572094877501 -1.6231790269185586 1.149839818519979
| 40> H -9.437601576215723 -1.9014698846614704 0.2698580281740362
| 41> H -9.91335451043392 -0.6714106196315648 2.3481098771595885
| 42> H -10.2738977121122 0.34537467359977697 0.9491214873932435
| 43> H -9.123939545526927 1.6199138577363135 2.753381120261919
| 44> H -7.738454314068501 0.5216985837821454 2.6703244290301735
| 45> C 8.682382141728596 -2.105284846188617 -0.744717495842511
| 46> C 9.203566601296812 0.15345413325295607 0.41605091501334496
| 47> C 9.744790771589223 -1.1920067871783417 -0.12465521615353617
| 48> H 8.652869269150868 0.7268933622194268 -0.33175252090660234
| 49> H 9.969359753687955 0.7697652159877605 0.8885059697763231
| 50> H 10.255724296111282 -1.707869907382056 0.6982307349612932
| 51> H 10.491225195207186 -1.042291517121202 -0.9529259459266206
| 52> H 9.208057981560533 -2.96045568398317 -1.1849114110705037
| 53> H 8.244027301618441 -1.5587928808896454 -1.5902672300300795
| 54> *
| 55>
| 56> % eprnmr
| 57> gtensor true
| 58> Nuclei = all H {aiso,adip,aorb,fgrad,rho}
| 59> Nuclei = all V {aiso,adip,aorb,fgrad,rho}
| 60> end
| 61>
| 62>                          ****END OF INPUT****

CARTESIAN COORDINATES (ANGSTROEM)
---------------------------------
  V      0.159588    0.675328   -0.866289
  S     -1.489277    1.966655    0.449986
  S      1.783208    1.312413    0.890056
  S     -1.750777   -0.754984   -1.526450
  S      1.438072   -1.428835   -1.019377
  O      0.543388    1.555147   -2.132328
  C      3.076866    0.183151    0.509903
  C      2.934569   -0.915926   -0.254501
  C     -2.999024    1.253343   -0.101039
  C     -3.102484    0.165944   -0.886920
  S      4.695952    0.449004    1.234678
  S      4.383077   -1.966851   -0.420044
  S     -4.766489   -0.396318   -1.261560
  S     -4.542350    1.987570    0.453089
  C      5.467095   -1.015502    0.589093
  C     -5.626501    0.812054   -0.300380
  C      6.766418   -1.357399    0.845442
  C     -6.986758    0.839956   -0.163068
  S      7.790164   -0.356824    1.876384
  S      7.544803   -2.815346    0.124129
  S     -7.809697    2.077175    0.820975
  S     -8.034559   -0.382125   -0.927912
  C     -8.738995   -1.134413    0.614738
  C     -8.550795    0.961932    2.094438
  C     -9.457806   -0.125204    1.513383
  H     -7.924845   -1.625295    1.152531
  H     -9.435875   -1.903585    0.272549
  H     -9.911628   -0.673526    2.350801
  H    -10.272171    0.343259    0.951812
  H     -9.122213    1.617798    2.756072
  H     -7.736728    0.519583    2.673015
  C      8.684109   -2.107400   -0.742027
  C      9.205293    0.151339    0.418742
  C      9.746518   -1.194122   -0.121964
  H      8.654596    0.724778   -0.329062
  H      9.971086    0.767650    0.891197
  H     10.257451   -1.709985    0.700922
  H     10.492952   -1.044407   -0.950235
  H      9.209785   -2.962571   -1.182220
  H      8.245754   -1.560908   -1.587576

 Total Charge           Charge          ....   -2
 Multiplicity           Mult            ....    2
 Number of Electrons    NEL             ....  321
 Basis Dimension        Dim             ....  681

ORBITAL ENERGIES
----------------
                 SPIN UP ORBITALS
  NO   OCC          E(Eh)            E(eV)
   0   1.0000    -196.675334     -5351.8079
   1   1.0000     -88.734767     -2414.5958
   2   1.0000     -88.733332     -2414.5567
   3   1.0000     -88.733228     -2414.5539
   4   1.0000     -88.732014     -2414.5208
   5   1.0000     -88.730832     -2414.4887
   6   1.0000     -88.730264     -2414.4732
   7   1.0000     -88.730181     -2414.4710
   8   1.0000     -88.724168     -2414.3074
   9   1.0000     -88.640357     -2412.0267
  10   1.0000     -88.640262     -2412.0241
  11   1.0000     -88.640118     -2412.0202
  12   1.0000     -88.639619     -2412.0067
  13   1.0000     -22.050720      -600.0306
  14   1.0000     -18.890618      -514.0399
  15   1.0000     -18.557168      -504.9662
  16   1.0000     -18.551997      -504.8255
  17   1.0000     -18.551897      -504.8228
  18   1.0000     -10.076360      -274.1917
  19   1.0000     -10.075996      -274.1818
  20   1.0000     -10.069822      -274.0138
  21   1.0000     -10.063503      -273.8418
  22   1.0000     -10.063235      -273.8345
  23   1.0000     -10.053665      -273.5741
  24   1.0000     -10.051232      -273.5079
  25   1.0000     -10.050935      -273.4998
  26   1.0000     -10.048575      -273.4356
  27   1.0000     -10.047482      -273.4059
  28   1.0000     -10.019266      -272.6381
  29   1.0000     -10.018475      -272.6166
  30   1.0000     -10.018123      -272.6070
  31   1.0000     -10.017329      -272.5854
  32   1.0000      -7.786751      -211.8883
  33   1.0000      -7.786727      -211.8876
  34   1.0000      -7.785883      -211.8647
  35   1.0000      -7.785374      -211.8508
  36   1.0000      -7.783896      -211.8106
  37   1.0000      -7.783785      -211.8076
  38   1.0000      -7.783533      -211.8007
  39   1.0000      -7.783481      -211.7993
  40   1.0000      -7.694701      -209.3835
  41   1.0000      -7.694520      -209.3785
  42   1.0000      -7.694402      -209.3753
  43   1.0000      -7.693971      -209.3636
  44   1.0000      -5.751742      -156.5129
  45   1.0000      -5.751717      -156.5122
  46   1.0000      -5.750936      -156.4909
  47   1.0000      -5.750227      -156.4716
  48   1.0000      -5.748870      -156.4347
  49   1.0000      -5.748526      -156.4253
  50   1.0000      -5.748480      -156.4241
  51   1.0000      -5.748431      -156.4228
  52   1.0000      -5.748311      -156.4195
  53   1.0000      -5.748306      -156.4194
  54   1.0000      -5.747894      -156.4081
  55   1.0000      -5.745847      -156.3525
  56   1.0000      -5.744427      -156.3138
  57   1.0000      -5.744422      -156.3137
  58   1.0000      -5.744057      -156.3037
  59   1.0000      -5.743994      -156.3020
  60   1.0000      -5.741547      -156.2354
  61   1.0000      -5.741526      -156.2349
  62   1.0000      -5.741329      -156.2295
  63   1.0000      -5.740621      -156.2102
  64   1.0000      -5.739704      -156.1853
  65   1.0000      -5.739341      -156.1754
  66   1.0000      -5.739292      -156.1741
  67   1.0000      -5.738449      -156.1511
  68   1.0000      -5.660007      -154.0166
  69   1.0000      -5.659852      -154.0124
  70   1.0000      -5.659709      -154.0085
  71   1.0000      -5.659264      -153.9964
  72   1.0000      -5.653336      -153.8351
  73   1.0000      -5.653156      -153.8302
  74   1.0000      -5.653069      -153.8278
  75   1.0000      -5.652653      -153.8165
  76   1.0000      -5.652012      -153.7991
  77   1.0000      -5.651833      -153.7942
  78   1.0000      -5.651724      -153.7912
  79   1.0000      -5.651278      -153.7791
  80   1.0000      -2.444353       -66.5142
  81   1.0000      -1.485650       -40.4266
  82   1.0000      -1.473995       -40.1094
  83   1.0000      -1.473178       -40.0872
  84   1.0000      -0.722013       -19.6470
  85   1.0000      -0.709666       -19.3110
  86   1.0000      -0.693147       -18.8615
  87   1.0000      -0.685641       -18.6572
  88   1.0000      -0.650197       -17.6928
  89   1.0000      -0.631400       -17.1813
  90   1.0000      -0.630053       -17.1446
  91   1.0000      -0.621643       -16.9158
  92   1.0000      -0.617283       -16.7971
  93   1.0000      -0.576796       -15.6954
  94   1.0000      -0.574683       -15.6379
  95   1.0000      -0.573210       -15.5978
  96   1.0000      -0.569078       -15.4854
  97   1.0000      -0.498592       -13.5674
  98   1.0000      -0.496264       -13.5040
  99   1.0000      -0.495981       -13.4963
 100   1.0000      -0.492402       -13.3989
 101   1.0000      -0.480065       -13.0632
 102   1.0000      -0.477518       -12.9939
 103   1.0000      -0.446648       -12.1539
 104   1.0000      -0.442401       -12.0383
 105   1.0000      -0.416509       -11.3338
 106   1.0000      -0.411448       -11.1961
 107   1.0000      -0.361639        -9.8407
 108   1.0000      -0.355301        -9.6682
 109   1.0000      -0.326613        -8.8876
 110   1.0000      -0.325964        -8.8699
 111   1.0000      -0.319077        -8.6825
 112   1.0000      -0.314555        -8.5595
 113   1.0000      -0.304029        -8.2731
 114   1.0000      -0.300744        -8.1837
 115   1.0000      -0.295320        -8.0361
 116   1.0000      -0.292317        -7.9544
 117   1.0000      -0.266522        -7.2524
 118   1.0000      -0.257362        -7.0032
 119   1.0000      -0.256706        -6.9853
 120   1.0000      -0.247883        -6.7453
 121   1.0000      -0.237866        -6.4727
 122   1.0000      -0.234537        -6.3821
 123   1.0000      -0.230882        -6.2826
 124   1.0000      -0.230331        -6.2676
 125   1.0000      -0.220107        -5.9894
 126   1.0000      -0.217707        -5.9241
 127   1.0000      -0.213311        -5.8045
 128   1.0000      -0.212132        -5.7724
 129   1.0000      -0.193306        -5.2601
 130   1.0000      -0.187788        -5.1100
 131   1.0000      -0.187295        -5.0966
 132   1.0000      -0.181867        -4.9489
 133   1.0000      -0.175167        -4.7665
 134   1.0000      -0.159874        -4.3504
 135   1.0000      -0.150845        -4.1047
 136   1.0000      -0.145919        -3.9707
 137   1.0000      -0.135078        -3.6757
 138   1.0000      -0.134080        -3.6485
 139   1.0000      -0.131697        -3.5836
 140   1.0000      -0.124986        -3.4010
 141   1.0000      -0.121359        -3.3023
 142   1.0000      -0.113882        -3.0989
 143   1.0000      -0.109514        -2.9800
 144   1.0000      -0.100170        -2.7258
 145   1.0000      -0.098438        -2.6786
 146   1.0000      -0.096863        -2.6358
 147   1.0000      -0.092564        -2.5188
 148   1.0000      -0.074912        -2.0385
 149   1.0000      -0.067480        -1.8362
 150   1.0000      -0.065071        -1.7707
 151   1.0000      -0.052757        -1.4356
 152   1.0000      -0.046011        -1.2520
 153   1.0000      -0.037583        -1.0227
 154   1.0000      -0.037480        -1.0199
 155   1.0000      -0.031422        -0.8550
 156   1.0000      -0.025329        -0.6892
 157   1.0000      -0.019525        -0.5313
 158   1.0000      -0.015889        -0.4324
 159   1.0000       0.019941         0.5426
 160   1.0000       0.040791         1.1100
 161   0.0000       0.119408         3.2493
 162   0.0000       0.137218         3.7339
 163   0.0000       0.153683         4.1819
 164   0.0000       0.162174         4.4130
 165   0.0000       0.166407         4.5282

                 SPIN DOWN ORBITALS
  NO   OCC          E(Eh)            E(eV)
   0   1.0000    -196.675481     -5351.8119
   1   1.0000     -88.734768     -2414.5958
   2   1.0000     -88.733333     -2414.5567
   3   1.0000     -88.733228     -2414.5539
   4   1.0000     -88.732023     -2414.5211
   5   1.0000     -88.730841     -2414.4889
   6   1.0000     -88.730272     -2414.4734
   7   1.0000     -88.730189     -2414.4712
   8   1.0000     -88.724169     -2414.3074
   9   1.0000     -88.640497     -2412.0305
  10   1.0000     -88.640403     -2412.0280
  11   1.0000     -88.640255     -2412.0240
  12   1.0000     -88.639759     -2412.0105
  13   1.0000     -22.035794      -599.6244
  14   1.0000     -18.894388      -514.1424
  15   1.0000     -18.551906      -504.8230
  16   1.0000     -18.535967      -504.3893
  17   1.0000     -18.535783      -504.3843
  18   1.0000     -10.076353      -274.1915
  19   1.0000     -10.075995      -274.1818
  20   1.0000     -10.069818      -274.0137
  21   1.0000     -10.063503      -273.8418
  22   1.0000     -10.063235      -273.8345
  23   1.0000     -10.053665      -273.5741
  24   1.0000     -10.051232      -273.5079
  25   1.0000     -10.050934      -273.4998
  26   1.0000     -10.048570      -273.4355
  27   1.0000     -10.047471      -273.4056
  28   1.0000     -10.019035      -272.6318
  29   1.0000     -10.018247      -272.6104
  30   1.0000     -10.017909      -272.6012
  31   1.0000     -10.017117      -272.5796
  32   1.0000      -7.786752      -211.8883
  33   1.0000      -7.786727      -211.8876
  34   1.0000      -7.785884      -211.8647
  35   1.0000      -7.785384      -211.8511
  36   1.0000      -7.783905      -211.8108
  37   1.0000      -7.783786      -211.8076
  38   1.0000      -7.783542      -211.8009
  39   1.0000      -7.783490      -211.7995
  40   1.0000      -7.694831      -209.3870
  41   1.0000      -7.694652      -209.3821
  42   1.0000      -7.694530      -209.3788
  43   1.0000      -7.694101      -209.3671
  44   1.0000      -5.751743      -156.5129
  45   1.0000      -5.751718      -156.5122
  46   1.0000      -5.750938      -156.4910
  47   1.0000      -5.750238      -156.4719
  48   1.0000      -5.748881      -156.4350
  49   1.0000      -5.748527      -156.4254
  50   1.0000      -5.748490      -156.4244
  51   1.0000      -5.748442      -156.4231
  52   1.0000      -5.748311      -156.4195
  53   1.0000      -5.748307      -156.4194
  54   1.0000      -5.747895      -156.4082
  55   1.0000      -5.745861      -156.3528
  56   1.0000      -5.744436      -156.3141
  57   1.0000      -5.744428      -156.3138
  58   1.0000      -5.744072      -156.3041
  59   1.0000      -5.744008      -156.3024
  60   1.0000      -5.741548      -156.2355
  61   1.0000      -5.741527      -156.2349
  62   1.0000      -5.741339      -156.2298
  63   1.0000      -5.740622      -156.2103
  64   1.0000      -5.739712      -156.1855
  65   1.0000      -5.739347      -156.1756
  66   1.0000      -5.739298      -156.1742
  67   1.0000      -5.738449      -156.1511
  68   1.0000      -5.660144      -154.0204
  69   1.0000      -5.659994      -154.0163
  70   1.0000      -5.659851      -154.0124
  71   1.0000      -5.659406      -154.0003
  72   1.0000      -5.653722      -153.8456
  73   1.0000      -5.653539      -153.8406
  74   1.0000      -5.653420      -153.8374
  75   1.0000      -5.653015      -153.8263
  76   1.0000      -5.652099      -153.8014
  77   1.0000      -5.651928      -153.7968
  78   1.0000      -5.651830      -153.7941
  79   1.0000      -5.651384      -153.7820
  80   1.0000      -2.399486       -65.2933
  81   1.0000      -1.466378       -39.9022
  82   1.0000      -1.411628       -38.4124
  83   1.0000      -1.411472       -38.4081
  84   1.0000      -0.722005       -19.6468
  85   1.0000      -0.709650       -19.3106
  86   1.0000      -0.693076       -18.8596
  87   1.0000      -0.685598       -18.6561
  88   1.0000      -0.658283       -17.9128
  89   1.0000      -0.631343       -17.1797
  90   1.0000      -0.629969       -17.1423
  91   1.0000      -0.621639       -16.9156
  92   1.0000      -0.617285       -16.7972
  93   1.0000      -0.576753       -15.6943
  94   1.0000      -0.574660       -15.6373
  95   1.0000      -0.573145       -15.5961
  96   1.0000      -0.569014       -15.4837
  97   1.0000      -0.498605       -13.5677
  98   1.0000      -0.496294       -13.5048
  99   1.0000      -0.496024       -13.4975
 100   1.0000      -0.492468       -13.4007
 101   1.0000      -0.480246       -13.0682
 102   1.0000      -0.477762       -13.0006
 103   1.0000      -0.446676       -12.1547
 104   1.0000      -0.442442       -12.0394
 105   1.0000      -0.416507       -11.3337
 106   1.0000      -0.411556       -11.1990
 107   1.0000      -0.361632        -9.8405
 108   1.0000      -0.355296        -9.6681
 109   1.0000      -0.326600        -8.8872
 110   1.0000      -0.325945        -8.8694
 111   1.0000      -0.318997        -8.6803
 112   1.0000      -0.314579        -8.5601
 113   1.0000      -0.303990        -8.2720
 114   1.0000      -0.300706        -8.1826
 115   1.0000      -0.295314        -8.0359
 116   1.0000      -0.292313        -7.9542
 117   1.0000      -0.266463        -7.2508
 118   1.0000      -0.257274        -7.0008
 119   1.0000      -0.256635        -6.9834
 120   1.0000      -0.247783        -6.7425
 121   1.0000      -0.237850        -6.4722
 122   1.0000      -0.234499        -6.3810
 123   1.0000      -0.230835        -6.2813
 124   1.0000      -0.230292        -6.2666
 125   1.0000      -0.219770        -5.9802
 126   1.0000      -0.217483        -5.9180
 127   1.0000      -0.213214        -5.8018
 128   1.0000      -0.211986        -5.7684
 129   1.0000      -0.191572        -5.2129
 130   1.0000      -0.187530        -5.1030
 131   1.0000      -0.187031        -5.0894
 132   1.0000      -0.181718        -4.9448
 133   1.0000      -0.175050        -4.7634
 134   1.0000      -0.159258        -4.3336
 135   1.0000      -0.150675        -4.1001
 136   1.0000      -0.145835        -3.9684
 137   1.0000      -0.134366        -3.6563
 138   1.0000      -0.133933        -3.6445
 139   1.0000      -0.131208        -3.5704
 140   1.0000      -0.124568        -3.3897
 141   1.0000      -0.121042        -3.2937
 142   1.0000      -0.115649        -3.1470
 143   1.0000      -0.111130        -3.0240
 144   1.0000      -0.100171        -2.7258
 145   1.0000      -0.098755        -2.6873
 146   1.0000      -0.096885        -2.6364
 147   1.0000      -0.092777        -2.5246
 148   1.0000      -0.071080        -1.9342
 149   1.0000      -0.067469        -1.8359
 150   1.0000      -0.065072        -1.7707
 151   1.0000      -0.050174        -1.3653
 152   1.0000      -0.045075        -1.2266
 153   1.0000      -0.037628        -1.0239
 154   1.0000      -0.036901        -1.0041
 155   1.0000      -0.031453        -0.8559
 156   1.0000      -0.026369        -0.7175
 157   1.0000      -0.016096        -0.4380
 158   1.0000       0.020219         0.5502
 159   1.0000       0.039696         1.0802
 160   0.0000       0.119420         3.2496
 161   0.0000       0.137207         3.7336
 162   0.0000       0.153363         4.1732
 163   0.0000       0.156016         4.2454
 164   0.0000       0.162823         4.4306

MULLIKEN ATOMIC CHARGES AND SPIN POPULATIONS
--------------------------------------------
   0 V :    0.470808    1.210380
   1 S :   -0.290912   -0.022547
   2 S :   -0.287051   -0.025138
   3 S :   -0.289130   -0.023496
   4 S :   -0.285209   -0.025559
   5 O :   -0.467376   -0.146440
   6 C :   -0.077120    0.009665
   7 C :   -0.085026    0.007980
   8 C :   -0.083956    0.007757
   9 C :   -0.084455    0.007412
  10 S :    0.105119   -0.000597
  11 S :    0.102571   -0.000660
  12 S :    0.100135   -0.000394
  13 S :    0.099291   -0.000346
  14 C :   -0.220278    0.001478
  15 C :   -0.212201    0.000998
  16 C :   -0.184490    0.000004
  17 C :   -0.190234   -0.000406
  18 S :   -0.030769   -0.000122
  19 S :    0.054250   -0.000114
  20 S :    0.009027   -0.000068
  21 S :    0.007713   -0.000070
  22 C :   -0.301552   -0.000002
  23 C :   -0.300590   -0.000002
  24 C :   -0.157321   -0.000011
  25 H :    0.143550   -0.000001
  26 H :    0.113941   -0.000004
  27 H :    0.083473   -0.000001
  28 H :    0.092028   -0.000001
  29 H :    0.113374   -0.000005
  30 H :    0.143049   -0.000001
  31 C :   -0.293241    0.000176
  32 C :   -0.315121    0.000326
  33 C :   -0.134002   -0.000234
  34 H :    0.143388   -0.000023
  35 H :    0.117703    0.000016
  36 H :    0.086107    0.000025
  37 H :    0.075004    0.000015
  38 H :    0.101529    0.000029
  39 H :    0.127977   -0.000020
Sum of atomic charges         :   -2.0000000

LOEWDIN ATOMIC CHARGES AND SPIN POPULATIONS
-------------------------------------------
   0 V :   -0.155899    1.163775
   1 S :    0.080133   -0.014543
   2 S :    0.081330   -0.016047
   3 S :    0.081351   -0.015343
   4 S :    0.083118   -0.016205
   5 O :   -0.318760   -0.131375
   6 C :   -0.549911    0.009009
   7 C :   -0.550806    0.007919
   8 C :   -0.552329    0.008137
   9 C :   -0.552343    0.007664
  10 S :    0.473116   -0.000912
  11 S :    0.477076   -0.000980
  12 S :    0.471370   -0.000822
  13 S :    0.470687   -0.000830
  14 C :   -0.464526    0.000211
  15 C :   -0.465106   -0.000079
  16 C :   -0.618708    0.000458
  17 C :   -0.622066    0.000085
  18 S :    0.301976   -0.000091
  19 S :    0.440400   -0.000085
  20 S :    0.360054   -0.000072
  21 S :    0.357644   -0.000075
  22 C :   -0.282184   -0.000007
  23 C :   -0.284530   -0.000008
  24 C :   -0.176057   -0.000002
  25 H :    0.062644   -0.000001
  26 H :    0.053627   -0.000002
  27 H :    0.058029   -0.000002
  28 H :    0.060185   -0.000001
  29 H :    0.053608   -0.000002
  30 H :    0.062320   -0.000002
  31 C :   -0.373958    0.000016
  32 C :   -0.227604    0.000180
  33 C :   -0.178967    0.000004
  34 H :    0.064584    0.000001
  35 H :    0.053067    0.000008
  36 H :    0.058709    0.000005
  37 H :    0.059546    0.000004
  38 H :    0.057109    0.000011
  39 H :    0.052066   -0.000003

  Mayer bond orders larger than 0.100000
B(  0-V ,  1-S ) :   0.7727 B(  0-V ,  2-S ) :   0.7705 B(  0-V ,  3-S ) :   0.7659
B(  0-V ,  4-S ) :   0.7769 B(  0-V ,  5-O ) :   2.1490 B(  1-S ,  8-C ) :   1.1035
B(  2-S ,  6-C ) :   1.1064 B(  3-S ,  9-C ) :   1.1060 B(  4-S ,  7-C ) :   1.1064
B(  6-C ,  7-C ) :   1.6797 B(  6-C , 10-S ) :   0.9415 B(  7-C , 11-S ) :   0.9371
B(  8-C ,  9-C ) :   1.6985 B(  8-C , 13-S ) :   0.9335 B(  9-C , 12-S ) :   0.9356
B( 10-S , 14-C ) :   1.2407 B( 11-S , 14-C ) :   1.2578 B( 12-S , 15-C ) :   1.2464
B( 13-S , 15-C ) :   1.2466 B( 14-C , 16-C ) :   1.4402 B( 15-C , 17-C ) :   1.4538
B( 16-C , 18-S ) :   1.1322 B( 16-C , 19-S ) :   1.0389 B( 17-C , 20-S ) :   1.0875
B( 17-C , 21-S ) :   1.0893 B( 18-S , 32-C ) :   0.9021 B( 19-S , 31-C ) :   1.1356
B( 20-S , 23-C ) :   0.9928 B( 21-S , 22-C ) :   0.9891 B( 22-C , 24-C ) :   0.9135
B( 22-C , 25-H ) :   0.9658 B( 22-C , 26-H ) :   0.9656 B( 23-C , 24-C ) :   0.9130
B( 23-C , 29-H ) :   0.9655 B( 23-C , 30-H ) :   0.9655 B( 24-C , 27-H ) :   0.9624
B( 24-C , 28-H ) :   0.9719 B( 31-C , 33-C ) :   0.8762 B( 31-C , 38-H ) :   0.9486
B( 31-C , 39-H ) :   0.9559 B( 32-C , 33-C ) :   0.9292 B( 32-C , 34-H ) :   0.9649
B( 32-C , 35-H ) :   0.9641 B( 33-C , 36-H ) :   0.9689 B( 33-C , 37-H ) :   0.9602

FINAL SINGLE POINT ENERGY     -6337.663791266825

DIPOLE MOMENT
-------------
                                X             Y             Z
Electronic contribution:     -1.61050       9.04174     -10.07360
Nuclear contribution   :      1.57016     -10.13357      11.17748
                        -----------------------------------------
Total Dipole Moment    :     -0.04034      -1.09183       1.10388
                        -----------------------------------------
Magnitude (a.u.)       :      1.55315
Magnitude (Debye)      :      3.94779

Rotational constants in cm-1:     0.010758     0.000804     0.000783
Rotational constants in MHz :   322.512328    24.115473    23.486776

                             ****ORCA TERMINATED NORMALLY****
TOTAL RUN TIME: 0 days 1 hours 1 minutes 51 seconds 35 msec
