                         Program Version 5.0.4 -  RELEASE  -
|  1> ! nofrozencore ReducedPop printbasis
|  2> ! B3LYP TZVP
|  3>
|  4> %basis
|  5> newgto V "CP(PPP)" end
|  6> end
|  7>
|  8> %pal
|  9> nprocs 6
| 10> end
| 11>
| 12> % sym SymThresh 1e-2 end
| 13> * xyz -2 2
| 14> V -0.5119937802067391 0.5007984572981946 -0.9338770408781669
| 15> S -2.3765854470929653 -0.41914502399653936 -0.2512109469407511
| 16> S -0.6239897362270566 1.9564616017405487 1.3441490575702888
| 17> S 0.208744053710774 -1.4416129230236692 -1.892753654616349
| 18> S 2.2033977123830213 0.7608812637315941 -0.39824375792155353
| 19> O -0.513773777602055 1.8403595396576073 -1.9037094132757637
| 20> C 1.0533465283848087 2.5586915620839736 1.4346392983516603
| 21> C 2.14103627719362 2.0970313775285216 0.7740683603756923
| 22> C -2.3534555779860575 -1.8976000625415907 -1.1723315250437738
| 23> C -1.2806743812418255 -2.32784909054557 -1.8476588989185823
| 24> S 1.3815990777513603 3.8986922263415513 2.6474169683252677
| 25> S 3.725671926591705 2.909110979556494 1.2260812499273093
| 26> S -1.407128571893325 -3.877415243936858 -2.6681405158161233
| 27> S -3.7858318202507704 -2.9141158351385923 -1.1648966284646218
| 28> C 3.121575875719196 4.043686154129805 2.4007577845734125
| 29> C -3.068728541497306 -4.223562466192918 -2.1593573007043587
| 30> C 3.946599227760593 4.904954874462927 3.066713560021845
| 31> C -3.696258169029066 -5.396002800387928 -2.488399942763931
| 32> S 3.211251695427129 6.011676595553275 4.256620067989553
| 33> S 5.729897844529689 4.871564019166891 2.770110801951346
| 34> S -5.315288887185922 -5.819349530283548 -1.9412598481070173
| 35> S -2.977483666931633 -6.749309866719883 -3.406672864211355
| 36> C -2.960766054103688 -8.040360709466835 -2.065756571824049
| 37> C -4.960386573747253 -7.271992925575516 -0.8411368856539541
| 38> C -4.36134896320295 -8.444121798989475 -1.6099873199678687
| 39> H -2.3879617610694246 -7.634180493097771 -1.2198998304990794
| 40> H -2.39595353489134 -8.883432882733697 -2.4899241641199383
| 41> H -4.301811511548335 -9.331105601389853 -0.9608663200149783
| 42> H -4.987932635800296 -8.699573432916555 -2.4729347616248933
| 43> H -5.927468566971436 -7.516480254646643 -0.3835815038746455
| 44> H -4.27655644527623 -6.94490935896264 -0.048983151934858256
| 45> C 5.843739355855071 6.610106680574375 2.1596251604606245
| 46> C 3.7087093578196035 7.587775788520685 3.440305840873248
| 47> C 5.2052177248639975 7.663725595655265 3.086214435670665
| 48> H 3.0751490863011135 7.733093594922832 2.5545032302015005
| 49> H 3.483022619207198 8.389069458580035 4.160778418107326
| 50> H 5.7726804276113635 7.6744929328721225 4.025496393140793
| 51> H 5.367909722988837 8.641284863990741 2.606807992949505
| 52> H 6.915457305956653 6.836420460747442 2.07087930557806
| 53> H 5.403413370841626 6.63790523389285 1.1567398966136875
| 54> *
| 55>
| 56> % eprnmr
| 57> gtensor true
| 58> Nuclei = all H {aiso,adip,aorb,fgrad,rho}
| 59> Nuclei = all V {aiso,adip,aorb,fgrad,rho}
| 60> end
| 61>
| 62>                          ****END OF INPUT****

CARTESIAN COORDINATES (ANGSTROEM)
---------------------------------
  V     -0.510013    0.500590   -0.930601
  S     -2.374605   -0.419354   -0.247935
  S     -0.622009    1.956253    1.347425
  S      0.210724   -1.441822   -1.889478
  S      2.205378    0.760672   -0.394968
  O     -0.511793    1.840151   -1.900433
  C      1.055327    2.558483    1.437915
  C      2.143017    2.096823    0.777344
  C     -2.351475   -1.897809   -1.169055
  C     -1.278694   -2.328058   -1.844383
  S      1.383579    3.898483    2.650693
  S      3.727652    2.908902    1.229357
  S     -1.405148   -3.877624   -2.664864
  S     -3.783852   -2.914325   -1.161621
  C      3.123556    4.043477    2.404034
  C     -3.066748   -4.223771   -2.156081
  C      3.948580    4.904746    3.069990
  C     -3.694278   -5.396212   -2.485124
  S      3.213232    6.011468    4.259896
  S      5.731878    4.871355    2.773387
  S     -5.313309   -5.819558   -1.937984
  S     -2.975503   -6.749519   -3.403397
  C     -2.958786   -8.040570   -2.062481
  C     -4.958406   -7.272202   -0.837861
  C     -4.359369   -8.444331   -1.606711
  H     -2.385981   -7.634389   -1.216624
  H     -2.393973   -8.883642   -2.486648
  H     -4.299831   -9.331314   -0.957590
  H     -4.985952   -8.699782   -2.469659
  H     -5.925488   -7.516689   -0.380305
  H     -4.274576   -6.945118   -0.045707
  C      5.845720    6.609898    2.162901
  C      3.710690    7.587567    3.443582
  C      5.207198    7.663517    3.089490
  H      3.077129    7.732885    2.557779
  H      3.485003    8.388861    4.164054
  H      5.774661    7.674284    4.028772
  H      5.369890    8.641076    2.610084
  H      6.917438    6.836212    2.074155
  H      5.405394    6.637696    1.160016

 Total Charge           Charge          ....   -2
 Multiplicity           Mult            ....    2
 Number of Electrons    NEL             ....  321
 Basis Dimension        Dim             ....  681

ORBITAL ENERGIES
----------------
                 SPIN UP ORBITALS
  NO   OCC          E(Eh)            E(eV)
   0   1.0000    -196.676102     -5351.8288
   1   1.0000     -88.746252     -2414.9083
   2   1.0000     -88.744357     -2414.8567
   3   1.0000     -88.740943     -2414.7638
   4   1.0000     -88.737679     -2414.6750
   5   1.0000     -88.728754     -2414.4322
   6   1.0000     -88.725775     -2414.3511
   7   1.0000     -88.716934     -2414.1105
   8   1.0000     -88.714293     -2414.0386
   9   1.0000     -88.656518     -2412.4665
  10   1.0000     -88.653604     -2412.3872
  11   1.0000     -88.627578     -2411.6790
  12   1.0000     -88.624413     -2411.5929
  13   1.0000     -22.051662      -600.0562
  14   1.0000     -18.880783      -513.7722
  15   1.0000     -18.557614      -504.9783
  16   1.0000     -18.553251      -504.8596
  17   1.0000     -18.552916      -504.8505
  18   1.0000     -10.091010      -274.5903
  19   1.0000     -10.071852      -274.0690
  20   1.0000     -10.070271      -274.0260
  21   1.0000     -10.061426      -273.7853
  22   1.0000     -10.059387      -273.7298
  23   1.0000     -10.058888      -273.7163
  24   1.0000     -10.058128      -273.6956
  25   1.0000     -10.056868      -273.6613
  26   1.0000     -10.047124      -273.3962
  27   1.0000     -10.038084      -273.1502
  28   1.0000     -10.029749      -272.9234
  29   1.0000     -10.028388      -272.8863
  30   1.0000     -10.009124      -272.3621
  31   1.0000     -10.008378      -272.3418
  32   1.0000      -7.799469      -212.2344
  33   1.0000      -7.798181      -212.1993
  34   1.0000      -7.794370      -212.0956
  35   1.0000      -7.791747      -212.0242
  36   1.0000      -7.781605      -211.7482
  37   1.0000      -7.779178      -211.6822
  38   1.0000      -7.769735      -211.4252
  39   1.0000      -7.767822      -211.3732
  40   1.0000      -7.714118      -209.9118
  41   1.0000      -7.710095      -209.8023
  42   1.0000      -7.680251      -208.9903
  43   1.0000      -7.677081      -208.9040
  44   1.0000      -5.764515      -156.8604
  45   1.0000      -5.763043      -156.8204
  46   1.0000      -5.759963      -156.7366
  47   1.0000      -5.759383      -156.7208
  48   1.0000      -5.758660      -156.7011
  49   1.0000      -5.756746      -156.6490
  50   1.0000      -5.756011      -156.6290
  51   1.0000      -5.755218      -156.6075
  52   1.0000      -5.754012      -156.5746
  53   1.0000      -5.753222      -156.5531
  54   1.0000      -5.749052      -156.4396
  55   1.0000      -5.746566      -156.3720
  56   1.0000      -5.746485      -156.3698
  57   1.0000      -5.744149      -156.3062
  58   1.0000      -5.743332      -156.2840
  59   1.0000      -5.740754      -156.2139
  60   1.0000      -5.736407      -156.0956
  61   1.0000      -5.734753      -156.0506
  62   1.0000      -5.734013      -156.0304
  63   1.0000      -5.732659      -155.9936
  64   1.0000      -5.730265      -155.9284
  65   1.0000      -5.728309      -155.8752
  66   1.0000      -5.725554      -155.8003
  67   1.0000      -5.723716      -155.7502
  68   1.0000      -5.679010      -154.5337
  69   1.0000      -5.675137      -154.4283
  70   1.0000      -5.672215      -154.3488
  71   1.0000      -5.671575      -154.3314
  72   1.0000      -5.668250      -154.2409
  73   1.0000      -5.667596      -154.2231
  74   1.0000      -5.645748      -153.6286
  75   1.0000      -5.642574      -153.5422
  76   1.0000      -5.639416      -153.4563
  77   1.0000      -5.637226      -153.3967
  78   1.0000      -5.636227      -153.3695
  79   1.0000      -5.634052      -153.3103
  80   1.0000      -2.446265       -66.5663
  81   1.0000      -1.481559       -40.3153
  82   1.0000      -1.478502       -40.2321
  83   1.0000      -1.476828       -40.1865
  84   1.0000      -0.722985       -19.6734
  85   1.0000      -0.701745       -19.0955
  86   1.0000      -0.697947       -18.9921
  87   1.0000      -0.670502       -18.2453
  88   1.0000      -0.647275       -17.6132
  89   1.0000      -0.636057       -17.3080
  90   1.0000      -0.619302       -16.8521
  91   1.0000      -0.614930       -16.7331
  92   1.0000      -0.612947       -16.6791
  93   1.0000      -0.597365       -16.2551
  94   1.0000      -0.591275       -16.0894
  95   1.0000      -0.556762       -15.1503
  96   1.0000      -0.553418       -15.0593
  97   1.0000      -0.511976       -13.9316
  98   1.0000      -0.508339       -13.8326
  99   1.0000      -0.491240       -13.3673
 100   1.0000      -0.488455       -13.2915
 101   1.0000      -0.482108       -13.1188
 102   1.0000      -0.461007       -12.5446
 103   1.0000      -0.460258       -12.5243
 104   1.0000      -0.432190       -11.7605
 105   1.0000      -0.428931       -11.6718
 106   1.0000      -0.398703       -10.8493
 107   1.0000      -0.368822       -10.0362
 108   1.0000      -0.341520        -9.2932
 109   1.0000      -0.340731        -9.2718
 110   1.0000      -0.333966        -9.0877
 111   1.0000      -0.314005        -8.5445
 112   1.0000      -0.311669        -8.4810
 113   1.0000      -0.301904        -8.2152
 114   1.0000      -0.294943        -8.0258
 115   1.0000      -0.294733        -8.0201
 116   1.0000      -0.286271        -7.7898
 117   1.0000      -0.267210        -7.2711
 118   1.0000      -0.261169        -7.1068
 119   1.0000      -0.250840        -6.8257
 120   1.0000      -0.248980        -6.7751
 121   1.0000      -0.245010        -6.6671
 122   1.0000      -0.238031        -6.4771
 123   1.0000      -0.236983        -6.4486
 124   1.0000      -0.227904        -6.2016
 125   1.0000      -0.221967        -6.0400
 126   1.0000      -0.219772        -5.9803
 127   1.0000      -0.206368        -5.6156
 128   1.0000      -0.204478        -5.5641
 129   1.0000      -0.202602        -5.5131
 130   1.0000      -0.195478        -5.3192
 131   1.0000      -0.192395        -5.2353
 132   1.0000      -0.174752        -4.7553
 133   1.0000      -0.171968        -4.6795
 134   1.0000      -0.156676        -4.2634
 135   1.0000      -0.151836        -4.1317
 136   1.0000      -0.150866        -4.1053
 137   1.0000      -0.148368        -4.0373
 138   1.0000      -0.138272        -3.7626
 139   1.0000      -0.119995        -3.2652
 140   1.0000      -0.119523        -3.2524
 141   1.0000      -0.116260        -3.1636
 142   1.0000      -0.110060        -2.9949
 143   1.0000      -0.107487        -2.9249
 144   1.0000      -0.099800        -2.7157
 145   1.0000      -0.096904        -2.6369
 146   1.0000      -0.084487        -2.2990
 147   1.0000      -0.081710        -2.2234
 148   1.0000      -0.072455        -1.9716
 149   1.0000      -0.070266        -1.9120
 150   1.0000      -0.068335        -1.8595
 151   1.0000      -0.063015        -1.7147
 152   1.0000      -0.051714        -1.4072
 153   1.0000      -0.041617        -1.1324
 154   1.0000      -0.037646        -1.0244
 155   1.0000      -0.019815        -0.5392
 156   1.0000      -0.013929        -0.3790
 157   1.0000      -0.013123        -0.3571
 158   1.0000      -0.003235        -0.0880
 159   1.0000       0.008679         0.2362
 160   1.0000       0.049903         1.3579
 161   0.0000       0.124348         3.3837
 162   0.0000       0.145535         3.9602
 163   0.0000       0.146069         3.9747
 164   0.0000       0.155385         4.2282
 165   0.0000       0.160648         4.3715

                 SPIN DOWN ORBITALS
  NO   OCC          E(Eh)            E(eV)
   0   1.0000    -196.676211     -5351.8318
   1   1.0000     -88.746243     -2414.9080
   2   1.0000     -88.744357     -2414.8567
   3   1.0000     -88.740943     -2414.7638
   4   1.0000     -88.737679     -2414.6750
   5   1.0000     -88.728755     -2414.4322
   6   1.0000     -88.725776     -2414.3511
   7   1.0000     -88.716947     -2414.1109
   8   1.0000     -88.714306     -2414.0390
   9   1.0000     -88.656686     -2412.4711
  10   1.0000     -88.653770     -2412.3917
  11   1.0000     -88.627731     -2411.6832
  12   1.0000     -88.624579     -2411.5974
  13   1.0000     -22.036440      -599.6420
  14   1.0000     -18.885350      -513.8965
  15   1.0000     -18.551769      -504.8193
  16   1.0000     -18.537044      -504.4186
  17   1.0000     -18.536780      -504.4114
  18   1.0000     -10.090965      -274.5891
  19   1.0000     -10.071853      -274.0691
  20   1.0000     -10.070272      -274.0260
  21   1.0000     -10.061441      -273.7857
  22   1.0000     -10.059363      -273.7292
  23   1.0000     -10.058888      -273.7162
  24   1.0000     -10.058128      -273.6956
  25   1.0000     -10.056868      -273.6613
  26   1.0000     -10.047124      -273.3962
  27   1.0000     -10.038083      -273.1501
  28   1.0000     -10.029354      -272.9126
  29   1.0000     -10.027776      -272.8696
  30   1.0000     -10.009048      -272.3600
  31   1.0000     -10.008304      -272.3398
  32   1.0000      -7.799459      -212.2341
  33   1.0000      -7.798180      -212.1993
  34   1.0000      -7.794370      -212.0956
  35   1.0000      -7.791747      -212.0242
  36   1.0000      -7.781606      -211.7483
  37   1.0000      -7.779179      -211.6822
  38   1.0000      -7.769749      -211.4256
  39   1.0000      -7.767836      -211.3736
  40   1.0000      -7.714261      -209.9157
  41   1.0000      -7.710239      -209.8063
  42   1.0000      -7.680400      -208.9943
  43   1.0000      -7.677242      -208.9084
  44   1.0000      -5.764504      -156.8601
  45   1.0000      -5.763041      -156.8203
  46   1.0000      -5.759946      -156.7361
  47   1.0000      -5.759383      -156.7208
  48   1.0000      -5.758660      -156.7011
  49   1.0000      -5.756746      -156.6490
  50   1.0000      -5.756010      -156.6290
  51   1.0000      -5.755209      -156.6072
  52   1.0000      -5.754013      -156.5746
  53   1.0000      -5.753221      -156.5531
  54   1.0000      -5.749052      -156.4397
  55   1.0000      -5.746567      -156.3720
  56   1.0000      -5.746485      -156.3698
  57   1.0000      -5.744151      -156.3063
  58   1.0000      -5.743333      -156.2840
  59   1.0000      -5.740756      -156.2139
  60   1.0000      -5.736408      -156.0956
  61   1.0000      -5.734771      -156.0510
  62   1.0000      -5.734015      -156.0305
  63   1.0000      -5.732678      -155.9941
  64   1.0000      -5.730286      -155.9290
  65   1.0000      -5.728328      -155.8757
  66   1.0000      -5.725565      -155.8006
  67   1.0000      -5.723728      -155.7506
  68   1.0000      -5.679241      -154.5400
  69   1.0000      -5.675322      -154.4334
  70   1.0000      -5.672541      -154.3577
  71   1.0000      -5.671765      -154.3366
  72   1.0000      -5.668635      -154.2514
  73   1.0000      -5.667760      -154.2276
  74   1.0000      -5.645873      -153.6320
  75   1.0000      -5.642701      -153.5457
  76   1.0000      -5.639907      -153.4697
  77   1.0000      -5.637269      -153.3979
  78   1.0000      -5.636762      -153.3841
  79   1.0000      -5.634107      -153.3118
  80   1.0000      -2.400302       -65.3155
  81   1.0000      -1.459715       -39.7209
  82   1.0000      -1.416170       -38.5359
  83   1.0000      -1.414446       -38.4890
  84   1.0000      -0.722819       -19.6689
  85   1.0000      -0.701568       -19.0906
  86   1.0000      -0.697965       -18.9926
  87   1.0000      -0.670524       -18.2459
  88   1.0000      -0.648155       -17.6372
  89   1.0000      -0.645618       -17.5682
  90   1.0000      -0.619294       -16.8518
  91   1.0000      -0.614952       -16.7337
  92   1.0000      -0.612952       -16.6793
  93   1.0000      -0.597005       -16.2453
  94   1.0000      -0.590923       -16.0798
  95   1.0000      -0.556856       -15.1528
  96   1.0000      -0.553543       -15.0627
  97   1.0000      -0.511724       -13.9247
  98   1.0000      -0.508155       -13.8276
  99   1.0000      -0.491221       -13.3668
 100   1.0000      -0.488516       -13.2932
 101   1.0000      -0.482250       -13.1227
 102   1.0000      -0.460976       -12.5438
 103   1.0000      -0.460835       -12.5400
 104   1.0000      -0.432145       -11.7593
 105   1.0000      -0.428986       -11.6733
 106   1.0000      -0.399019       -10.8578
 107   1.0000      -0.368760       -10.0345
 108   1.0000      -0.341531        -9.2935
 109   1.0000      -0.340663        -9.2699
 110   1.0000      -0.333532        -9.0759
 111   1.0000      -0.313796        -8.5388
 112   1.0000      -0.311679        -8.4812
 113   1.0000      -0.302073        -8.2198
 114   1.0000      -0.294921        -8.0252
 115   1.0000      -0.294767        -8.0210
 116   1.0000      -0.286284        -7.7902
 117   1.0000      -0.266893        -7.2625
 118   1.0000      -0.260979        -7.1016
 119   1.0000      -0.250867        -6.8264
 120   1.0000      -0.248862        -6.7719
 121   1.0000      -0.244986        -6.6664
 122   1.0000      -0.237215        -6.4549
 123   1.0000      -0.236914        -6.4468
 124   1.0000      -0.227744        -6.1972
 125   1.0000      -0.221972        -6.0402
 126   1.0000      -0.219749        -5.9797
 127   1.0000      -0.206109        -5.6085
 128   1.0000      -0.202447        -5.5089
 129   1.0000      -0.201395        -5.4802
 130   1.0000      -0.195441        -5.3182
 131   1.0000      -0.191947        -5.2232
 132   1.0000      -0.174742        -4.7550
 133   1.0000      -0.171965        -4.6794
 134   1.0000      -0.156292        -4.2529
 135   1.0000      -0.151756        -4.1295
 136   1.0000      -0.150482        -4.0948
 137   1.0000      -0.147631        -4.0172
 138   1.0000      -0.138163        -3.7596
 139   1.0000      -0.119843        -3.2611
 140   1.0000      -0.119435        -3.2500
 141   1.0000      -0.115567        -3.1447
 142   1.0000      -0.110085        -2.9956
 143   1.0000      -0.107594        -2.9278
 144   1.0000      -0.100165        -2.7256
 145   1.0000      -0.096999        -2.6395
 146   1.0000      -0.084156        -2.2900
 147   1.0000      -0.081739        -2.2242
 148   1.0000      -0.074446        -2.0258
 149   1.0000      -0.069497        -1.8911
 150   1.0000      -0.067700        -1.8422
 151   1.0000      -0.063050        -1.7157
 152   1.0000      -0.051660        -1.4057
 153   1.0000      -0.043213        -1.1759
 154   1.0000      -0.030687        -0.8350
 155   1.0000      -0.019237        -0.5235
 156   1.0000      -0.013473        -0.3666
 157   1.0000      -0.003401        -0.0926
 158   1.0000       0.009043         0.2461
 159   1.0000       0.048818         1.3284
 160   0.0000       0.124356         3.3839
 161   0.0000       0.145753         3.9661
 162   0.0000       0.149707         4.0737
 163   0.0000       0.157173         4.2769
 164   0.0000       0.161006         4.3812

MULLIKEN ATOMIC CHARGES AND SPIN POPULATIONS
--------------------------------------------
   0 V :    0.475677    1.249137
   1 S :   -0.220142   -0.027382
   2 S :   -0.358201   -0.026947
   3 S :   -0.217759   -0.030787
   4 S :   -0.360733   -0.029423
   5 O :   -0.486375   -0.176714
   6 C :   -0.078830    0.003502
   7 C :   -0.080414    0.002356
   8 C :   -0.076762    0.021639
   9 C :   -0.082549    0.012348
  10 S :    0.081022   -0.000974
  11 S :    0.085103   -0.001149
  12 S :    0.120430    0.000231
  13 S :    0.116201    0.001638
  14 C :   -0.251639   -0.000752
  15 C :   -0.159313    0.004222
  16 C :   -0.157872    0.000485
  17 C :   -0.236041   -0.001353
  18 S :    0.004288   -0.000139
  19 S :    0.005438   -0.000118
  20 S :    0.010466    0.000082
  21 S :    0.012951    0.000094
  22 C :   -0.332365   -0.000051
  23 C :   -0.321504   -0.000065
  24 C :   -0.158158    0.000024
  25 H :    0.150032    0.000004
  26 H :    0.126349   -0.000009
  27 H :    0.088470   -0.000005
  28 H :    0.107061   -0.000010
  29 H :    0.123817   -0.000013
  30 H :    0.146206    0.000003
  31 C :   -0.275102    0.000129
  32 C :   -0.272442    0.000131
  33 C :   -0.163082   -0.000189
  34 H :    0.134991   -0.000016
  35 H :    0.100289    0.000027
  36 H :    0.081408    0.000021
  37 H :    0.077803    0.000013
  38 H :    0.102149    0.000025
  39 H :    0.139136   -0.000015
Sum of atomic charges         :   -2.0000000

LOEWDIN ATOMIC CHARGES AND SPIN POPULATIONS
-------------------------------------------
   0 V :   -0.158105    1.192349
   1 S :    0.209045   -0.011501
   2 S :   -0.009503   -0.020775
   3 S :    0.179829   -0.016432
   4 S :   -0.023449   -0.023711
   5 O :   -0.362242   -0.161357
   6 C :   -0.532019    0.003318
   7 C :   -0.530832    0.001707
   8 C :   -0.569801    0.023181
   9 C :   -0.563451    0.013776
  10 S :    0.445830   -0.001527
  11 S :    0.454508   -0.001533
  12 S :    0.498053    0.000132
  13 S :    0.489651    0.001105
  14 C :   -0.484633   -0.000571
  15 C :   -0.446298    0.001307
  16 C :   -0.617533    0.000159
  17 C :   -0.623597    0.000530
  18 S :    0.363194   -0.000122
  19 S :    0.354186   -0.000104
  20 S :    0.362350    0.000038
  21 S :    0.352211    0.000046
  22 C :   -0.282955   -0.000027
  23 C :   -0.283977   -0.000042
  24 C :   -0.180796   -0.000001
  25 H :    0.066859    0.000001
  26 H :    0.055943   -0.000003
  27 H :    0.058115   -0.000003
  28 H :    0.062455   -0.000004
  29 H :    0.055711   -0.000005
  30 H :    0.064542   -0.000002
  31 C :   -0.285193    0.000027
  32 C :   -0.287083    0.000024
  33 C :   -0.173911    0.000002
  34 H :    0.059612   -0.000002
  35 H :    0.052653    0.000007
  36 H :    0.059382    0.000004
  37 H :    0.058277    0.000001
  38 H :    0.052275    0.000006
  39 H :    0.060697   -0.000001

  Mayer bond orders larger than 0.100000
B(  0-V ,  1-S ) :   0.9736 B(  0-V ,  2-S ) :   0.6370 B(  0-V ,  3-S ) :   0.9012
B(  0-V ,  4-S ) :   0.5938 B(  0-V ,  5-O ) :   2.1029 B(  1-S ,  8-C ) :   1.0497
B(  2-S ,  6-C ) :   1.0957 B(  3-S ,  9-C ) :   1.1101 B(  4-S ,  7-C ) :   1.1250
B(  6-C ,  7-C ) :   1.7335 B(  6-C , 10-S ) :   0.9007 B(  7-C , 11-S ) :   0.9058
B(  8-C ,  9-C ) :   1.6523 B(  8-C , 13-S ) :   0.9672 B(  9-C , 12-S ) :   0.9743
B( 10-S , 14-C ) :   1.2621 B( 11-S , 14-C ) :   1.2691 B( 12-S , 15-C ) :   1.2292
B( 13-S , 15-C ) :   1.2221 B( 14-C , 16-C ) :   1.4257 B( 15-C , 17-C ) :   1.4539
B( 16-C , 18-S ) :   1.0577 B( 16-C , 19-S ) :   1.0597 B( 17-C , 20-S ) :   1.1259
B( 17-C , 21-S ) :   1.1166 B( 18-S , 32-C ) :   1.0028 B( 19-S , 31-C ) :   1.0046
B( 20-S , 23-C ) :   0.9743 B( 21-S , 22-C ) :   0.9777 B( 22-C , 24-C ) :   0.8910
B( 22-C , 25-H ) :   0.9707 B( 22-C , 26-H ) :   0.9639 B( 23-C , 24-C ) :   0.8943
B( 23-C , 29-H ) :   0.9648 B( 23-C , 30-H ) :   0.9686 B( 24-C , 27-H ) :   0.9589
B( 24-C , 28-H ) :   0.9741 B( 31-C , 33-C ) :   0.9272 B( 31-C , 38-H ) :   0.9619
B( 31-C , 39-H ) :   0.9667 B( 32-C , 33-C ) :   0.9298 B( 32-C , 34-H ) :   0.9636
B( 32-C , 35-H ) :   0.9622 B( 33-C , 36-H ) :   0.9699 B( 33-C , 37-H ) :   0.9615

FINAL SINGLE POINT ENERGY     -6337.651487386851

DIPOLE MOMENT
-------------
                                X             Y             Z
Electronic contribution:     -8.20782       3.03535     -12.17084
Nuclear contribution   :      7.75794      -5.17196      12.73789
                        -----------------------------------------
Total Dipole Moment    :     -0.44989      -2.13661       0.56705
                        -----------------------------------------
Magnitude (a.u.)       :      2.25589
Magnitude (Debye)      :      5.73402

Rotational constants in cm-1:     0.010708     0.000804     0.000783
Rotational constants in MHz :   321.018957    24.108802    23.478236

                             ****ORCA TERMINATED NORMALLY****
TOTAL RUN TIME: 0 days 1 hours 6 minutes 50 seconds 506 msec
