                         Program Version 5.0.4 -  RELEASE  -
|  1> ! nofrozencore ReducedPop printbasis
|  2> ! B3LYP TZVP
|  3>
|  4> %basis
|  5> newgto V "CP(PPP)" end
|  6> end
|  7>
|  8> %pal
|  9> nprocs 6
| 10> end
| 11>
| 12> % sym SymThresh 1e-2 end
| 13> * xyz -2 2
| 14> V -0.6091820894148438 -0.7843304279944742 -0.5026802534714989
| 15> S -2.380495965354639 0.6569686039719412 0.4481324516696415
| 16> S -0.24986233283178694 1.0473499825766384 -2.128382501900815
| 17> S -0.2947242967610664 -1.6202815457953104 1.806712954510166
| 18> S 1.8212135484346148 -1.1662557532442193 -0.6825960465670424
| 19> O -1.331300919737514 -1.9379171471140684 -1.32247340349979
| 20> C 1.3058811084738497 0.549580191624949 -2.7802855204360926
| 21> C 2.137209864695718 -0.3353212885911925 -2.1984372463749904
| 22> C -2.5024994887287058 0.014942022474242984 2.080560721170845
| 23> C -1.668417647262177 -0.8910428555853086 2.622566108953313
| 24> S 1.892679399518199 1.3151296090956541 -4.296060263794648
| 25> S 3.7138871319056896 -0.6089932851455916 -3.010798890653096
| 26> S -1.9775486066832675 -1.341954351328392 4.333405157639989
| 27> S -3.808342635705951 0.6362778252061635 3.1467150665613435
| 28> C 3.4698820859590764 0.5180884363509076 -4.3500243234395555
| 29> C -3.346186704304249 -0.2561896954510152 4.601330091173441
| 30> C 4.3996562377668695 0.7390627467969304 -5.328617807868102
| 31> C -3.985461163907162 -0.1283208321044418 5.803048129932474
| 32> S 4.09123099287894 1.8422075381562266 -6.69386223804047
| 33> S 5.977139520463658 -0.08996072995462233 -5.328783397524008
| 34> S -5.360402765130324 0.9830755976911275 6.025306111704899
| 35> S -3.466089865918618 -1.0360665782759568 7.246453877071584
| 36> C -2.9642602451341333 0.4223358247057272 8.275694097212417
| 37> C -4.555075971336669 2.115020831412 7.2537300827082465
| 38> C -4.099980509078566 1.4126676782215917 8.533234786630267
| 39> H -2.3763672989381703 0.7486856333656944 7.982859857471513
| 40> H -2.576495405426527 -0.13906235206833106 9.485793372222654
| 41> H -3.7600861992804178 2.1520063118523733 9.227851925475694
| 42> H -5.080415423529644 0.8193764273903588 9.081690033174063
| 43> H -5.575387905622533 3.0364315178024146 7.582371405825693
| 44> H -4.029919436551016 2.4780623150776426 6.947975083019323
| 45> C 5.7910686565100935 -1.0362635624853327 -6.9089163642258375
| 46> C 4.182784975466485 0.602195080771495 -8.06626360131582
| 47> C 5.512848341332714 -0.1521971319572106 -8.126309235793954
| 48> H 3.3568636642069483 -0.08282823040359125 -7.95602431612651
| 49> H 4.029747962144966 1.18147901681259 -8.994201809847166
| 50> H 6.335874403262203 0.5686868836755706 -8.250473670214589
| 51> H 5.502794951227185 -0.7924439019315128 -9.018422037438375
| 52> H 6.744746607468151 -1.5776187803673838 -7.039121248394291
| 53> H 5.005619836980374 -1.7637023392502031 -6.7737741639063325
| 54> *
| 55>
| 56> % eprnmr
| 57> gtensor true
| 58> Nuclei = all H {aiso,adip,aorb,fgrad,rho}
| 59> Nuclei = all V {aiso,adip,aorb,fgrad,rho}
| 60> end
| 61>
| 62>                          ****END OF INPUT****

CARTESIAN COORDINATES (ANGSTROEM)
---------------------------------
  V     -0.606257   -0.781885   -0.503081
  S     -2.377571    0.659414    0.447732
  S     -0.246937    1.049796   -2.128783
  S     -0.291799   -1.617836    1.806313
  S      1.824139   -1.163810   -0.682996
  O     -1.328376   -1.935471   -1.322874
  C      1.308806    0.552026   -2.780686
  C      2.140135   -0.332876   -2.198837
  C     -2.499574    0.017388    2.080160
  C     -1.665493   -0.888597    2.622166
  S      1.895604    1.317575   -4.296461
  S      3.716812   -0.606548   -3.011199
  S     -1.974624   -1.339509    4.333005
  S     -3.805418    0.638724    3.146315
  C      3.472807    0.520534   -4.350425
  C     -3.343262   -0.253744    4.600930
  C      4.402581    0.741508   -5.329018
  C     -3.982536   -0.125875    5.802648
  S      4.094156    1.844653   -6.694262
  S      5.980065   -0.087515   -5.329184
  S     -5.357478    0.985521    6.024906
  S     -3.463165   -1.033621    7.246054
  C     -2.961335    0.424782    8.275294
  C     -4.552151    2.117467    7.253330
  C     -4.097055    1.415113    8.532835
  H     -2.373442    0.751131    7.982460
  H     -2.573570   -0.136617    9.485393
  H     -3.757161    2.154452    9.227452
  H     -5.077490    0.821822    9.081290
  H     -5.572463    3.038877    7.581971
  H     -4.026994    2.480508    6.947575
  C      5.793994   -1.033818   -6.909317
  C      4.185710    0.604641   -8.066664
  C      5.515773   -0.149751   -8.126709
  H      3.359789   -0.080383   -7.956425
  H      4.032673    1.183925   -8.994602
  H      6.338799    0.571133   -8.250874
  H      5.505720   -0.789998   -9.018822
  H      6.747672   -1.575173   -7.039522
  H      5.008545   -1.761257   -6.774174

 Total Charge           Charge          ....   -2
 Multiplicity           Mult            ....    2
 Number of Electrons    NEL             ....  321
 Basis Dimension        Dim             ....  681

ORBITAL ENERGIES
----------------
                 SPIN UP ORBITALS
  NO   OCC          E(Eh)            E(eV)
   0   1.0000    -196.676416     -5351.8374
   1   1.0000     -88.736877     -2414.6532
   2   1.0000     -88.736570     -2414.6448
   3   1.0000     -88.733815     -2414.5699
   4   1.0000     -88.733805     -2414.5696
   5   1.0000     -88.733693     -2414.5665
   6   1.0000     -88.733659     -2414.5656
   7   1.0000     -88.731118     -2414.4965
   8   1.0000     -88.730925     -2414.4912
   9   1.0000     -88.642009     -2412.0717
  10   1.0000     -88.641488     -2412.0575
  11   1.0000     -88.640919     -2412.0420
  12   1.0000     -88.640676     -2412.0354
  13   1.0000     -22.051809      -600.0602
  14   1.0000     -18.891703      -514.0694
  15   1.0000     -18.558255      -504.9958
  16   1.0000     -18.553082      -504.8550
  17   1.0000     -18.552989      -504.8525
  18   1.0000     -10.079043      -274.2647
  19   1.0000     -10.076585      -274.1978
  20   1.0000     -10.065846      -273.9056
  21   1.0000     -10.063964      -273.8544
  22   1.0000     -10.063917      -273.8531
  23   1.0000     -10.061460      -273.7862
  24   1.0000     -10.060172      -273.7512
  25   1.0000     -10.052316      -273.5374
  26   1.0000     -10.051639      -273.5190
  27   1.0000     -10.049018      -273.4477
  28   1.0000     -10.020872      -272.6818
  29   1.0000     -10.020076      -272.6601
  30   1.0000     -10.019235      -272.6372
  31   1.0000     -10.018306      -272.6120
  32   1.0000      -7.790015      -211.9771
  33   1.0000      -7.789759      -211.9701
  34   1.0000      -7.787264      -211.9022
  35   1.0000      -7.787240      -211.9016
  36   1.0000      -7.786891      -211.8921
  37   1.0000      -7.786871      -211.8915
  38   1.0000      -7.784356      -211.8231
  39   1.0000      -7.784220      -211.8194
  40   1.0000      -7.696259      -209.4259
  41   1.0000      -7.695821      -209.4139
  42   1.0000      -7.695244      -209.3982
  43   1.0000      -7.694938      -209.3899
  44   1.0000      -5.755074      -156.6035
  45   1.0000      -5.754814      -156.5964
  46   1.0000      -5.752258      -156.5269
  47   1.0000      -5.752230      -156.5261
  48   1.0000      -5.751804      -156.5145
  49   1.0000      -5.751791      -156.5142
  50   1.0000      -5.751666      -156.5108
  51   1.0000      -5.751408      -156.5038
  52   1.0000      -5.749299      -156.4464
  53   1.0000      -5.749156      -156.4425
  54   1.0000      -5.748836      -156.4338
  55   1.0000      -5.748829      -156.4336
  56   1.0000      -5.747386      -156.3943
  57   1.0000      -5.747364      -156.3937
  58   1.0000      -5.744874      -156.3260
  59   1.0000      -5.744733      -156.3221
  60   1.0000      -5.744680      -156.3207
  61   1.0000      -5.744422      -156.3137
  62   1.0000      -5.742764      -156.2686
  63   1.0000      -5.742754      -156.2683
  64   1.0000      -5.742057      -156.2493
  65   1.0000      -5.742024      -156.2484
  66   1.0000      -5.740187      -156.1984
  67   1.0000      -5.740046      -156.1946
  68   1.0000      -5.661598      -154.0599
  69   1.0000      -5.661137      -154.0474
  70   1.0000      -5.660550      -154.0314
  71   1.0000      -5.660263      -154.0236
  72   1.0000      -5.654913      -153.8780
  73   1.0000      -5.654482      -153.8663
  74   1.0000      -5.653886      -153.8501
  75   1.0000      -5.653610      -153.8426
  76   1.0000      -5.653591      -153.8420
  77   1.0000      -5.653137      -153.8297
  78   1.0000      -5.652565      -153.8141
  79   1.0000      -5.652227      -153.8049
  80   1.0000      -2.445460       -66.5444
  81   1.0000      -1.486763       -40.4569
  82   1.0000      -1.475093       -40.1393
  83   1.0000      -1.474295       -40.1176
  84   1.0000      -0.720459       -19.6047
  85   1.0000      -0.710298       -19.3282
  86   1.0000      -0.695659       -18.9298
  87   1.0000      -0.686418       -18.6784
  88   1.0000      -0.651256       -17.7216
  89   1.0000      -0.640781       -17.4365
  90   1.0000      -0.637556       -17.3488
  91   1.0000      -0.632062       -17.1993
  92   1.0000      -0.617876       -16.8132
  93   1.0000      -0.578285       -15.7359
  94   1.0000      -0.575856       -15.6698
  95   1.0000      -0.575322       -15.6553
  96   1.0000      -0.573894       -15.6165
  97   1.0000      -0.519837       -14.1455
  98   1.0000      -0.504697       -13.7335
  99   1.0000      -0.496900       -13.5213
 100   1.0000      -0.496552       -13.5119
 101   1.0000      -0.483954       -13.1691
 102   1.0000      -0.479503       -13.0479
 103   1.0000      -0.479002       -13.0343
 104   1.0000      -0.447268       -12.1708
 105   1.0000      -0.421725       -11.4757
 106   1.0000      -0.413582       -11.2541
 107   1.0000      -0.356319        -9.6959
 108   1.0000      -0.355935        -9.6855
 109   1.0000      -0.340960        -9.2780
 110   1.0000      -0.326682        -8.8895
 111   1.0000      -0.321689        -8.7536
 112   1.0000      -0.318791        -8.6747
 113   1.0000      -0.312682        -8.5085
 114   1.0000      -0.304494        -8.2857
 115   1.0000      -0.295407        -8.0384
 116   1.0000      -0.294879        -8.0241
 117   1.0000      -0.258261        -7.0276
 118   1.0000      -0.257143        -6.9972
 119   1.0000      -0.255862        -6.9624
 120   1.0000      -0.245213        -6.6726
 121   1.0000      -0.235086        -6.3970
 122   1.0000      -0.233514        -6.3542
 123   1.0000      -0.230336        -6.2678
 124   1.0000      -0.222026        -6.0416
 125   1.0000      -0.219154        -5.9635
 126   1.0000      -0.215092        -5.8530
 127   1.0000      -0.212061        -5.7705
 128   1.0000      -0.205615        -5.5951
 129   1.0000      -0.194897        -5.3034
 130   1.0000      -0.193128        -5.2553
 131   1.0000      -0.188419        -5.1271
 132   1.0000      -0.187033        -5.0894
 133   1.0000      -0.181318        -4.9339
 134   1.0000      -0.161216        -4.3869
 135   1.0000      -0.152810        -4.1582
 136   1.0000      -0.148200        -4.0327
 137   1.0000      -0.137113        -3.7310
 138   1.0000      -0.136200        -3.7062
 139   1.0000      -0.135029        -3.6743
 140   1.0000      -0.126665        -3.4467
 141   1.0000      -0.122811        -3.3419
 142   1.0000      -0.114961        -3.1282
 143   1.0000      -0.111242        -3.0270
 144   1.0000      -0.101984        -2.7751
 145   1.0000      -0.100109        -2.7241
 146   1.0000      -0.099489        -2.7072
 147   1.0000      -0.096083        -2.6146
 148   1.0000      -0.076101        -2.0708
 149   1.0000      -0.070626        -1.9218
 150   1.0000      -0.068165        -1.8549
 151   1.0000      -0.053836        -1.4649
 152   1.0000      -0.047159        -1.2832
 153   1.0000      -0.039810        -1.0833
 154   1.0000      -0.038704        -1.0532
 155   1.0000      -0.033015        -0.8984
 156   1.0000      -0.026676        -0.7259
 157   1.0000      -0.020666        -0.5624
 158   1.0000      -0.016901        -0.4599
 159   1.0000       0.018602         0.5062
 160   1.0000       0.039526         1.0755
 161   0.0000       0.116387         3.1670
 162   0.0000       0.135945         3.6992
 163   0.0000       0.147504         4.0138
 164   0.0000       0.159966         4.3529
 165   0.0000       0.161241         4.3876

                 SPIN DOWN ORBITALS
  NO   OCC          E(Eh)            E(eV)
   0   1.0000    -196.676563     -5351.8414
   1   1.0000     -88.736877     -2414.6532
   2   1.0000     -88.736570     -2414.6448
   3   1.0000     -88.733815     -2414.5699
   4   1.0000     -88.733805     -2414.5696
   5   1.0000     -88.733701     -2414.5668
   6   1.0000     -88.733668     -2414.5658
   7   1.0000     -88.731127     -2414.4967
   8   1.0000     -88.730934     -2414.4915
   9   1.0000     -88.642144     -2412.0754
  10   1.0000     -88.641626     -2412.0613
  11   1.0000     -88.641059     -2412.0458
  12   1.0000     -88.640819     -2412.0393
  13   1.0000     -22.036874      -599.6538
  14   1.0000     -18.895504      -514.1728
  15   1.0000     -18.552982      -504.8523
  16   1.0000     -18.537050      -504.4188
  17   1.0000     -18.536867      -504.4138
  18   1.0000     -10.079042      -274.2647
  19   1.0000     -10.076580      -274.1977
  20   1.0000     -10.065846      -273.9056
  21   1.0000     -10.063963      -273.8544
  22   1.0000     -10.063916      -273.8531
  23   1.0000     -10.061460      -273.7862
  24   1.0000     -10.060172      -273.7512
  25   1.0000     -10.052316      -273.5374
  26   1.0000     -10.051635      -273.5189
  27   1.0000     -10.049007      -273.4474
  28   1.0000     -10.020657      -272.6759
  29   1.0000     -10.019864      -272.6544
  30   1.0000     -10.018997      -272.6308
  31   1.0000     -10.018082      -272.6059
  32   1.0000      -7.790016      -211.9771
  33   1.0000      -7.789759      -211.9701
  34   1.0000      -7.787265      -211.9022
  35   1.0000      -7.787240      -211.9016
  36   1.0000      -7.786901      -211.8923
  37   1.0000      -7.786881      -211.8918
  38   1.0000      -7.784365      -211.8234
  39   1.0000      -7.784230      -211.8197
  40   1.0000      -7.696386      -209.4293
  41   1.0000      -7.695950      -209.4174
  42   1.0000      -7.695375      -209.4018
  43   1.0000      -7.695071      -209.3935
  44   1.0000      -5.755074      -156.6035
  45   1.0000      -5.754815      -156.5965
  46   1.0000      -5.752259      -156.5269
  47   1.0000      -5.752231      -156.5262
  48   1.0000      -5.751814      -156.5148
  49   1.0000      -5.751802      -156.5145
  50   1.0000      -5.751666      -156.5108
  51   1.0000      -5.751409      -156.5038
  52   1.0000      -5.749309      -156.4467
  53   1.0000      -5.749167      -156.4428
  54   1.0000      -5.748837      -156.4338
  55   1.0000      -5.748830      -156.4336
  56   1.0000      -5.747401      -156.3947
  57   1.0000      -5.747378      -156.3941
  58   1.0000      -5.744888      -156.3263
  59   1.0000      -5.744746      -156.3225
  60   1.0000      -5.744681      -156.3207
  61   1.0000      -5.744423      -156.3137
  62   1.0000      -5.742770      -156.2687
  63   1.0000      -5.742760      -156.2684
  64   1.0000      -5.742058      -156.2493
  65   1.0000      -5.742025      -156.2484
  66   1.0000      -5.740195      -156.1987
  67   1.0000      -5.740055      -156.1948
  68   1.0000      -5.661739      -154.0638
  69   1.0000      -5.661278      -154.0512
  70   1.0000      -5.660689      -154.0352
  71   1.0000      -5.660405      -154.0275
  72   1.0000      -5.655261      -153.8875
  73   1.0000      -5.654841      -153.8760
  74   1.0000      -5.654276      -153.8607
  75   1.0000      -5.653996      -153.8531
  76   1.0000      -5.653695      -153.8449
  77   1.0000      -5.653242      -153.8325
  78   1.0000      -5.652652      -153.8165
  79   1.0000      -5.652321      -153.8075
  80   1.0000      -2.400562       -65.3226
  81   1.0000      -1.467444       -39.9312
  82   1.0000      -1.412721       -38.4421
  83   1.0000      -1.412551       -38.4375
  84   1.0000      -0.720454       -19.6046
  85   1.0000      -0.710271       -19.3275
  86   1.0000      -0.695610       -18.9285
  87   1.0000      -0.686362       -18.6769
  88   1.0000      -0.659407       -17.9434
  89   1.0000      -0.640780       -17.4365
  90   1.0000      -0.637501       -17.3473
  91   1.0000      -0.631987       -17.1972
  92   1.0000      -0.617875       -16.8132
  93   1.0000      -0.578262       -15.7353
  94   1.0000      -0.575788       -15.6680
  95   1.0000      -0.575293       -15.6545
  96   1.0000      -0.573813       -15.6142
  97   1.0000      -0.519842       -14.1456
  98   1.0000      -0.504706       -13.7338
  99   1.0000      -0.496919       -13.5219
 100   1.0000      -0.496600       -13.5132
 101   1.0000      -0.484185       -13.1753
 102   1.0000      -0.479536       -13.0488
 103   1.0000      -0.479247       -13.0410
 104   1.0000      -0.447299       -12.1716
 105   1.0000      -0.421754       -11.4765
 106   1.0000      -0.413680       -11.2568
 107   1.0000      -0.356308        -9.6956
 108   1.0000      -0.355925        -9.6852
 109   1.0000      -0.340965        -9.2781
 110   1.0000      -0.326668        -8.8891
 111   1.0000      -0.321688        -8.7536
 112   1.0000      -0.318728        -8.6730
 113   1.0000      -0.312684        -8.5086
 114   1.0000      -0.304448        -8.2845
 115   1.0000      -0.295344        -8.0367
 116   1.0000      -0.294873        -8.0239
 117   1.0000      -0.258177        -7.0253
 118   1.0000      -0.257033        -6.9942
 119   1.0000      -0.255816        -6.9611
 120   1.0000      -0.245117        -6.6700
 121   1.0000      -0.235063        -6.3964
 122   1.0000      -0.233498        -6.3538
 123   1.0000      -0.230297        -6.2667
 124   1.0000      -0.221687        -6.0324
 125   1.0000      -0.219011        -5.9596
 126   1.0000      -0.214891        -5.8475
 127   1.0000      -0.211969        -5.7680
 128   1.0000      -0.205606        -5.5948
 129   1.0000      -0.193224        -5.2579
 130   1.0000      -0.192933        -5.2500
 131   1.0000      -0.188190        -5.1209
 132   1.0000      -0.186730        -5.0812
 133   1.0000      -0.181191        -4.9305
 134   1.0000      -0.160595        -4.3700
 135   1.0000      -0.152650        -4.1538
 136   1.0000      -0.148128        -4.0308
 137   1.0000      -0.136269        -3.7081
 138   1.0000      -0.136073        -3.7027
 139   1.0000      -0.134800        -3.6681
 140   1.0000      -0.126076        -3.4307
 141   1.0000      -0.122474        -3.3327
 142   1.0000      -0.116772        -3.1775
 143   1.0000      -0.112834        -3.0704
 144   1.0000      -0.102056        -2.7771
 145   1.0000      -0.100126        -2.7246
 146   1.0000      -0.099745        -2.7142
 147   1.0000      -0.096389        -2.6229
 148   1.0000      -0.072257        -1.9662
 149   1.0000      -0.070614        -1.9215
 150   1.0000      -0.068168        -1.8550
 151   1.0000      -0.051233        -1.3941
 152   1.0000      -0.046225        -1.2578
 153   1.0000      -0.039841        -1.0841
 154   1.0000      -0.038153        -1.0382
 155   1.0000      -0.033087        -0.9003
 156   1.0000      -0.027709        -0.7540
 157   1.0000      -0.017120        -0.4659
 158   1.0000       0.018912         0.5146
 159   1.0000       0.038406         1.0451
 160   0.0000       0.116388         3.1671
 161   0.0000       0.135952         3.6994
 162   0.0000       0.147342         4.0094
 163   0.0000       0.154873         4.2143
 164   0.0000       0.160244         4.3605

MULLIKEN ATOMIC CHARGES AND SPIN POPULATIONS
--------------------------------------------
   0 V :    0.470712    1.210989
   1 S :   -0.288193   -0.022241
   2 S :   -0.289331   -0.025392
   3 S :   -0.286343   -0.023215
   4 S :   -0.285198   -0.025852
   5 O :   -0.466931   -0.147092
   6 C :   -0.077162    0.009673
   7 C :   -0.084192    0.008121
   8 C :   -0.085030    0.007740
   9 C :   -0.085373    0.007377
  10 S :    0.100027   -0.000587
  11 S :    0.101392   -0.000631
  12 S :    0.105543   -0.000391
  13 S :    0.104689   -0.000343
  14 C :   -0.213823    0.001537
  15 C :   -0.207069    0.001002
  16 C :   -0.191923   -0.000093
  17 C :   -0.201821   -0.000412
  18 S :    0.009392   -0.000112
  19 S :    0.009470   -0.000112
  20 S :    0.012990   -0.000071
  21 S :    0.012705   -0.000073
  22 C :   -0.363007    0.000004
  23 C :   -0.368851    0.000003
  24 C :   -0.124906   -0.000025
  25 H :    0.261101   -0.000002
  26 H :    0.032158    0.000004
  27 H :    0.105990    0.000004
  28 H :    0.068419   -0.000001
  29 H :    0.025029    0.000003
  30 H :    0.271324   -0.000002
  31 C :   -0.300202    0.000197
  32 C :   -0.301092    0.000192
  33 C :   -0.156715   -0.000241
  34 H :    0.145166   -0.000018
  35 H :    0.110500    0.000020
  36 H :    0.091434    0.000023
  37 H :    0.083569    0.000015
  38 H :    0.110470    0.000021
  39 H :    0.145081   -0.000019
Sum of atomic charges         :   -2.0000000

LOEWDIN ATOMIC CHARGES AND SPIN POPULATIONS
-------------------------------------------
   0 V :   -0.155730    1.164302
   1 S :    0.081552   -0.014309
   2 S :    0.079736   -0.016220
   3 S :    0.082845   -0.015122
   4 S :    0.083591   -0.016427
   5 O :   -0.318401   -0.131973
   6 C :   -0.549850    0.009049
   7 C :   -0.552011    0.007976
   8 C :   -0.551557    0.008154
   9 C :   -0.551592    0.007666
  10 S :    0.471496   -0.000904
  11 S :    0.472463   -0.000949
  12 S :    0.476310   -0.000823
  13 S :    0.475616   -0.000826
  14 C :   -0.465114    0.000165
  15 C :   -0.465501   -0.000077
  16 C :   -0.622654    0.000470
  17 C :   -0.624952    0.000085
  18 S :    0.358939   -0.000089
  19 S :    0.360287   -0.000087
  20 S :    0.370657   -0.000075
  21 S :    0.368879   -0.000077
  22 C :   -0.184064   -0.000007
  23 C :   -0.169661   -0.000008
  24 C :   -0.164959   -0.000001
  25 H :   -0.079180   -0.000001
  26 H :    0.066016    0.000002
  27 H :    0.055435   -0.000000
  28 H :    0.078814   -0.000001
  29 H :    0.063754    0.000002
  30 H :   -0.096866   -0.000001
  31 C :   -0.283496    0.000042
  32 C :   -0.283205    0.000036
  33 C :   -0.176872    0.000007
  34 H :    0.059574   -0.000001
  35 H :    0.055598    0.000009
  36 H :    0.061239    0.000005
  37 H :    0.057693    0.000002
  38 H :    0.055631    0.000009
  39 H :    0.059540   -0.000000

  Mayer bond orders larger than 0.100000
B(  0-V ,  1-S ) :   0.7695 B(  0-V ,  2-S ) :   0.7729 B(  0-V ,  3-S ) :   0.7627
B(  0-V ,  4-S ) :   0.7803 B(  0-V ,  5-O ) :   2.1494 B(  1-S ,  8-C ) :   1.1075
B(  2-S ,  6-C ) :   1.1039 B(  3-S ,  9-C ) :   1.1101 B(  4-S ,  7-C ) :   1.1043
B(  6-C ,  7-C ) :   1.6843 B(  6-C , 10-S ) :   0.9352 B(  7-C , 11-S ) :   0.9391
B(  8-C ,  9-C ) :   1.6907 B(  8-C , 13-S ) :   0.9358 B(  9-C , 12-S ) :   0.9376
B( 10-S , 14-C ) :   1.2484 B( 11-S , 14-C ) :   1.2482 B( 12-S , 15-C ) :   1.2520
B( 13-S , 15-C ) :   1.2523 B( 14-C , 16-C ) :   1.4512 B( 15-C , 17-C ) :   1.4264
B( 16-C , 18-S ) :   1.0881 B( 16-C , 19-S ) :   1.0895 B( 17-C , 20-S ) :   1.0900
B( 17-C , 21-S ) :   1.0899 B( 18-S , 32-C ) :   0.9917 B( 19-S , 31-C ) :   0.9918
B( 20-S , 23-C ) :   0.9884 B( 21-S , 22-C ) :   0.9883 B( 22-C , 24-C ) :   0.8854
B( 22-C , 25-H ) :   0.9628 B( 22-C , 26-H ) :   0.9288 B( 23-C , 24-C ) :   0.8848
B( 23-C , 29-H ) :   0.9238 B( 23-C , 30-H ) :   0.9603 B( 24-C , 27-H ) :   0.9731
B( 24-C , 28-H ) :   0.9588 B( 31-C , 33-C ) :   0.9129 B( 31-C , 38-H ) :   0.9651
B( 31-C , 39-H ) :   0.9663 B( 32-C , 33-C ) :   0.9125 B( 32-C , 34-H ) :   0.9662
B( 32-C , 35-H ) :   0.9651 B( 33-C , 36-H ) :   0.9718 B( 33-C , 37-H ) :   0.9628

FINAL SINGLE POINT ENERGY     -6337.249176523695

DIPOLE MOMENT
-------------
                                X             Y             Z
Electronic contribution:     -8.67791      -8.89481      -4.41058
Nuclear contribution   :      9.92506       9.81450       4.41279
                        -----------------------------------------
Total Dipole Moment    :      1.24715       0.91969       0.00221
                        -----------------------------------------
Magnitude (a.u.)       :      1.54959
Magnitude (Debye)      :      3.93874

Rotational constants in cm-1:     0.010758     0.000804     0.000783
Rotational constants in MHz :   322.506153    24.116585    23.486041

                             ****ORCA TERMINATED NORMALLY****
TOTAL RUN TIME: 0 days 1 hours 7 minutes 9 seconds 204 msec
