                         Program Version 5.0.4 -  RELEASE  -
|  1> ! nofrozencore ReducedPop printbasis
|  2> ! B3LYP TZVP
|  3>
|  4> %basis
|  5> newgto V "CP(PPP)" end
|  6> end
|  7>
|  8> %pal
|  9> nprocs 8
| 10> end
| 11>
| 12> % sym SymThresh 1e-2 end
| 13> * xyz -2 2
| 14> V 0.028700289659569327 -0.8105280972921038 0.7623564873387638
| 15> S -2.0584407876703725 0.35945753061946056 1.3902504493931784
| 16> S -1.249086224312348 -1.6518750392610035 -1.183143568436891
| 17> S 1.2064676327424917 1.0906791741056907 1.8251535138483164
| 18> S 1.9770086288801887 -0.8190085070869451 -0.7500650590705378
| 19> O 0.1802258641212752 -2.056636799709053 1.7361661058303852
| 20> C 0.0845327891339707 -2.2457431847767824 -2.167128567267726
| 21> C 1.3787774262831285 -1.9083350024398011 -1.9949402681045754
| 22> C -1.4337131731857504 1.6449069720625538 2.414916999399078
| 23> C -0.1312224287577096 1.9377998336364122 2.5854756749549237
| 24> S -0.27511289024450625 -3.3275046508120725 -3.559223641017566
| 25> S 2.5449606957622963 -2.5754292277395088 -3.1887364403453224
| 26> S 0.2422025339447569 3.3398906715407777 3.6443995908668736
| 27> S -2.607720543980416 2.6965292817329773 3.277784975961681
| 28> C 1.3690871728535603 -3.4382366805233664 -4.164615497747842
| 29> C -1.4268210807110695 3.796246426701734 3.9959334229153285
| 30> C 1.7185979344497748 -4.200307328138363 -5.2484354529171
| 31> C -1.7687059873189208 4.886783845089658 4.747174165174787
| 32> S 0.48557595092221223 -5.045467515806988 -6.222174474607044
| 33> S 3.3952081900748037 -4.211554201554772 -5.861940937279163
| 34> S -3.468942806772528 5.303510753874209 5.080215074546525
| 35> S -0.5370866883239691 5.973287336437984 5.440098422389875
| 36> C -1.0099623290348438 7.534607632768219 4.512709682921605
| 37> C -3.5122118984316364 6.966164560130972 4.210812208218208
| 38> C -2.4678408086154846 7.95573682679893 4.7476037572927625
| 39> H -0.8114343468028019 7.365039575597257 3.4524242300325536
| 40> H -0.3256811869317466 8.306750196460182 4.872858645823458
| 41> H -2.632896529288934 8.933622150363615 4.2721554051547415
| 42> H -2.627179380767745 8.088335696862424 5.822959823447765
| 43> H -4.521933890948036 7.351957311565695 4.371044150421185
| 44> H -3.376638185191342 6.787377983498066 3.1422058351490003
| 45> C 3.7370660154691198 -6.212757705536743 -5.5853509245004105
| 46> C 1.1995826593314347 -6.953665794050236 -5.8890582712168005
| 47> C 2.6831045722204867 -7.041751836238668 -6.407185970267512
| 48> H 1.0865083168134126 -7.128230609585265 -4.818081335327265
| 49> H 0.537758258793941 -7.619758901940765 -6.446122534825518
| 50> H 2.663771393160439 -6.55810279136422 -7.426880220207398
| 51> H 3.019980236069292 -8.11757585945609 -6.570439047768995
| 52> H 4.753050474494338 -6.389746040308062 -5.944365004746729
| 53> H 3.6930593728177588 -6.376106662473674 -4.507578397022477
| 54> *
| 55>
| 56> % eprnmr
| 57> gtensor true
| 58> Nuclei = all H {aiso,adip,aorb,fgrad,rho}
| 59> Nuclei = all V {aiso,adip,aorb,fgrad,rho}
| 60> end
| 61>
| 62>                          ****END OF INPUT****

CARTESIAN COORDINATES (ANGSTROEM)
---------------------------------
  V      0.029011   -0.809712    0.758624
  S     -2.058130    0.360274    1.386517
  S     -1.248776   -1.651059   -1.186877
  S      1.206778    1.091496    1.821421
  S      1.977319   -0.818192   -0.753798
  O      0.180536   -2.055820    1.732433
  C      0.084843   -2.244927   -2.170862
  C      1.379088   -1.907519   -1.998673
  C     -1.433403    1.645723    2.411184
  C     -0.130912    1.938616    2.581743
  S     -0.274802   -3.326688   -3.562957
  S      2.545271   -2.574613   -3.192469
  S      0.242513    3.340707    3.640667
  S     -2.607410    2.697346    3.274052
  C      1.369398   -3.437420   -4.168348
  C     -1.426510    3.797063    3.992200
  C      1.718909   -4.199491   -5.252168
  C     -1.768395    4.887600    4.743441
  S      0.485887   -5.044651   -6.225907
  S      3.395519   -4.210738   -5.865674
  S     -3.468632    5.304327    5.076482
  S     -0.536776    5.974104    5.436365
  C     -1.009652    7.535424    4.508977
  C     -3.511901    6.966981    4.207079
  C     -2.467530    7.956553    4.743871
  H     -0.811124    7.365856    3.448691
  H     -0.325371    8.307567    4.869126
  H     -2.632586    8.934439    4.268422
  H     -2.626869    8.089152    5.819227
  H     -4.521623    7.352774    4.367311
  H     -3.376328    6.788194    3.138473
  C      3.737377   -6.211941   -5.589084
  C      1.199893   -6.952849   -5.892791
  C      2.683415   -7.040935   -6.410919
  H      1.086819   -7.127414   -4.821814
  H      0.538069   -7.618942   -6.449856
  H      2.664082   -6.557286   -7.430613
  H      3.020291   -8.116759   -6.574172
  H      4.753361   -6.388930   -5.948098
  H      3.693370   -6.375290   -4.511311

 Total Charge           Charge          ....   -2
 Multiplicity           Mult            ....    2
 Number of Electrons    NEL             ....  321
 Basis Dimension        Dim             ....  681

ORBITAL ENERGIES
----------------
                 SPIN UP ORBITALS
  NO   OCC          E(Eh)            E(eV)
   0   1.0000    -196.675489     -5351.8121
   1   1.0000     -88.736417     -2414.6407
   2   1.0000     -88.736369     -2414.6394
   3   1.0000     -88.734086     -2414.5772
   4   1.0000     -88.733936     -2414.5732
   5   1.0000     -88.732324     -2414.5293
   6   1.0000     -88.732163     -2414.5249
   7   1.0000     -88.730516     -2414.4801
   8   1.0000     -88.730473     -2414.4789
   9   1.0000     -88.640908     -2412.0417
  10   1.0000     -88.640718     -2412.0366
  11   1.0000     -88.640403     -2412.0280
  12   1.0000     -88.639868     -2412.0134
  13   1.0000     -22.050894      -600.0353
  14   1.0000     -18.890824      -514.0455
  15   1.0000     -18.557343      -504.9710
  16   1.0000     -18.552169      -504.8302
  17   1.0000     -18.552067      -504.8274
  18   1.0000     -10.076030      -274.1827
  19   1.0000     -10.075391      -274.1653
  20   1.0000     -10.072620      -274.0899
  21   1.0000     -10.072284      -274.0808
  22   1.0000     -10.064857      -273.8787
  23   1.0000     -10.064773      -273.8764
  24   1.0000     -10.064742      -273.8756
  25   1.0000     -10.052371      -273.5389
  26   1.0000     -10.050060      -273.4760
  27   1.0000     -10.048847      -273.4430
  28   1.0000     -10.020236      -272.6645
  29   1.0000     -10.019319      -272.6395
  30   1.0000     -10.018421      -272.6151
  31   1.0000     -10.017628      -272.5935
  32   1.0000      -7.787419      -211.9064
  33   1.0000      -7.787281      -211.9027
  34   1.0000      -7.787112      -211.8981
  35   1.0000      -7.787002      -211.8951
  36   1.0000      -7.785678      -211.8591
  37   1.0000      -7.785578      -211.8563
  38   1.0000      -7.783812      -211.8083
  39   1.0000      -7.783782      -211.8075
  40   1.0000      -7.695169      -209.3962
  41   1.0000      -7.694906      -209.3890
  42   1.0000      -7.694649      -209.3820
  43   1.0000      -7.694213      -209.3702
  44   1.0000      -5.752476      -156.5328
  45   1.0000      -5.752345      -156.5293
  46   1.0000      -5.752121      -156.5232
  47   1.0000      -5.752010      -156.5201
  48   1.0000      -5.750526      -156.4798
  49   1.0000      -5.750420      -156.4769
  50   1.0000      -5.749501      -156.4519
  51   1.0000      -5.749385      -156.4487
  52   1.0000      -5.748758      -156.4317
  53   1.0000      -5.748752      -156.4315
  54   1.0000      -5.748720      -156.4306
  55   1.0000      -5.748650      -156.4287
  56   1.0000      -5.746161      -156.3610
  57   1.0000      -5.746052      -156.3580
  58   1.0000      -5.744327      -156.3111
  59   1.0000      -5.744298      -156.3103
  60   1.0000      -5.742121      -156.2511
  61   1.0000      -5.741974      -156.2470
  62   1.0000      -5.741907      -156.2452
  63   1.0000      -5.741780      -156.2418
  64   1.0000      -5.741602      -156.2369
  65   1.0000      -5.741504      -156.2343
  66   1.0000      -5.739625      -156.1831
  67   1.0000      -5.739605      -156.1826
  68   1.0000      -5.660486      -154.0297
  69   1.0000      -5.660256      -154.0234
  70   1.0000      -5.659968      -154.0156
  71   1.0000      -5.659506      -154.0030
  72   1.0000      -5.653803      -153.8478
  73   1.0000      -5.653555      -153.8411
  74   1.0000      -5.653324      -153.8348
  75   1.0000      -5.652890      -153.8230
  76   1.0000      -5.652505      -153.8125
  77   1.0000      -5.652222      -153.8048
  78   1.0000      -5.651977      -153.7981
  79   1.0000      -5.651527      -153.7859
  80   1.0000      -2.444557       -66.5198
  81   1.0000      -1.485869       -40.4326
  82   1.0000      -1.474203       -40.1151
  83   1.0000      -1.473375       -40.0926
  84   1.0000      -0.708382       -19.2760
  85   1.0000      -0.705639       -19.2014
  86   1.0000      -0.683789       -18.6068
  87   1.0000      -0.665402       -18.1065
  88   1.0000      -0.650413       -17.6986
  89   1.0000      -0.631270       -17.1777
  90   1.0000      -0.627620       -17.0784
  91   1.0000      -0.612877       -16.6772
  92   1.0000      -0.587608       -15.9896
  93   1.0000      -0.574945       -15.6450
  94   1.0000      -0.574075       -15.6214
  95   1.0000      -0.572960       -15.5910
  96   1.0000      -0.570207       -15.5161
  97   1.0000      -0.501172       -13.6376
  98   1.0000      -0.496840       -13.5197
  99   1.0000      -0.494894       -13.4668
 100   1.0000      -0.484432       -13.1821
 101   1.0000      -0.481484       -13.1018
 102   1.0000      -0.478362       -13.0169
 103   1.0000      -0.447912       -12.1883
 104   1.0000      -0.446216       -12.1421
 105   1.0000      -0.417226       -11.3533
 106   1.0000      -0.411782       -11.2052
 107   1.0000      -0.353017        -9.6061
 108   1.0000      -0.337817        -9.1925
 109   1.0000      -0.325854        -8.8669
 110   1.0000      -0.319415        -8.6917
 111   1.0000      -0.318898        -8.6777
 112   1.0000      -0.313906        -8.5418
 113   1.0000      -0.304016        -8.2727
 114   1.0000      -0.297624        -8.0988
 115   1.0000      -0.291833        -7.9412
 116   1.0000      -0.288440        -7.8488
 117   1.0000      -0.257986        -7.0201
 118   1.0000      -0.255425        -6.9505
 119   1.0000      -0.254783        -6.9330
 120   1.0000      -0.240427        -6.5424
 121   1.0000      -0.233754        -6.3608
 122   1.0000      -0.229794        -6.2530
 123   1.0000      -0.228784        -6.2255
 124   1.0000      -0.222746        -6.0612
 125   1.0000      -0.219954        -5.9853
 126   1.0000      -0.216976        -5.9042
 127   1.0000      -0.213135        -5.7997
 128   1.0000      -0.212508        -5.7826
 129   1.0000      -0.193583        -5.2677
 130   1.0000      -0.187029        -5.0893
 131   1.0000      -0.182757        -4.9731
 132   1.0000      -0.180800        -4.9198
 133   1.0000      -0.174811        -4.7569
 134   1.0000      -0.160137        -4.3576
 135   1.0000      -0.153379        -4.1736
 136   1.0000      -0.148655        -4.0451
 137   1.0000      -0.134758        -3.6670
 138   1.0000      -0.134348        -3.6558
 139   1.0000      -0.131627        -3.5817
 140   1.0000      -0.124661        -3.3922
 141   1.0000      -0.122113        -3.3229
 142   1.0000      -0.114154        -3.1063
 143   1.0000      -0.109850        -2.9892
 144   1.0000      -0.100763        -2.7419
 145   1.0000      -0.098800        -2.6885
 146   1.0000      -0.098403        -2.6777
 147   1.0000      -0.095961        -2.6112
 148   1.0000      -0.075119        -2.0441
 149   1.0000      -0.067635        -1.8404
 150   1.0000      -0.066488        -1.8092
 151   1.0000      -0.053071        -1.4441
 152   1.0000      -0.046209        -1.2574
 153   1.0000      -0.037751        -1.0272
 154   1.0000      -0.037490        -1.0202
 155   1.0000      -0.031290        -0.8514
 156   1.0000      -0.025733        -0.7002
 157   1.0000      -0.019722        -0.5367
 158   1.0000      -0.016310        -0.4438
 159   1.0000       0.019544         0.5318
 160   1.0000       0.040418         1.0998
 161   0.0000       0.118853         3.2342
 162   0.0000       0.134062         3.6480
 163   0.0000       0.135845         3.6965
 164   0.0000       0.161497         4.3946
 165   0.0000       0.162165         4.4127

                 SPIN DOWN ORBITALS
  NO   OCC          E(Eh)            E(eV)
   0   1.0000    -196.675636     -5351.8161
   1   1.0000     -88.736418     -2414.6407
   2   1.0000     -88.736370     -2414.6394
   3   1.0000     -88.734087     -2414.5773
   4   1.0000     -88.733937     -2414.5732
   5   1.0000     -88.732333     -2414.5295
   6   1.0000     -88.732172     -2414.5252
   7   1.0000     -88.730524     -2414.4803
   8   1.0000     -88.730481     -2414.4791
   9   1.0000     -88.641048     -2412.0455
  10   1.0000     -88.640859     -2412.0404
  11   1.0000     -88.640541     -2412.0317
  12   1.0000     -88.640008     -2412.0172
  13   1.0000     -22.035964      -599.6291
  14   1.0000     -18.894606      -514.1484
  15   1.0000     -18.552077      -504.8277
  16   1.0000     -18.536136      -504.3939
  17   1.0000     -18.535953      -504.3889
  18   1.0000     -10.076029      -274.1827
  19   1.0000     -10.075383      -274.1651
  20   1.0000     -10.072617      -274.0898
  21   1.0000     -10.072281      -274.0807
  22   1.0000     -10.064857      -273.8787
  23   1.0000     -10.064774      -273.8764
  24   1.0000     -10.064742      -273.8756
  25   1.0000     -10.052371      -273.5389
  26   1.0000     -10.050050      -273.4758
  27   1.0000     -10.048843      -273.4429
  28   1.0000     -10.019998      -272.6580
  29   1.0000     -10.019095      -272.6334
  30   1.0000     -10.018207      -272.6093
  31   1.0000     -10.017416      -272.5877
  32   1.0000      -7.787420      -211.9065
  33   1.0000      -7.787281      -211.9027
  34   1.0000      -7.787112      -211.8981
  35   1.0000      -7.787003      -211.8951
  36   1.0000      -7.785688      -211.8593
  37   1.0000      -7.785588      -211.8566
  38   1.0000      -7.783821      -211.8085
  39   1.0000      -7.783791      -211.8077
  40   1.0000      -7.695300      -209.3998
  41   1.0000      -7.695038      -209.3926
  42   1.0000      -7.694777      -209.3855
  43   1.0000      -7.694344      -209.3737
  44   1.0000      -5.752477      -156.5329
  45   1.0000      -5.752346      -156.5293
  46   1.0000      -5.752122      -156.5232
  47   1.0000      -5.752011      -156.5202
  48   1.0000      -5.750537      -156.4801
  49   1.0000      -5.750431      -156.4772
  50   1.0000      -5.749502      -156.4519
  51   1.0000      -5.749387      -156.4488
  52   1.0000      -5.748763      -156.4318
  53   1.0000      -5.748759      -156.4317
  54   1.0000      -5.748731      -156.4309
  55   1.0000      -5.748651      -156.4287
  56   1.0000      -5.746175      -156.3614
  57   1.0000      -5.746066      -156.3584
  58   1.0000      -5.744341      -156.3115
  59   1.0000      -5.744312      -156.3107
  60   1.0000      -5.742122      -156.2511
  61   1.0000      -5.741974      -156.2471
  62   1.0000      -5.741908      -156.2453
  63   1.0000      -5.741781      -156.2418
  64   1.0000      -5.741611      -156.2372
  65   1.0000      -5.741514      -156.2345
  66   1.0000      -5.739631      -156.1833
  67   1.0000      -5.739611      -156.1828
  68   1.0000      -5.660625      -154.0335
  69   1.0000      -5.660398      -154.0273
  70   1.0000      -5.660111      -154.0194
  71   1.0000      -5.659648      -154.0068
  72   1.0000      -5.654190      -153.8583
  73   1.0000      -5.653937      -153.8515
  74   1.0000      -5.653676      -153.8444
  75   1.0000      -5.653252      -153.8328
  76   1.0000      -5.652593      -153.8149
  77   1.0000      -5.652317      -153.8074
  78   1.0000      -5.652084      -153.8010
  79   1.0000      -5.651634      -153.7888
  80   1.0000      -2.399675       -65.2985
  81   1.0000      -1.466581       -39.9077
  82   1.0000      -1.411824       -38.4177
  83   1.0000      -1.411659       -38.4132
  84   1.0000      -0.708362       -19.2755
  85   1.0000      -0.705585       -19.1999
  86   1.0000      -0.683750       -18.6058
  87   1.0000      -0.665370       -18.1056
  88   1.0000      -0.658520       -17.9192
  89   1.0000      -0.631212       -17.1762
  90   1.0000      -0.627548       -17.0764
  91   1.0000      -0.612879       -16.6773
  92   1.0000      -0.587602       -15.9895
  93   1.0000      -0.574922       -15.6444
  94   1.0000      -0.574051       -15.6207
  95   1.0000      -0.572895       -15.5893
  96   1.0000      -0.570125       -15.5139
  97   1.0000      -0.501198       -13.6383
  98   1.0000      -0.496884       -13.5209
  99   1.0000      -0.494921       -13.4675
 100   1.0000      -0.484464       -13.1829
 101   1.0000      -0.481692       -13.1075
 102   1.0000      -0.478615       -13.0238
 103   1.0000      -0.447925       -12.1887
 104   1.0000      -0.446254       -12.1432
 105   1.0000      -0.417225       -11.3533
 106   1.0000      -0.411897       -11.2083
 107   1.0000      -0.353012        -9.6059
 108   1.0000      -0.337794        -9.1919
 109   1.0000      -0.325844        -8.8667
 110   1.0000      -0.319392        -8.6911
 111   1.0000      -0.318813        -8.6753
 112   1.0000      -0.313930        -8.5425
 113   1.0000      -0.303980        -8.2717
 114   1.0000      -0.297599        -8.0981
 115   1.0000      -0.291829        -7.9411
 116   1.0000      -0.288435        -7.8487
 117   1.0000      -0.257812        -7.0154
 118   1.0000      -0.255390        -6.9495
 119   1.0000      -0.254726        -6.9315
 120   1.0000      -0.240391        -6.5414
 121   1.0000      -0.233717        -6.3598
 122   1.0000      -0.229744        -6.2517
 123   1.0000      -0.228750        -6.2246
 124   1.0000      -0.222657        -6.0588
 125   1.0000      -0.219658        -5.9772
 126   1.0000      -0.216679        -5.8961
 127   1.0000      -0.213107        -5.7989
 128   1.0000      -0.212356        -5.7785
 129   1.0000      -0.191629        -5.2145
 130   1.0000      -0.186955        -5.0873
 131   1.0000      -0.182563        -4.9678
 132   1.0000      -0.180625        -4.9151
 133   1.0000      -0.174705        -4.7540
 134   1.0000      -0.159509        -4.3405
 135   1.0000      -0.153235        -4.1697
 136   1.0000      -0.148573        -4.0429
 137   1.0000      -0.134376        -3.6566
 138   1.0000      -0.133875        -3.6429
 139   1.0000      -0.130969        -3.5639
 140   1.0000      -0.124434        -3.3860
 141   1.0000      -0.121783        -3.3139
 142   1.0000      -0.115936        -3.1548
 143   1.0000      -0.111368        -3.0305
 144   1.0000      -0.100789        -2.7426
 145   1.0000      -0.099100        -2.6966
 146   1.0000      -0.098423        -2.6782
 147   1.0000      -0.096272        -2.6197
 148   1.0000      -0.071293        -1.9400
 149   1.0000      -0.067622        -1.8401
 150   1.0000      -0.066492        -1.8093
 151   1.0000      -0.050487        -1.3738
 152   1.0000      -0.045276        -1.2320
 153   1.0000      -0.037534        -1.0214
 154   1.0000      -0.037173        -1.0115
 155   1.0000      -0.031315        -0.8521
 156   1.0000      -0.026778        -0.7287
 157   1.0000      -0.016524        -0.4496
 158   1.0000       0.019818         0.5393
 159   1.0000       0.039332         1.0703
 160   0.0000       0.118859         3.2343
 161   0.0000       0.134079         3.6485
 162   0.0000       0.135835         3.6962
 163   0.0000       0.155314         4.2263
 164   0.0000       0.161701         4.4001

MULLIKEN ATOMIC CHARGES AND SPIN POPULATIONS
--------------------------------------------
   0 V :    0.471441    1.210693
   1 S :   -0.290912   -0.022570
   2 S :   -0.287515   -0.025280
   3 S :   -0.288939   -0.023519
   4 S :   -0.283470   -0.025773
   5 O :   -0.467358   -0.146699
   6 C :   -0.081005    0.009745
   7 C :   -0.088014    0.008154
   8 C :   -0.084583    0.007743
   9 C :   -0.084994    0.007382
  10 S :    0.112651   -0.000667
  11 S :    0.114032   -0.000689
  12 S :    0.101420   -0.000394
  13 S :    0.100594   -0.000347
  14 C :   -0.205281    0.001867
  15 C :   -0.210160    0.000996
  16 C :   -0.171161   -0.000135
  17 C :   -0.189401   -0.000402
  18 S :   -0.021499   -0.000132
  19 S :   -0.018810   -0.000131
  20 S :    0.004924   -0.000068
  21 S :    0.004950   -0.000070
  22 C :   -0.300427   -0.000003
  23 C :   -0.299817   -0.000003
  24 C :   -0.162704   -0.000011
  25 H :    0.144405   -0.000001
  26 H :    0.113928   -0.000004
  27 H :    0.084704   -0.000001
  28 H :    0.094483   -0.000001
  29 H :    0.113605   -0.000004
  30 H :    0.143973   -0.000001
  31 C :   -0.304199    0.000247
  32 C :   -0.306131    0.000249
  33 C :   -0.183833   -0.000215
  34 H :    0.149663   -0.000016
  35 H :    0.114470    0.000012
  36 H :    0.110779    0.000048
  37 H :    0.086346    0.000005
  38 H :    0.114344    0.000012
  39 H :    0.149501   -0.000015
Sum of atomic charges         :   -2.0000000

LOEWDIN ATOMIC CHARGES AND SPIN POPULATIONS
-------------------------------------------
   0 V :   -0.156143    1.164047
   1 S :    0.079991   -0.014584
   2 S :    0.080025   -0.016083
   3 S :    0.081356   -0.015384
   4 S :    0.083825   -0.016320
   5 O :   -0.318643   -0.131606
   6 C :   -0.547176    0.009055
   7 C :   -0.549363    0.007983
   8 C :   -0.552072    0.008136
   9 C :   -0.552064    0.007667
  10 S :    0.482518   -0.000954
  11 S :    0.483537   -0.000986
  12 S :    0.472585   -0.000826
  13 S :    0.471847   -0.000830
  14 C :   -0.476268    0.000288
  15 C :   -0.466559   -0.000078
  16 C :   -0.634119    0.000470
  17 C :   -0.624117    0.000085
  18 S :    0.300005   -0.000100
  19 S :    0.304492   -0.000098
  20 S :    0.351651   -0.000073
  21 S :    0.351265   -0.000075
  22 C :   -0.275904   -0.000008
  23 C :   -0.275997   -0.000009
  24 C :   -0.176468   -0.000002
  25 H :    0.062972   -0.000001
  26 H :    0.053449   -0.000002
  27 H :    0.058004   -0.000002
  28 H :    0.060876   -0.000001
  29 H :    0.053388   -0.000002
  30 H :    0.062810   -0.000001
  31 C :   -0.235642    0.000130
  32 C :   -0.232447    0.000129
  33 C :   -0.185799   -0.000001
  34 H :    0.064438    0.000002
  35 H :    0.052784    0.000007
  36 H :    0.069238    0.000013
  37 H :    0.060624    0.000006
  38 H :    0.052887    0.000007
  39 H :    0.064211    0.000002

  Mayer bond orders larger than 0.100000
B(  0-V ,  1-S ) :   0.7724 B(  0-V ,  2-S ) :   0.7697 B(  0-V ,  3-S ) :   0.7658
B(  0-V ,  4-S ) :   0.7770 B(  0-V ,  5-O ) :   2.1491 B(  1-S ,  8-C ) :   1.1035
B(  2-S ,  6-C ) :   1.1066 B(  3-S ,  9-C ) :   1.1063 B(  4-S ,  7-C ) :   1.1067
B(  6-C ,  7-C ) :   1.6748 B(  6-C , 10-S ) :   0.9396 B(  7-C , 11-S ) :   0.9439
B(  8-C ,  9-C ) :   1.6982 B(  8-C , 13-S ) :   0.9340 B(  9-C , 12-S ) :   0.9358
B( 10-S , 14-C ) :   1.2614 B( 11-S , 14-C ) :   1.2610 B( 12-S , 15-C ) :   1.2481
B( 13-S , 15-C ) :   1.2481 B( 14-C , 16-C ) :   1.3913 B( 15-C , 17-C ) :   1.4458
B( 16-C , 18-S ) :   1.1047 B( 16-C , 19-S ) :   1.1022 B( 17-C , 20-S ) :   1.0903
B( 17-C , 21-S ) :   1.0909 B( 18-S , 32-C ) :   0.9403 B( 19-S , 31-C ) :   0.9458
B( 20-S , 23-C ) :   0.9845 B( 21-S , 22-C ) :   0.9838 B( 22-C , 24-C ) :   0.9123
B( 22-C , 25-H ) :   0.9664 B( 22-C , 26-H ) :   0.9664 B( 23-C , 24-C ) :   0.9131
B( 23-C , 29-H ) :   0.9665 B( 23-C , 30-H ) :   0.9662 B( 24-C , 27-H ) :   0.9595
B( 24-C , 28-H ) :   0.9738 B( 31-C , 33-C ) :   0.9065 B( 31-C , 38-H ) :   0.9669
B( 31-C , 39-H ) :   0.9665 B( 32-C , 33-C ) :   0.9065 B( 32-C , 34-H ) :   0.9662
B( 32-C , 35-H ) :   0.9665 B( 33-C , 36-H ) :   0.9826 B( 33-C , 37-H ) :   0.9377

FINAL SINGLE POINT ENERGY     -6337.681807054844

DIPOLE MOMENT
-------------
                                X             Y             Z
Electronic contribution:     -1.19169      -7.03122      11.57018
Nuclear contribution   :      1.25012       8.04594     -12.69472
                        -----------------------------------------
Total Dipole Moment    :      0.05843       1.01472      -1.12454
                        -----------------------------------------
Magnitude (a.u.)       :      1.51580
Magnitude (Debye)      :      3.85287

Rotational constants in cm-1:     0.010631     0.000804     0.000783
Rotational constants in MHz :   318.716184    24.091529    23.470813

                             ****ORCA TERMINATED NORMALLY****
TOTAL RUN TIME: 0 days 1 hours 1 minutes 59 seconds 261 msec
