                         Program Version 5.0.4 -  RELEASE  -
|  1> ! nofrozencore ReducedPop printbasis
|  2> ! B3LYP TZVP
|  3>
|  4> %basis
|  5> newgto V "CP(PPP)" end
|  6> end
|  7>
|  8> %pal
|  9> nprocs 8
| 10> end
| 11>
| 12> % sym SymThresh 1e-2 end
| 13> * xyz -2 2
| 14> V 1.009057704462149 -0.2677534919467239 0.2306250858816401
| 15> S 1.1180871155238146 -0.2888738177791282 -2.206127545889028
| 16> S 1.009989378709704 2.1647262420533715 -0.05228769300775639
| 17> S -0.15778590138118884 -2.4154993747610782 0.13975671504498793
| 18> S -0.3509786459248372 -0.012106471545954307 2.2423693690675663
| 19> O 2.4771368241151968 -0.589992054788229 0.7371893971349825
| 20> C 0.4758754865365912 2.5630357718539876 1.5828730711419652
| 21> C -0.05988243022023235 1.7109533014806848 2.4793678604084275
| 22> C 0.5788748178717276 -1.9437516872377734 -2.493188863617091
| 23> C 0.07298655272605205 -2.7811648469789696 -1.5676402494869828
| 24> S 0.6358926449351455 4.270329842436898 2.1244533691213925
| 25> S -0.539255495656766 2.421541891651178 4.057884204323653
| 26> S -0.5764657168847364 -4.340994229482173 -2.1822973602268387
| 27> S 0.5267487990640212 -2.5247945041728252 -4.194284563515964
| 28> C -0.062379749139320484 4.106358728472242 3.75214592495763
| 29> C -0.28033143316630954 -4.084159854640088 -3.9156777515763688
| 30> C -0.22706441411970418 5.142541385501516 4.648240132907359
| 31> C -0.5910002232984096 -4.992665678431937 -4.904258450496871
| 32> S 0.24150610565947142 6.844982821976882 4.345983683785822
| 33> S -0.9954917683067879 4.986877735135014 6.259164451204657
| 34> S -0.23828689647931778 -4.763084444780121 -6.644034604433958
| 35> S -1.3653324182476256 -6.581218292504489 -4.616275574645904
| 36> C -2.967335574208534 -6.288556897528839 -5.512100177621952
| 37> C -1.9803787231890502 -4.701775178441929 -7.2889903237939935
| 38> C -2.8166719296382254 -5.954159180058726 -7.000782158187503
| 39> H -3.498994184487251 -5.49193634611329 -4.985220017942456
| 40> H -3.5355885916085703 -7.214575040621292 -5.388776695067499
| 41> H -3.8259893872871724 -5.796589923924635 -7.421042611486902
| 42> H -2.3769186165374463 -6.815533014615948 -7.52501929781238
| 43> H -1.8782653211900278 -4.556849848420797 -8.367899139559
| 44> H -2.456158211653102 -3.811002688909443 -6.870791681250789
| 45> C 0.4654887428001107 5.401912444855087 7.331298893253506
| 46> C 1.5524969802354602 7.027230344719849 5.652358455510434
| 47> C 1.0694092448703123 6.790003640510704 7.08817930870377
| 48> H 2.3686535881005493 6.345451018727838 5.398804225245923
| 49> H 1.9198596071007112 8.051327014066201 5.542236866480981
| 50> H 0.33268645551799125 7.562368160686723 7.3583141130574585
| 51> H 1.9341573730825687 6.911859789839289 7.766106719928017
| 52> H 0.09342607045587344 5.326197552526614 8.356751071212942
| 53> H 1.214886838585349 4.619652812766123 7.184076981502922
| 54> *
| 55>
| 56> % eprnmr
| 57> gtensor true
| 58> Nuclei = all H {aiso,adip,aorb,fgrad,rho}
| 59> Nuclei = all V {aiso,adip,aorb,fgrad,rho}
| 60> end
| 61>
| 62>                          ****END OF INPUT****

CARTESIAN COORDINATES (ANGSTROEM)
---------------------------------
  V      1.006224   -0.265270    0.231333
  S      1.115254   -0.286390   -2.205420
  S      1.007156    2.167210   -0.051580
  S     -0.160619   -2.413016    0.140465
  S     -0.353812   -0.009623    2.243077
  O      2.474304   -0.587508    0.737897
  C      0.473042    2.565520    1.583581
  C     -0.062716    1.713437    2.480076
  C      0.576042   -1.941268   -2.492481
  C      0.070153   -2.778681   -1.566932
  S      0.633059    4.272814    2.125161
  S     -0.542089    2.424026    4.058592
  S     -0.579299   -4.338510   -2.181590
  S      0.523916   -2.522311   -4.193577
  C     -0.065213    4.108843    3.752854
  C     -0.283165   -4.081676   -3.914970
  C     -0.229898    5.145025    4.648948
  C     -0.593833   -4.990182   -4.903551
  S      0.238673    6.847467    4.346691
  S     -0.998325    4.989362    6.259872
  S     -0.241120   -4.760601   -6.643327
  S     -1.368166   -6.578734   -4.615568
  C     -2.970169   -6.286073   -5.511392
  C     -1.983212   -4.699291   -7.288283
  C     -2.819505   -5.951675   -7.000074
  H     -3.501827   -5.489453   -4.984512
  H     -3.538422   -7.212091   -5.388069
  H     -3.828823   -5.794106   -7.420335
  H     -2.379752   -6.813049   -7.524311
  H     -1.881099   -4.554366   -8.367191
  H     -2.458991   -3.808519   -6.870084
  C      0.462655    5.404396    7.332007
  C      1.549664    7.029714    5.653066
  C      1.066576    6.792487    7.088887
  H      2.365820    6.347935    5.399512
  H      1.917026    8.053811    5.542945
  H      0.329853    7.564852    7.359022
  H      1.931324    6.914344    7.766815
  H      0.090593    5.328681    8.357459
  H      1.212054    4.622137    7.184785

 Total Charge           Charge          ....   -2
 Multiplicity           Mult            ....    2
 Number of Electrons    NEL             ....  321
 Basis Dimension        Dim             ....  681

ORBITAL ENERGIES
----------------
                 SPIN UP ORBITALS
  NO   OCC          E(Eh)            E(eV)
   0   1.0000    -196.671519     -5351.7041
   1   1.0000     -88.732122     -2414.5238
   2   1.0000     -88.732003     -2414.5206
   3   1.0000     -88.731847     -2414.5163
   4   1.0000     -88.731827     -2414.5158
   5   1.0000     -88.731529     -2414.5076
   6   1.0000     -88.731505     -2414.5070
   7   1.0000     -88.731398     -2414.5041
   8   1.0000     -88.731272     -2414.5007
   9   1.0000     -88.642089     -2412.0739
  10   1.0000     -88.642046     -2412.0727
  11   1.0000     -88.641943     -2412.0699
  12   1.0000     -88.641367     -2412.0542
  13   1.0000     -22.047269      -599.9367
  14   1.0000     -18.889207      -514.0015
  15   1.0000     -18.553720      -504.8724
  16   1.0000     -18.548480      -504.7298
  17   1.0000     -18.548423      -504.7282
  18   1.0000     -10.080869      -274.3144
  19   1.0000     -10.080791      -274.3123
  20   1.0000     -10.063210      -273.8339
  21   1.0000     -10.063151      -273.8323
  22   1.0000     -10.063148      -273.8322
  23   1.0000     -10.063116      -273.8313
  24   1.0000     -10.053083      -273.5583
  25   1.0000     -10.052779      -273.5500
  26   1.0000     -10.051533      -273.5161
  27   1.0000     -10.051368      -273.5116
  28   1.0000     -10.021974      -272.7118
  29   1.0000     -10.021179      -272.6901
  30   1.0000     -10.021051      -272.6867
  31   1.0000     -10.020392      -272.6687
  32   1.0000      -7.785333      -211.8497
  33   1.0000      -7.785228      -211.8468
  34   1.0000      -7.785021      -211.8412
  35   1.0000      -7.784983      -211.8401
  36   1.0000      -7.784559      -211.8286
  37   1.0000      -7.784536      -211.8280
  38   1.0000      -7.784409      -211.8245
  39   1.0000      -7.784333      -211.8225
  40   1.0000      -7.696502      -209.4325
  41   1.0000      -7.696457      -209.4312
  42   1.0000      -7.696258      -209.4258
  43   1.0000      -7.695892      -209.4159
  44   1.0000      -5.750344      -156.4748
  45   1.0000      -5.750237      -156.4719
  46   1.0000      -5.750039      -156.4665
  47   1.0000      -5.750004      -156.4656
  48   1.0000      -5.749576      -156.4539
  49   1.0000      -5.749552      -156.4533
  50   1.0000      -5.749435      -156.4501
  51   1.0000      -5.749354      -156.4479
  52   1.0000      -5.746967      -156.3829
  53   1.0000      -5.746867      -156.3802
  54   1.0000      -5.746667      -156.3748
  55   1.0000      -5.746634      -156.3739
  56   1.0000      -5.745021      -156.3300
  57   1.0000      -5.745003      -156.3295
  58   1.0000      -5.744854      -156.3254
  59   1.0000      -5.744774      -156.3232
  60   1.0000      -5.740398      -156.2042
  61   1.0000      -5.740387      -156.2039
  62   1.0000      -5.740264      -156.2005
  63   1.0000      -5.740190      -156.1985
  64   1.0000      -5.740082      -156.1956
  65   1.0000      -5.739970      -156.1925
  66   1.0000      -5.739754      -156.1866
  67   1.0000      -5.739719      -156.1857
  68   1.0000      -5.661907      -154.0683
  69   1.0000      -5.661859      -154.0670
  70   1.0000      -5.661692      -154.0625
  71   1.0000      -5.661262      -154.0508
  72   1.0000      -5.655102      -153.8832
  73   1.0000      -5.655062      -153.8820
  74   1.0000      -5.654889      -153.8774
  75   1.0000      -5.654490      -153.8665
  76   1.0000      -5.653729      -153.8458
  77   1.0000      -5.653710      -153.8453
  78   1.0000      -5.653457      -153.8384
  79   1.0000      -5.653121      -153.8292
  80   1.0000      -2.441877       -66.4468
  81   1.0000      -1.483676       -40.3729
  82   1.0000      -1.471603       -40.0444
  83   1.0000      -1.471106       -40.0308
  84   1.0000      -0.705589       -19.2001
  85   1.0000      -0.704972       -19.1833
  86   1.0000      -0.684261       -18.6197
  87   1.0000      -0.684122       -18.6159
  88   1.0000      -0.648964       -17.6592
  89   1.0000      -0.630041       -17.1443
  90   1.0000      -0.629667       -17.1341
  91   1.0000      -0.612927       -16.6786
  92   1.0000      -0.612383       -16.6638
  93   1.0000      -0.575292       -15.6545
  94   1.0000      -0.574141       -15.6232
  95   1.0000      -0.573648       -15.6097
  96   1.0000      -0.573365       -15.6021
  97   1.0000      -0.497224       -13.5302
  98   1.0000      -0.495026       -13.4704
  99   1.0000      -0.493648       -13.4329
 100   1.0000      -0.492385       -13.3985
 101   1.0000      -0.481048       -13.0900
 102   1.0000      -0.478152       -13.0112
 103   1.0000      -0.447977       -12.1901
 104   1.0000      -0.444994       -12.1089
 105   1.0000      -0.419058       -11.4032
 106   1.0000      -0.413216       -11.2442
 107   1.0000      -0.354985        -9.6596
 108   1.0000      -0.354939        -9.6584
 109   1.0000      -0.324798        -8.8382
 110   1.0000      -0.324511        -8.8304
 111   1.0000      -0.319194        -8.6857
 112   1.0000      -0.313164        -8.5216
 113   1.0000      -0.306185        -8.3317
 114   1.0000      -0.305331        -8.3085
 115   1.0000      -0.290994        -7.9184
 116   1.0000      -0.290611        -7.9079
 117   1.0000      -0.258773        -7.0416
 118   1.0000      -0.256793        -6.9877
 119   1.0000      -0.256282        -6.9738
 120   1.0000      -0.254717        -6.9312
 121   1.0000      -0.233408        -6.3514
 122   1.0000      -0.233049        -6.3416
 123   1.0000      -0.227628        -6.1941
 124   1.0000      -0.226115        -6.1529
 125   1.0000      -0.220700        -6.0056
 126   1.0000      -0.217061        -5.9065
 127   1.0000      -0.212690        -5.7876
 128   1.0000      -0.211735        -5.7616
 129   1.0000      -0.195641        -5.3237
 130   1.0000      -0.187091        -5.0910
 131   1.0000      -0.186487        -5.0746
 132   1.0000      -0.184270        -5.0142
 133   1.0000      -0.176813        -4.8113
 134   1.0000      -0.159267        -4.3339
 135   1.0000      -0.150562        -4.0970
 136   1.0000      -0.144654        -3.9362
 137   1.0000      -0.135621        -3.6904
 138   1.0000      -0.134415        -3.6576
 139   1.0000      -0.130967        -3.5638
 140   1.0000      -0.124440        -3.3862
 141   1.0000      -0.118306        -3.2193
 142   1.0000      -0.115026        -3.1300
 143   1.0000      -0.109887        -2.9902
 144   1.0000      -0.100841        -2.7440
 145   1.0000      -0.099652        -2.7117
 146   1.0000      -0.097544        -2.6543
 147   1.0000      -0.097509        -2.6534
 148   1.0000      -0.077675        -2.1137
 149   1.0000      -0.061234        -1.6663
 150   1.0000      -0.060718        -1.6522
 151   1.0000      -0.058244        -1.5849
 152   1.0000      -0.045138        -1.2283
 153   1.0000      -0.043841        -1.1930
 154   1.0000      -0.039740        -1.0814
 155   1.0000      -0.032201        -0.8762
 156   1.0000      -0.026888        -0.7317
 157   1.0000      -0.018449        -0.5020
 158   1.0000      -0.017701        -0.4817
 159   1.0000       0.017660         0.4806
 160   1.0000       0.039564         1.0766
 161   0.0000       0.135509         3.6874
 162   0.0000       0.135651         3.6912
 163   0.0000       0.162186         4.4133
 164   0.0000       0.162472         4.4211
 165   0.0000       0.170873         4.6497

                 SPIN DOWN ORBITALS
  NO   OCC          E(Eh)            E(eV)
   0   1.0000    -196.671665     -5351.7081
   1   1.0000     -88.732122     -2414.5238
   2   1.0000     -88.732004     -2414.5206
   3   1.0000     -88.731848     -2414.5163
   4   1.0000     -88.731828     -2414.5158
   5   1.0000     -88.731534     -2414.5078
   6   1.0000     -88.731511     -2414.5072
   7   1.0000     -88.731402     -2414.5042
   8   1.0000     -88.731276     -2414.5008
   9   1.0000     -88.642228     -2412.0776
  10   1.0000     -88.642184     -2412.0765
  11   1.0000     -88.642083     -2412.0737
  12   1.0000     -88.641507     -2412.0580
  13   1.0000     -22.032476      -599.5342
  14   1.0000     -18.892978      -514.1041
  15   1.0000     -18.548523      -504.7310
  16   1.0000     -18.532651      -504.2991
  17   1.0000     -18.532380      -504.2917
  18   1.0000     -10.080858      -274.3141
  19   1.0000     -10.080787      -274.3122
  20   1.0000     -10.063209      -273.8338
  21   1.0000     -10.063151      -273.8323
  22   1.0000     -10.063147      -273.8321
  23   1.0000     -10.063116      -273.8313
  24   1.0000     -10.053083      -273.5583
  25   1.0000     -10.052779      -273.5500
  26   1.0000     -10.051518      -273.5157
  27   1.0000     -10.051362      -273.5115
  28   1.0000     -10.021701      -272.7044
  29   1.0000     -10.020935      -272.6835
  30   1.0000     -10.020795      -272.6797
  31   1.0000     -10.020150      -272.6622
  32   1.0000      -7.785333      -211.8497
  33   1.0000      -7.785228      -211.8468
  34   1.0000      -7.785021      -211.8412
  35   1.0000      -7.784983      -211.8402
  36   1.0000      -7.784566      -211.8288
  37   1.0000      -7.784542      -211.8282
  38   1.0000      -7.784413      -211.8247
  39   1.0000      -7.784338      -211.8226
  40   1.0000      -7.696631      -209.4360
  41   1.0000      -7.696586      -209.4347
  42   1.0000      -7.696387      -209.4293
  43   1.0000      -7.696022      -209.4194
  44   1.0000      -5.750345      -156.4748
  45   1.0000      -5.750238      -156.4719
  46   1.0000      -5.750040      -156.4666
  47   1.0000      -5.750005      -156.4656
  48   1.0000      -5.749582      -156.4541
  49   1.0000      -5.749558      -156.4534
  50   1.0000      -5.749438      -156.4502
  51   1.0000      -5.749358      -156.4480
  52   1.0000      -5.746968      -156.3829
  53   1.0000      -5.746868      -156.3802
  54   1.0000      -5.746668      -156.3748
  55   1.0000      -5.746635      -156.3739
  56   1.0000      -5.745031      -156.3302
  57   1.0000      -5.745013      -156.3298
  58   1.0000      -5.744860      -156.3256
  59   1.0000      -5.744780      -156.3234
  60   1.0000      -5.740402      -156.2043
  61   1.0000      -5.740391      -156.2040
  62   1.0000      -5.740268      -156.2006
  63   1.0000      -5.740195      -156.1987
  64   1.0000      -5.740082      -156.1956
  65   1.0000      -5.739971      -156.1925
  66   1.0000      -5.739754      -156.1867
  67   1.0000      -5.739719      -156.1857
  68   1.0000      -5.662045      -154.0721
  69   1.0000      -5.662005      -154.0710
  70   1.0000      -5.661833      -154.0663
  71   1.0000      -5.661405      -154.0547
  72   1.0000      -5.655478      -153.8934
  73   1.0000      -5.655408      -153.8915
  74   1.0000      -5.655261      -153.8875
  75   1.0000      -5.654846      -153.8762
  76   1.0000      -5.653821      -153.8483
  77   1.0000      -5.653820      -153.8483
  78   1.0000      -5.653555      -153.8411
  79   1.0000      -5.653232      -153.8323
  80   1.0000      -2.397365       -65.2356
  81   1.0000      -1.464644       -39.8550
  82   1.0000      -1.410243       -38.3747
  83   1.0000      -1.409292       -38.3488
  84   1.0000      -0.705561       -19.1993
  85   1.0000      -0.704927       -19.1820
  86   1.0000      -0.684203       -18.6181
  87   1.0000      -0.684046       -18.6138
  88   1.0000      -0.657030       -17.8787
  89   1.0000      -0.629976       -17.1425
  90   1.0000      -0.629577       -17.1316
  91   1.0000      -0.612928       -16.6786
  92   1.0000      -0.612382       -16.6637
  93   1.0000      -0.575173       -15.6512
  94   1.0000      -0.574020       -15.6199
  95   1.0000      -0.573580       -15.6079
  96   1.0000      -0.573287       -15.5999
  97   1.0000      -0.497204       -13.5296
  98   1.0000      -0.495023       -13.4703
  99   1.0000      -0.493702       -13.4343
 100   1.0000      -0.492431       -13.3997
 101   1.0000      -0.481168       -13.0932
 102   1.0000      -0.478338       -13.0162
 103   1.0000      -0.447981       -12.1902
 104   1.0000      -0.445032       -12.1099
 105   1.0000      -0.419041       -11.4027
 106   1.0000      -0.413320       -11.2470
 107   1.0000      -0.354967        -9.6591
 108   1.0000      -0.354930        -9.6581
 109   1.0000      -0.324768        -8.8374
 110   1.0000      -0.324493        -8.8299
 111   1.0000      -0.319051        -8.6818
 112   1.0000      -0.313145        -8.5211
 113   1.0000      -0.306117        -8.3299
 114   1.0000      -0.305293        -8.3075
 115   1.0000      -0.290984        -7.9181
 116   1.0000      -0.290606        -7.9078
 117   1.0000      -0.258584        -7.0364
 118   1.0000      -0.256715        -6.9856
 119   1.0000      -0.256247        -6.9728
 120   1.0000      -0.254675        -6.9301
 121   1.0000      -0.233359        -6.3500
 122   1.0000      -0.233040        -6.3414
 123   1.0000      -0.227572        -6.1925
 124   1.0000      -0.226081        -6.1520
 125   1.0000      -0.219738        -5.9794
 126   1.0000      -0.216945        -5.9034
 127   1.0000      -0.212511        -5.7827
 128   1.0000      -0.211635        -5.7589
 129   1.0000      -0.193772        -5.2728
 130   1.0000      -0.187012        -5.0889
 131   1.0000      -0.186328        -5.0702
 132   1.0000      -0.183997        -5.0068
 133   1.0000      -0.176667        -4.8074
 134   1.0000      -0.158603        -4.3158
 135   1.0000      -0.150409        -4.0928
 136   1.0000      -0.144565        -3.9338
 137   1.0000      -0.134925        -3.6715
 138   1.0000      -0.134031        -3.6472
 139   1.0000      -0.130801        -3.5593
 140   1.0000      -0.123819        -3.3693
 141   1.0000      -0.117997        -3.2109
 142   1.0000      -0.116577        -3.1722
 143   1.0000      -0.111233        -3.0268
 144   1.0000      -0.100865        -2.7447
 145   1.0000      -0.099604        -2.7104
 146   1.0000      -0.098045        -2.6679
 147   1.0000      -0.097931        -2.6648
 148   1.0000      -0.074450        -2.0259
 149   1.0000      -0.061231        -1.6662
 150   1.0000      -0.060575        -1.6483
 151   1.0000      -0.055660        -1.5146
 152   1.0000      -0.044022        -1.1979
 153   1.0000      -0.043184        -1.1751
 154   1.0000      -0.039784        -1.0826
 155   1.0000      -0.032437        -0.8826
 156   1.0000      -0.028041        -0.7630
 157   1.0000      -0.018192        -0.4950
 158   1.0000       0.017779         0.4838
 159   1.0000       0.038612         1.0507
 160   0.0000       0.135496         3.6870
 161   0.0000       0.135653         3.6913
 162   0.0000       0.155342         4.2271
 163   0.0000       0.162335         4.4174
 164   0.0000       0.163403         4.4464

MULLIKEN ATOMIC CHARGES AND SPIN POPULATIONS
--------------------------------------------
   0 V :    0.442513    1.207368
   1 S :   -0.279092   -0.023757
   2 S :   -0.283765   -0.025793
   3 S :   -0.278153   -0.024665
   4 S :   -0.280347   -0.026176
   5 O :   -0.454247   -0.146506
   6 C :   -0.073621    0.010812
   7 C :   -0.082136    0.008876
   8 C :   -0.080853    0.009202
   9 C :   -0.081947    0.008545
  10 S :    0.099286   -0.000013
  11 S :    0.100781   -0.000090
  12 S :    0.099838   -0.000120
  13 S :    0.098823   -0.000033
  14 C :   -0.172201    0.001934
  15 C :   -0.177878    0.001562
  16 C :   -0.241592   -0.000265
  17 C :   -0.235732   -0.000736
  18 S :    0.008071   -0.000113
  19 S :    0.008285   -0.000113
  20 S :    0.007667   -0.000044
  21 S :    0.007601   -0.000047
  22 C :   -0.302058   -0.000010
  23 C :   -0.301576   -0.000010
  24 C :   -0.153601   -0.000000
  25 H :    0.143454   -0.000001
  26 H :    0.112768   -0.000005
  27 H :    0.082781   -0.000002
  28 H :    0.088513   -0.000002
  29 H :    0.112377   -0.000006
  30 H :    0.143132   -0.000001
  31 C :   -0.302638    0.000192
  32 C :   -0.303353    0.000188
  33 C :   -0.151196   -0.000211
  34 H :    0.142475   -0.000017
  35 H :    0.112350    0.000020
  36 H :    0.088332    0.000015
  37 H :    0.081950    0.000016
  38 H :    0.112359    0.000021
  39 H :    0.142629   -0.000017
Sum of atomic charges         :   -2.0000000

LOEWDIN ATOMIC CHARGES AND SPIN POPULATIONS
-------------------------------------------
   0 V :   -0.184834    1.156586
   1 S :    0.090380   -0.014488
   2 S :    0.085070   -0.015896
   3 S :    0.090129   -0.015363
   4 S :    0.088475   -0.016114
   5 O :   -0.313564   -0.130979
   6 C :   -0.545165    0.010280
   7 C :   -0.547430    0.009058
   8 C :   -0.548034    0.009330
   9 C :   -0.547994    0.008597
  10 S :    0.469837   -0.000374
  11 S :    0.471097   -0.000451
  12 S :    0.470008   -0.000532
  13 S :    0.469324   -0.000518
  14 C :   -0.458275    0.000352
  15 C :   -0.458067    0.000029
  16 C :   -0.618119    0.000571
  17 C :   -0.618483    0.000103
  18 S :    0.347288   -0.000082
  19 S :    0.348351   -0.000080
  20 S :    0.348759   -0.000055
  21 S :    0.348364   -0.000059
  22 C :   -0.284735   -0.000011
  23 C :   -0.284878   -0.000012
  24 C :   -0.175113   -0.000002
  25 H :    0.062775   -0.000001
  26 H :    0.053774   -0.000003
  27 H :    0.059432   -0.000001
  28 H :    0.059936   -0.000001
  29 H :    0.053718   -0.000003
  30 H :    0.062625   -0.000002
  31 C :   -0.285630    0.000049
  32 C :   -0.285430    0.000042
  33 C :   -0.175206    0.000006
  34 H :    0.062401   -0.000000
  35 H :    0.053714    0.000009
  36 H :    0.060023    0.000003
  37 H :    0.059345    0.000002
  38 H :    0.053754    0.000010
  39 H :    0.062379    0.000000

  Mayer bond orders larger than 0.100000
B(  0-V ,  1-S ) :   0.7830 B(  0-V ,  2-S ) :   0.7728 B(  0-V ,  3-S ) :   0.7726
B(  0-V ,  4-S ) :   0.7786 B(  0-V ,  5-O ) :   2.1591 B(  1-S ,  8-C ) :   1.1052
B(  2-S ,  6-C ) :   1.1024 B(  3-S ,  9-C ) :   1.1094 B(  4-S ,  7-C ) :   1.1036
B(  6-C ,  7-C ) :   1.6857 B(  6-C , 10-S ) :   0.9350 B(  7-C , 11-S ) :   0.9395
B(  8-C ,  9-C ) :   1.6981 B(  8-C , 13-S ) :   0.9335 B(  9-C , 12-S ) :   0.9356
B( 10-S , 14-C ) :   1.2364 B( 11-S , 14-C ) :   1.2362 B( 12-S , 15-C ) :   1.2364
B( 13-S , 15-C ) :   1.2365 B( 14-C , 16-C ) :   1.4500 B( 15-C , 17-C ) :   1.4572
B( 16-C , 18-S ) :   1.0972 B( 16-C , 19-S ) :   1.0988 B( 17-C , 20-S ) :   1.0953
B( 17-C , 21-S ) :   1.0960 B( 18-S , 32-C ) :   0.9930 B( 19-S , 31-C ) :   0.9931
B( 20-S , 23-C ) :   0.9931 B( 21-S , 22-C ) :   0.9922 B( 22-C , 24-C ) :   0.9121
B( 22-C , 25-H ) :   0.9651 B( 22-C , 26-H ) :   0.9658 B( 23-C , 24-C ) :   0.9126
B( 23-C , 29-H ) :   0.9658 B( 23-C , 30-H ) :   0.9649 B( 24-C , 27-H ) :   0.9636
B( 24-C , 28-H ) :   0.9738 B( 31-C , 33-C ) :   0.9118 B( 31-C , 38-H ) :   0.9659
B( 31-C , 39-H ) :   0.9651 B( 32-C , 33-C ) :   0.9115 B( 32-C , 34-H ) :   0.9650
B( 32-C , 35-H ) :   0.9660 B( 33-C , 36-H ) :   0.9739 B( 33-C , 37-H ) :   0.9638

FINAL SINGLE POINT ENERGY     -6337.698128772578

DIPOLE MOMENT
-------------
                                X             Y             Z
Electronic contribution:     12.34551      -5.50228      -0.00915
Nuclear contribution   :    -13.73467       6.06498      -0.04716
                        -----------------------------------------
Total Dipole Moment    :     -1.38916       0.56270      -0.05631
                        -----------------------------------------
Magnitude (a.u.)       :      1.49986
Magnitude (Debye)      :      3.81234

Rotational constants in cm-1:     0.010768     0.000802     0.000781
Rotational constants in MHz :   322.814224    24.042423    23.426851

                             ****ORCA TERMINATED NORMALLY****
TOTAL RUN TIME: 0 days 1 hours 2 minutes 0 seconds 875 msec
