                         Program Version 5.0.4 -  RELEASE  -
|  1> ! nofrozencore ReducedPop printbasis
|  2> ! B3LYP TZVP
|  3>
|  4> %basis
|  5> newgto V "CP(PPP)" end
|  6> end
|  7>
|  8> %pal
|  9> nprocs 8
| 10> end
| 11>
| 12> % sym SymThresh 1e-2 end
| 13> * xyz -2 2
| 14> V -0.9173256000255575 -0.4189251120187949 -0.47154676722122785
| 15> S -1.8697150451505542 1.479590630550398 0.8059942941883246
| 16> S 0.030968306685010626 1.2486902616112259 -2.0363113600742277
| 17> S -0.7425116366973125 -1.5716118664956356 1.7078683157958
| 18> S 1.1192395071066383 -1.7319065234388098 -0.9318682484744213
| 19> O -2.109365655347989 -1.1152836714318406 -1.2599277933837567
| 20> C 1.0468479431254185 0.33140413449410366 -2.7677739824885084
| 21> C 1.7023783622415376 -0.8844467162407474 -2.613992463001334
| 22> C -2.0321592462950395 0.8451389785405574 2.10825970400328
| 23> C -1.7768211518485726 -0.28810751383973326 2.953093308356951
| 24> S 1.893274722958317 0.8605982344557427 -4.410656474365666
| 25> S 2.876044230362407 -1.7427264103740265 -3.448529432586007
| 26> S -1.9538746477382192 -0.8993330428397089 4.452169782655028
| 27> S -2.9331193942965927 1.7528492235430984 3.628256713201472
| 28> C 2.9596361899323846 -0.3854969518056705 -4.7273840890996
| 29> C -2.791801447077362 0.7427505599303 4.910420586328219
| 30> C 3.8703691738573784 -0.6067625316456043 -5.73867739458628
| 31> C -3.142017781472816 0.7882887507149311 6.251078063809948
| 32> S 3.8874836131059354 0.7358514978798084 -7.023709195731972
| 33> S 4.940100438209269 -1.9105171965979186 -6.002852630651632
| 34> S -3.966609247921325 2.4290275530395187 6.665897244666833
| 35> S -2.947865846100405 -0.28499290333555194 7.534531346173902
| 36> C -1.8336063754297354 0.7237740282608858 8.614978619799148
| 37> C -2.69572612508498 3.030627296279801 7.870795888651865
| 38> C -2.4335637011405518 2.056922761843118 9.034840638261185
| 39> H -0.9022036037912727 0.8744770608773387 8.065580087967843
| 40> H -1.6292326577446214 0.08407875392719943 9.477633813084227
| 41> H -1.7346365686379568 2.5306145413905856 9.738469070414016
| 42> H -3.3721810315134286 1.8884220668557639 9.572234060122184
| 43> H -3.081532657955874 3.9708671792920684 8.273481378744588
| 44> H -1.7721967203989253 3.252136995349564 7.329820262768181
| 45> C 4.2589777899425725 -2.5485898365978095 -7.601442382297668
| 46> C 3.3492456941445696 -0.3009636403568486 -8.460887947352466
| 47> C 4.255497895127896 -1.515892244509598 -8.720431006718973
| 48> H 2.314058285510748 -0.6126803144598623 -8.300975470371625
| 49> H 3.3714324430879294 0.35872987055555466 -9.332220576769839
| 50> H 5.275954539827756 -1.1649172428202632 -8.903922530182802
| 51> H 3.9122903772929707 -2.016336255096221 -9.636823083821108
| 52> H 4.889298310851599 -3.4056120908140155 -7.852561500337587
| 53> H 3.2470501305120307 -2.9086335635027503 -7.404565488041827
| 54> *
| 55>
| 56> % eprnmr
| 57> gtensor true
| 58> Nuclei = all H {aiso,adip,aorb,fgrad,rho}
| 59> Nuclei = all V {aiso,adip,aorb,fgrad,rho}
| 60> end
| 61>
| 62>                          ****END OF INPUT****

CARTESIAN COORDINATES (ANGSTROEM)
---------------------------------
  V     -0.913709   -0.417809   -0.472156
  S     -1.866098    1.480707    0.805386
  S      0.034585    1.249806   -2.036920
  S     -0.738895   -1.570496    1.707260
  S      1.122856   -1.730790   -0.932477
  O     -2.105749   -1.114168   -1.260537
  C      1.050465    0.332520   -2.768383
  C      1.705995   -0.883331   -2.614601
  C     -2.028542    0.846255    2.107651
  C     -1.773204   -0.286991    2.952485
  S      1.896892    0.861714   -4.411265
  S      2.879661   -1.741610   -3.449138
  S     -1.950258   -0.898217    4.451561
  S     -2.929502    1.753965    3.627648
  C      2.963253   -0.384381   -4.727993
  C     -2.788185    0.743867    4.909812
  C      3.873986   -0.605646   -5.739286
  C     -3.138401    0.789405    6.250469
  S      3.891101    0.736968   -7.024318
  S      4.943717   -1.909401   -6.003461
  S     -3.962992    2.430144    6.665288
  S     -2.944249   -0.283877    7.533923
  C     -1.829989    0.724890    8.614370
  C     -2.692109    3.031743    7.870187
  C     -2.429947    2.058039    9.034232
  H     -0.898587    0.875593    8.064971
  H     -1.625616    0.085195    9.477025
  H     -1.731020    2.531731    9.737860
  H     -3.368564    1.889538    9.571625
  H     -3.077916    3.971983    8.272873
  H     -1.768580    3.253253    7.329211
  C      4.262595   -2.547474   -7.602051
  C      3.352863   -0.299847   -8.461497
  C      4.259115   -1.514776   -8.721040
  H      2.317675   -0.611564   -8.301584
  H      3.375049    0.359846   -9.332829
  H      5.279571   -1.163801   -8.904531
  H      3.915907   -2.015220   -9.637432
  H      4.892915   -3.404496   -7.853170
  H      3.250667   -2.907517   -7.405174

 Total Charge           Charge          ....   -2
 Multiplicity           Mult            ....    2
 Number of Electrons    NEL             ....  321
 Basis Dimension        Dim             ....  681

ORBITAL ENERGIES
----------------
                 SPIN UP ORBITALS
  NO   OCC          E(Eh)            E(eV)
   0   1.0000    -196.683855     -5352.0398
   1   1.0000     -88.736259     -2414.6364
   2   1.0000     -88.734598     -2414.5912
   3   1.0000     -88.732570     -2414.5360
   4   1.0000     -88.730950     -2414.4919
   5   1.0000     -88.724785     -2414.3241
   6   1.0000     -88.721522     -2414.2354
   7   1.0000     -88.717365     -2414.1222
   8   1.0000     -88.710870     -2413.9455
   9   1.0000     -88.662327     -2412.6246
  10   1.0000     -88.656602     -2412.4688
  11   1.0000     -88.637971     -2411.9618
  12   1.0000     -88.631917     -2411.7971
  13   1.0000     -22.058348      -600.2382
  14   1.0000     -18.899010      -514.2682
  15   1.0000     -18.564780      -505.1734
  16   1.0000     -18.559704      -505.0352
  17   1.0000     -18.559553      -505.0311
  18   1.0000     -10.074972      -274.1539
  19   1.0000     -10.069690      -274.0102
  20   1.0000     -10.062101      -273.8037
  21   1.0000     -10.060471      -273.7593
  22   1.0000     -10.057222      -273.6709
  23   1.0000     -10.055221      -273.6165
  24   1.0000     -10.049559      -273.4624
  25   1.0000     -10.046860      -273.3889
  26   1.0000     -10.045178      -273.3432
  27   1.0000     -10.041408      -273.2406
  28   1.0000     -10.038853      -273.1711
  29   1.0000     -10.034058      -273.0406
  30   1.0000     -10.021045      -272.6865
  31   1.0000     -10.019714      -272.6503
  32   1.0000      -7.790518      -211.9908
  33   1.0000      -7.787802      -211.9169
  34   1.0000      -7.787132      -211.8986
  35   1.0000      -7.784705      -211.8326
  36   1.0000      -7.777725      -211.6427
  37   1.0000      -7.776671      -211.6140
  38   1.0000      -7.770209      -211.4381
  39   1.0000      -7.767219      -211.3568
  40   1.0000      -7.727456      -210.2748
  41   1.0000      -7.717007      -209.9904
  42   1.0000      -7.689285      -209.2361
  43   1.0000      -7.682949      -209.0637
  44   1.0000      -5.755461      -156.6141
  45   1.0000      -5.752810      -156.5419
  46   1.0000      -5.752054      -156.5213
  47   1.0000      -5.751843      -156.5156
  48   1.0000      -5.749442      -156.4503
  49   1.0000      -5.748623      -156.4280
  50   1.0000      -5.748355      -156.4207
  51   1.0000      -5.745742      -156.3496
  52   1.0000      -5.745460      -156.3419
  53   1.0000      -5.743283      -156.2827
  54   1.0000      -5.742684      -156.2664
  55   1.0000      -5.742152      -156.2519
  56   1.0000      -5.740826      -156.2158
  57   1.0000      -5.740116      -156.1965
  58   1.0000      -5.739458      -156.1786
  59   1.0000      -5.736874      -156.1083
  60   1.0000      -5.735144      -156.0612
  61   1.0000      -5.733145      -156.0068
  62   1.0000      -5.732485      -155.9888
  63   1.0000      -5.731954      -155.9744
  64   1.0000      -5.730998      -155.9484
  65   1.0000      -5.727215      -155.8454
  66   1.0000      -5.725003      -155.7852
  67   1.0000      -5.724005      -155.7581
  68   1.0000      -5.691205      -154.8656
  69   1.0000      -5.685521      -154.7109
  70   1.0000      -5.684619      -154.6863
  71   1.0000      -5.681209      -154.5935
  72   1.0000      -5.675398      -154.4354
  73   1.0000      -5.674471      -154.4102
  74   1.0000      -5.655147      -153.8844
  75   1.0000      -5.648726      -153.7096
  76   1.0000      -5.648273      -153.6973
  77   1.0000      -5.646253      -153.6424
  78   1.0000      -5.642123      -153.5300
  79   1.0000      -5.639856      -153.4683
  80   1.0000      -2.452663       -66.7403
  81   1.0000      -1.494108       -40.6567
  82   1.0000      -1.482561       -40.3425
  83   1.0000      -1.481575       -40.3157
  84   1.0000      -0.710047       -19.3214
  85   1.0000      -0.707285       -19.2462
  86   1.0000      -0.687558       -18.7094
  87   1.0000      -0.686032       -18.6679
  88   1.0000      -0.658226       -17.9112
  89   1.0000      -0.645408       -17.5625
  90   1.0000      -0.635641       -17.2967
  91   1.0000      -0.618140       -16.8205
  92   1.0000      -0.615534       -16.7495
  93   1.0000      -0.606451       -16.5024
  94   1.0000      -0.601164       -16.3585
  95   1.0000      -0.576795       -15.6954
  96   1.0000      -0.576344       -15.6831
  97   1.0000      -0.511664       -13.9231
  98   1.0000      -0.508447       -13.8356
  99   1.0000      -0.490048       -13.3349
 100   1.0000      -0.485228       -13.2037
 101   1.0000      -0.471874       -12.8404
 102   1.0000      -0.462718       -12.5912
 103   1.0000      -0.439704       -11.9649
 104   1.0000      -0.430868       -11.7245
 105   1.0000      -0.412651       -11.2288
 106   1.0000      -0.401696       -10.9307
 107   1.0000      -0.353049        -9.6069
 108   1.0000      -0.347556        -9.4575
 109   1.0000      -0.324906        -8.8411
 110   1.0000      -0.319956        -8.7065
 111   1.0000      -0.317314        -8.6346
 112   1.0000      -0.310789        -8.4570
 113   1.0000      -0.301816        -8.2128
 114   1.0000      -0.295998        -8.0545
 115   1.0000      -0.290658        -7.9092
 116   1.0000      -0.286015        -7.7829
 117   1.0000      -0.268938        -7.3182
 118   1.0000      -0.265280        -7.2186
 119   1.0000      -0.245115        -6.6699
 120   1.0000      -0.240348        -6.5402
 121   1.0000      -0.237895        -6.4735
 122   1.0000      -0.233338        -6.3495
 123   1.0000      -0.230186        -6.2637
 124   1.0000      -0.227222        -6.1830
 125   1.0000      -0.226328        -6.1587
 126   1.0000      -0.225725        -6.1423
 127   1.0000      -0.219048        -5.9606
 128   1.0000      -0.215285        -5.8582
 129   1.0000      -0.211924        -5.7667
 130   1.0000      -0.205812        -5.6004
 131   1.0000      -0.189065        -5.1447
 132   1.0000      -0.188359        -5.1255
 133   1.0000      -0.170055        -4.6274
 134   1.0000      -0.164578        -4.4784
 135   1.0000      -0.149213        -4.0603
 136   1.0000      -0.144504        -3.9321
 137   1.0000      -0.137874        -3.7517
 138   1.0000      -0.136463        -3.7134
 139   1.0000      -0.132938        -3.6174
 140   1.0000      -0.124125        -3.3776
 141   1.0000      -0.121142        -3.2964
 142   1.0000      -0.115972        -3.1558
 143   1.0000      -0.108600        -2.9552
 144   1.0000      -0.106163        -2.8888
 145   1.0000      -0.098677        -2.6852
 146   1.0000      -0.093478        -2.5437
 147   1.0000      -0.086065        -2.3420
 148   1.0000      -0.075109        -2.0438
 149   1.0000      -0.069950        -1.9034
 150   1.0000      -0.060595        -1.6489
 151   1.0000      -0.053565        -1.4576
 152   1.0000      -0.043591        -1.1862
 153   1.0000      -0.041414        -1.1269
 154   1.0000      -0.037538        -1.0215
 155   1.0000      -0.034259        -0.9322
 156   1.0000      -0.023508        -0.6397
 157   1.0000      -0.018439        -0.5018
 158   1.0000      -0.003876        -0.1055
 159   1.0000       0.023759         0.6465
 160   1.0000       0.043145         1.1740
 161   0.0000       0.136873         3.7245
 162   0.0000       0.140795         3.8312
 163   0.0000       0.141610         3.8534
 164   0.0000       0.149136         4.0582
 165   0.0000       0.165684         4.5085

                 SPIN DOWN ORBITALS
  NO   OCC          E(Eh)            E(eV)
   0   1.0000    -196.684000     -5352.0437
   1   1.0000     -88.736260     -2414.6364
   2   1.0000     -88.734602     -2414.5913
   3   1.0000     -88.732571     -2414.5360
   4   1.0000     -88.730955     -2414.4920
   5   1.0000     -88.724785     -2414.3241
   6   1.0000     -88.721544     -2414.2359
   7   1.0000     -88.717364     -2414.1222
   8   1.0000     -88.710903     -2413.9464
   9   1.0000     -88.662400     -2412.6266
  10   1.0000     -88.656700     -2412.4715
  11   1.0000     -88.638169     -2411.9672
  12   1.0000     -88.632146     -2411.8033
  13   1.0000     -22.043393      -599.8312
  14   1.0000     -18.902857      -514.3729
  15   1.0000     -18.559438      -505.0280
  16   1.0000     -18.543617      -504.5975
  17   1.0000     -18.543506      -504.5945
  18   1.0000     -10.074954      -274.1534
  19   1.0000     -10.069645      -274.0090
  20   1.0000     -10.062100      -273.8037
  21   1.0000     -10.060469      -273.7593
  22   1.0000     -10.057222      -273.6709
  23   1.0000     -10.055221      -273.6165
  24   1.0000     -10.049559      -273.4624
  25   1.0000     -10.046847      -273.3886
  26   1.0000     -10.045178      -273.3432
  27   1.0000     -10.041409      -273.2406
  28   1.0000     -10.038745      -273.1681
  29   1.0000     -10.033913      -273.0367
  30   1.0000     -10.020632      -272.6753
  31   1.0000     -10.019366      -272.6408
  32   1.0000      -7.790518      -211.9908
  33   1.0000      -7.787807      -211.9170
  34   1.0000      -7.787132      -211.8986
  35   1.0000      -7.784710      -211.8327
  36   1.0000      -7.777726      -211.6427
  37   1.0000      -7.776694      -211.6146
  38   1.0000      -7.770207      -211.4381
  39   1.0000      -7.767254      -211.3577
  40   1.0000      -7.727524      -210.2766
  41   1.0000      -7.717097      -209.9929
  42   1.0000      -7.689472      -209.2412
  43   1.0000      -7.683164      -209.0695
  44   1.0000      -5.755462      -156.6141
  45   1.0000      -5.752815      -156.5421
  46   1.0000      -5.752054      -156.5214
  47   1.0000      -5.751845      -156.5156
  48   1.0000      -5.749455      -156.4506
  49   1.0000      -5.748631      -156.4282
  50   1.0000      -5.748356      -156.4207
  51   1.0000      -5.745751      -156.3498
  52   1.0000      -5.745461      -156.3419
  53   1.0000      -5.743285      -156.2827
  54   1.0000      -5.742685      -156.2664
  55   1.0000      -5.742153      -156.2519
  56   1.0000      -5.740854      -156.2166
  57   1.0000      -5.740117      -156.1965
  58   1.0000      -5.739458      -156.1786
  59   1.0000      -5.736915      -156.1094
  60   1.0000      -5.735140      -156.0611
  61   1.0000      -5.733164      -156.0073
  62   1.0000      -5.732486      -155.9889
  63   1.0000      -5.731950      -155.9743
  64   1.0000      -5.731037      -155.9495
  65   1.0000      -5.727287      -155.8474
  66   1.0000      -5.725003      -155.7852
  67   1.0000      -5.724028      -155.7587
  68   1.0000      -5.691279      -154.8676
  69   1.0000      -5.685690      -154.7155
  70   1.0000      -5.684689      -154.6883
  71   1.0000      -5.681300      -154.5960
  72   1.0000      -5.675662      -154.4426
  73   1.0000      -5.674543      -154.4122
  74   1.0000      -5.655370      -153.8904
  75   1.0000      -5.649030      -153.7179
  76   1.0000      -5.648796      -153.7116
  77   1.0000      -5.646372      -153.6456
  78   1.0000      -5.642645      -153.5442
  79   1.0000      -5.640032      -153.4731
  80   1.0000      -2.407672       -65.5161
  81   1.0000      -1.474334       -40.1187
  82   1.0000      -1.420624       -38.6571
  83   1.0000      -1.419609       -38.6295
  84   1.0000      -0.709999       -19.3200
  85   1.0000      -0.707208       -19.2441
  86   1.0000      -0.687491       -18.7076
  87   1.0000      -0.685963       -18.6660
  88   1.0000      -0.666446       -18.1349
  89   1.0000      -0.645412       -17.5626
  90   1.0000      -0.635580       -17.2950
  91   1.0000      -0.618101       -16.8194
  92   1.0000      -0.615525       -16.7493
  93   1.0000      -0.606364       -16.5000
  94   1.0000      -0.601107       -16.3569
  95   1.0000      -0.576744       -15.6940
  96   1.0000      -0.576310       -15.6822
  97   1.0000      -0.511659       -13.9229
  98   1.0000      -0.508399       -13.8342
  99   1.0000      -0.490052       -13.3350
 100   1.0000      -0.485228       -13.2037
 101   1.0000      -0.471986       -12.8434
 102   1.0000      -0.462784       -12.5930
 103   1.0000      -0.439883       -11.9698
 104   1.0000      -0.431099       -11.7308
 105   1.0000      -0.412779       -11.2323
 106   1.0000      -0.402081       -10.9412
 107   1.0000      -0.353038        -9.6066
 108   1.0000      -0.347543        -9.4571
 109   1.0000      -0.324891        -8.8407
 110   1.0000      -0.319931        -8.7058
 111   1.0000      -0.317198        -8.6314
 112   1.0000      -0.310694        -8.4544
 113   1.0000      -0.301747        -8.2109
 114   1.0000      -0.295897        -8.0518
 115   1.0000      -0.290647        -7.9089
 116   1.0000      -0.285997        -7.7824
 117   1.0000      -0.268665        -7.3108
 118   1.0000      -0.265225        -7.2171
 119   1.0000      -0.245014        -6.6672
 120   1.0000      -0.239365        -6.5134
 121   1.0000      -0.237807        -6.4711
 122   1.0000      -0.233280        -6.3479
 123   1.0000      -0.230035        -6.2596
 124   1.0000      -0.227061        -6.1786
 125   1.0000      -0.226114        -6.1529
 126   1.0000      -0.225588        -6.1386
 127   1.0000      -0.218820        -5.9544
 128   1.0000      -0.215203        -5.8560
 129   1.0000      -0.211875        -5.7654
 130   1.0000      -0.205391        -5.5890
 131   1.0000      -0.188961        -5.1419
 132   1.0000      -0.188259        -5.1228
 133   1.0000      -0.169729        -4.6185
 134   1.0000      -0.164402        -4.4736
 135   1.0000      -0.148723        -4.0470
 136   1.0000      -0.143943        -3.9169
 137   1.0000      -0.137538        -3.7426
 138   1.0000      -0.135816        -3.6957
 139   1.0000      -0.132575        -3.6075
 140   1.0000      -0.123407        -3.3581
 141   1.0000      -0.122381        -3.3302
 142   1.0000      -0.117635        -3.2010
 143   1.0000      -0.108957        -2.9649
 144   1.0000      -0.106541        -2.8991
 145   1.0000      -0.098387        -2.6772
 146   1.0000      -0.093521        -2.5448
 147   1.0000      -0.085262        -2.3201
 148   1.0000      -0.073141        -1.9903
 149   1.0000      -0.069062        -1.8793
 150   1.0000      -0.059434        -1.6173
 151   1.0000      -0.051602        -1.4042
 152   1.0000      -0.042238        -1.1493
 153   1.0000      -0.041385        -1.1262
 154   1.0000      -0.037263        -1.0140
 155   1.0000      -0.031210        -0.8493
 156   1.0000      -0.019308        -0.5254
 157   1.0000      -0.004509        -0.1227
 158   1.0000       0.023913         0.6507
 159   1.0000       0.042318         1.1515
 160   0.0000       0.136996         3.7279
 161   0.0000       0.141596         3.8530
 162   0.0000       0.144927         3.9437
 163   0.0000       0.145628         3.9628
 164   0.0000       0.152759         4.1568

MULLIKEN ATOMIC CHARGES AND SPIN POPULATIONS
--------------------------------------------
   0 V :    0.450503    1.211865
   1 S :   -0.144625   -0.008340
   2 S :   -0.203956   -0.016275
   3 S :   -0.345926   -0.042884
   4 S :   -0.312713   -0.037577
   5 O :   -0.459180   -0.148350
   6 C :   -0.065982    0.003959
   7 C :   -0.116958    0.016739
   8 C :   -0.062694    0.001453
   9 C :   -0.129666    0.022439
  10 S :    0.070761   -0.002248
  11 S :    0.120841   -0.000243
  12 S :    0.127611   -0.000679
  13 S :    0.038553   -0.003648
  14 C :   -0.197436    0.001709
  15 C :   -0.187288    0.002224
  16 C :   -0.211771    0.000106
  17 C :   -0.219965   -0.000311
  18 S :   -0.029477   -0.000103
  19 S :    0.040143   -0.000126
  20 S :   -0.044753    0.000201
  21 S :    0.045000   -0.000113
  22 C :   -0.293500    0.000015
  23 C :   -0.299970    0.000035
  24 C :   -0.152924   -0.000045
  25 H :    0.141404   -0.000003
  26 H :    0.108155   -0.000014
  27 H :    0.079849   -0.000007
  28 H :    0.088348   -0.000001
  29 H :    0.109008    0.000008
  30 H :    0.135941    0.000003
  31 C :   -0.295541    0.000203
  32 C :   -0.300417    0.000201
  33 C :   -0.156303   -0.000229
  34 H :    0.137778   -0.000027
  35 H :    0.111658    0.000035
  36 H :    0.090899    0.000017
  37 H :    0.081413    0.000012
  38 H :    0.111420    0.000008
  39 H :    0.141760   -0.000010
Sum of atomic charges         :   -2.0000000

LOEWDIN ATOMIC CHARGES AND SPIN POPULATIONS
-------------------------------------------
   0 V :   -0.156520    1.164996
   1 S :    0.298823   -0.003388
   2 S :    0.207730   -0.008738
   3 S :   -0.047997   -0.031418
   4 S :    0.002404   -0.026624
   5 O :   -0.314515   -0.133029
   6 C :   -0.544097    0.004168
   7 C :   -0.568495    0.015655
   8 C :   -0.546748    0.003137
   9 C :   -0.580174    0.020096
  10 S :    0.444424   -0.002450
  11 S :    0.485529   -0.000354
  12 S :    0.488732   -0.000471
  13 S :    0.416691   -0.003758
  14 C :   -0.466061    0.000492
  15 C :   -0.466808    0.001286
  16 C :   -0.627258    0.000511
  17 C :   -0.631693   -0.000099
  18 S :    0.317081   -0.000098
  19 S :    0.395270   -0.000069
  20 S :    0.301982    0.000160
  21 S :    0.402625   -0.000086
  22 C :   -0.283838   -0.000028
  23 C :   -0.288698   -0.000003
  24 C :   -0.176895   -0.000009
  25 H :    0.063033   -0.000001
  26 H :    0.051663   -0.000005
  27 H :    0.056491   -0.000006
  28 H :    0.059113   -0.000003
  29 H :    0.051306    0.000011
  30 H :    0.058650    0.000002
  31 C :   -0.283292    0.000041
  32 C :   -0.287007    0.000054
  33 C :   -0.176648    0.000002
  34 H :    0.059732   -0.000003
  35 H :    0.052464    0.000019
  36 H :    0.059852    0.000002
  37 H :    0.057271    0.000001
  38 H :    0.053024    0.000005
  39 H :    0.062851    0.000001

  Mayer bond orders larger than 0.100000
B(  0-V ,  1-S ) :   0.6192 B(  0-V ,  2-S ) :   0.6772 B(  0-V ,  3-S ) :   0.8789
B(  0-V ,  4-S ) :   0.8667 B(  0-V ,  5-O ) :   2.1494 B(  1-S ,  8-C ) :   1.4099
B(  1-S ,  9-C ) :   0.1650 B(  2-S ,  6-C ) :   1.3016 B(  2-S ,  7-C ) :   0.1055
B(  3-S ,  9-C ) :   0.8587 B(  4-S ,  7-C ) :   0.9254 B(  6-C ,  7-C ) :   1.6755
B(  6-C , 10-S ) :   0.7500 B(  7-C , 11-S ) :   1.0670 B(  8-C ,  9-C ) :   1.6546
B(  8-C , 13-S ) :   0.6395 B(  9-C , 12-S ) :   1.1149 B( 10-S , 14-C ) :   1.4107
B( 11-S , 14-C ) :   1.0944 B( 12-S , 15-C ) :   1.0345 B( 13-S , 15-C ) :   1.4747
B( 14-C , 16-C ) :   1.4503 B( 15-C , 17-C ) :   1.4428 B( 16-C , 18-S ) :   1.0015
B( 16-C , 19-S ) :   1.1734 B( 17-C , 20-S ) :   0.9694 B( 17-C , 21-S ) :   1.2007
B( 18-S , 32-C ) :   1.0204 B( 19-S , 31-C ) :   0.9593 B( 20-S , 23-C ) :   1.0291
B( 21-S , 22-C ) :   0.9476 B( 22-C , 24-C ) :   0.9231 B( 22-C , 25-H ) :   0.9664
B( 22-C , 26-H ) :   0.9630 B( 23-C , 24-C ) :   0.9067 B( 23-C , 29-H ) :   0.9667
B( 23-C , 30-H ) :   0.9673 B( 24-C , 27-H ) :   0.9623 B( 24-C , 28-H ) :   0.9711
B( 31-C , 33-C ) :   0.9208 B( 31-C , 38-H ) :   0.9639 B( 31-C , 39-H ) :   0.9659
B( 32-C , 33-C ) :   0.9078 B( 32-C , 34-H ) :   0.9666 B( 32-C , 35-H ) :   0.9666
B( 33-C , 36-H ) :   0.9714 B( 33-C , 37-H ) :   0.9624

FINAL SINGLE POINT ENERGY     -6337.486487629728

DIPOLE MOMENT
-------------
                                X             Y             Z
Electronic contribution:    -12.78819      -3.76067      -3.36485
Nuclear contribution   :     14.09107       4.59176       3.09322
                        -----------------------------------------
Total Dipole Moment    :      1.30288       0.83109      -0.27162
                        -----------------------------------------
Magnitude (a.u.)       :      1.56907
Magnitude (Debye)      :      3.98827

Rotational constants in cm-1:     0.010754     0.000804     0.000783
Rotational constants in MHz :   322.399323    24.113101    23.483076

                             ****ORCA TERMINATED NORMALLY****
TOTAL RUN TIME: 0 days 1 hours 3 minutes 27 seconds 154 msec
