                         Program Version 5.0.4 -  RELEASE  -
|  1> ! nofrozencore ReducedPop printbasis
|  2> ! B3LYP TZVP
|  3>
|  4> %basis
|  5> newgto V "CP(PPP)" end
|  6> end
|  7>
|  8> %pal
|  9> nprocs 8
| 10> end
| 11>
| 12> % sym SymThresh 1e-2 end
| 13> * xyz -2 2
| 14> V -0.7044391038643327 0.46478908204002556 -0.7257436236972432
| 15> S -2.2729849963243165 -0.3474694885767152 1.005984615613868
| 16> S -0.07148896534296723 2.197546020298112 0.9247245267819609
| 17> S -0.5424170713785851 -1.9010761735239257 -1.43808173514328
| 18> S 1.6520883067634187 0.5614787230827716 -1.4485149828254866
| 19> O -1.5671845501278086 1.2245088451746917 -1.822440361097899
| 20> C 1.4100522622734697 2.7783166585763452 0.17500540897538266
| 21> C 2.1021703146350883 2.12005155773738 -0.7738154041677662
| 22> C -2.5065048855231735 -2.014922693175378 0.4991869529838944
| 23> C -1.813702613840902 -2.6346889086059577 -0.47378240904388236
| 24> S 2.118941064318501 4.326611571167312 0.7485417197056538
| 25> S 3.637231864621182 2.8753125041603256 -1.3153056591646672
| 26> S -2.2072491186441754 -4.363390357440802 -0.7607126772876457
| 27> S -3.7291828029465974 -3.0068766657677726 1.364550569181898
| 28> C 3.5728634396583803 4.289278766021929 -0.261124516382302
| 29> C -3.4160723346563935 -4.527010666574418 0.5179411864311083
| 30> C 4.534157764741472 5.26171731615202 -0.23115608375853933
| 31> C -4.049123422410288 -5.702433157841135 0.8138574361909927
| 32> S 4.404872843859223 6.6994304191980465 0.8047620327329311
| 33> S 5.984707309371176 5.167505547906089 -1.271523131230025
| 34> S -5.260219455877248 -5.818880486802935 2.1155715868881644
| 35> S -3.6814407093479646 -7.2140499547748895 -0.05658206296151383
| 36> C -3.0153830353030697 -8.189732821676026 1.3704659526828378
| 37> C -4.3630950074530235 -7.0064758644518355 3.2152275242647135
| 38> C -4.001911183817879 -8.32775761022099 2.5324416726637073
| 39> H -2.0877065532214414 -7.7134079514530125 1.6953377916789008
| 40> H -2.7700505037912113 -9.171314791476705 0.9572891733278027
| 41> H -3.547639761864377 -8.994461207157821 3.2788253009721227
| 42> H -4.917831433805077 -8.811474548329144 2.178705060027039
| 43> H -5.033132948423322 -7.190170034281561 4.058874671183881
| 44> H -3.4656891181035934 -6.512503514544869 3.5945215258918766
| 45> C 5.67948808198381 6.722345700592882 -2.308397070090469
| 46> C 4.347013177425419 7.963251568876317 -0.4895602027285722
| 47> C 5.544336460818999 7.977641071072765 -1.4408426946100068
| 48> H 3.5130397229913086 7.933603205375182 -1.2353204938107283
| 49> H 4.322573695940601 9.007636040612914 -0.11823070011098483
| 50> H 6.373722110556232 8.207483722312693 -0.7467766571042436
| 51> H 5.647503982056423 8.644125359361428 -2.3806814120344795
| 52> H 6.590155885396666 6.623812096694106 -2.929793357845651
| 53> H 4.819918060093473 6.325525909166452 -2.8962598530328227
| 54> *
| 55>
| 56> % eprnmr
| 57> gtensor true
| 58> Nuclei = all H {aiso,adip,aorb,fgrad,rho}
| 59> Nuclei = all V {aiso,adip,aorb,fgrad,rho}
| 60> end
| 61>
| 62>                          ****END OF INPUT****

CARTESIAN COORDINATES (ANGSTROEM)
---------------------------------
  V     -0.701198    0.465278   -0.723755
  S     -2.269744   -0.346980    1.007974
  S     -0.068248    2.198035    0.926713
  S     -0.539176   -1.900587   -1.436093
  S      1.655329    0.561968   -1.446526
  O     -1.563944    1.224998   -1.820451
  C      1.413293    2.778806    0.176994
  C      2.105411    2.120541   -0.771826
  C     -2.503264   -2.014433    0.501176
  C     -1.810462   -2.634200   -0.471794
  S      2.122182    4.327101    0.750531
  S      3.640473    2.875802   -1.313317
  S     -2.204008   -4.362901   -0.758724
  S     -3.725942   -3.006387    1.366539
  C      3.576104    4.289768   -0.259136
  C     -3.412831   -4.526521    0.519930
  C      4.537399    5.262207   -0.229167
  C     -4.045883   -5.701944    0.815846
  S      4.408114    6.699920    0.806751
  S      5.987948    5.167995   -1.269534
  S     -5.256979   -5.818391    2.117560
  S     -3.678200   -7.213561   -0.054593
  C     -3.012142   -8.189244    1.372455
  C     -4.359854   -7.005987    3.217216
  C     -3.998670   -8.327268    2.534431
  H     -2.084466   -7.712919    1.697327
  H     -2.766810   -9.170825    0.959278
  H     -3.544399   -8.993972    3.280814
  H     -4.914591   -8.810985    2.180694
  H     -5.029892   -7.189681    4.060864
  H     -3.462448   -6.512014    3.596510
  C      5.682729    6.722835   -2.306408
  C      4.350254    7.963741   -0.487571
  C      5.547577    7.978130   -1.438854
  H      3.516281    7.934093   -1.233332
  H      4.325815    9.008125   -0.116242
  H      6.376963    8.207973   -0.744788
  H      5.650745    8.644615   -2.378693
  H      6.593397    6.624301   -2.927804
  H      4.823159    6.326015   -2.894271

 Total Charge           Charge          ....   -2
 Multiplicity           Mult            ....    2
 Number of Electrons    NEL             ....  321
 Basis Dimension        Dim             ....  681

ORBITAL ENERGIES
----------------
                 SPIN UP ORBITALS
  NO   OCC          E(Eh)            E(eV)
   0   1.0000    -196.674765     -5351.7924
   1   1.0000     -88.742468     -2414.8053
   2   1.0000     -88.733344     -2414.5570
   3   1.0000     -88.732829     -2414.5430
   4   1.0000     -88.730935     -2414.4915
   5   1.0000     -88.730267     -2414.4733
   6   1.0000     -88.730003     -2414.4661
   7   1.0000     -88.729966     -2414.4651
   8   1.0000     -88.725899     -2414.3545
   9   1.0000     -88.639825     -2412.0123
  10   1.0000     -88.639755     -2412.0104
  11   1.0000     -88.639512     -2412.0037
  12   1.0000     -88.639271     -2411.9972
  13   1.0000     -22.050162      -600.0154
  14   1.0000     -18.890087      -514.0254
  15   1.0000     -18.556610      -504.9510
  16   1.0000     -18.551438      -504.8103
  17   1.0000     -18.551336      -504.8075
  18   1.0000     -10.076304      -274.1902
  19   1.0000     -10.075800      -274.1765
  20   1.0000     -10.070087      -274.0210
  21   1.0000     -10.067676      -273.9554
  22   1.0000     -10.063201      -273.8336
  23   1.0000     -10.063185      -273.8332
  24   1.0000     -10.060201      -273.7520
  25   1.0000     -10.051080      -273.5038
  26   1.0000     -10.048869      -273.4436
  27   1.0000     -10.048338      -273.4292
  28   1.0000     -10.018525      -272.6179
  29   1.0000     -10.017828      -272.5990
  30   1.0000     -10.017430      -272.5881
  31   1.0000     -10.017034      -272.5774
  32   1.0000      -7.795829      -212.1353
  33   1.0000      -7.786798      -211.8895
  34   1.0000      -7.786299      -211.8760
  35   1.0000      -7.784193      -211.8187
  36   1.0000      -7.783536      -211.8008
  37   1.0000      -7.783280      -211.7938
  38   1.0000      -7.783260      -211.7933
  39   1.0000      -7.779575      -211.6930
  40   1.0000      -7.694135      -209.3681
  41   1.0000      -7.694026      -209.3651
  42   1.0000      -7.693784      -209.3585
  43   1.0000      -7.693610      -209.3538
  44   1.0000      -5.761017      -156.7652
  45   1.0000      -5.757312      -156.6644
  46   1.0000      -5.751795      -156.5143
  47   1.0000      -5.751280      -156.5003
  48   1.0000      -5.750516      -156.4795
  49   1.0000      -5.749131      -156.4418
  50   1.0000      -5.748479      -156.4241
  51   1.0000      -5.748365      -156.4210
  52   1.0000      -5.748230      -156.4173
  53   1.0000      -5.748216      -156.4169
  54   1.0000      -5.747873      -156.4076
  55   1.0000      -5.744676      -156.3206
  56   1.0000      -5.744370      -156.3123
  57   1.0000      -5.744060      -156.3038
  58   1.0000      -5.743798      -156.2967
  59   1.0000      -5.743774      -156.2960
  60   1.0000      -5.741594      -156.2367
  61   1.0000      -5.741198      -156.2259
  62   1.0000      -5.741095      -156.2231
  63   1.0000      -5.740047      -156.1946
  64   1.0000      -5.739362      -156.1760
  65   1.0000      -5.739081      -156.1683
  66   1.0000      -5.739078      -156.1683
  67   1.0000      -5.734452      -156.0424
  68   1.0000      -5.659446      -154.0013
  69   1.0000      -5.659335      -153.9983
  70   1.0000      -5.659112      -153.9923
  71   1.0000      -5.658913      -153.9868
  72   1.0000      -5.652783      -153.8200
  73   1.0000      -5.652695      -153.8176
  74   1.0000      -5.652430      -153.8104
  75   1.0000      -5.652287      -153.8066
  76   1.0000      -5.651461      -153.7841
  77   1.0000      -5.651350      -153.7811
  78   1.0000      -5.651077      -153.7736
  79   1.0000      -5.650920      -153.7693
  80   1.0000      -2.443816       -66.4996
  81   1.0000      -1.485121       -40.4122
  82   1.0000      -1.473459       -40.0949
  83   1.0000      -1.472637       -40.0725
  84   1.0000      -0.710751       -19.3405
  85   1.0000      -0.709446       -19.3050
  86   1.0000      -0.686782       -18.6883
  87   1.0000      -0.685417       -18.6512
  88   1.0000      -0.649692       -17.6790
  89   1.0000      -0.632189       -17.2028
  90   1.0000      -0.631163       -17.1748
  91   1.0000      -0.618638       -16.8340
  92   1.0000      -0.617094       -16.7920
  93   1.0000      -0.574802       -15.6412
  94   1.0000      -0.574405       -15.6304
  95   1.0000      -0.573864       -15.6156
  96   1.0000      -0.572691       -15.5837
  97   1.0000      -0.498621       -13.5682
  98   1.0000      -0.496206       -13.5024
  99   1.0000      -0.495797       -13.4913
 100   1.0000      -0.494335       -13.4515
 101   1.0000      -0.480060       -13.0631
 102   1.0000      -0.477368       -12.9898
 103   1.0000      -0.446491       -12.1496
 104   1.0000      -0.442761       -12.0481
 105   1.0000      -0.416149       -11.3240
 106   1.0000      -0.411013       -11.1842
 107   1.0000      -0.356346        -9.6967
 108   1.0000      -0.355099        -9.6627
 109   1.0000      -0.326389        -8.8815
 110   1.0000      -0.324692        -8.8353
 111   1.0000      -0.320152        -8.7118
 112   1.0000      -0.315610        -8.5882
 113   1.0000      -0.309644        -8.4258
 114   1.0000      -0.303784        -8.2664
 115   1.0000      -0.292131        -7.9493
 116   1.0000      -0.284503        -7.7417
 117   1.0000      -0.269574        -7.3355
 118   1.0000      -0.257015        -6.9937
 119   1.0000      -0.256528        -6.9805
 120   1.0000      -0.248353        -6.7580
 121   1.0000      -0.234812        -6.3896
 122   1.0000      -0.234231        -6.3738
 123   1.0000      -0.230513        -6.2726
 124   1.0000      -0.224638        -6.1127
 125   1.0000      -0.219770        -5.9803
 126   1.0000      -0.216158        -5.8820
 127   1.0000      -0.211859        -5.7650
 128   1.0000      -0.206109        -5.6085
 129   1.0000      -0.193012        -5.2521
 130   1.0000      -0.190012        -5.1705
 131   1.0000      -0.187158        -5.0928
 132   1.0000      -0.181886        -4.9494
 133   1.0000      -0.171639        -4.6705
 134   1.0000      -0.159443        -4.3387
 135   1.0000      -0.151077        -4.1110
 136   1.0000      -0.146460        -3.9854
 137   1.0000      -0.134578        -3.6620
 138   1.0000      -0.133417        -3.6305
 139   1.0000      -0.132633        -3.6091
 140   1.0000      -0.124836        -3.3970
 141   1.0000      -0.121060        -3.2942
 142   1.0000      -0.113390        -3.0855
 143   1.0000      -0.109615        -2.9828
 144   1.0000      -0.099792        -2.7155
 145   1.0000      -0.098162        -2.6711
 146   1.0000      -0.097551        -2.6545
 147   1.0000      -0.095055        -2.5866
 148   1.0000      -0.074422        -2.0251
 149   1.0000      -0.067480        -1.8362
 150   1.0000      -0.067046        -1.8244
 151   1.0000      -0.052272        -1.4224
 152   1.0000      -0.045517        -1.2386
 153   1.0000      -0.037416        -1.0181
 154   1.0000      -0.037012        -1.0071
 155   1.0000      -0.031238        -0.8500
 156   1.0000      -0.024865        -0.6766
 157   1.0000      -0.019010        -0.5173
 158   1.0000      -0.015382        -0.4186
 159   1.0000       0.020444         0.5563
 160   1.0000       0.041307         1.1240
 161   0.0000       0.135669         3.6917
 162   0.0000       0.137428         3.7396
 163   0.0000       0.157591         4.2883
 164   0.0000       0.162373         4.4184
 165   0.0000       0.167636         4.5616

                 SPIN DOWN ORBITALS
  NO   OCC          E(Eh)            E(eV)
   0   1.0000    -196.674912     -5351.7964
   1   1.0000     -88.742469     -2414.8053
   2   1.0000     -88.733344     -2414.5570
   3   1.0000     -88.732829     -2414.5430
   4   1.0000     -88.730944     -2414.4917
   5   1.0000     -88.730275     -2414.4735
   6   1.0000     -88.730012     -2414.4664
   7   1.0000     -88.729974     -2414.4653
   8   1.0000     -88.725900     -2414.3545
   9   1.0000     -88.639965     -2412.0161
  10   1.0000     -88.639892     -2412.0141
  11   1.0000     -88.639653     -2412.0076
  12   1.0000     -88.639410     -2412.0010
  13   1.0000     -22.035233      -599.6092
  14   1.0000     -18.893866      -514.1282
  15   1.0000     -18.551346      -504.8078
  16   1.0000     -18.535405      -504.3740
  17   1.0000     -18.535222      -504.3690
  18   1.0000     -10.076298      -274.1900
  19   1.0000     -10.075799      -274.1764
  20   1.0000     -10.070086      -274.0210
  21   1.0000     -10.067675      -273.9554
  22   1.0000     -10.063201      -273.8336
  23   1.0000     -10.063185      -273.8332
  24   1.0000     -10.060201      -273.7520
  25   1.0000     -10.051080      -273.5038
  26   1.0000     -10.048858      -273.4433
  27   1.0000     -10.048333      -273.4291
  28   1.0000     -10.018285      -272.6114
  29   1.0000     -10.017614      -272.5931
  30   1.0000     -10.017209      -272.5821
  31   1.0000     -10.016822      -272.5716
  32   1.0000      -7.795830      -212.1353
  33   1.0000      -7.786799      -211.8896
  34   1.0000      -7.786299      -211.8760
  35   1.0000      -7.784203      -211.8189
  36   1.0000      -7.783546      -211.8010
  37   1.0000      -7.783289      -211.7941
  38   1.0000      -7.783270      -211.7935
  39   1.0000      -7.779576      -211.6930
  40   1.0000      -7.694265      -209.3716
  41   1.0000      -7.694154      -209.3686
  42   1.0000      -7.693915      -209.3621
  43   1.0000      -7.693740      -209.3573
  44   1.0000      -5.761018      -156.7653
  45   1.0000      -5.757313      -156.6644
  46   1.0000      -5.751796      -156.5143
  47   1.0000      -5.751281      -156.5003
  48   1.0000      -5.750517      -156.4795
  49   1.0000      -5.749142      -156.4421
  50   1.0000      -5.748489      -156.4243
  51   1.0000      -5.748365      -156.4210
  52   1.0000      -5.748241      -156.4176
  53   1.0000      -5.748226      -156.4172
  54   1.0000      -5.747874      -156.4076
  55   1.0000      -5.744689      -156.3209
  56   1.0000      -5.744372      -156.3123
  57   1.0000      -5.744074      -156.3042
  58   1.0000      -5.743813      -156.2971
  59   1.0000      -5.743788      -156.2964
  60   1.0000      -5.741594      -156.2367
  61   1.0000      -5.741199      -156.2260
  62   1.0000      -5.741096      -156.2232
  63   1.0000      -5.740056      -156.1949
  64   1.0000      -5.739369      -156.1762
  65   1.0000      -5.739087      -156.1685
  66   1.0000      -5.739084      -156.1684
  67   1.0000      -5.734453      -156.0424
  68   1.0000      -5.659584      -154.0051
  69   1.0000      -5.659477      -154.0022
  70   1.0000      -5.659254      -153.9961
  71   1.0000      -5.659054      -153.9907
  72   1.0000      -5.653169      -153.8306
  73   1.0000      -5.653046      -153.8272
  74   1.0000      -5.652812      -153.8208
  75   1.0000      -5.652647      -153.8164
  76   1.0000      -5.651547      -153.7864
  77   1.0000      -5.651456      -153.7839
  78   1.0000      -5.651171      -153.7762
  79   1.0000      -5.651026      -153.7722
  80   1.0000      -2.398940       -65.2785
  81   1.0000      -1.465837       -39.8875
  82   1.0000      -1.411084       -38.3975
  83   1.0000      -1.410928       -38.3933
  84   1.0000      -0.710727       -19.3399
  85   1.0000      -0.709431       -19.3046
  86   1.0000      -0.686724       -18.6867
  87   1.0000      -0.685375       -18.6500
  88   1.0000      -0.657797       -17.8996
  89   1.0000      -0.632118       -17.2008
  90   1.0000      -0.631104       -17.1732
  91   1.0000      -0.618636       -16.8339
  92   1.0000      -0.617096       -16.7920
  93   1.0000      -0.574771       -15.6403
  94   1.0000      -0.574383       -15.6297
  95   1.0000      -0.573783       -15.6134
  96   1.0000      -0.572624       -15.5819
  97   1.0000      -0.498643       -13.5688
  98   1.0000      -0.496235       -13.5032
  99   1.0000      -0.495840       -13.4925
 100   1.0000      -0.494370       -13.4525
 101   1.0000      -0.480253       -13.0683
 102   1.0000      -0.477620       -12.9967
 103   1.0000      -0.446517       -12.1504
 104   1.0000      -0.442802       -12.0493
 105   1.0000      -0.416147       -11.3239
 106   1.0000      -0.411120       -11.1872
 107   1.0000      -0.356336        -9.6964
 108   1.0000      -0.355095        -9.6626
 109   1.0000      -0.326379        -8.8812
 110   1.0000      -0.324675        -8.8349
 111   1.0000      -0.320092        -8.7101
 112   1.0000      -0.315623        -8.5885
 113   1.0000      -0.309613        -8.4250
 114   1.0000      -0.303749        -8.2654
 115   1.0000      -0.292126        -7.9492
 116   1.0000      -0.284486        -7.7413
 117   1.0000      -0.269488        -7.3332
 118   1.0000      -0.256945        -6.9918
 119   1.0000      -0.256444        -6.9782
 120   1.0000      -0.248277        -6.7560
 121   1.0000      -0.234769        -6.3884
 122   1.0000      -0.234213        -6.3733
 123   1.0000      -0.230470        -6.2714
 124   1.0000      -0.224595        -6.1116
 125   1.0000      -0.219475        -5.9722
 126   1.0000      -0.215811        -5.8725
 127   1.0000      -0.211720        -5.7612
 128   1.0000      -0.206071        -5.6075
 129   1.0000      -0.191611        -5.2140
 130   1.0000      -0.189310        -5.1514
 131   1.0000      -0.187070        -5.0904
 132   1.0000      -0.181711        -4.9446
 133   1.0000      -0.171499        -4.6667
 134   1.0000      -0.158821        -4.3217
 135   1.0000      -0.150908        -4.1064
 136   1.0000      -0.146375        -3.9831
 137   1.0000      -0.133974        -3.6456
 138   1.0000      -0.133071        -3.6210
 139   1.0000      -0.132339        -3.6011
 140   1.0000      -0.124322        -3.3830
 141   1.0000      -0.120731        -3.2853
 142   1.0000      -0.115174        -3.1341
 143   1.0000      -0.111162        -3.0249
 144   1.0000      -0.099788        -2.7154
 145   1.0000      -0.098459        -2.6792
 146   1.0000      -0.097580        -2.6553
 147   1.0000      -0.095376        -2.5953
 148   1.0000      -0.070595        -1.9210
 149   1.0000      -0.067466        -1.8358
 150   1.0000      -0.067051        -1.8245
 151   1.0000      -0.049684        -1.3520
 152   1.0000      -0.044579        -1.2131
 153   1.0000      -0.037464        -1.0194
 154   1.0000      -0.036442        -0.9916
 155   1.0000      -0.031277        -0.8511
 156   1.0000      -0.025905        -0.7049
 157   1.0000      -0.015591        -0.4242
 158   1.0000       0.020731         0.5641
 159   1.0000       0.040209         1.0941
 160   0.0000       0.135677         3.6920
 161   0.0000       0.137418         3.7393
 162   0.0000       0.155272         4.2252
 163   0.0000       0.158706         4.3186
 164   0.0000       0.163179         4.4403

MULLIKEN ATOMIC CHARGES AND SPIN POPULATIONS
--------------------------------------------
   0 V :    0.471484    1.210443
   1 S :   -0.291047   -0.022489
   2 S :   -0.289164   -0.025136
   3 S :   -0.289270   -0.023413
   4 S :   -0.285234   -0.025576
   5 O :   -0.467749   -0.146576
   6 C :   -0.076984    0.009685
   7 C :   -0.085377    0.008007
   8 C :   -0.084031    0.007751
   9 C :   -0.084726    0.007414
  10 S :    0.097715   -0.000575
  11 S :    0.103843   -0.000633
  12 S :    0.100127   -0.000391
  13 S :    0.099097   -0.000345
  14 C :   -0.209088    0.001488
  15 C :   -0.212070    0.000992
  16 C :   -0.199759   -0.000036
  17 C :   -0.190558   -0.000401
  18 S :    0.042088   -0.000108
  19 S :   -0.030298   -0.000122
  20 S :    0.009058   -0.000068
  21 S :    0.007314   -0.000071
  22 C :   -0.300815   -0.000001
  23 C :   -0.299514   -0.000002
  24 C :   -0.158131   -0.000010
  25 H :    0.143698   -0.000001
  26 H :    0.113655   -0.000004
  27 H :    0.083529   -0.000001
  28 H :    0.091973   -0.000001
  29 H :    0.113384   -0.000005
  30 H :    0.142318   -0.000001
  31 C :   -0.294928    0.000175
  32 C :   -0.266911    0.000174
  33 C :   -0.170783   -0.000198
  34 H :    0.119610   -0.000019
  35 H :    0.111248    0.000026
  36 H :    0.093008    0.000024
  37 H :    0.073041    0.000007
  38 H :    0.108267    0.000012
  39 H :    0.161981   -0.000014
Sum of atomic charges         :   -2.0000000

LOEWDIN ATOMIC CHARGES AND SPIN POPULATIONS
-------------------------------------------
   0 V :   -0.155647    1.163837
   1 S :    0.079942   -0.014501
   2 S :    0.079418   -0.016037
   3 S :    0.081194   -0.015274
   4 S :    0.083428   -0.016222
   5 O :   -0.318986   -0.131498
   6 C :   -0.549024    0.009055
   7 C :   -0.552875    0.007935
   8 C :   -0.552390    0.008127
   9 C :   -0.552431    0.007676
  10 S :    0.469161   -0.000897
  11 S :    0.475314   -0.000956
  12 S :    0.471403   -0.000820
  13 S :    0.470502   -0.000830
  14 C :   -0.464777    0.000167
  15 C :   -0.465175   -0.000080
  16 C :   -0.622797    0.000473
  17 C :   -0.622123    0.000085
  18 S :    0.396243   -0.000083
  19 S :    0.322815   -0.000096
  20 S :    0.359921   -0.000072
  21 S :    0.357644   -0.000075
  22 C :   -0.282825   -0.000007
  23 C :   -0.283805   -0.000009
  24 C :   -0.176121   -0.000002
  25 H :    0.062687   -0.000001
  26 H :    0.053524   -0.000002
  27 H :    0.058026   -0.000002
  28 H :    0.060169   -0.000001
  29 H :    0.053614   -0.000002
  30 H :    0.062234   -0.000002
  31 C :   -0.281314    0.000047
  32 C :   -0.311178    0.000037
  33 C :   -0.190981    0.000008
  34 H :    0.062094   -0.000002
  35 H :    0.059578    0.000013
  36 H :    0.062152    0.000005
  37 H :    0.072354    0.000000
  38 H :    0.053912    0.000005
  39 H :    0.075123   -0.000000

  Mayer bond orders larger than 0.100000
B(  0-V ,  1-S ) :   0.7720 B(  0-V ,  2-S ) :   0.7708 B(  0-V ,  3-S ) :   0.7653
B(  0-V ,  4-S ) :   0.7776 B(  0-V ,  5-O ) :   2.1487 B(  1-S ,  8-C ) :   1.1036
B(  2-S ,  6-C ) :   1.1051 B(  3-S ,  9-C ) :   1.1063 B(  4-S ,  7-C ) :   1.1050
B(  6-C ,  7-C ) :   1.6837 B(  6-C , 10-S ) :   0.9374 B(  7-C , 11-S ) :   0.9375
B(  8-C ,  9-C ) :   1.6986 B(  8-C , 13-S ) :   0.9336 B(  9-C , 12-S ) :   0.9354
B( 10-S , 14-C ) :   1.2468 B( 11-S , 14-C ) :   1.2509 B( 12-S , 15-C ) :   1.2467
B( 13-S , 15-C ) :   1.2466 B( 14-C , 16-C ) :   1.4494 B( 15-C , 17-C ) :   1.4534
B( 16-C , 18-S ) :   1.0644 B( 16-C , 19-S ) :   1.1034 B( 17-C , 20-S ) :   1.0874
B( 17-C , 21-S ) :   1.0892 B( 18-S , 32-C ) :   0.9918 B( 19-S , 31-C ) :   0.9521
B( 20-S , 23-C ) :   0.9919 B( 21-S , 22-C ) :   0.9903 B( 22-C , 24-C ) :   0.9134
B( 22-C , 25-H ) :   0.9657 B( 22-C , 26-H ) :   0.9657 B( 23-C , 24-C ) :   0.9134
B( 23-C , 29-H ) :   0.9655 B( 23-C , 30-H ) :   0.9656 B( 24-C , 27-H ) :   0.9625
B( 24-C , 28-H ) :   0.9719 B( 31-C , 33-C ) :   0.9262 B( 31-C , 38-H ) :   0.9696
B( 31-C , 39-H ) :   0.9601 B( 32-C , 33-C ) :   0.8983 B( 32-C , 34-H ) :   0.9621
B( 32-C , 35-H ) :   0.9616 B( 33-C , 36-H ) :   0.9660 B( 33-C , 37-H ) :   0.9613

FINAL SINGLE POINT ENERGY     -6337.668600948258

DIPOLE MOMENT
-------------
                                X             Y             Z
Electronic contribution:    -10.93450       3.19782      -7.52495
Nuclear contribution   :     12.11425      -3.65300       8.44075
                        -----------------------------------------
Total Dipole Moment    :      1.17975      -0.45517       0.91579
                        -----------------------------------------
Magnitude (a.u.)       :      1.56130
Magnitude (Debye)      :      3.96852

Rotational constants in cm-1:     0.010760     0.000804     0.000783
Rotational constants in MHz :   322.576898    24.115938    23.486604

                             ****ORCA TERMINATED NORMALLY****
TOTAL RUN TIME: 0 days 1 hours 1 minutes 47 seconds 672 msec
