                         Program Version 5.0.4 -  RELEASE  -
|  1> ! nofrozencore ReducedPop printbasis
|  2> ! B3LYP TZVP
|  3>
|  4> %basis
|  5> newgto V "CP(PPP)" end
|  6> end
|  7>
|  8> %pal
|  9> nprocs 6
| 10> end
| 11>
| 12> % sym SymThresh 1e-2 end
| 13> * xyz -2 2
| 14> V -0.3722457774566703 -0.31688892004317537 0.9995478089784144
| 15> S 0.8406465455498784 1.761055819137235 1.5786121334409342
| 16> S -2.081697879132906 1.1538341830142844 -0.0072052302058418834
| 17> S 1.8737543887445882 -1.3449691708767093 0.8117308427906459
| 18> S -0.9682437312553952 -1.880839045782037 -0.804915590967988
| 19> O -1.0258746107441423 -0.8672118804569731 2.338653412955805
| 20> C -2.96676101646216 -0.01940347049120346 -0.9400994130491239
| 21> C -2.5179897165173846 -1.2373100742026526 -1.2622052108592832
| 22> C 2.477461986213075 1.16740659884862 1.753448198862989
| 23> C 2.889384684938661 -0.07126161797299713 1.444783872484665
| 24> S -4.559878435898778 0.33514646762101413 -1.6139421790570656
| 25> S -3.6301663546241603 -2.1483073034109488 -2.284415250424694
| 26> S 4.627417950301603 -0.38786665804651366 1.6814552770583397
| 27> S 3.743287311168016 2.2710540118564673 2.3520196990238342
| 28> C -4.873672326255438 -1.0375429932553006 -2.5436636870232547
| 29> C 5.124639969096674 1.2181993194581247 2.157182760746663
| 30> C -6.034822839695591 -1.2926208680437683 -3.2251178680619104
| 31> C 6.40663545941223 1.5562087232715245 2.5021969968388684
| 32> S -7.326189990714769 -0.15673929714046422 -3.330682323679585
| 33> S -6.30205508064568 -2.7634855465898003 -4.0816402921469255
| 34> S 6.81365798553399 3.2091145736618407 3.020491839330983
| 35> S 7.747006512776377 0.4036846122355007 2.2933051306805363
| 36> C 8.678873906899714 1.3361575812604265 0.9753368522790344
| 37> C 7.908705854052356 3.6655275332160726 1.582427818711134
| 38> C 9.12050702102107 2.7592573304585946 1.3358608768288354
| 39> H 8.018016436394085 1.379667754914781 0.10357768476230057
| 40> H 9.53637276438269 0.7052477181135928 0.7181121663302871
| 41> H 9.667244354545907 3.166311814923737 0.468843266727423
| 42> H 9.807541452831225 2.76280836537592 2.1914359978295055
| 43> H 8.215835115424781 4.70094572723563 1.7640325162250103
| 44> H 7.270508328433397 3.653437766811741 0.6930307451904669
| 45> C -7.751432261099126 -3.4624640293220676 -3.205545884017804
| 46> C -8.691528192370106 -1.0603925575065103 -2.5063195218384378
| 47> C -8.850530064649071 -2.397648712147191 -3.23461959837379
| 48> H -8.570738784056257 -1.1174016331735979 -1.4051347584177947
| 49> H -9.591363661653393 -0.4474072415886401 -2.7392482874188078
| 50> H -8.94591121036913 -2.1211912660346637 -4.310535098413672
| 51> H -9.822369680551164 -2.865351868262266 -2.934751212803936
| 52> H -8.080336015603397 -4.296837534394617 -3.8654280115731297
| 53> H -7.497147755591471 -3.8727867939468132 -2.206778674392141
| 54> *
| 55>
| 56> % eprnmr
| 57> gtensor true
| 58> Nuclei = all H {aiso,adip,aorb,fgrad,rho}
| 59> Nuclei = all V {aiso,adip,aorb,fgrad,rho}
| 60> end
| 61>
| 62>                          ****END OF INPUT****

CARTESIAN COORDINATES (ANGSTROEM)
---------------------------------
  V     -0.373202   -0.316298    0.995882
  S      0.839690    1.761647    1.574947
  S     -2.082654    1.154425   -0.010871
  S      1.872798   -1.344378    0.808066
  S     -0.969200   -1.880248   -0.808581
  O     -1.026831   -0.866621    2.334988
  C     -2.967717   -0.018812   -0.943765
  C     -2.518946   -1.236719   -1.265871
  C      2.476506    1.167998    1.749783
  C      2.888428   -0.070670    1.441119
  S     -4.560835    0.335738   -1.617608
  S     -3.631123   -2.147716   -2.288081
  S      4.626462   -0.387276    1.677790
  S      3.742331    2.271645    2.348354
  C     -4.874629   -1.036952   -2.547329
  C      5.123684    1.218790    2.153517
  C     -6.035779   -1.292030   -3.228783
  C      6.405679    1.556800    2.498532
  S     -7.327146   -0.156148   -3.334348
  S     -6.303011   -2.762894   -4.085306
  S      6.812702    3.209706    3.016827
  S      7.746050    0.404276    2.289640
  C      8.677918    1.336749    0.971672
  C      7.907750    3.666119    1.578762
  C      9.119551    2.759848    1.332196
  H      8.017060    1.380259    0.099912
  H      9.535417    0.705839    0.714447
  H      9.666288    3.166903    0.465178
  H      9.806585    2.763400    2.187771
  H      8.214879    4.701537    1.760367
  H      7.269552    3.654029    0.689365
  C     -7.752388   -3.461873   -3.209211
  C     -8.692484   -1.059801   -2.509985
  C     -8.851486   -2.397058   -3.238285
  H     -8.571695   -1.116810   -1.408800
  H     -9.592320   -0.446816   -2.742914
  H     -8.946867   -2.120600   -4.314200
  H     -9.823326   -2.864761   -2.938417
  H     -8.081292   -4.296246   -3.869093
  H     -7.498104   -3.872196   -2.210444

 Total Charge           Charge          ....   -2
 Multiplicity           Mult            ....    2
 Number of Electrons    NEL             ....  321
 Basis Dimension        Dim             ....  681

ORBITAL ENERGIES
----------------
                 SPIN UP ORBITALS
  NO   OCC          E(Eh)            E(eV)
   0   1.0000    -196.678974     -5351.9070
   1   1.0000     -88.734693     -2414.5938
   2   1.0000     -88.734586     -2414.5908
   3   1.0000     -88.730428     -2414.4777
   4   1.0000     -88.730376     -2414.4763
   5   1.0000     -88.728829     -2414.4342
   6   1.0000     -88.728673     -2414.4299
   7   1.0000     -88.720709     -2414.2132
   8   1.0000     -88.720591     -2414.2100
   9   1.0000     -88.644334     -2412.1349
  10   1.0000     -88.644254     -2412.1328
  11   1.0000     -88.642989     -2412.0983
  12   1.0000     -88.642415     -2412.0827
  13   1.0000     -22.054398      -600.1307
  14   1.0000     -18.894389      -514.1425
  15   1.0000     -18.560814      -505.0654
  16   1.0000     -18.555703      -504.9264
  17   1.0000     -18.555572      -504.9228
  18   1.0000     -10.074964      -274.1537
  19   1.0000     -10.068388      -273.9748
  20   1.0000     -10.063999      -273.8553
  21   1.0000     -10.063936      -273.8536
  22   1.0000     -10.060843      -273.7695
  23   1.0000     -10.060737      -273.7666
  24   1.0000     -10.054103      -273.5861
  25   1.0000     -10.047871      -273.4165
  26   1.0000     -10.046775      -273.3866
  27   1.0000     -10.033919      -273.0368
  28   1.0000     -10.020475      -272.6710
  29   1.0000     -10.019504      -272.6446
  30   1.0000     -10.019187      -272.6359
  31   1.0000     -10.018366      -272.6136
  32   1.0000      -7.787827      -211.9175
  33   1.0000      -7.787725      -211.9148
  34   1.0000      -7.784877      -211.8373
  35   1.0000      -7.784734      -211.8334
  36   1.0000      -7.784516      -211.8275
  37   1.0000      -7.784483      -211.8266
  38   1.0000      -7.775920      -211.5935
  39   1.0000      -7.775829      -211.5911
  40   1.0000      -7.699089      -209.5029
  41   1.0000      -7.698883      -209.4973
  42   1.0000      -7.697423      -209.4575
  43   1.0000      -7.696967      -209.4451
  44   1.0000      -5.752872      -156.5436
  45   1.0000      -5.752770      -156.5408
  46   1.0000      -5.749391      -156.4489
  47   1.0000      -5.749350      -156.4478
  48   1.0000      -5.749330      -156.4472
  49   1.0000      -5.749321      -156.4470
  50   1.0000      -5.749295      -156.4463
  51   1.0000      -5.749198      -156.4436
  52   1.0000      -5.744880      -156.3261
  53   1.0000      -5.744874      -156.3260
  54   1.0000      -5.744843      -156.3251
  55   1.0000      -5.744729      -156.3220
  56   1.0000      -5.742642      -156.2652
  57   1.0000      -5.742535      -156.2623
  58   1.0000      -5.741091      -156.2230
  59   1.0000      -5.740945      -156.2190
  60   1.0000      -5.740786      -156.2147
  61   1.0000      -5.740688      -156.2121
  62   1.0000      -5.740421      -156.2048
  63   1.0000      -5.740392      -156.2040
  64   1.0000      -5.737226      -156.1179
  65   1.0000      -5.737131      -156.1153
  66   1.0000      -5.730750      -155.9416
  67   1.0000      -5.730666      -155.9393
  68   1.0000      -5.664341      -154.1345
  69   1.0000      -5.664185      -154.1303
  70   1.0000      -5.662687      -154.0896
  71   1.0000      -5.662206      -154.0765
  72   1.0000      -5.657631      -153.9520
  73   1.0000      -5.657463      -153.9474
  74   1.0000      -5.656447      -153.9198
  75   1.0000      -5.656226      -153.9137
  76   1.0000      -5.656090      -153.9100
  77   1.0000      -5.655628      -153.8975
  78   1.0000      -5.654779      -153.8744
  79   1.0000      -5.654295      -153.8612
  80   1.0000      -2.448095       -66.6161
  81   1.0000      -1.489396       -40.5285
  82   1.0000      -1.477850       -40.2144
  83   1.0000      -1.476889       -40.1882
  84   1.0000      -0.730431       -19.8760
  85   1.0000      -0.713808       -19.4237
  86   1.0000      -0.695884       -18.9360
  87   1.0000      -0.688722       -18.7411
  88   1.0000      -0.653908       -17.7937
  89   1.0000      -0.635675       -17.2976
  90   1.0000      -0.634705       -17.2712
  91   1.0000      -0.616386       -16.7727
  92   1.0000      -0.614194       -16.7131
  93   1.0000      -0.586646       -15.9635
  94   1.0000      -0.582688       -15.8558
  95   1.0000      -0.578510       -15.7420
  96   1.0000      -0.578318       -15.7368
  97   1.0000      -0.498658       -13.5692
  98   1.0000      -0.498391       -13.5619
  99   1.0000      -0.497170       -13.5287
 100   1.0000      -0.494486       -13.4556
 101   1.0000      -0.482507       -13.1297
 102   1.0000      -0.480877       -13.0853
 103   1.0000      -0.448735       -12.2107
 104   1.0000      -0.446083       -12.1385
 105   1.0000      -0.417867       -11.3707
 106   1.0000      -0.413730       -11.2582
 107   1.0000      -0.356510        -9.7011
 108   1.0000      -0.351607        -9.5677
 109   1.0000      -0.330952        -9.0057
 110   1.0000      -0.327141        -8.9020
 111   1.0000      -0.324393        -8.8272
 112   1.0000      -0.320892        -8.7319
 113   1.0000      -0.307205        -8.3595
 114   1.0000      -0.303036        -8.2460
 115   1.0000      -0.294050        -8.0015
 116   1.0000      -0.287472        -7.8225
 117   1.0000      -0.260409        -7.0861
 118   1.0000      -0.258073        -7.0225
 119   1.0000      -0.257588        -7.0093
 120   1.0000      -0.255829        -6.9614
 121   1.0000      -0.239727        -6.5233
 122   1.0000      -0.235284        -6.4024
 123   1.0000      -0.231226        -6.2920
 124   1.0000      -0.227232        -6.1833
 125   1.0000      -0.223258        -6.0752
 126   1.0000      -0.220255        -5.9934
 127   1.0000      -0.214356        -5.8329
 128   1.0000      -0.209812        -5.7093
 129   1.0000      -0.196604        -5.3499
 130   1.0000      -0.190437        -5.1820
 131   1.0000      -0.188252        -5.1226
 132   1.0000      -0.185510        -5.0480
 133   1.0000      -0.176514        -4.8032
 134   1.0000      -0.165192        -4.4951
 135   1.0000      -0.152113        -4.1392
 136   1.0000      -0.145927        -3.9709
 137   1.0000      -0.139438        -3.7943
 138   1.0000      -0.137969        -3.7543
 139   1.0000      -0.129832        -3.5329
 140   1.0000      -0.128830        -3.5056
 141   1.0000      -0.121010        -3.2928
 142   1.0000      -0.117251        -3.1906
 143   1.0000      -0.112797        -3.0693
 144   1.0000      -0.102182        -2.7805
 145   1.0000      -0.100433        -2.7329
 146   1.0000      -0.097550        -2.6545
 147   1.0000      -0.094707        -2.5771
 148   1.0000      -0.078353        -2.1321
 149   1.0000      -0.069377        -1.8879
 150   1.0000      -0.056825        -1.5463
 151   1.0000      -0.055278        -1.5042
 152   1.0000      -0.050277        -1.3681
 153   1.0000      -0.040245        -1.0951
 154   1.0000      -0.037978        -1.0334
 155   1.0000      -0.031265        -0.8508
 156   1.0000      -0.028994        -0.7890
 157   1.0000      -0.022936        -0.6241
 158   1.0000      -0.020348        -0.5537
 159   1.0000       0.017506         0.4764
 160   1.0000       0.037865         1.0304
 161   0.0000       0.137384         3.7384
 162   0.0000       0.139070         3.7843
 163   0.0000       0.161433         4.3928
 164   0.0000       0.168279         4.5791
 165   0.0000       0.168911         4.5963

                 SPIN DOWN ORBITALS
  NO   OCC          E(Eh)            E(eV)
   0   1.0000    -196.679120     -5351.9109
   1   1.0000     -88.734694     -2414.5938
   2   1.0000     -88.734587     -2414.5909
   3   1.0000     -88.730437     -2414.4779
   4   1.0000     -88.730384     -2414.4765
   5   1.0000     -88.728839     -2414.4345
   6   1.0000     -88.728683     -2414.4302
   7   1.0000     -88.720710     -2414.2133
   8   1.0000     -88.720591     -2414.2100
   9   1.0000     -88.644470     -2412.1386
  10   1.0000     -88.644391     -2412.1365
  11   1.0000     -88.643125     -2412.1021
  12   1.0000     -88.642553     -2412.0865
  13   1.0000     -22.039498      -599.7252
  14   1.0000     -18.898170      -514.2453
  15   1.0000     -18.555554      -504.9223
  16   1.0000     -18.539754      -504.4923
  17   1.0000     -18.539445      -504.4839
  18   1.0000     -10.074962      -274.1537
  19   1.0000     -10.068374      -273.9744
  20   1.0000     -10.063999      -273.8553
  21   1.0000     -10.063936      -273.8536
  22   1.0000     -10.060842      -273.7694
  23   1.0000     -10.060735      -273.7665
  24   1.0000     -10.054103      -273.5861
  25   1.0000     -10.047868      -273.4164
  26   1.0000     -10.046775      -273.3866
  27   1.0000     -10.033910      -273.0366
  28   1.0000     -10.020249      -272.6648
  29   1.0000     -10.019289      -272.6387
  30   1.0000     -10.018976      -272.6302
  31   1.0000     -10.018157      -272.6079
  32   1.0000      -7.787827      -211.9175
  33   1.0000      -7.787726      -211.9148
  34   1.0000      -7.784887      -211.8376
  35   1.0000      -7.784744      -211.8337
  36   1.0000      -7.784526      -211.8277
  37   1.0000      -7.784493      -211.8268
  38   1.0000      -7.775920      -211.5935
  39   1.0000      -7.775830      -211.5911
  40   1.0000      -7.699216      -209.5063
  41   1.0000      -7.699011      -209.5007
  42   1.0000      -7.697550      -209.4610
  43   1.0000      -7.697096      -209.4486
  44   1.0000      -5.752873      -156.5436
  45   1.0000      -5.752771      -156.5409
  46   1.0000      -5.749392      -156.4489
  47   1.0000      -5.749362      -156.4481
  48   1.0000      -5.749344      -156.4476
  49   1.0000      -5.749333      -156.4473
  50   1.0000      -5.749296      -156.4463
  51   1.0000      -5.749212      -156.4440
  52   1.0000      -5.744895      -156.3265
  53   1.0000      -5.744889      -156.3264
  54   1.0000      -5.744857      -156.3255
  55   1.0000      -5.744743      -156.3224
  56   1.0000      -5.742642      -156.2652
  57   1.0000      -5.742535      -156.2623
  58   1.0000      -5.741102      -156.2233
  59   1.0000      -5.740955      -156.2193
  60   1.0000      -5.740787      -156.2148
  61   1.0000      -5.740689      -156.2121
  62   1.0000      -5.740427      -156.2050
  63   1.0000      -5.740398      -156.2042
  64   1.0000      -5.737227      -156.1179
  65   1.0000      -5.737132      -156.1153
  66   1.0000      -5.730751      -155.9417
  67   1.0000      -5.730667      -155.9394
  68   1.0000      -5.664476      -154.1382
  69   1.0000      -5.664324      -154.1341
  70   1.0000      -5.662829      -154.0934
  71   1.0000      -5.662347      -154.0803
  72   1.0000      -5.658004      -153.9621
  73   1.0000      -5.657831      -153.9574
  74   1.0000      -5.656534      -153.9221
  75   1.0000      -5.656441      -153.9196
  76   1.0000      -5.656320      -153.9163
  77   1.0000      -5.655989      -153.9073
  78   1.0000      -5.654884      -153.8772
  79   1.0000      -5.654401      -153.8641
  80   1.0000      -2.403295       -65.3970
  81   1.0000      -1.470124       -40.0041
  82   1.0000      -1.415487       -38.5173
  83   1.0000      -1.415397       -38.5149
  84   1.0000      -0.730381       -19.8747
  85   1.0000      -0.713781       -19.4230
  86   1.0000      -0.695853       -18.9351
  87   1.0000      -0.688690       -18.7402
  88   1.0000      -0.662015       -18.0143
  89   1.0000      -0.635610       -17.2958
  90   1.0000      -0.634651       -17.2697
  91   1.0000      -0.616384       -16.7727
  92   1.0000      -0.614196       -16.7131
  93   1.0000      -0.586571       -15.9614
  94   1.0000      -0.582658       -15.8549
  95   1.0000      -0.578486       -15.7414
  96   1.0000      -0.578258       -15.7352
  97   1.0000      -0.498774       -13.5723
  98   1.0000      -0.498419       -13.5627
  99   1.0000      -0.497256       -13.5310
 100   1.0000      -0.494521       -13.4566
 101   1.0000      -0.482639       -13.1333
 102   1.0000      -0.481051       -13.0901
 103   1.0000      -0.448754       -12.2112
 104   1.0000      -0.446139       -12.1401
 105   1.0000      -0.417865       -11.3707
 106   1.0000      -0.413818       -11.2606
 107   1.0000      -0.356504        -9.7010
 108   1.0000      -0.351580        -9.5670
 109   1.0000      -0.330906        -9.0044
 110   1.0000      -0.327125        -8.9015
 111   1.0000      -0.324371        -8.8266
 112   1.0000      -0.320895        -8.7320
 113   1.0000      -0.307172        -8.3586
 114   1.0000      -0.302999        -8.2450
 115   1.0000      -0.294044        -8.0013
 116   1.0000      -0.287469        -7.8224
 117   1.0000      -0.260285        -7.0827
 118   1.0000      -0.258022        -7.0211
 119   1.0000      -0.257513        -7.0073
 120   1.0000      -0.255795        -6.9605
 121   1.0000      -0.239684        -6.5221
 122   1.0000      -0.235229        -6.4009
 123   1.0000      -0.231194        -6.2911
 124   1.0000      -0.227196        -6.1823
 125   1.0000      -0.222648        -6.0586
 126   1.0000      -0.219829        -5.9819
 127   1.0000      -0.214236        -5.8296
 128   1.0000      -0.209801        -5.7090
 129   1.0000      -0.195254        -5.3131
 130   1.0000      -0.190375        -5.1804
 131   1.0000      -0.187975        -5.1151
 132   1.0000      -0.185188        -5.0392
 133   1.0000      -0.176284        -4.7969
 134   1.0000      -0.164573        -4.4783
 135   1.0000      -0.151962        -4.1351
 136   1.0000      -0.145815        -3.9678
 137   1.0000      -0.138552        -3.7702
 138   1.0000      -0.137788        -3.7494
 139   1.0000      -0.129630        -3.5274
 140   1.0000      -0.128334        -3.4921
 141   1.0000      -0.121029        -3.2934
 142   1.0000      -0.118875        -3.2347
 143   1.0000      -0.114504        -3.1158
 144   1.0000      -0.102159        -2.7799
 145   1.0000      -0.100724        -2.7408
 146   1.0000      -0.097539        -2.6542
 147   1.0000      -0.094880        -2.5818
 148   1.0000      -0.074221        -2.0197
 149   1.0000      -0.069366        -1.8875
 150   1.0000      -0.056338        -1.5330
 151   1.0000      -0.053206        -1.4478
 152   1.0000      -0.049401        -1.3443
 153   1.0000      -0.039666        -1.0794
 154   1.0000      -0.038001        -1.0341
 155   1.0000      -0.031026        -0.8443
 156   1.0000      -0.029986        -0.8160
 157   1.0000      -0.020568        -0.5597
 158   1.0000       0.017814         0.4847
 159   1.0000       0.036830         1.0022
 160   0.0000       0.137347         3.7374
 161   0.0000       0.138903         3.7798
 162   0.0000       0.152158         4.1404
 163   0.0000       0.161810         4.4031
 164   0.0000       0.169266         4.6060

MULLIKEN ATOMIC CHARGES AND SPIN POPULATIONS
--------------------------------------------
   0 V :    0.456136    1.209086
   1 S :   -0.287097   -0.022288
   2 S :   -0.273799   -0.023824
   3 S :   -0.285122   -0.023201
   4 S :   -0.269494   -0.024392
   5 O :   -0.464596   -0.146616
   6 C :   -0.090185    0.008831
   7 C :   -0.097430    0.007471
   8 C :   -0.086582    0.007572
   9 C :   -0.087369    0.007237
  10 S :    0.138638   -0.000745
  11 S :    0.139929   -0.000721
  12 S :    0.109768   -0.000384
  13 S :    0.108806   -0.000349
  14 C :   -0.218688    0.001944
  15 C :   -0.239774    0.000892
  16 C :   -0.249548   -0.000004
  17 C :   -0.163338   -0.000345
  18 S :    0.014315   -0.000102
  19 S :    0.014114   -0.000102
  20 S :    0.005579   -0.000067
  21 S :    0.005603   -0.000070
  22 C :   -0.317516    0.000002
  23 C :   -0.317226    0.000001
  24 C :   -0.135529   -0.000014
  25 H :    0.141033   -0.000001
  26 H :    0.116904   -0.000004
  27 H :    0.085816   -0.000001
  28 H :    0.090925   -0.000001
  29 H :    0.116544   -0.000004
  30 H :    0.140885   -0.000001
  31 C :   -0.244424    0.000179
  32 C :   -0.246015    0.000177
  33 C :   -0.245812   -0.000212
  34 H :    0.133148   -0.000010
  35 H :    0.098488    0.000019
  36 H :    0.097806    0.000031
  37 H :    0.073651    0.000004
  38 H :    0.098470    0.000020
  39 H :    0.132989   -0.000009
Sum of atomic charges         :   -2.0000000

LOEWDIN ATOMIC CHARGES AND SPIN POPULATIONS
-------------------------------------------
   0 V :   -0.159484    1.162832
   1 S :    0.085674   -0.014339
   2 S :    0.097015   -0.015023
   3 S :    0.087056   -0.015110
   4 S :    0.100823   -0.015315
   5 O :   -0.317269   -0.131468
   6 C :   -0.563994    0.008322
   7 C :   -0.565972    0.007415
   8 C :   -0.559559    0.007950
   9 C :   -0.559540    0.007512
  10 S :    0.525717   -0.000971
  11 S :    0.526284   -0.000969
  12 S :    0.484843   -0.000807
  13 S :    0.484178   -0.000819
  14 C :   -0.520251    0.000523
  15 C :   -0.481870   -0.000073
  16 C :   -0.683491    0.000434
  17 C :   -0.629320    0.000043
  18 S :    0.375555   -0.000064
  19 S :    0.376748   -0.000062
  20 S :    0.357764   -0.000071
  21 S :    0.357370   -0.000073
  22 C :   -0.284126   -0.000010
  23 C :   -0.284248   -0.000012
  24 C :   -0.170687   -0.000002
  25 H :    0.063233   -0.000001
  26 H :    0.052785   -0.000002
  27 H :    0.060849   -0.000002
  28 H :    0.059940   -0.000001
  29 H :    0.052736   -0.000002
  30 H :    0.063096   -0.000001
  31 C :   -0.291392    0.000070
  32 C :   -0.291092    0.000063
  33 C :   -0.198229    0.000005
  34 H :    0.059875    0.000000
  35 H :    0.057472    0.000009
  36 H :    0.062528    0.000007
  37 H :    0.051663    0.000003
  38 H :    0.057577    0.000009
  39 H :    0.059744    0.000001

  Mayer bond orders larger than 0.100000
B(  0-V ,  1-S ) :   0.7764 B(  0-V ,  2-S ) :   0.7749 B(  0-V ,  3-S ) :   0.7698
B(  0-V ,  4-S ) :   0.7822 B(  0-V ,  5-O ) :   2.1507 B(  1-S ,  8-C ) :   1.1101
B(  2-S ,  6-C ) :   1.1267 B(  3-S ,  9-C ) :   1.1130 B(  4-S ,  7-C ) :   1.1263
B(  6-C ,  7-C ) :   1.6234 B(  6-C , 10-S ) :   0.9777 B(  7-C , 11-S ) :   0.9832
B(  8-C ,  9-C ) :   1.6773 B(  8-C , 13-S ) :   0.9503 B(  9-C , 12-S ) :   0.9525
B( 10-S , 14-C ) :   1.3463 B( 11-S , 14-C ) :   1.3456 B( 12-S , 15-C ) :   1.2547
B( 13-S , 15-C ) :   1.2552 B( 14-C , 16-C ) :   1.2656 B( 15-C , 17-C ) :   1.4362
B( 16-C , 18-S ) :   1.1470 B( 16-C , 19-S ) :   1.1464 B( 17-C , 20-S ) :   1.0829
B( 17-C , 21-S ) :   1.0831 B( 18-S , 32-C ) :   0.9985 B( 19-S , 31-C ) :   0.9983
B( 20-S , 23-C ) :   0.9884 B( 21-S , 22-C ) :   0.9879 B( 22-C , 24-C ) :   0.9138
B( 22-C , 25-H ) :   0.9694 B( 22-C , 26-H ) :   0.9619 B( 23-C , 24-C ) :   0.9141
B( 23-C , 29-H ) :   0.9620 B( 23-C , 30-H ) :   0.9692 B( 24-C , 27-H ) :   0.9711
B( 24-C , 28-H ) :   0.9639 B( 31-C , 33-C ) :   0.9137 B( 31-C , 38-H ) :   0.9711
B( 31-C , 39-H ) :   0.9496 B( 32-C , 33-C ) :   0.9132 B( 32-C , 34-H ) :   0.9494
B( 32-C , 35-H ) :   0.9709 B( 33-C , 36-H ) :   0.9887 B( 33-C , 37-H ) :   0.9329

FINAL SINGLE POINT ENERGY     -6337.677868725568

DIPOLE MOMENT
-------------
                                X             Y             Z
Electronic contribution:     -1.00822      -2.57697      14.15270
Nuclear contribution   :      1.68457       2.98857     -15.40927
                        -----------------------------------------
Total Dipole Moment    :      0.67635       0.41159      -1.25657
                        -----------------------------------------
Magnitude (a.u.)       :      1.48520
Magnitude (Debye)      :      3.77509

Rotational constants in cm-1:     0.011022     0.000805     0.000785
Rotational constants in MHz :   330.421469    24.131392    23.542498

                             ****ORCA TERMINATED NORMALLY****
TOTAL RUN TIME: 0 days 1 hours 6 minutes 30 seconds 146 msec
