                         Program Version 5.0.4 -  RELEASE  -
|  1> ! nofrozencore ReducedPop printbasis
|  2> ! B3LYP TZVP
|  3>
|  4> %basis
|  5> newgto V "CP(PPP)" end
|  6> end
|  7>
|  8> %pal
|  9> nprocs 8
| 10> end
| 11>
| 12> % sym SymThresh 1e-2 end
| 13> * xyz -2 2
| 14> V 0.25971826397765635 0.7556352103835566 -0.7691635742174942
| 15> S -2.0327575150196213 0.1697755688943011 -1.5801362082187311
| 16> S -0.7636209586244767 2.0102828783504325 1.1315179622725993
| 17> S 0.9174666171439861 -1.4160994883884008 -1.8271035655335688
| 18> S 2.1035153625306475 0.319883851363628 0.8433033148756915
| 19> O 0.7833822946988048 1.9006170961647744 -1.7336200207498225
| 20> C 0.6492987008279135 2.2574327403706373 2.157436399068788
| 21> C 1.8026723139887388 1.571403902326246 2.0458697465340583
| 22> C -1.7574928261246927 -1.3128555147274763 -2.496317495429997
| 23> C -0.5762762800294916 -1.9503704444241077 -2.59304868762684
| 24> S 0.5541555946871479 3.4373011266937477 3.515823007435929
| 25> S 3.0624173635089025 1.9174313370715554 3.2887562092928335
| 26> S -0.5670102157278369 -3.47299739194179 -3.56362721045451
| 27> S -3.1467028161500528 -2.072666673496963 -3.3569327923618557
| 28> C 2.14458059267666 3.108445205374827 4.221561001057177
| 29> C -2.274448418497783 -3.45818181688825 -4.029168629234375
| 30> C 2.613581018025747 3.726191763344645 5.352697290806479
| 31> C -2.8672694557091285 -4.409820573190356 -4.820097839867315
| 32> S 1.6810047559856278 4.99415810350282 6.194825202185838
| 33> S 4.241167133182298 3.4180671042594652 6.016110921537149
| 34> S -4.614210024386925 -4.379906596180809 -5.184260554058608
| 35> S -1.9930949571361225 -5.839547093748513 -5.432546385787132
| 36> C -2.8676167312861547 -7.131368574538122 -4.424949175889235
| 37> C -5.107467440648914 -5.8747752556861945 -4.200016216506127
| 38> C -4.3869731461013455 -7.156611331254155 -4.62916724045333
| 39> H -2.6181601150774343 -6.9604816686101865 -3.3733925535440226
| 40> H -2.4297938571665383 -8.08571053171917 -4.729796532098019
| 41> H -4.797856680455751 -7.9929922038196475 -4.041209133682944
| 42> H -4.607733200158201 -7.3614174246586455 -5.684674750242438
| 43> H -6.1867502179183935 -5.981939991669571 -4.344607533714634
| 44> H -4.923893289833007 -5.65582266571027 -3.1433479001399873
| 45> C 4.987616951513919 5.084794269469039 5.685009126411919
| 46> C 2.794574854908543 6.429748202662012 5.817512746481137
| 47> C 4.226152854146372 6.2473359437580385 6.329800653413134
| 48> H 2.7828593185266652 6.588738495292912 4.735220537111401
| 49> H 2.3296882932619725 7.296821157532929 6.295312729100272
| 50> H 4.2073613811181625 6.110614124077126 7.418026380738384
| 51> H 4.7831479696212185 7.175414032299835 6.126721791254196
| 52> H 6.004467561180367 5.031989439436525 6.083114900198498
| 53> H 5.050603212961937 5.213943030066867 4.60077625403678
| 54> *
| 55>
| 56> % eprnmr
| 57> gtensor true
| 58> Nuclei = all H {aiso,adip,aorb,fgrad,rho}
| 59> Nuclei = all V {aiso,adip,aorb,fgrad,rho}
| 60> end
| 61>
| 62>                          ****END OF INPUT****

CARTESIAN COORDINATES (ANGSTROEM)
---------------------------------
  V      0.259656    0.754885   -0.765404
  S     -2.032820    0.169025   -1.576377
  S     -0.763684    2.009533    1.135277
  S      0.917404   -1.416850   -1.823344
  S      2.103453    0.319134    0.847063
  O      0.783320    1.899867   -1.729861
  C      0.649236    2.256683    2.161196
  C      1.802610    1.570654    2.049629
  C     -1.757555   -1.313606   -2.492558
  C     -0.576339   -1.951121   -2.589289
  S      0.554093    3.436551    3.519582
  S      3.062355    1.916681    3.292516
  S     -0.567073   -3.473748   -3.559868
  S     -3.146765   -2.073417   -3.353173
  C      2.144518    3.107695    4.225320
  C     -2.274511   -3.458932   -4.025409
  C      2.613518    3.725442    5.356457
  C     -2.867332   -4.410571   -4.816339
  S      1.680942    4.993408    6.198585
  S      4.241105    3.417317    6.019870
  S     -4.614273   -4.380657   -5.180501
  S     -1.993158   -5.840297   -5.428787
  C     -2.867679   -7.132119   -4.421190
  C     -5.107530   -5.875525   -4.196257
  C     -4.387036   -7.157362   -4.625408
  H     -2.618223   -6.961232   -3.369633
  H     -2.429856   -8.086461   -4.726037
  H     -4.797919   -7.993742   -4.037450
  H     -4.607796   -7.362168   -5.680915
  H     -6.186813   -5.982690   -4.340848
  H     -4.923956   -5.656573   -3.139589
  C      4.987554    5.084044    5.688768
  C      2.794512    6.428998    5.821272
  C      4.226090    6.246586    6.333560
  H      2.782797    6.587988    4.738980
  H      2.329626    7.296071    6.299072
  H      4.207299    6.109864    7.421786
  H      4.783085    7.174664    6.130481
  H      6.004405    5.031239    6.086874
  H      5.050541    5.213193    4.604536

 Total Charge           Charge          ....   -2
 Multiplicity           Mult            ....    2
 Number of Electrons    NEL             ....  321
 Basis Dimension        Dim             ....  681

ORBITAL ENERGIES
----------------
                 SPIN UP ORBITALS
  NO   OCC          E(Eh)            E(eV)
   0   1.0000    -196.681073     -5351.9641
   1   1.0000     -88.733868     -2414.5713
   2   1.0000     -88.733634     -2414.5649
   3   1.0000     -88.733343     -2414.5570
   4   1.0000     -88.733031     -2414.5485
   5   1.0000     -88.732934     -2414.5459
   6   1.0000     -88.732688     -2414.5392
   7   1.0000     -88.732287     -2414.5283
   8   1.0000     -88.732240     -2414.5270
   9   1.0000     -88.642137     -2412.0752
  10   1.0000     -88.642092     -2412.0740
  11   1.0000     -88.641913     -2412.0691
  12   1.0000     -88.641534     -2412.0588
  13   1.0000     -22.055939      -600.1726
  14   1.0000     -18.895604      -514.1755
  15   1.0000     -18.562454      -505.1100
  16   1.0000     -18.557265      -504.9689
  17   1.0000     -18.557086      -504.9640
  18   1.0000     -10.079210      -274.2693
  19   1.0000     -10.078940      -274.2619
  20   1.0000     -10.063995      -273.8552
  21   1.0000     -10.063828      -273.8507
  22   1.0000     -10.063662      -273.8462
  23   1.0000     -10.063487      -273.8414
  24   1.0000     -10.052186      -273.5339
  25   1.0000     -10.051954      -273.5276
  26   1.0000     -10.050017      -273.4749
  27   1.0000     -10.049780      -273.4684
  28   1.0000     -10.020815      -272.6802
  29   1.0000     -10.020770      -272.6790
  30   1.0000     -10.019970      -272.6572
  31   1.0000     -10.019963      -272.6570
  32   1.0000      -7.787188      -211.9002
  33   1.0000      -7.786937      -211.8933
  34   1.0000      -7.786710      -211.8871
  35   1.0000      -7.786417      -211.8792
  36   1.0000      -7.785921      -211.8657
  37   1.0000      -7.785720      -211.8602
  38   1.0000      -7.785356      -211.8503
  39   1.0000      -7.785306      -211.8489
  40   1.0000      -7.696094      -209.4214
  41   1.0000      -7.696040      -209.4199
  42   1.0000      -7.695829      -209.4141
  43   1.0000      -7.695502      -209.4052
  44   1.0000      -5.752208      -156.5256
  45   1.0000      -5.751956      -156.5187
  46   1.0000      -5.751710      -156.5120
  47   1.0000      -5.751427      -156.5043
  48   1.0000      -5.750875      -156.4893
  49   1.0000      -5.750668      -156.4836
  50   1.0000      -5.750304      -156.4737
  51   1.0000      -5.750251      -156.4723
  52   1.0000      -5.748780      -156.4323
  53   1.0000      -5.748530      -156.4255
  54   1.0000      -5.748312      -156.4195
  55   1.0000      -5.748007      -156.4112
  56   1.0000      -5.746474      -156.3695
  57   1.0000      -5.746258      -156.3636
  58   1.0000      -5.745894      -156.3537
  59   1.0000      -5.745844      -156.3524
  60   1.0000      -5.741960      -156.2467
  61   1.0000      -5.741750      -156.2410
  62   1.0000      -5.741717      -156.2401
  63   1.0000      -5.741563      -156.2359
  64   1.0000      -5.741483      -156.2337
  65   1.0000      -5.741188      -156.2257
  66   1.0000      -5.741185      -156.2256
  67   1.0000      -5.741134      -156.2242
  68   1.0000      -5.661425      -154.0552
  69   1.0000      -5.661420      -154.0551
  70   1.0000      -5.661213      -154.0494
  71   1.0000      -5.660861      -154.0399
  72   1.0000      -5.654752      -153.8736
  73   1.0000      -5.654719      -153.8727
  74   1.0000      -5.654509      -153.8670
  75   1.0000      -5.654185      -153.8582
  76   1.0000      -5.653438      -153.8379
  77   1.0000      -5.653388      -153.8365
  78   1.0000      -5.653141      -153.8298
  79   1.0000      -5.652837      -153.8215
  80   1.0000      -2.449142       -66.6445
  81   1.0000      -1.490885       -40.5690
  82   1.0000      -1.478644       -40.2360
  83   1.0000      -1.477375       -40.2014
  84   1.0000      -0.709067       -19.2947
  85   1.0000      -0.708862       -19.2891
  86   1.0000      -0.685215       -18.6457
  87   1.0000      -0.684726       -18.6324
  88   1.0000      -0.654590       -17.8123
  89   1.0000      -0.631134       -17.1740
  90   1.0000      -0.630658       -17.1611
  91   1.0000      -0.616220       -16.7682
  92   1.0000      -0.615645       -16.7526
  93   1.0000      -0.574620       -15.6362
  94   1.0000      -0.574092       -15.6218
  95   1.0000      -0.574063       -15.6210
  96   1.0000      -0.573686       -15.6108
  97   1.0000      -0.496831       -13.5194
  98   1.0000      -0.495407       -13.4807
  99   1.0000      -0.495288       -13.4775
 100   1.0000      -0.494826       -13.4649
 101   1.0000      -0.479765       -13.0551
 102   1.0000      -0.477866       -13.0034
 103   1.0000      -0.447468       -12.1762
 104   1.0000      -0.445594       -12.1252
 105   1.0000      -0.416986       -11.3468
 106   1.0000      -0.412614       -11.2278
 107   1.0000      -0.355078        -9.6622
 108   1.0000      -0.354461        -9.6454
 109   1.0000      -0.326499        -8.8845
 110   1.0000      -0.325897        -8.8681
 111   1.0000      -0.318705        -8.6724
 112   1.0000      -0.315214        -8.5774
 113   1.0000      -0.304986        -8.2991
 114   1.0000      -0.304286        -8.2800
 115   1.0000      -0.292093        -7.9482
 116   1.0000      -0.291407        -7.9296
 117   1.0000      -0.258706        -7.0398
 118   1.0000      -0.257118        -6.9965
 119   1.0000      -0.256921        -6.9912
 120   1.0000      -0.255516        -6.9529
 121   1.0000      -0.234381        -6.3778
 122   1.0000      -0.233785        -6.3616
 123   1.0000      -0.230390        -6.2692
 124   1.0000      -0.229328        -6.2403
 125   1.0000      -0.219585        -5.9752
 126   1.0000      -0.217763        -5.9256
 127   1.0000      -0.214688        -5.8419
 128   1.0000      -0.213649        -5.8137
 129   1.0000      -0.192770        -5.2455
 130   1.0000      -0.187205        -5.0941
 131   1.0000      -0.186131        -5.0649
 132   1.0000      -0.184954        -5.0329
 133   1.0000      -0.180559        -4.9132
 134   1.0000      -0.163108        -4.4384
 135   1.0000      -0.151754        -4.1294
 136   1.0000      -0.147901        -4.0246
 137   1.0000      -0.136798        -3.7225
 138   1.0000      -0.134829        -3.6689
 139   1.0000      -0.132785        -3.6133
 140   1.0000      -0.128697        -3.5020
 141   1.0000      -0.123514        -3.3610
 142   1.0000      -0.117482        -3.1968
 143   1.0000      -0.113132        -3.0785
 144   1.0000      -0.100216        -2.7270
 145   1.0000      -0.099105        -2.6968
 146   1.0000      -0.098152        -2.6708
 147   1.0000      -0.096227        -2.6185
 148   1.0000      -0.076211        -2.0738
 149   1.0000      -0.066849        -1.8190
 150   1.0000      -0.066293        -1.8039
 151   1.0000      -0.051618        -1.4046
 152   1.0000      -0.048786        -1.3275
 153   1.0000      -0.039399        -1.0721
 154   1.0000      -0.035106        -0.9553
 155   1.0000      -0.034293        -0.9332
 156   1.0000      -0.025683        -0.6989
 157   1.0000      -0.022346        -0.6081
 158   1.0000      -0.018007        -0.4900
 159   1.0000       0.019528         0.5314
 160   1.0000       0.038285         1.0418
 161   0.0000       0.135344         3.6829
 162   0.0000       0.135557         3.6887
 163   0.0000       0.161650         4.3987
 164   0.0000       0.162072         4.4102
 165   0.0000       0.166349         4.5266

                 SPIN DOWN ORBITALS
  NO   OCC          E(Eh)            E(eV)
   0   1.0000    -196.681218     -5351.9680
   1   1.0000     -88.733868     -2414.5713
   2   1.0000     -88.733635     -2414.5650
   3   1.0000     -88.733343     -2414.5570
   4   1.0000     -88.733032     -2414.5485
   5   1.0000     -88.732943     -2414.5461
   6   1.0000     -88.732698     -2414.5395
   7   1.0000     -88.732297     -2414.5285
   8   1.0000     -88.732250     -2414.5273
   9   1.0000     -88.642261     -2412.0786
  10   1.0000     -88.642231     -2412.0777
  11   1.0000     -88.642054     -2412.0729
  12   1.0000     -88.641663     -2412.0623
  13   1.0000     -22.040938      -599.7644
  14   1.0000     -18.899466      -514.2806
  15   1.0000     -18.557120      -504.9649
  16   1.0000     -18.541368      -504.5363
  17   1.0000     -18.540728      -504.5189
  18   1.0000     -10.079212      -274.2693
  19   1.0000     -10.078936      -274.2618
  20   1.0000     -10.063994      -273.8552
  21   1.0000     -10.063827      -273.8507
  22   1.0000     -10.063662      -273.8462
  23   1.0000     -10.063487      -273.8414
  24   1.0000     -10.052186      -273.5339
  25   1.0000     -10.051954      -273.5276
  26   1.0000     -10.050009      -273.4746
  27   1.0000     -10.049779      -273.4684
  28   1.0000     -10.020622      -272.6750
  29   1.0000     -10.020553      -272.6731
  30   1.0000     -10.019774      -272.6519
  31   1.0000     -10.019755      -272.6514
  32   1.0000      -7.787189      -211.9002
  33   1.0000      -7.786937      -211.8933
  34   1.0000      -7.786711      -211.8872
  35   1.0000      -7.786418      -211.8792
  36   1.0000      -7.785932      -211.8660
  37   1.0000      -7.785731      -211.8605
  38   1.0000      -7.785367      -211.8506
  39   1.0000      -7.785317      -211.8492
  40   1.0000      -7.696223      -209.4249
  41   1.0000      -7.696156      -209.4231
  42   1.0000      -7.695960      -209.4177
  43   1.0000      -7.695622      -209.4085
  44   1.0000      -5.752210      -156.5256
  45   1.0000      -5.751957      -156.5187
  46   1.0000      -5.751711      -156.5120
  47   1.0000      -5.751428      -156.5043
  48   1.0000      -5.750889      -156.4896
  49   1.0000      -5.750681      -156.4840
  50   1.0000      -5.750318      -156.4741
  51   1.0000      -5.750265      -156.4727
  52   1.0000      -5.748781      -156.4323
  53   1.0000      -5.748531      -156.4255
  54   1.0000      -5.748313      -156.4196
  55   1.0000      -5.748008      -156.4113
  56   1.0000      -5.746491      -156.3700
  57   1.0000      -5.746274      -156.3641
  58   1.0000      -5.745911      -156.3542
  59   1.0000      -5.745861      -156.3528
  60   1.0000      -5.741961      -156.2467
  61   1.0000      -5.741757      -156.2411
  62   1.0000      -5.741718      -156.2401
  63   1.0000      -5.741573      -156.2361
  64   1.0000      -5.741483      -156.2337
  65   1.0000      -5.741192      -156.2258
  66   1.0000      -5.741189      -156.2257
  67   1.0000      -5.741142      -156.2244
  68   1.0000      -5.661561      -154.0589
  69   1.0000      -5.661553      -154.0587
  70   1.0000      -5.661354      -154.0533
  71   1.0000      -5.660996      -154.0435
  72   1.0000      -5.655144      -153.8843
  73   1.0000      -5.655058      -153.8819
  74   1.0000      -5.654895      -153.8775
  75   1.0000      -5.654541      -153.8679
  76   1.0000      -5.653517      -153.8400
  77   1.0000      -5.653461      -153.8385
  78   1.0000      -5.653230      -153.8322
  79   1.0000      -5.652916      -153.8237
  80   1.0000      -2.404086       -65.4185
  81   1.0000      -1.471338       -40.0371
  82   1.0000      -1.416182       -38.5363
  83   1.0000      -1.415453       -38.5164
  84   1.0000      -0.709047       -19.2942
  85   1.0000      -0.708853       -19.2889
  86   1.0000      -0.685169       -18.6444
  87   1.0000      -0.684691       -18.6314
  88   1.0000      -0.662891       -18.0382
  89   1.0000      -0.631071       -17.1723
  90   1.0000      -0.630605       -17.1596
  91   1.0000      -0.616220       -16.7682
  92   1.0000      -0.615648       -16.7526
  93   1.0000      -0.574563       -15.6347
  94   1.0000      -0.574084       -15.6216
  95   1.0000      -0.574049       -15.6207
  96   1.0000      -0.573650       -15.6098
  97   1.0000      -0.496865       -13.5204
  98   1.0000      -0.495460       -13.4822
  99   1.0000      -0.495339       -13.4789
 100   1.0000      -0.494875       -13.4662
 101   1.0000      -0.479977       -13.0608
 102   1.0000      -0.478132       -13.0106
 103   1.0000      -0.447493       -12.1769
 104   1.0000      -0.445648       -12.1267
 105   1.0000      -0.416980       -11.3466
 106   1.0000      -0.412717       -11.2306
 107   1.0000      -0.355071        -9.6620
 108   1.0000      -0.354459        -9.6453
 109   1.0000      -0.326486        -8.8841
 110   1.0000      -0.325892        -8.8680
 111   1.0000      -0.318650        -8.6709
 112   1.0000      -0.315248        -8.5783
 113   1.0000      -0.304944        -8.2979
 114   1.0000      -0.304271        -8.2796
 115   1.0000      -0.292087        -7.9481
 116   1.0000      -0.291404        -7.9295
 117   1.0000      -0.258571        -7.0361
 118   1.0000      -0.257060        -6.9949
 119   1.0000      -0.256892        -6.9904
 120   1.0000      -0.255483        -6.9521
 121   1.0000      -0.234354        -6.3771
 122   1.0000      -0.233775        -6.3613
 123   1.0000      -0.230346        -6.2680
 124   1.0000      -0.229300        -6.2396
 125   1.0000      -0.219101        -5.9620
 126   1.0000      -0.217717        -5.9244
 127   1.0000      -0.214583        -5.8391
 128   1.0000      -0.213578        -5.8118
 129   1.0000      -0.191191        -5.2026
 130   1.0000      -0.187144        -5.0924
 131   1.0000      -0.185737        -5.0542
 132   1.0000      -0.184667        -5.0250
 133   1.0000      -0.180437        -4.9099
 134   1.0000      -0.162526        -4.4225
 135   1.0000      -0.151604        -4.1254
 136   1.0000      -0.147823        -4.0225
 137   1.0000      -0.135937        -3.6990
 138   1.0000      -0.134537        -3.6609
 139   1.0000      -0.132588        -3.6079
 140   1.0000      -0.128481        -3.4962
 141   1.0000      -0.123258        -3.3540
 142   1.0000      -0.119485        -3.2513
 143   1.0000      -0.114974        -3.1286
 144   1.0000      -0.100210        -2.7268
 145   1.0000      -0.099369        -2.7040
 146   1.0000      -0.098134        -2.6704
 147   1.0000      -0.096478        -2.6253
 148   1.0000      -0.071651        -1.9497
 149   1.0000      -0.066844        -1.8189
 150   1.0000      -0.066289        -1.8038
 151   1.0000      -0.049038        -1.3344
 152   1.0000      -0.047867        -1.3025
 153   1.0000      -0.039387        -1.0718
 154   1.0000      -0.034448        -0.9374
 155   1.0000      -0.034159        -0.9295
 156   1.0000      -0.026250        -0.7143
 157   1.0000      -0.018140        -0.4936
 158   1.0000       0.019944         0.5427
 159   1.0000       0.036827         1.0021
 160   0.0000       0.135350         3.6830
 161   0.0000       0.135549         3.6885
 162   0.0000       0.152650         4.1538
 163   0.0000       0.161876         4.4049
 164   0.0000       0.162533         4.4227

MULLIKEN ATOMIC CHARGES AND SPIN POPULATIONS
--------------------------------------------
   0 V :    0.479986    1.211836
   1 S :   -0.297683   -0.019386
   2 S :   -0.292997   -0.024310
   3 S :   -0.293043   -0.021352
   4 S :   -0.286367   -0.025346
   5 O :   -0.453699   -0.149866
   6 C :   -0.079322    0.009211
   7 C :   -0.083822    0.007289
   8 C :   -0.086875    0.006648
   9 C :   -0.085872    0.006724
  10 S :    0.101222   -0.000744
  11 S :    0.101474   -0.000810
  12 S :    0.101227   -0.000613
  13 S :    0.101995   -0.000533
  14 C :   -0.207732    0.001198
  15 C :   -0.209373    0.000569
  16 C :   -0.197348    0.000007
  17 C :   -0.193200   -0.000266
  18 S :    0.006634   -0.000109
  19 S :    0.006270   -0.000108
  20 S :    0.005347   -0.000088
  21 S :    0.004787   -0.000092
  22 C :   -0.299321    0.000010
  23 C :   -0.300265    0.000011
  24 C :   -0.162925   -0.000022
  25 H :    0.144559   -0.000002
  26 H :    0.113221   -0.000002
  27 H :    0.083325    0.000001
  28 H :    0.091833   -0.000002
  29 H :    0.113770   -0.000002
  30 H :    0.145765   -0.000002
  31 C :   -0.299503    0.000155
  32 C :   -0.301388    0.000145
  33 C :   -0.160986   -0.000175
  34 H :    0.144976   -0.000013
  35 H :    0.113908    0.000014
  36 H :    0.091962    0.000014
  37 H :    0.082855    0.000010
  38 H :    0.113112    0.000017
  39 H :    0.143496   -0.000016
Sum of atomic charges         :   -2.0000000

LOEWDIN ATOMIC CHARGES AND SPIN POPULATIONS
-------------------------------------------
   0 V :   -0.137555    1.167460
   1 S :    0.069249   -0.012633
   2 S :    0.072409   -0.015791
   3 S :    0.071717   -0.014179
   4 S :    0.077673   -0.016380
   5 O :   -0.308311   -0.134507
   6 C :   -0.547426    0.008643
   7 C :   -0.548373    0.007090
   8 C :   -0.549611    0.007434
   9 C :   -0.548425    0.007116
  10 S :    0.469987   -0.001060
  11 S :    0.470173   -0.001095
  12 S :    0.469343   -0.000996
  13 S :    0.470284   -0.001039
  14 C :   -0.462852    0.000111
  15 C :   -0.462854   -0.000184
  16 C :   -0.622497    0.000324
  17 C :   -0.623368   -0.000010
  18 S :    0.355110   -0.000092
  19 S :    0.355418   -0.000087
  20 S :    0.354560   -0.000090
  21 S :    0.353999   -0.000092
  22 C :   -0.283003   -0.000008
  23 C :   -0.282706   -0.000009
  24 C :   -0.176174   -0.000000
  25 H :    0.063347   -0.000001
  26 H :    0.053473   -0.000002
  27 H :    0.058654   -0.000002
  28 H :    0.060437   -0.000001
  29 H :    0.053793   -0.000002
  30 H :    0.063937   -0.000002
  31 C :   -0.283573    0.000037
  32 C :   -0.283117    0.000028
  33 C :   -0.176230    0.000003
  34 H :    0.063494   -0.000001
  35 H :    0.053744    0.000006
  36 H :    0.060443    0.000002
  37 H :    0.058416    0.000001
  38 H :    0.053569    0.000007
  39 H :    0.062847   -0.000001

  Mayer bond orders larger than 0.100000
B(  0-V ,  1-S ) :   0.7636 B(  0-V ,  2-S ) :   0.7701 B(  0-V ,  3-S ) :   0.7556
B(  0-V ,  4-S ) :   0.7765 B(  0-V ,  5-O ) :   2.1660 B(  1-S ,  8-C ) :   1.0967
B(  2-S ,  6-C ) :   1.0970 B(  3-S ,  9-C ) :   1.1033 B(  4-S ,  7-C ) :   1.1001
B(  6-C ,  7-C ) :   1.6960 B(  6-C , 10-S ) :   0.9306 B(  7-C , 11-S ) :   0.9321
B(  8-C ,  9-C ) :   1.7138 B(  8-C , 13-S ) :   0.9294 B(  9-C , 12-S ) :   0.9276
B( 10-S , 14-C ) :   1.2468 B( 11-S , 14-C ) :   1.2485 B( 12-S , 15-C ) :   1.2478
B( 13-S , 15-C ) :   1.2469 B( 14-C , 16-C ) :   1.4493 B( 15-C , 17-C ) :   1.4472
B( 16-C , 18-S ) :   1.0901 B( 16-C , 19-S ) :   1.0889 B( 17-C , 20-S ) :   1.0898
B( 17-C , 21-S ) :   1.0880 B( 18-S , 32-C ) :   0.9913 B( 19-S , 31-C ) :   0.9933
B( 20-S , 23-C ) :   0.9904 B( 21-S , 22-C ) :   0.9928 B( 22-C , 24-C ) :   0.9154
B( 22-C , 25-H ) :   0.9664 B( 22-C , 26-H ) :   0.9653 B( 23-C , 24-C ) :   0.9136
B( 23-C , 29-H ) :   0.9652 B( 23-C , 30-H ) :   0.9667 B( 24-C , 27-H ) :   0.9620
B( 24-C , 28-H ) :   0.9715 B( 31-C , 33-C ) :   0.9155 B( 31-C , 38-H ) :   0.9653
B( 31-C , 39-H ) :   0.9662 B( 32-C , 33-C ) :   0.9132 B( 32-C , 34-H ) :   0.9666
B( 32-C , 35-H ) :   0.9653 B( 33-C , 36-H ) :   0.9716 B( 33-C , 37-H ) :   0.9623

FINAL SINGLE POINT ENERGY     -6337.704727340653

DIPOLE MOMENT
-------------
                                X             Y             Z
Electronic contribution:      1.40232       6.98733     -11.56511
Nuclear contribution   :     -1.55444      -7.77903      12.88047
                        -----------------------------------------
Total Dipole Moment    :     -0.15212      -0.79170       1.31537
                        -----------------------------------------
Magnitude (a.u.)       :      1.54276
Magnitude (Debye)      :      3.92139

Rotational constants in cm-1:     0.010684     0.000789     0.000770
Rotational constants in MHz :   320.296762    23.654088    23.072914

                             ****ORCA TERMINATED NORMALLY****
TOTAL RUN TIME: 0 days 1 hours 1 minutes 34 seconds 100 msec
