                         Program Version 5.0.4 -  RELEASE  -
|  1> ! nofrozencore ReducedPop printbasis
|  2> ! B3LYP TZVP
|  3>
|  4> %basis
|  5> newgto V "CP(PPP)" end
|  6> end
|  7>
|  8> %pal
|  9> nprocs 8
| 10> end
| 11>
| 12> % sym SymThresh 1e-2 end
| 13> * xyz -2 2
| 14> V 0.1633409205905689 -1.1007897072888644 0.01996021877439522
| 15> S 2.4859116264129497 -0.2707546803574812 -0.03323049779105373
| 16> S 0.1448208624622983 -0.3028878227846252 2.3763531443896264
| 17> S 0.08944739653110254 -0.5250444536016878 -2.394697674254918
| 18> S -2.2091712354403596 -0.4656795713795047 -0.013049483733616711
| 19> O 0.22805561062347296 -2.6850795974227353 0.11593576492315341
| 20> C -1.7485862899274964 -0.37394612556378093 2.3797573129097493
| 21> C -2.8107923083196242 -0.4119195089094372 1.5323987493094118
| 22> C 2.949230125158946 -0.011247651482517515 -1.6265818555895293
| 23> C 1.9078159334600089 -0.14531841994345637 -2.480712036556894
| 24> S -2.311391559393123 -0.23002817653469926 4.37604171111432
| 25> S -4.220704650662389 -0.355272729645182 2.1364049698672147
| 26> S 2.3739231242104766 0.209739446180742 -4.403899754461217
| 27> S 4.366792545272597 0.3829401559612203 -2.2386726073602334
| 28> C -3.92642895684979 -0.2174039626909849 3.959221249550563
| 29> C 3.9872967714412 0.5891190281466174 -4.026211880366974
| 30> C -4.989949585890934 -0.12499275906940414 4.818975853716857
| 31> C 4.947157033240545 0.9983185534074347 -4.91323496088169
| 32> S -4.653066862915278 -0.04951818865641908 6.577674803489525
| 33> S -6.720457479764373 -0.10886225223348654 4.3644205733021115
| 34> S 6.628318018933158 1.3894728088429813 -4.491059729640322
| 35> S 4.49467123785602 1.1967446962287704 -6.627071358950736
| 36> C 4.800225313758898 3.020715793922383 -6.774131108588404
| 37> C 6.616125501823798 3.177811090938082 -4.95780149416722
| 38> C 6.230886688109394 3.43272485752521 -6.416796679314272
| 39> H 4.0776700641936605 3.5351838909231366 -6.136540527378061
| 40> H 4.578919885443734 3.273076304559767 -7.814111961861713
| 41> H 6.337759145732382 4.5086033190266255 -6.614081263861492
| 42> H 6.933334861825771 2.910160715391165 -7.073682891714287
| 43> H 7.632486453788732 3.5318934080586306 -4.7676404480918535
| 44> H 5.939559130891694 3.7012733349066282 -4.278718297946627
| 45> C -7.244152579071423 -1.6677396628567318 5.202676112658307
| 46> C -5.4920061079404165 -1.6253587046214524 7.083399411018866
| 47> C -6.973638742585408 -1.6810112940260271 6.707225371823563
| 48> H -4.946679396504023 -2.4572762872416014 6.631934715847234
| 49> H -5.371865252680111 -1.6867490923646307 8.167895841581487
| 50> H -7.498866876834635 -0.8429221373952632 7.176104226242285
| 51> H -7.398870216561091 -2.6060071431773117 7.121421131051446
| 52> H -8.318061100349604 -1.7437957855647048 5.013360414202683
| 53> H -6.750204309673786 -2.506655707697963 4.707405110472613
| 54> *
| 55>
| 56> % eprnmr
| 57> gtensor true
| 58> Nuclei = all H {aiso,adip,aorb,fgrad,rho}
| 59> Nuclei = all V {aiso,adip,aorb,fgrad,rho}
| 60> end
| 61>
| 62>                          ****END OF INPUT****

CARTESIAN COORDINATES (ANGSTROEM)
---------------------------------
  V      0.161435   -1.097865    0.021546
  S      2.484006   -0.267830   -0.031645
  S      0.142915   -0.299963    2.377938
  S      0.087542   -0.522120   -2.393112
  S     -2.211077   -0.462755   -0.011464
  O      0.226150   -2.682155    0.117521
  C     -1.750492   -0.371021    2.381343
  C     -2.812698   -0.408995    1.533984
  C      2.947324   -0.008323   -1.624997
  C      1.905910   -0.142394   -2.479127
  S     -2.313297   -0.227104    4.377627
  S     -4.222610   -0.352348    2.137990
  S      2.372017    0.212664   -4.402314
  S      4.364887    0.385865   -2.237087
  C     -3.928335   -0.214479    3.960807
  C      3.985391    0.592044   -4.024627
  C     -4.991855   -0.122068    4.820561
  C      4.945251    1.001243   -4.911650
  S     -4.654973   -0.046594    6.579260
  S     -6.722363   -0.105938    4.366006
  S      6.626412    1.392397   -4.489474
  S      4.492765    1.199669   -6.625486
  C      4.798320    3.023640   -6.772546
  C      6.614220    3.180736   -4.956216
  C      6.228981    3.435649   -6.415211
  H      4.075764    3.538109   -6.134955
  H      4.577014    3.276001   -7.812527
  H      6.335853    4.511528   -6.612496
  H      6.931429    2.913085   -7.072098
  H      7.630581    3.534818   -4.766055
  H      5.937653    3.704198   -4.277133
  C     -7.246058   -1.664815    5.204261
  C     -5.493912   -1.622434    7.084985
  C     -6.975544   -1.678087    6.708811
  H     -4.948585   -2.454352    6.633520
  H     -5.373771   -1.683824    8.169481
  H     -7.500773   -0.839998    7.177690
  H     -7.400776   -2.603083    7.123006
  H     -8.319967   -1.740871    5.014946
  H     -6.752110   -2.503731    4.708990

 Total Charge           Charge          ....   -2
 Multiplicity           Mult            ....    2
 Number of Electrons    NEL             ....  321
 Basis Dimension        Dim             ....  681

ORBITAL ENERGIES
----------------
                 SPIN UP ORBITALS
  NO   OCC          E(Eh)            E(eV)
   0   1.0000    -196.680469     -5351.9477
   1   1.0000     -88.733026     -2414.5484
   2   1.0000     -88.731107     -2414.4962
   3   1.0000     -88.730886     -2414.4902
   4   1.0000     -88.728281     -2414.4193
   5   1.0000     -88.727473     -2414.3973
   6   1.0000     -88.723128     -2414.2791
   7   1.0000     -88.721468     -2414.2339
   8   1.0000     -88.714160     -2414.0350
   9   1.0000     -88.652901     -2412.3681
  10   1.0000     -88.650689     -2412.3079
  11   1.0000     -88.643830     -2412.1213
  12   1.0000     -88.641825     -2412.0667
  13   1.0000     -22.055617      -600.1638
  14   1.0000     -18.895710      -514.1784
  15   1.0000     -18.562075      -505.0997
  16   1.0000     -18.556892      -504.9587
  17   1.0000     -18.556821      -504.9568
  18   1.0000     -10.075497      -274.1682
  19   1.0000     -10.072222      -274.0791
  20   1.0000     -10.062353      -273.8105
  21   1.0000     -10.062192      -273.8062
  22   1.0000     -10.060446      -273.7587
  23   1.0000     -10.060082      -273.7488
  24   1.0000     -10.050266      -273.4817
  25   1.0000     -10.048215      -273.4258
  26   1.0000     -10.046979      -273.3922
  27   1.0000     -10.044549      -273.3261
  28   1.0000     -10.033963      -273.0380
  29   1.0000     -10.030393      -272.9409
  30   1.0000     -10.016301      -272.5574
  31   1.0000     -10.016185      -272.5543
  32   1.0000      -7.786450      -211.8801
  33   1.0000      -7.784751      -211.8338
  34   1.0000      -7.784414      -211.8247
  35   1.0000      -7.784293      -211.8214
  36   1.0000      -7.782771      -211.7800
  37   1.0000      -7.781647      -211.7494
  38   1.0000      -7.774393      -211.5520
  39   1.0000      -7.767923      -211.3759
  40   1.0000      -7.703925      -209.6344
  41   1.0000      -7.702449      -209.5943
  42   1.0000      -7.701192      -209.5601
  43   1.0000      -7.698514      -209.4872
  44   1.0000      -5.751474      -156.5056
  45   1.0000      -5.749511      -156.4521
  46   1.0000      -5.749389      -156.4488
  47   1.0000      -5.749340      -156.4475
  48   1.0000      -5.748026      -156.4117
  49   1.0000      -5.747278      -156.3914
  50   1.0000      -5.746638      -156.3740
  51   1.0000      -5.745959      -156.3555
  52   1.0000      -5.745905      -156.3540
  53   1.0000      -5.744796      -156.3238
  54   1.0000      -5.743214      -156.2808
  55   1.0000      -5.742599      -156.2641
  56   1.0000      -5.741219      -156.2265
  57   1.0000      -5.740312      -156.2018
  58   1.0000      -5.739230      -156.1724
  59   1.0000      -5.739047      -156.1674
  60   1.0000      -5.738692      -156.1577
  61   1.0000      -5.738254      -156.1458
  62   1.0000      -5.736460      -156.0970
  63   1.0000      -5.735125      -156.0607
  64   1.0000      -5.731852      -155.9716
  65   1.0000      -5.730736      -155.9412
  66   1.0000      -5.728585      -155.8827
  67   1.0000      -5.724532      -155.7724
  68   1.0000      -5.670125      -154.2920
  69   1.0000      -5.668332      -154.2432
  70   1.0000      -5.666549      -154.1946
  71   1.0000      -5.663804      -154.1199
  72   1.0000      -5.662690      -154.0896
  73   1.0000      -5.661264      -154.0508
  74   1.0000      -5.660856      -154.0397
  75   1.0000      -5.659535      -154.0038
  76   1.0000      -5.659479      -154.0023
  77   1.0000      -5.658068      -153.9639
  78   1.0000      -5.656910      -153.9323
  79   1.0000      -5.655552      -153.8954
  80   1.0000      -2.449443       -66.6527
  81   1.0000      -1.490821       -40.5673
  82   1.0000      -1.479369       -40.2557
  83   1.0000      -1.478096       -40.2210
  84   1.0000      -0.718335       -19.5469
  85   1.0000      -0.713403       -19.4127
  86   1.0000      -0.693566       -18.8729
  87   1.0000      -0.692325       -18.8391
  88   1.0000      -0.654952       -17.8221
  89   1.0000      -0.646193       -17.5838
  90   1.0000      -0.642817       -17.4919
  91   1.0000      -0.616042       -16.7634
  92   1.0000      -0.613451       -16.6928
  93   1.0000      -0.589198       -16.0329
  94   1.0000      -0.588535       -16.0149
  95   1.0000      -0.560090       -15.2408
  96   1.0000      -0.558370       -15.1940
  97   1.0000      -0.502833       -13.6828
  98   1.0000      -0.502134       -13.6638
  99   1.0000      -0.493302       -13.4234
 100   1.0000      -0.489951       -13.3322
 101   1.0000      -0.478646       -13.0246
 102   1.0000      -0.475834       -12.9481
 103   1.0000      -0.445017       -12.1095
 104   1.0000      -0.441630       -12.0174
 105   1.0000      -0.418096       -11.3770
 106   1.0000      -0.412635       -11.2284
 107   1.0000      -0.359937        -9.7944
 108   1.0000      -0.358632        -9.7589
 109   1.0000      -0.336097        -9.1457
 110   1.0000      -0.334690        -9.1074
 111   1.0000      -0.317758        -8.6466
 112   1.0000      -0.315922        -8.5967
 113   1.0000      -0.294654        -8.0179
 114   1.0000      -0.291419        -7.9299
 115   1.0000      -0.289598        -7.8804
 116   1.0000      -0.285153        -7.7594
 117   1.0000      -0.256620        -6.9830
 118   1.0000      -0.255708        -6.9582
 119   1.0000      -0.252744        -6.8775
 120   1.0000      -0.251078        -6.8322
 121   1.0000      -0.234251        -6.3743
 122   1.0000      -0.232763        -6.3338
 123   1.0000      -0.230149        -6.2627
 124   1.0000      -0.227464        -6.1896
 125   1.0000      -0.220038        -5.9875
 126   1.0000      -0.219395        -5.9700
 127   1.0000      -0.217792        -5.9264
 128   1.0000      -0.215096        -5.8531
 129   1.0000      -0.197408        -5.3717
 130   1.0000      -0.192979        -5.2512
 131   1.0000      -0.191209        -5.2031
 132   1.0000      -0.184146        -5.0109
 133   1.0000      -0.178381        -4.8540
 134   1.0000      -0.170536        -4.6405
 135   1.0000      -0.150705        -4.1009
 136   1.0000      -0.148360        -4.0371
 137   1.0000      -0.146374        -3.9830
 138   1.0000      -0.143338        -3.9004
 139   1.0000      -0.131991        -3.5917
 140   1.0000      -0.121295        -3.3006
 141   1.0000      -0.117759        -3.2044
 142   1.0000      -0.116761        -3.1772
 143   1.0000      -0.115009        -3.1296
 144   1.0000      -0.099844        -2.7169
 145   1.0000      -0.097249        -2.6463
 146   1.0000      -0.088059        -2.3962
 147   1.0000      -0.080279        -2.1845
 148   1.0000      -0.071815        -1.9542
 149   1.0000      -0.066169        -1.8005
 150   1.0000      -0.060649        -1.6503
 151   1.0000      -0.053196        -1.4475
 152   1.0000      -0.046162        -1.2561
 153   1.0000      -0.037263        -1.0140
 154   1.0000      -0.035476        -0.9654
 155   1.0000      -0.031520        -0.8577
 156   1.0000      -0.026357        -0.7172
 157   1.0000      -0.024489        -0.6664
 158   1.0000      -0.016950        -0.4612
 159   1.0000       0.020514         0.5582
 160   1.0000       0.039530         1.0757
 161   0.0000       0.137854         3.7512
 162   0.0000       0.139378         3.7927
 163   0.0000       0.154941         4.2162
 164   0.0000       0.157761         4.2929
 165   0.0000       0.163537         4.4501

                 SPIN DOWN ORBITALS
  NO   OCC          E(Eh)            E(eV)
   0   1.0000    -196.680616     -5351.9516
   1   1.0000     -88.733027     -2414.5484
   2   1.0000     -88.731108     -2414.4962
   3   1.0000     -88.730886     -2414.4902
   4   1.0000     -88.728281     -2414.4193
   5   1.0000     -88.727483     -2414.3976
   6   1.0000     -88.723139     -2414.2794
   7   1.0000     -88.721469     -2414.2339
   8   1.0000     -88.714157     -2414.0350
   9   1.0000     -88.653073     -2412.3728
  10   1.0000     -88.650842     -2412.3120
  11   1.0000     -88.643932     -2412.1240
  12   1.0000     -88.641949     -2412.0701
  13   1.0000     -22.040657      -599.7568
  14   1.0000     -18.899527      -514.2823
  15   1.0000     -18.556782      -504.9557
  16   1.0000     -18.540867      -504.5226
  17   1.0000     -18.540650      -504.5167
  18   1.0000     -10.075488      -274.1680
  19   1.0000     -10.072202      -274.0786
  20   1.0000     -10.062353      -273.8105
  21   1.0000     -10.062193      -273.8062
  22   1.0000     -10.060445      -273.7586
  23   1.0000     -10.060083      -273.7488
  24   1.0000     -10.050266      -273.4817
  25   1.0000     -10.048215      -273.4258
  26   1.0000     -10.046975      -273.3921
  27   1.0000     -10.044536      -273.3257
  28   1.0000     -10.033653      -273.0296
  29   1.0000     -10.030152      -272.9343
  30   1.0000     -10.016128      -272.5527
  31   1.0000     -10.016005      -272.5493
  32   1.0000      -7.786451      -211.8801
  33   1.0000      -7.784762      -211.8341
  34   1.0000      -7.784414      -211.8247
  35   1.0000      -7.784294      -211.8214
  36   1.0000      -7.782783      -211.7803
  37   1.0000      -7.781647      -211.7494
  38   1.0000      -7.774395      -211.5520
  39   1.0000      -7.767921      -211.3759
  40   1.0000      -7.704087      -209.6389
  41   1.0000      -7.702594      -209.5982
  42   1.0000      -7.701285      -209.5626
  43   1.0000      -7.698628      -209.4903
  44   1.0000      -5.751474      -156.5056
  45   1.0000      -5.749525      -156.4525
  46   1.0000      -5.749389      -156.4488
  47   1.0000      -5.749341      -156.4475
  48   1.0000      -5.748027      -156.4118
  49   1.0000      -5.747295      -156.3919
  50   1.0000      -5.746639      -156.3740
  51   1.0000      -5.745959      -156.3555
  52   1.0000      -5.745907      -156.3541
  53   1.0000      -5.744812      -156.3243
  54   1.0000      -5.743214      -156.2808
  55   1.0000      -5.742615      -156.2645
  56   1.0000      -5.741219      -156.2265
  57   1.0000      -5.740319      -156.2020
  58   1.0000      -5.739231      -156.1724
  59   1.0000      -5.739048      -156.1674
  60   1.0000      -5.738695      -156.1578
  61   1.0000      -5.738265      -156.1461
  62   1.0000      -5.736460      -156.0970
  63   1.0000      -5.735125      -156.0607
  64   1.0000      -5.731850      -155.9716
  65   1.0000      -5.730737      -155.9413
  66   1.0000      -5.728573      -155.8824
  67   1.0000      -5.724532      -155.7724
  68   1.0000      -5.670288      -154.2964
  69   1.0000      -5.668485      -154.2473
  70   1.0000      -5.666652      -154.1974
  71   1.0000      -5.663927      -154.1233
  72   1.0000      -5.663148      -154.1021
  73   1.0000      -5.661677      -154.0621
  74   1.0000      -5.660986      -154.0433
  75   1.0000      -5.659802      -154.0110
  76   1.0000      -5.659636      -154.0065
  77   1.0000      -5.658096      -153.9646
  78   1.0000      -5.657224      -153.9409
  79   1.0000      -5.655658      -153.8983
  80   1.0000      -2.404495       -65.4296
  81   1.0000      -1.471437       -40.0398
  82   1.0000      -1.417263       -38.5657
  83   1.0000      -1.416024       -38.5320
  84   1.0000      -0.718241       -19.5443
  85   1.0000      -0.713357       -19.4114
  86   1.0000      -0.693538       -18.8721
  87   1.0000      -0.692287       -18.8381
  88   1.0000      -0.663142       -18.0450
  89   1.0000      -0.646161       -17.5829
  90   1.0000      -0.642789       -17.4912
  91   1.0000      -0.616043       -16.7634
  92   1.0000      -0.613449       -16.6928
  93   1.0000      -0.589173       -16.0322
  94   1.0000      -0.588523       -16.0145
  95   1.0000      -0.560031       -15.2392
  96   1.0000      -0.558323       -15.1928
  97   1.0000      -0.502909       -13.6848
  98   1.0000      -0.502172       -13.6648
  99   1.0000      -0.493312       -13.4237
 100   1.0000      -0.489957       -13.3324
 101   1.0000      -0.478796       -13.0287
 102   1.0000      -0.475998       -12.9526
 103   1.0000      -0.445053       -12.1105
 104   1.0000      -0.441676       -12.0186
 105   1.0000      -0.418094       -11.3769
 106   1.0000      -0.412754       -11.2316
 107   1.0000      -0.359902        -9.7934
 108   1.0000      -0.358618        -9.7585
 109   1.0000      -0.336055        -9.1445
 110   1.0000      -0.334668        -9.1068
 111   1.0000      -0.317743        -8.6462
 112   1.0000      -0.315914        -8.5965
 113   1.0000      -0.294633        -8.0174
 114   1.0000      -0.291411        -7.9297
 115   1.0000      -0.289569        -7.8796
 116   1.0000      -0.285108        -7.7582
 117   1.0000      -0.256505        -6.9799
 118   1.0000      -0.255517        -6.9530
 119   1.0000      -0.252701        -6.8764
 120   1.0000      -0.250960        -6.8290
 121   1.0000      -0.234171        -6.3721
 122   1.0000      -0.232717        -6.3325
 123   1.0000      -0.230082        -6.2608
 124   1.0000      -0.227409        -6.1881
 125   1.0000      -0.219835        -5.9820
 126   1.0000      -0.218943        -5.9578
 127   1.0000      -0.217273        -5.9123
 128   1.0000      -0.214756        -5.8438
 129   1.0000      -0.196727        -5.3532
 130   1.0000      -0.192793        -5.2462
 131   1.0000      -0.190746        -5.1905
 132   1.0000      -0.183919        -5.0047
 133   1.0000      -0.178094        -4.8462
 134   1.0000      -0.169912        -4.6236
 135   1.0000      -0.150516        -4.0958
 136   1.0000      -0.147916        -4.0250
 137   1.0000      -0.146310        -3.9813
 138   1.0000      -0.143176        -3.8960
 139   1.0000      -0.130833        -3.5601
 140   1.0000      -0.120772        -3.2864
 141   1.0000      -0.119006        -3.2383
 142   1.0000      -0.117790        -3.2052
 143   1.0000      -0.115108        -3.1322
 144   1.0000      -0.099841        -2.7168
 145   1.0000      -0.097228        -2.6457
 146   1.0000      -0.087859        -2.3908
 147   1.0000      -0.080482        -2.1900
 148   1.0000      -0.070335        -1.9139
 149   1.0000      -0.066041        -1.7971
 150   1.0000      -0.059491        -1.6188
 151   1.0000      -0.051011        -1.3881
 152   1.0000      -0.045536        -1.2391
 153   1.0000      -0.037002        -1.0069
 154   1.0000      -0.035033        -0.9533
 155   1.0000      -0.031486        -0.8568
 156   1.0000      -0.026758        -0.7281
 157   1.0000      -0.018865        -0.5134
 158   1.0000       0.020813         0.5664
 159   1.0000       0.038538         1.0487
 160   0.0000       0.137849         3.7511
 161   0.0000       0.139461         3.7949
 162   0.0000       0.149050         4.0559
 163   0.0000       0.155574         4.2334
 164   0.0000       0.159806         4.3485

MULLIKEN ATOMIC CHARGES AND SPIN POPULATIONS
--------------------------------------------
   0 V :    0.455011    1.208677
   1 S :   -0.264769   -0.019171
   2 S :   -0.281907   -0.032411
   3 S :   -0.289006   -0.027636
   4 S :   -0.252997   -0.017905
   5 O :   -0.460087   -0.147909
   6 C :   -0.110838    0.012025
   7 C :   -0.048988    0.006150
   8 C :   -0.069545    0.005774
   9 C :   -0.096541    0.009096
  10 S :    0.038103    0.000620
  11 S :    0.142684   -0.000345
  12 S :    0.053271    0.000242
  13 S :    0.132222   -0.000103
  14 C :   -0.212339    0.002412
  15 C :   -0.213483    0.001508
  16 C :   -0.203198   -0.000375
  17 C :   -0.194687   -0.000586
  18 S :    0.000272   -0.000022
  19 S :    0.011683   -0.000114
  20 S :    0.013969   -0.000060
  21 S :    0.002996   -0.000012
  22 C :   -0.302981   -0.000003
  23 C :   -0.297830   -0.000005
  24 C :   -0.157060   -0.000009
  25 H :    0.142867   -0.000002
  26 H :    0.113368   -0.000005
  27 H :    0.082599   -0.000002
  28 H :    0.091265   -0.000002
  29 H :    0.112496   -0.000005
  30 H :    0.141872    0.000000
  31 C :   -0.294970    0.000205
  32 C :   -0.302039    0.000200
  33 C :   -0.155947   -0.000264
  34 H :    0.140831   -0.000019
  35 H :    0.111794    0.000021
  36 H :    0.090924    0.000021
  37 H :    0.080120    0.000016
  38 H :    0.110820    0.000014
  39 H :    0.140045   -0.000014
Sum of atomic charges         :   -2.0000000

LOEWDIN ATOMIC CHARGES AND SPIN POPULATIONS
-------------------------------------------
   0 V :   -0.156590    1.162331
   1 S :    0.133050   -0.012179
   2 S :    0.037513   -0.022338
   3 S :    0.046950   -0.018413
   4 S :    0.156909   -0.009920
   5 O :   -0.313500   -0.132846
   6 C :   -0.432677    0.011872
   7 C :   -0.670616    0.005678
   8 C :   -0.648177    0.006034
   9 C :   -0.456797    0.009382
  10 S :    0.379002    0.000316
  11 S :    0.549327   -0.000561
  12 S :    0.399168   -0.000202
  13 S :    0.528680   -0.000548
  14 C :   -0.471944    0.000721
  15 C :   -0.465559    0.000244
  16 C :   -0.622527    0.000470
  17 C :   -0.625406    0.000076
  18 S :    0.353630   -0.000010
  19 S :    0.357464   -0.000074
  20 S :    0.361911   -0.000065
  21 S :    0.357638   -0.000018
  22 C :   -0.282185   -0.000017
  23 C :   -0.284972   -0.000008
  24 C :   -0.176233   -0.000001
  25 H :    0.062355   -0.000001
  26 H :    0.053349   -0.000001
  27 H :    0.057635   -0.000002
  28 H :    0.059968   -0.000001
  29 H :    0.053299   -0.000003
  30 H :    0.061980   -0.000001
  31 C :   -0.287162    0.000051
  32 C :   -0.283577    0.000000
  33 C :   -0.177144    0.000011
  34 H :    0.061668    0.000001
  35 H :    0.052846    0.000013
  36 H :    0.059772    0.000003
  37 H :    0.056852   -0.000000
  38 H :    0.052944    0.000005
  39 H :    0.061156   -0.000001

  Mayer bond orders larger than 0.100000
B(  0-V ,  1-S ) :   0.7706 B(  0-V ,  2-S ) :   0.7714 B(  0-V ,  3-S ) :   0.7725
B(  0-V ,  4-S ) :   0.7711 B(  0-V ,  5-O ) :   2.1565 B(  1-S ,  8-C ) :   1.0994
B(  2-S ,  6-C ) :   1.0738 B(  3-S ,  9-C ) :   1.0754 B(  4-S ,  7-C ) :   1.0656
B(  6-C ,  7-C ) :   1.5602 B(  6-C , 10-S ) :   0.7396 B(  7-C , 11-S ) :   1.1615
B(  8-C ,  9-C ) :   1.6204 B(  8-C , 13-S ) :   1.0937 B(  9-C , 12-S ) :   0.7964
B( 10-S , 14-C ) :   1.4175 B( 11-S , 14-C ) :   1.1177 B( 12-S , 15-C ) :   1.3602
B( 13-S , 15-C ) :   1.1469 B( 14-C , 16-C ) :   1.4398 B( 15-C , 17-C ) :   1.4456
B( 16-C , 18-S ) :   1.0748 B( 16-C , 19-S ) :   1.0865 B( 17-C , 20-S ) :   1.0927
B( 17-C , 21-S ) :   1.0824 B( 18-S , 32-C ) :   0.9952 B( 19-S , 31-C ) :   0.9931
B( 20-S , 23-C ) :   0.9903 B( 21-S , 22-C ) :   0.9927 B( 22-C , 24-C ) :   0.9125
B( 22-C , 25-H ) :   0.9667 B( 22-C , 26-H ) :   0.9656 B( 23-C , 24-C ) :   0.9150
B( 23-C , 29-H ) :   0.9654 B( 23-C , 30-H ) :   0.9648 B( 24-C , 27-H ) :   0.9624
B( 24-C , 28-H ) :   0.9718 B( 31-C , 33-C ) :   0.9147 B( 31-C , 38-H ) :   0.9659
B( 31-C , 39-H ) :   0.9646 B( 32-C , 33-C ) :   0.9123 B( 32-C , 34-H ) :   0.9672
B( 32-C , 35-H ) :   0.9657 B( 33-C , 36-H ) :   0.9719 B( 33-C , 37-H ) :   0.9619

FINAL SINGLE POINT ENERGY     -6337.562022743533

DIPOLE MOMENT
-------------
                                X             Y             Z
Electronic contribution:      4.89227     -12.69637      -1.93279
Nuclear contribution   :     -5.26643      14.06530       1.93161
                        -----------------------------------------
Total Dipole Moment    :     -0.37417       1.36893      -0.00118
                        -----------------------------------------
Magnitude (a.u.)       :      1.41914
Magnitude (Debye)      :      3.60718

Rotational constants in cm-1:     0.010743     0.000804     0.000783
Rotational constants in MHz :   322.081485    24.115062    23.483011

                             ****ORCA TERMINATED NORMALLY****
TOTAL RUN TIME: 0 days 1 hours 1 minutes 55 seconds 492 msec
