                         Program Version 5.0.4 -  RELEASE  -
|  1> ! nofrozencore ReducedPop printbasis
|  2> ! B3LYP TZVP
|  3>
|  4> %basis
|  5> newgto V "CP(PPP)" end
|  6> end
|  7>
|  8> %pal
|  9> nprocs 6
| 10> end
| 11>
| 12> % sym SymThresh 1e-2 end
| 13> * xyz -2 2
| 14> V -1.0030898564762785 0.12100519797088924 -0.4670431499127517
| 15> S -1.4766644093621852 0.8247272170229182 1.8615110854232537
| 16> S 0.2039126193898053 2.278084571167512 -0.706614370765356
| 17> S -0.9964419974570203 -2.1866304977577244 0.41751467673205134
| 18> S 0.6908626546168836 -0.7827699879201397 -2.002528044865094
| 19> O -2.347104712243463 0.2945287442815807 -1.29743974443303
| 20> C 0.9877660239757756 1.8862153587756778 -2.0578072855648624
| 21> C 1.379239330032213 0.8024095905735006 -2.8323712452318044
| 22> C -1.749031362203616 -0.669033889032093 2.5432834574442853
| 23> C -1.6155971039351142 -1.9662124065916098 2.151561866065371
| 24> S 1.8301492171467455 3.384430336907779 -3.0199028963623062
| 25> S 2.293812612300786 0.7110254076468845 -4.16224364671825
| 26> S -1.9237467933444568 -3.325927197568275 3.105705608372687
| 27> S -2.3511907222394086 -0.6899188131459606 4.346729606299039
| 28> C 2.691209078350821 2.037484443348749 -4.461486661844453
| 29> C -2.316527631649865 -2.6675918369155447 4.469003668265804
| 30> C 3.354249688907502 3.197461837373238 -5.192254143575667
| 31> C -2.682847270052399 -2.939425239307173 5.811867817294227
| 32> S 3.6603267838043516 4.678052768751345 -5.432455003529193
| 33> S 4.185687936919627 1.9206682860899078 -6.561938799222298
| 34> S -3.079757582419663 -2.1571714000110234 7.1959411520272365
| 35> S -2.626086746319215 -4.865754608975151 5.9252366860594385
| 36> C -1.2749204646352414 -4.967059218318035 7.1847334379656065
| 37> C -1.671847060760777 -2.6750283928674463 8.284802347489682
| 38> C -1.5721105133792277 -4.173001098171642 8.479165812917318
| 39> H -0.33228249855568565 -4.639698592006348 6.737464805503841
| 40> H -1.1681434987341714 -6.023288949172948 7.447718991162203
| 41> H -0.761852638915249 -4.367938722645159 9.195700823927062
| 42> H -2.4973046115856095 -4.554714912963525 8.922340910884369
| 43> H -1.8523711398546119 -2.143768127479234 9.223680807079619
| 44> H -0.7627873511681513 -2.2790616845078873 7.827983342347309
| 45> C 3.299323570665175 2.6154121057073665 -8.026446590055002
| 46> C 2.870934836232275 4.970623185919583 -7.084869210958845
| 47> C 3.4714792455819357 4.157167854729037 -8.19346342502256
| 48> H 1.8154068141200281 4.727235283968296 -6.947857784006359
| 49> H 2.9719685019507502 6.053360117529936 -7.219580380356506
| 50> H 4.540496840121064 4.374368444159902 -8.287130522637778
| 51> H 2.992599662623646 4.461185067350541 -9.134790342897826
| 52> H 3.727214979604404 2.154588645186486 -8.923588854607042
| 53> H 2.2386674580409833 2.345151481183315 -7.999070216120374
| 54> *
| 55>
| 56> % eprnmr
| 57> gtensor true
| 58> Nuclei = all H {aiso,adip,aorb,fgrad,rho}
| 59> Nuclei = all V {aiso,adip,aorb,fgrad,rho}
| 60> end
| 61>
| 62>                          ****END OF INPUT****

CARTESIAN COORDINATES (ANGSTROEM)
---------------------------------
  V     -0.999348    0.121761   -0.467394
  S     -1.472922    0.825483    1.861160
  S      0.207655    2.278840   -0.706965
  S     -0.992700   -2.185875    0.417164
  S      0.694605   -0.782015   -2.002879
  O     -2.343362    0.295284   -1.297791
  C      0.991508    1.886971   -2.058158
  C      1.382982    0.803165   -2.832722
  C     -1.745289   -0.668278    2.542932
  C     -1.611855   -1.965457    2.151211
  S      1.833892    3.385186   -3.020254
  S      2.297555    0.711781   -4.162595
  S     -1.920004   -3.325172    3.105355
  S     -2.347448   -0.689163    4.346379
  C      2.694951    2.038240   -4.461838
  C     -2.312785   -2.666836    4.468653
  C      3.357992    3.198217   -5.192605
  C     -2.679105   -2.938670    5.811517
  S      3.664069    4.678808   -5.432806
  S      4.189430    1.921424   -6.562290
  S     -3.076015   -2.156416    7.195590
  S     -2.622344   -4.864999    5.924886
  C     -1.271178   -4.966304    7.184382
  C     -1.668105   -2.674273    8.284451
  C     -1.568368   -4.172246    8.478815
  H     -0.328540   -4.638943    6.737114
  H     -1.164401   -6.022534    7.447368
  H     -0.758110   -4.367183    9.195350
  H     -2.493562   -4.553960    8.921990
  H     -1.848629   -2.143013    9.223330
  H     -0.759045   -2.278306    7.827632
  C      3.303066    2.616167   -8.026798
  C      2.874677    4.971379   -7.085220
  C      3.475222    4.157923   -8.193814
  H      1.819149    4.727991   -6.948209
  H      2.975711    6.054116   -7.219931
  H      4.544239    4.375124   -8.287481
  H      2.996342    4.461940   -9.135141
  H      3.730957    2.155344   -8.923940
  H      2.242410    2.345907   -7.999421

 Total Charge           Charge          ....   -2
 Multiplicity           Mult            ....    2
 Number of Electrons    NEL             ....  321
 Basis Dimension        Dim             ....  681

ORBITAL ENERGIES
----------------
                 SPIN UP ORBITALS
  NO   OCC          E(Eh)            E(eV)
   0   1.0000    -196.688169     -5352.1572
   1   1.0000     -88.762353     -2415.3464
   2   1.0000     -88.754706     -2415.1383
   3   1.0000     -88.739479     -2414.7240
   4   1.0000     -88.730701     -2414.4851
   5   1.0000     -88.721156     -2414.2254
   6   1.0000     -88.717415     -2414.1236
   7   1.0000     -88.701456     -2413.6893
   8   1.0000     -88.697730     -2413.5879
   9   1.0000     -88.670900     -2412.8579
  10   1.0000     -88.659506     -2412.5478
  11   1.0000     -88.646927     -2412.2055
  12   1.0000     -88.646213     -2412.1861
  13   1.0000     -22.063284      -600.3725
  14   1.0000     -18.903896      -514.4012
  15   1.0000     -18.569733      -505.3081
  16   1.0000     -18.564588      -505.1681
  17   1.0000     -18.564461      -505.1647
  18   1.0000     -10.083414      -274.3837
  19   1.0000     -10.079507      -274.2773
  20   1.0000     -10.060899      -273.7710
  21   1.0000     -10.060838      -273.7693
  22   1.0000     -10.053597      -273.5723
  23   1.0000     -10.051833      -273.5243
  24   1.0000     -10.049910      -273.4720
  25   1.0000     -10.048017      -273.4204
  26   1.0000     -10.046046      -273.3668
  27   1.0000     -10.042233      -273.2631
  28   1.0000     -10.038151      -273.1520
  29   1.0000     -10.037519      -273.1348
  30   1.0000     -10.024240      -272.7734
  31   1.0000     -10.023797      -272.7614
  32   1.0000      -7.827876      -213.0073
  33   1.0000      -7.813311      -212.6110
  34   1.0000      -7.794668      -212.1037
  35   1.0000      -7.787957      -211.9211
  36   1.0000      -7.774063      -211.5430
  37   1.0000      -7.768308      -211.3864
  38   1.0000      -7.751961      -210.9416
  39   1.0000      -7.750897      -210.9126
  40   1.0000      -7.728391      -210.3002
  41   1.0000      -7.715782      -209.9571
  42   1.0000      -7.699638      -209.5178
  43   1.0000      -7.698317      -209.4819
  44   1.0000      -5.791315      -157.5897
  45   1.0000      -5.786080      -157.4472
  46   1.0000      -5.784919      -157.4157
  47   1.0000      -5.777461      -157.2127
  48   1.0000      -5.772751      -157.0845
  49   1.0000      -5.769906      -157.0071
  50   1.0000      -5.759556      -156.7255
  51   1.0000      -5.755742      -156.6217
  52   1.0000      -5.752541      -156.5346
  53   1.0000      -5.749704      -156.4574
  54   1.0000      -5.748393      -156.4217
  55   1.0000      -5.743512      -156.2889
  56   1.0000      -5.738804      -156.1608
  57   1.0000      -5.735769      -156.0782
  58   1.0000      -5.733524      -156.0171
  59   1.0000      -5.729541      -155.9088
  60   1.0000      -5.729097      -155.8966
  61   1.0000      -5.723617      -155.7475
  62   1.0000      -5.716993      -155.5673
  63   1.0000      -5.715356      -155.5227
  64   1.0000      -5.713534      -155.4732
  65   1.0000      -5.712187      -155.4365
  66   1.0000      -5.707196      -155.3007
  67   1.0000      -5.706574      -155.2838
  68   1.0000      -5.692770      -154.9082
  69   1.0000      -5.686752      -154.7444
  70   1.0000      -5.686217      -154.7298
  71   1.0000      -5.680503      -154.5743
  72   1.0000      -5.674216      -154.4033
  73   1.0000      -5.673520      -154.3843
  74   1.0000      -5.665394      -154.1632
  75   1.0000      -5.664304      -154.1336
  76   1.0000      -5.658471      -153.9748
  77   1.0000      -5.657141      -153.9386
  78   1.0000      -5.656622      -153.9245
  79   1.0000      -5.655187      -153.8855
  80   1.0000      -2.457192       -66.8636
  81   1.0000      -1.498501       -40.7763
  82   1.0000      -1.487010       -40.4636
  83   1.0000      -1.486056       -40.4376
  84   1.0000      -0.760146       -20.6846
  85   1.0000      -0.727432       -19.7944
  86   1.0000      -0.697182       -18.9713
  87   1.0000      -0.694962       -18.9109
  88   1.0000      -0.663052       -18.0425
  89   1.0000      -0.636944       -17.3321
  90   1.0000      -0.633067       -17.2266
  91   1.0000      -0.629493       -17.1294
  92   1.0000      -0.619260       -16.8509
  93   1.0000      -0.602344       -16.3906
  94   1.0000      -0.587606       -15.9896
  95   1.0000      -0.553576       -15.0636
  96   1.0000      -0.545956       -14.8562
  97   1.0000      -0.510806       -13.8997
  98   1.0000      -0.508545       -13.8382
  99   1.0000      -0.489528       -13.3207
 100   1.0000      -0.488702       -13.2982
 101   1.0000      -0.480784       -13.0828
 102   1.0000      -0.468715       -12.7544
 103   1.0000      -0.443469       -12.0674
 104   1.0000      -0.431424       -11.7397
 105   1.0000      -0.414319       -11.2742
 106   1.0000      -0.402112       -10.9420
 107   1.0000      -0.388727       -10.5778
 108   1.0000      -0.371530       -10.1098
 109   1.0000      -0.343028        -9.3343
 110   1.0000      -0.333533        -9.0759
 111   1.0000      -0.319655        -8.6983
 112   1.0000      -0.310611        -8.4521
 113   1.0000      -0.296536        -8.0692
 114   1.0000      -0.289886        -7.8882
 115   1.0000      -0.286379        -7.7928
 116   1.0000      -0.277993        -7.5646
 117   1.0000      -0.274884        -7.4800
 118   1.0000      -0.268821        -7.3150
 119   1.0000      -0.250041        -6.8040
 120   1.0000      -0.246873        -6.7178
 121   1.0000      -0.239527        -6.5179
 122   1.0000      -0.237572        -6.4647
 123   1.0000      -0.232355        -6.3227
 124   1.0000      -0.229928        -6.2567
 125   1.0000      -0.221958        -6.0398
 126   1.0000      -0.221024        -6.0144
 127   1.0000      -0.219163        -5.9637
 128   1.0000      -0.215962        -5.8766
 129   1.0000      -0.197422        -5.3721
 130   1.0000      -0.193912        -5.2766
 131   1.0000      -0.187162        -5.0929
 132   1.0000      -0.180343        -4.9074
 133   1.0000      -0.176451        -4.8015
 134   1.0000      -0.161339        -4.3902
 135   1.0000      -0.155016        -4.2182
 136   1.0000      -0.150600        -4.0980
 137   1.0000      -0.146817        -3.9951
 138   1.0000      -0.140835        -3.8323
 139   1.0000      -0.136564        -3.7161
 140   1.0000      -0.128769        -3.5040
 141   1.0000      -0.125374        -3.4116
 142   1.0000      -0.118817        -3.2332
 143   1.0000      -0.113381        -3.0852
 144   1.0000      -0.101995        -2.7754
 145   1.0000      -0.085628        -2.3300
 146   1.0000      -0.084197        -2.2911
 147   1.0000      -0.077265        -2.1025
 148   1.0000      -0.066394        -1.8067
 149   1.0000      -0.064979        -1.7682
 150   1.0000      -0.056231        -1.5301
 151   1.0000      -0.053253        -1.4491
 152   1.0000      -0.047988        -1.3058
 153   1.0000      -0.046409        -1.2629
 154   1.0000      -0.043508        -1.1839
 155   1.0000      -0.036429        -0.9913
 156   1.0000      -0.031495        -0.8570
 157   1.0000      -0.029373        -0.7993
 158   1.0000      -0.015835        -0.4309
 159   1.0000       0.012439         0.3385
 160   1.0000       0.029864         0.8126
 161   0.0000       0.110904         3.0179
 162   0.0000       0.121851         3.3157
 163   0.0000       0.127833         3.4785
 164   0.0000       0.142221         3.8700
 165   0.0000       0.156990         4.2719

                 SPIN DOWN ORBITALS
  NO   OCC          E(Eh)            E(eV)
   0   1.0000    -196.688316     -5352.1612
   1   1.0000     -88.762363     -2415.3467
   2   1.0000     -88.754711     -2415.1385
   3   1.0000     -88.739480     -2414.7240
   4   1.0000     -88.730703     -2414.4852
   5   1.0000     -88.721157     -2414.2254
   6   1.0000     -88.717426     -2414.1239
   7   1.0000     -88.701465     -2413.6896
   8   1.0000     -88.697732     -2413.5880
   9   1.0000     -88.671032     -2412.8615
  10   1.0000     -88.659636     -2412.5514
  11   1.0000     -88.647084     -2412.2098
  12   1.0000     -88.646365     -2412.1902
  13   1.0000     -22.048381      -599.9670
  14   1.0000     -18.907713      -514.5050
  15   1.0000     -18.564453      -505.1644
  16   1.0000     -18.548584      -504.7326
  17   1.0000     -18.548402      -504.7277
  18   1.0000     -10.083416      -274.3837
  19   1.0000     -10.079507      -274.2773
  20   1.0000     -10.060899      -273.7710
  21   1.0000     -10.060838      -273.7693
  22   1.0000     -10.053590      -273.5721
  23   1.0000     -10.051696      -273.5205
  24   1.0000     -10.049910      -273.4720
  25   1.0000     -10.048017      -273.4204
  26   1.0000     -10.046002      -273.3656
  27   1.0000     -10.042220      -273.2627
  28   1.0000     -10.038152      -273.1520
  29   1.0000     -10.037333      -273.1297
  30   1.0000     -10.023885      -272.7638
  31   1.0000     -10.023542      -272.7544
  32   1.0000      -7.827886      -213.0076
  33   1.0000      -7.813316      -212.6111
  34   1.0000      -7.794669      -212.1037
  35   1.0000      -7.787958      -211.9211
  36   1.0000      -7.774064      -211.5430
  37   1.0000      -7.768321      -211.3868
  38   1.0000      -7.751971      -210.9418
  39   1.0000      -7.750899      -210.9127
  40   1.0000      -7.728516      -210.3036
  41   1.0000      -7.715904      -209.9604
  42   1.0000      -7.699783      -209.5218
  43   1.0000      -7.698457      -209.4857
  44   1.0000      -5.791326      -157.5900
  45   1.0000      -5.786090      -157.4475
  46   1.0000      -5.784940      -157.4162
  47   1.0000      -5.777469      -157.2129
  48   1.0000      -5.772757      -157.0847
  49   1.0000      -5.769910      -157.0072
  50   1.0000      -5.759557      -156.7255
  51   1.0000      -5.755743      -156.6217
  52   1.0000      -5.752544      -156.5347
  53   1.0000      -5.749705      -156.4574
  54   1.0000      -5.748396      -156.4218
  55   1.0000      -5.743513      -156.2889
  56   1.0000      -5.738805      -156.1608
  57   1.0000      -5.735770      -156.0782
  58   1.0000      -5.733536      -156.0174
  59   1.0000      -5.729567      -155.9094
  60   1.0000      -5.729098      -155.8967
  61   1.0000      -5.723624      -155.7477
  62   1.0000      -5.716991      -155.5672
  63   1.0000      -5.715358      -155.5228
  64   1.0000      -5.713557      -155.4738
  65   1.0000      -5.712190      -155.4366
  66   1.0000      -5.707209      -155.3010
  67   1.0000      -5.706578      -155.2839
  68   1.0000      -5.692877      -154.9110
  69   1.0000      -5.687012      -154.7515
  70   1.0000      -5.686424      -154.7355
  71   1.0000      -5.680626      -154.5777
  72   1.0000      -5.674553      -154.4124
  73   1.0000      -5.673623      -154.3871
  74   1.0000      -5.665567      -154.1679
  75   1.0000      -5.664493      -154.1387
  76   1.0000      -5.658867      -153.9856
  77   1.0000      -5.657552      -153.9498
  78   1.0000      -5.656743      -153.9278
  79   1.0000      -5.655258      -153.8874
  80   1.0000      -2.412365       -65.6438
  81   1.0000      -1.479143       -40.2495
  82   1.0000      -1.424918       -38.7740
  83   1.0000      -1.424317       -38.7576
  84   1.0000      -0.760046       -20.6819
  85   1.0000      -0.727375       -19.7929
  86   1.0000      -0.697164       -18.9708
  87   1.0000      -0.694928       -18.9099
  88   1.0000      -0.671253       -18.2657
  89   1.0000      -0.636914       -17.3313
  90   1.0000      -0.633013       -17.2251
  91   1.0000      -0.629419       -17.1274
  92   1.0000      -0.619194       -16.8491
  93   1.0000      -0.602324       -16.3901
  94   1.0000      -0.587584       -15.9890
  95   1.0000      -0.553527       -15.0622
  96   1.0000      -0.545793       -14.8518
  97   1.0000      -0.510879       -13.9017
  98   1.0000      -0.508669       -13.8416
  99   1.0000      -0.489601       -13.3227
 100   1.0000      -0.488749       -13.2995
 101   1.0000      -0.480794       -13.0831
 102   1.0000      -0.468790       -12.7564
 103   1.0000      -0.443561       -12.0699
 104   1.0000      -0.431568       -11.7436
 105   1.0000      -0.414400       -11.2764
 106   1.0000      -0.402161       -10.9433
 107   1.0000      -0.388700       -10.5771
 108   1.0000      -0.371517       -10.1095
 109   1.0000      -0.343021        -9.3341
 110   1.0000      -0.333517        -9.0755
 111   1.0000      -0.319648        -8.6981
 112   1.0000      -0.310595        -8.4517
 113   1.0000      -0.296451        -8.0668
 114   1.0000      -0.289790        -7.8856
 115   1.0000      -0.286337        -7.7916
 116   1.0000      -0.277963        -7.5638
 117   1.0000      -0.274864        -7.4794
 118   1.0000      -0.268790        -7.3141
 119   1.0000      -0.249952        -6.8015
 120   1.0000      -0.246632        -6.7112
 121   1.0000      -0.239453        -6.5158
 122   1.0000      -0.237270        -6.4564
 123   1.0000      -0.232162        -6.3175
 124   1.0000      -0.229637        -6.2487
 125   1.0000      -0.221918        -6.0387
 126   1.0000      -0.220979        -6.0131
 127   1.0000      -0.218849        -5.9552
 128   1.0000      -0.215875        -5.8743
 129   1.0000      -0.195830        -5.3288
 130   1.0000      -0.193748        -5.2722
 131   1.0000      -0.187015        -5.0889
 132   1.0000      -0.180098        -4.9007
 133   1.0000      -0.176062        -4.7909
 134   1.0000      -0.160989        -4.3807
 135   1.0000      -0.154470        -4.2034
 136   1.0000      -0.150491        -4.0951
 137   1.0000      -0.145998        -3.9728
 138   1.0000      -0.140587        -3.8256
 139   1.0000      -0.136334        -3.7098
 140   1.0000      -0.128802        -3.5049
 141   1.0000      -0.126874        -3.4524
 142   1.0000      -0.120738        -3.2855
 143   1.0000      -0.113397        -3.0857
 144   1.0000      -0.102025        -2.7762
 145   1.0000      -0.085172        -2.3177
 146   1.0000      -0.084187        -2.2909
 147   1.0000      -0.074402        -2.0246
 148   1.0000      -0.066086        -1.7983
 149   1.0000      -0.063351        -1.7239
 150   1.0000      -0.055868        -1.5202
 151   1.0000      -0.052732        -1.4349
 152   1.0000      -0.046330        -1.2607
 153   1.0000      -0.045872        -1.2483
 154   1.0000      -0.043601        -1.1864
 155   1.0000      -0.036429        -0.9913
 156   1.0000      -0.029803        -0.8110
 157   1.0000      -0.016565        -0.4507
 158   1.0000       0.012719         0.3461
 159   1.0000       0.028891         0.7862
 160   0.0000       0.110659         3.0112
 161   0.0000       0.121543         3.3074
 162   0.0000       0.127881         3.4798
 163   0.0000       0.139515         3.7964
 164   0.0000       0.147329         4.0090

MULLIKEN ATOMIC CHARGES AND SPIN POPULATIONS
--------------------------------------------
   0 V :    0.452450    1.210072
   1 S :   -0.232343   -0.020568
   2 S :   -0.156311   -0.022002
   3 S :   -0.305384   -0.027626
   4 S :   -0.318066   -0.028901
   5 O :   -0.458343   -0.147767
   6 C :    0.020411    0.004072
   7 C :   -0.211893    0.015433
   8 C :   -0.015216    0.006308
   9 C :   -0.164332    0.009999
  10 S :   -0.157004   -0.000189
  11 S :    0.411662   -0.001023
  12 S :    0.282140   -0.000183
  13 S :   -0.058292   -0.000579
  14 C :   -0.132682    0.000670
  15 C :   -0.172227    0.000715
  16 C :   -0.310757    0.001811
  17 C :   -0.239310   -0.000217
  18 S :    0.135844   -0.000076
  19 S :   -0.182222   -0.000334
  20 S :    0.084876   -0.000055
  21 S :   -0.091995   -0.000116
  22 C :   -0.295633   -0.000004
  23 C :   -0.292783   -0.000010
  24 C :   -0.159777   -0.000007
  25 H :    0.135479   -0.000002
  26 H :    0.112024   -0.000005
  27 H :    0.083821   -0.000003
  28 H :    0.090429   -0.000000
  29 H :    0.109258   -0.000006
  30 H :    0.142549    0.000002
  31 C :   -0.278843    0.000112
  32 C :   -0.281963    0.000624
  33 C :   -0.166178   -0.000247
  34 H :    0.133450   -0.000025
  35 H :    0.093703    0.000099
  36 H :    0.084194    0.000044
  37 H :    0.080360    0.000009
  38 H :    0.105092   -0.000014
  39 H :    0.123810   -0.000010
Sum of atomic charges         :   -2.0000000

LOEWDIN ATOMIC CHARGES AND SPIN POPULATIONS
-------------------------------------------
   0 V :   -0.160389    1.162941
   1 S :    0.150163   -0.013014
   2 S :    0.225698   -0.014221
   3 S :    0.043566   -0.018647
   4 S :    0.017894   -0.018761
   5 O :   -0.313354   -0.132555
   6 C :   -0.472134    0.004129
   7 C :   -0.620172    0.015175
   8 C :   -0.508400    0.006567
   9 C :   -0.591975    0.010259
  10 S :    0.191627   -0.000899
  11 S :    0.801550   -0.000973
  12 S :    0.656091   -0.000485
  13 S :    0.304637   -0.001189
  14 C :   -0.494080   -0.000227
  15 C :   -0.472006   -0.000226
  16 C :   -0.654195    0.001882
  17 C :   -0.630131    0.000156
  18 S :    0.497652    0.000032
  19 S :    0.180857   -0.000273
  20 S :    0.435917   -0.000073
  21 S :    0.265766   -0.000109
  22 C :   -0.289692   -0.000008
  23 C :   -0.282633   -0.000011
  24 C :   -0.176310   -0.000002
  25 H :    0.058004   -0.000003
  26 H :    0.051976   -0.000003
  27 H :    0.057881   -0.000003
  28 H :    0.059695   -0.000001
  29 H :    0.052197   -0.000002
  30 H :    0.064186   -0.000001
  31 C :   -0.297184   -0.000012
  32 C :   -0.296908    0.000492
  33 C :   -0.177461    0.000009
  34 H :    0.061830    0.000009
  35 H :    0.045649    0.000041
  36 H :    0.057375    0.000013
  37 H :    0.055802    0.000004
  38 H :    0.048319   -0.000006
  39 H :    0.052693   -0.000006

  Mayer bond orders larger than 0.100000
B(  0-V ,  1-S ) :   0.7382 B(  0-V ,  2-S ) :   0.6942 B(  0-V ,  3-S ) :   0.8133
B(  0-V ,  4-S ) :   0.8368 B(  0-V ,  5-O ) :   2.1546 B(  1-S ,  8-C ) :   1.2120
B(  2-S ,  6-C ) :   1.3332 B(  3-S ,  9-C ) :   1.0095 B(  4-S ,  7-C ) :   0.9341
B(  6-C ,  7-C ) :   1.5898 B(  6-C , 10-S ) :   0.8245 B(  7-C , 11-S ) :   1.0370
B(  8-C ,  9-C ) :   1.6709 B(  8-C , 13-S ) :   0.8696 B(  9-C , 12-S ) :   0.9916
B( 10-S , 14-C ) :   0.9082 B( 11-S , 14-C ) :   1.5772 B( 11-S , 16-C ) :   0.1263
B( 12-S , 15-C ) :   1.4021 B( 13-S , 15-C ) :   1.0480 B( 14-C , 16-C ) :   1.2996
B( 15-C , 17-C ) :   1.4521 B( 16-C , 18-S ) :   1.4863 B( 16-C , 19-S ) :   0.7874
B( 17-C , 20-S ) :   1.2606 B( 17-C , 21-S ) :   0.9284 B( 18-S , 32-C ) :   0.8482
B( 19-S , 31-C ) :   1.0375 B( 20-S , 23-C ) :   0.9253 B( 21-S , 22-C ) :   1.0273
B( 22-C , 24-C ) :   0.9038 B( 22-C , 25-H ) :   0.9683 B( 22-C , 26-H ) :   0.9663
B( 23-C , 24-C ) :   0.9276 B( 23-C , 29-H ) :   0.9624 B( 23-C , 30-H ) :   0.9661
B( 24-C , 27-H ) :   0.9638 B( 24-C , 28-H ) :   0.9710 B( 31-C , 33-C ) :   0.9011
B( 31-C , 38-H ) :   0.9670 B( 31-C , 39-H ) :   0.9702 B( 32-C , 33-C ) :   0.9343
B( 32-C , 34-H ) :   0.9699 B( 32-C , 35-H ) :   0.9573 B( 33-C , 36-H ) :   0.9702
B( 33-C , 37-H ) :   0.9664

FINAL SINGLE POINT ENERGY     -6337.374469517871

DIPOLE MOMENT
-------------
                                X             Y             Z
Electronic contribution:    -14.10540       0.17496      -1.56274
Nuclear contribution   :     14.85182      -0.44347       2.90076
                        -----------------------------------------
Total Dipole Moment    :      0.74642      -0.26851       1.33802
                        -----------------------------------------
Magnitude (a.u.)       :      1.55549
Magnitude (Debye)      :      3.95373

Rotational constants in cm-1:     0.010733     0.000804     0.000783
Rotational constants in MHz :   321.776244    24.115113    23.481437

                             ****ORCA TERMINATED NORMALLY****
TOTAL RUN TIME: 0 days 1 hours 7 minutes 21 seconds 766 msec
