                         Program Version 5.0.4 -  RELEASE  -
|  1> ! nofrozencore ReducedPop printbasis
|  2> ! B3LYP TZVP
|  3>
|  4> %basis
|  5> newgto V "CP(PPP)" end
|  6> end
|  7>
|  8> %pal
|  9> nprocs 8
| 10> end
| 11>
| 12> % sym SymThresh 1e-2 end
| 13> * xyz -2 2
| 14> V -0.5810547978869283 0.9379115577720895 -0.13094435900455545
| 15> S -2.157075346201515 -0.7417599292757401 -1.0027601176569918
| 16> S -1.141666328059053 -0.04529087368781496 2.134832116300191
| 17> S 0.6520946252398553 0.7115832464617142 -2.2172933672489754
| 18> S 1.640970656690683 1.324040379889678 0.8788104826927965
| 19> O -1.3151767613633867 2.334002013450276 -0.42096658067686765
| 20> C 0.14643531396130263 0.6598969996911037 3.096230931292066
| 21> C 1.266573543804651 1.1990343762179259 2.582780444148286
| 22> C -1.6029375212474837 -0.8316288862578686 -2.6781667899061983
| 23> C -0.48072551393216534 -0.2585475620355738 -3.1537476268424074
| 24> S -0.007787076651650959 0.7042253554431875 4.883999215185966
| 25> S 2.471216631283502 1.845012382777539 3.735332954987462
| 26> S -0.0356890097408262 -0.6623515651028193 -4.852862788022197
| 27> S -2.4906173352699126 -1.894294461546565 -3.8356910650635054
| 28> C 1.574637018050662 1.4168327231680056 5.18330556224007
| 29> C -1.3856721358214377 -1.7558244805014305 -5.221623476498179
| 30> C 2.044160228845673 1.624338240487241 6.439329276791598
| 31> C -1.5811158973179038 -2.3875715951087715 -6.430791875186474
| 32> S 0.9949365104711049 1.2322308720994846 7.819646767929516
| 33> S 3.639445825931986 2.3610477144117845 6.691866980053483
| 34> S -2.9676690827342873 -3.4640373633725225 -6.7781881231944405
| 35> S -0.49454901282428665 -2.2372427847319565 -7.847575480298251
| 36> C 0.11556869855712942 -3.9914274295844647 -7.9088148210718385
| 37> C -2.0566150558093623 -5.063114481962159 -7.033799628985838
| 38> C -0.9885900478363141 -5.029339173974957 -8.133041484814454
| 39> H 0.6549338126941562 -4.18567931413314 -6.9782634341472685
| 40> H 0.8350005349301204 -4.020087052292712 -8.731324414003865
| 41> H -0.5198100530847043 -6.026586602539861 -8.18432182078614
| 42> H -1.4678131891063475 -4.844761879666145 -9.104244128218456
| 43> H -2.833486275924376 -5.791366743094272 -7.283883647169678
| 44> H -1.6162358005593724 -5.352556700434712 -6.0758605115080355
| 45> C 3.049021198908415 3.8881961128687195 7.542646891998104
| 46> C 0.8874217407633644 2.924903872368317 8.555088274439449
| 47> C 2.252866736082455 3.569687216397812 8.812117764294587
| 48> H 0.2824587540601224 3.553843120058136 7.894361608128441
| 49> H 0.34666040161056616 2.79952320521878 9.497013685212409
| 50> H 2.8524181045344625 2.9146306349166955 9.458213596605553
| 51> H 2.0840976050374618 4.509334849620977 9.362855198448488
| 52> H 3.9452139431965514 4.467631979047885 7.785427271074542
| 53> H 2.4465984081375174 4.465803866978889 6.83467358664782
| 54> *
| 55>
| 56> % eprnmr
| 57> gtensor true
| 58> Nuclei = all H {aiso,adip,aorb,fgrad,rho}
| 59> Nuclei = all V {aiso,adip,aorb,fgrad,rho}
| 60> end
| 61>
| 62>                          ****END OF INPUT****

CARTESIAN COORDINATES (ANGSTROEM)
---------------------------------
  V     -0.578959    0.935856   -0.128478
  S     -2.154979   -0.743815   -1.000294
  S     -1.139570   -0.047346    2.137298
  S      0.654191    0.709528   -2.214827
  S      1.643067    1.321985    0.881276
  O     -1.313081    2.331947   -0.418501
  C      0.148531    0.657842    3.098697
  C      1.268670    1.196979    2.585246
  C     -1.600841   -0.833684   -2.675701
  C     -0.478629   -0.260603   -3.151282
  S     -0.005691    0.702170    4.886465
  S      2.473313    1.842957    3.737799
  S     -0.033593   -0.664407   -4.850397
  S     -2.488521   -1.896350   -3.833225
  C      1.576733    1.414778    5.185771
  C     -1.383576   -1.757880   -5.219158
  C      2.046256    1.622283    6.441795
  C     -1.579020   -2.389627   -6.428326
  S      0.997033    1.230176    7.822113
  S      3.641542    2.358993    6.694333
  S     -2.965573   -3.466092   -6.775722
  S     -0.492453   -2.239298   -7.845110
  C      0.117665   -3.993482   -7.906349
  C     -2.054519   -5.065170   -7.031334
  C     -0.986494   -5.031394   -8.130576
  H      0.657030   -4.187734   -6.975798
  H      0.837097   -4.022142   -8.728859
  H     -0.517714   -6.028642   -8.181856
  H     -1.465717   -4.846817   -9.101778
  H     -2.831390   -5.793422   -7.281418
  H     -1.614140   -5.354612   -6.073395
  C      3.051117    3.886141    7.545113
  C      0.889518    2.922849    8.557554
  C      2.254963    3.567632    8.814584
  H      0.284555    3.551788    7.896827
  H      0.348757    2.797468    9.499480
  H      2.854514    2.912576    9.460679
  H      2.086194    4.507280    9.365321
  H      3.947310    4.465577    7.787893
  H      2.448695    4.463749    6.837139

 Total Charge           Charge          ....   -2
 Multiplicity           Mult            ....    2
 Number of Electrons    NEL             ....  321
 Basis Dimension        Dim             ....  681

ORBITAL ENERGIES
----------------
                 SPIN UP ORBITALS
  NO   OCC          E(Eh)            E(eV)
   0   1.0000    -196.676696     -5351.8450
   1   1.0000     -88.735157     -2414.6064
   2   1.0000     -88.734038     -2414.5759
   3   1.0000     -88.732295     -2414.5285
   4   1.0000     -88.731654     -2414.5110
   5   1.0000     -88.731527     -2414.5076
   6   1.0000     -88.731141     -2414.4971
   7   1.0000     -88.728760     -2414.4323
   8   1.0000     -88.728363     -2414.4215
   9   1.0000     -88.641602     -2412.0606
  10   1.0000     -88.641053     -2412.0457
  11   1.0000     -88.638269     -2411.9699
  12   1.0000     -88.637607     -2411.9519
  13   1.0000     -22.051976      -600.0648
  14   1.0000     -18.888176      -513.9734
  15   1.0000     -18.558367      -504.9988
  16   1.0000     -18.553277      -504.8603
  17   1.0000     -18.553198      -504.8582
  18   1.0000     -10.080504      -274.3045
  19   1.0000     -10.071065      -274.0476
  20   1.0000     -10.064806      -273.8773
  21   1.0000     -10.064492      -273.8687
  22   1.0000     -10.062932      -273.8263
  23   1.0000     -10.062698      -273.8199
  24   1.0000     -10.052408      -273.5399
  25   1.0000     -10.051956      -273.5276
  26   1.0000     -10.051073      -273.5036
  27   1.0000     -10.045498      -273.3519
  28   1.0000     -10.020730      -272.6779
  29   1.0000     -10.019940      -272.6564
  30   1.0000     -10.015388      -272.5326
  31   1.0000     -10.014427      -272.5064
  32   1.0000      -7.788798      -211.9440
  33   1.0000      -7.787671      -211.9133
  34   1.0000      -7.785473      -211.8535
  35   1.0000      -7.784893      -211.8377
  36   1.0000      -7.784485      -211.8266
  37   1.0000      -7.784034      -211.8143
  38   1.0000      -7.782462      -211.7715
  39   1.0000      -7.781873      -211.7555
  40   1.0000      -7.695648      -209.4092
  41   1.0000      -7.695524      -209.4059
  42   1.0000      -7.692843      -209.3329
  43   1.0000      -7.691644      -209.3003
  44   1.0000      -5.753739      -156.5672
  45   1.0000      -5.752661      -156.5379
  46   1.0000      -5.750472      -156.4783
  47   1.0000      -5.750391      -156.4761
  48   1.0000      -5.749922      -156.4633
  49   1.0000      -5.749493      -156.4516
  50   1.0000      -5.749196      -156.4436
  51   1.0000      -5.749036      -156.4392
  52   1.0000      -5.747352      -156.3934
  53   1.0000      -5.747137      -156.3876
  54   1.0000      -5.746769      -156.3775
  55   1.0000      -5.746494      -156.3701
  56   1.0000      -5.744975      -156.3287
  57   1.0000      -5.744548      -156.3171
  58   1.0000      -5.743597      -156.2912
  59   1.0000      -5.742984      -156.2745
  60   1.0000      -5.742475      -156.2607
  61   1.0000      -5.742447      -156.2599
  62   1.0000      -5.740331      -156.2023
  63   1.0000      -5.740212      -156.1991
  64   1.0000      -5.739869      -156.1898
  65   1.0000      -5.739646      -156.1837
  66   1.0000      -5.738246      -156.1456
  67   1.0000      -5.737626      -156.1288
  68   1.0000      -5.661072      -154.0456
  69   1.0000      -5.660885      -154.0405
  70   1.0000      -5.658013      -153.9624
  71   1.0000      -5.656931      -153.9329
  72   1.0000      -5.654329      -153.8621
  73   1.0000      -5.654219      -153.8591
  74   1.0000      -5.652869      -153.8224
  75   1.0000      -5.652684      -153.8173
  76   1.0000      -5.651500      -153.7851
  77   1.0000      -5.650346      -153.7537
  78   1.0000      -5.650257      -153.7513
  79   1.0000      -5.649014      -153.7175
  80   1.0000      -2.444963       -66.5308
  81   1.0000      -1.484537       -40.3963
  82   1.0000      -1.474923       -40.1347
  83   1.0000      -1.474135       -40.1132
  84   1.0000      -0.713538       -19.4164
  85   1.0000      -0.705213       -19.1898
  86   1.0000      -0.686584       -18.6829
  87   1.0000      -0.683522       -18.5996
  88   1.0000      -0.647114       -17.6089
  89   1.0000      -0.632318       -17.2062
  90   1.0000      -0.629317       -17.1246
  91   1.0000      -0.620855       -16.8943
  92   1.0000      -0.612978       -16.6800
  93   1.0000      -0.576322       -15.6825
  94   1.0000      -0.574197       -15.6247
  95   1.0000      -0.571936       -15.5632
  96   1.0000      -0.571410       -15.5489
  97   1.0000      -0.498647       -13.5689
  98   1.0000      -0.496551       -13.5118
  99   1.0000      -0.494947       -13.4682
 100   1.0000      -0.492603       -13.4044
 101   1.0000      -0.479547       -13.0491
 102   1.0000      -0.476930       -12.9779
 103   1.0000      -0.447003       -12.1636
 104   1.0000      -0.444858       -12.1052
 105   1.0000      -0.416607       -11.3365
 106   1.0000      -0.410858       -11.1800
 107   1.0000      -0.354904        -9.6574
 108   1.0000      -0.354539        -9.6475
 109   1.0000      -0.327369        -8.9082
 110   1.0000      -0.324688        -8.8352
 111   1.0000      -0.319070        -8.6823
 112   1.0000      -0.313962        -8.5433
 113   1.0000      -0.305009        -8.2997
 114   1.0000      -0.302190        -8.2230
 115   1.0000      -0.292974        -7.9722
 116   1.0000      -0.290592        -7.9074
 117   1.0000      -0.258006        -7.0207
 118   1.0000      -0.257836        -7.0161
 119   1.0000      -0.255701        -6.9580
 120   1.0000      -0.254935        -6.9371
 121   1.0000      -0.235342        -6.4040
 122   1.0000      -0.233081        -6.3425
 123   1.0000      -0.232989        -6.3400
 124   1.0000      -0.227189        -6.1821
 125   1.0000      -0.219048        -5.9606
 126   1.0000      -0.217919        -5.9299
 127   1.0000      -0.215706        -5.8696
 128   1.0000      -0.211580        -5.7574
 129   1.0000      -0.192722        -5.2442
 130   1.0000      -0.186384        -5.0718
 131   1.0000      -0.186057        -5.0629
 132   1.0000      -0.185093        -5.0366
 133   1.0000      -0.179150        -4.8749
 134   1.0000      -0.159347        -4.3360
 135   1.0000      -0.151850        -4.1320
 136   1.0000      -0.146585        -3.9888
 137   1.0000      -0.135387        -3.6841
 138   1.0000      -0.133456        -3.6315
 139   1.0000      -0.132539        -3.6066
 140   1.0000      -0.122854        -3.3430
 141   1.0000      -0.121100        -3.2953
 142   1.0000      -0.109411        -2.9772
 143   1.0000      -0.107063        -2.9133
 144   1.0000      -0.099745        -2.7142
 145   1.0000      -0.097911        -2.6643
 146   1.0000      -0.096404        -2.6233
 147   1.0000      -0.093760        -2.5513
 148   1.0000      -0.074080        -2.0158
 149   1.0000      -0.071830        -1.9546
 150   1.0000      -0.061889        -1.6841
 151   1.0000      -0.053015        -1.4426
 152   1.0000      -0.045163        -1.2290
 153   1.0000      -0.037317        -1.0154
 154   1.0000      -0.036535        -0.9942
 155   1.0000      -0.030270        -0.8237
 156   1.0000      -0.024347        -0.6625
 157   1.0000      -0.019916        -0.5419
 158   1.0000      -0.014878        -0.4049
 159   1.0000       0.020572         0.5598
 160   1.0000       0.041063         1.1174
 161   0.0000       0.136054         3.7022
 162   0.0000       0.136817         3.7230
 163   0.0000       0.160852         4.3770
 164   0.0000       0.162822         4.4306
 165   0.0000       0.167633         4.5615

                 SPIN DOWN ORBITALS
  NO   OCC          E(Eh)            E(eV)
   0   1.0000    -196.676841     -5351.8489
   1   1.0000     -88.735157     -2414.6064
   2   1.0000     -88.734039     -2414.5760
   3   1.0000     -88.732296     -2414.5285
   4   1.0000     -88.731654     -2414.5111
   5   1.0000     -88.731536     -2414.5078
   6   1.0000     -88.731149     -2414.4973
   7   1.0000     -88.728766     -2414.4325
   8   1.0000     -88.728370     -2414.4217
   9   1.0000     -88.641750     -2412.0646
  10   1.0000     -88.641207     -2412.0499
  11   1.0000     -88.638424     -2411.9741
  12   1.0000     -88.637755     -2411.9559
  13   1.0000     -22.036870      -599.6537
  14   1.0000     -18.892181      -514.0824
  15   1.0000     -18.552941      -504.8512
  16   1.0000     -18.537108      -504.4203
  17   1.0000     -18.536937      -504.4157
  18   1.0000     -10.080502      -274.3044
  19   1.0000     -10.071062      -274.0475
  20   1.0000     -10.064805      -273.8773
  21   1.0000     -10.064492      -273.8687
  22   1.0000     -10.062933      -273.8263
  23   1.0000     -10.062698      -273.8199
  24   1.0000     -10.052408      -273.5399
  25   1.0000     -10.051956      -273.5276
  26   1.0000     -10.051069      -273.5035
  27   1.0000     -10.045490      -273.3517
  28   1.0000     -10.020485      -272.6713
  29   1.0000     -10.019699      -272.6499
  30   1.0000     -10.015197      -272.5274
  31   1.0000     -10.014211      -272.5005
  32   1.0000      -7.788799      -211.9440
  33   1.0000      -7.787671      -211.9133
  34   1.0000      -7.785473      -211.8535
  35   1.0000      -7.784893      -211.8377
  36   1.0000      -7.784495      -211.8269
  37   1.0000      -7.784044      -211.8146
  38   1.0000      -7.782469      -211.7718
  39   1.0000      -7.781882      -211.7558
  40   1.0000      -7.695786      -209.4130
  41   1.0000      -7.695668      -209.4098
  42   1.0000      -7.692988      -209.3368
  43   1.0000      -7.691782      -209.3040
  44   1.0000      -5.753740      -156.5672
  45   1.0000      -5.752662      -156.5379
  46   1.0000      -5.750473      -156.4783
  47   1.0000      -5.750391      -156.4761
  48   1.0000      -5.749923      -156.4634
  49   1.0000      -5.749503      -156.4519
  50   1.0000      -5.749197      -156.4436
  51   1.0000      -5.749048      -156.4395
  52   1.0000      -5.747360      -156.3936
  53   1.0000      -5.747138      -156.3876
  54   1.0000      -5.746779      -156.3778
  55   1.0000      -5.746495      -156.3701
  56   1.0000      -5.744989      -156.3291
  57   1.0000      -5.744563      -156.3175
  58   1.0000      -5.743598      -156.2912
  59   1.0000      -5.742995      -156.2748
  60   1.0000      -5.742476      -156.2607
  61   1.0000      -5.742460      -156.2603
  62   1.0000      -5.740336      -156.2025
  63   1.0000      -5.740213      -156.1991
  64   1.0000      -5.739875      -156.1899
  65   1.0000      -5.739647      -156.1837
  66   1.0000      -5.738252      -156.1458
  67   1.0000      -5.737634      -156.1289
  68   1.0000      -5.661222      -154.0497
  69   1.0000      -5.661046      -154.0449
  70   1.0000      -5.658162      -153.9664
  71   1.0000      -5.657066      -153.9366
  72   1.0000      -5.654698      -153.8721
  73   1.0000      -5.654605      -153.8696
  74   1.0000      -5.652995      -153.8258
  75   1.0000      -5.652810      -153.8208
  76   1.0000      -5.651900      -153.7960
  77   1.0000      -5.650740      -153.7644
  78   1.0000      -5.650385      -153.7548
  79   1.0000      -5.649129      -153.7206
  80   1.0000      -2.399507       -65.2939
  81   1.0000      -1.464584       -39.8534
  82   1.0000      -1.412017       -38.4229
  83   1.0000      -1.411827       -38.4178
  84   1.0000      -0.713520       -19.4159
  85   1.0000      -0.705192       -19.1893
  86   1.0000      -0.686542       -18.6818
  87   1.0000      -0.683469       -18.5981
  88   1.0000      -0.655920       -17.8485
  89   1.0000      -0.632260       -17.2047
  90   1.0000      -0.629255       -17.1229
  91   1.0000      -0.620855       -16.8943
  92   1.0000      -0.612980       -16.6800
  93   1.0000      -0.576309       -15.6822
  94   1.0000      -0.574116       -15.6225
  95   1.0000      -0.571900       -15.5622
  96   1.0000      -0.571360       -15.5475
  97   1.0000      -0.498698       -13.5703
  98   1.0000      -0.496577       -13.5126
  99   1.0000      -0.494985       -13.4692
 100   1.0000      -0.492665       -13.4061
 101   1.0000      -0.479757       -13.0549
 102   1.0000      -0.477218       -12.9858
 103   1.0000      -0.447035       -12.1644
 104   1.0000      -0.444915       -12.1068
 105   1.0000      -0.416626       -11.3370
 106   1.0000      -0.411005       -11.1840
 107   1.0000      -0.354898        -9.6573
 108   1.0000      -0.354532        -9.6473
 109   1.0000      -0.327358        -8.9079
 110   1.0000      -0.324674        -8.8348
 111   1.0000      -0.319020        -8.6810
 112   1.0000      -0.313974        -8.5437
 113   1.0000      -0.304963        -8.2985
 114   1.0000      -0.302162        -8.2222
 115   1.0000      -0.292971        -7.9721
 116   1.0000      -0.290586        -7.9072
 117   1.0000      -0.257854        -7.0166
 118   1.0000      -0.257764        -7.0141
 119   1.0000      -0.255677        -6.9573
 120   1.0000      -0.254891        -6.9359
 121   1.0000      -0.235316        -6.4033
 122   1.0000      -0.233045        -6.3415
 123   1.0000      -0.232970        -6.3394
 124   1.0000      -0.227148        -6.1810
 125   1.0000      -0.218723        -5.9517
 126   1.0000      -0.217645        -5.9224
 127   1.0000      -0.215606        -5.8669
 128   1.0000      -0.211415        -5.7529
 129   1.0000      -0.190988        -5.1970
 130   1.0000      -0.186315        -5.0699
 131   1.0000      -0.185713        -5.0535
 132   1.0000      -0.184915        -5.0318
 133   1.0000      -0.178999        -4.8708
 134   1.0000      -0.158738        -4.3195
 135   1.0000      -0.151699        -4.1279
 136   1.0000      -0.146492        -3.9863
 137   1.0000      -0.134945        -3.6720
 138   1.0000      -0.133188        -3.6242
 139   1.0000      -0.132280        -3.5995
 140   1.0000      -0.122328        -3.3287
 141   1.0000      -0.120898        -3.2898
 142   1.0000      -0.111244        -3.0271
 143   1.0000      -0.108617        -2.9556
 144   1.0000      -0.099765        -2.7147
 145   1.0000      -0.098290        -2.6746
 146   1.0000      -0.096914        -2.6372
 147   1.0000      -0.094021        -2.5584
 148   1.0000      -0.071835        -1.9547
 149   1.0000      -0.070274        -1.9123
 150   1.0000      -0.061888        -1.6841
 151   1.0000      -0.050296        -1.3686
 152   1.0000      -0.044290        -1.2052
 153   1.0000      -0.037424        -1.0184
 154   1.0000      -0.036125        -0.9830
 155   1.0000      -0.030621        -0.8332
 156   1.0000      -0.025277        -0.6878
 157   1.0000      -0.015124        -0.4115
 158   1.0000       0.020810         0.5663
 159   1.0000       0.040355         1.0981
 160   0.0000       0.136027         3.7015
 161   0.0000       0.136833         3.7234
 162   0.0000       0.155209         4.2235
 163   0.0000       0.161434         4.3928
 164   0.0000       0.163518         4.4496

MULLIKEN ATOMIC CHARGES AND SPIN POPULATIONS
--------------------------------------------
   0 V :    0.463220    1.226111
   1 S :   -0.278255   -0.024229
   2 S :   -0.314408   -0.026105
   3 S :   -0.261885   -0.025740
   4 S :   -0.294366   -0.027718
   5 O :   -0.469337   -0.155377
   6 C :   -0.071875    0.006939
   7 C :   -0.094368    0.008753
   8 C :   -0.076834    0.008257
   9 C :   -0.084047    0.009296
  10 S :    0.096986   -0.000549
  11 S :    0.102267   -0.000373
  12 S :    0.099255   -0.000345
  13 S :    0.097338   -0.000410
  14 C :   -0.251788    0.001131
  15 C :   -0.182865    0.001305
  16 C :   -0.138513   -0.000126
  17 C :   -0.228577   -0.000618
  18 S :    0.007875   -0.000082
  19 S :    0.009154   -0.000072
  20 S :    0.007526   -0.000042
  21 S :    0.007140   -0.000045
  22 C :   -0.304945   -0.000032
  23 C :   -0.299858   -0.000036
  24 C :   -0.154354    0.000032
  25 H :    0.145713    0.000001
  26 H :    0.113957   -0.000006
  27 H :    0.082802   -0.000005
  28 H :    0.089474   -0.000003
  29 H :    0.111668   -0.000006
  30 H :    0.141794    0.000002
  31 C :   -0.299695    0.000109
  32 C :   -0.294700    0.000109
  33 C :   -0.165250   -0.000136
  34 H :    0.138229   -0.000012
  35 H :    0.112896    0.000009
  36 H :    0.095786    0.000011
  37 H :    0.082628    0.000006
  38 H :    0.115339    0.000009
  39 H :    0.144875   -0.000012
Sum of atomic charges         :   -2.0000000

LOEWDIN ATOMIC CHARGES AND SPIN POPULATIONS
-------------------------------------------
   0 V :   -0.149256    1.178343
   1 S :    0.087531   -0.015896
   2 S :    0.052365   -0.017721
   3 S :    0.107028   -0.016622
   4 S :    0.079789   -0.018109
   5 O :   -0.330684   -0.139891
   6 C :   -0.555465    0.006802
   7 C :   -0.558387    0.008425
   8 C :   -0.545218    0.008583
   9 C :   -0.544870    0.009310
  10 S :    0.469142   -0.000873
  11 S :    0.475323   -0.000751
  12 S :    0.469126   -0.000805
  13 S :    0.466740   -0.000868
  14 C :   -0.470740    0.000038
  15 C :   -0.458588   -0.000053
  16 C :   -0.624159    0.000295
  17 C :   -0.618348    0.000052
  18 S :    0.367521   -0.000076
  19 S :    0.369275   -0.000065
  20 S :    0.350367   -0.000060
  21 S :    0.348413   -0.000059
  22 C :   -0.284015   -0.000012
  23 C :   -0.285112   -0.000012
  24 C :   -0.175432   -0.000004
  25 H :    0.063744   -0.000002
  26 H :    0.053593   -0.000004
  27 H :    0.059005   -0.000002
  28 H :    0.059918   -0.000001
  29 H :    0.053885   -0.000004
  30 H :    0.062003   -0.000001
  31 C :   -0.283429    0.000014
  32 C :   -0.283380    0.000019
  33 C :   -0.178120    0.000004
  34 H :    0.060849   -0.000002
  35 H :    0.053457    0.000003
  36 H :    0.061519    0.000002
  37 H :    0.057725   -0.000000
  38 H :    0.053302    0.000003
  39 H :    0.063581   -0.000001

  Mayer bond orders larger than 0.100000
B(  0-V ,  1-S ) :   0.7847 B(  0-V ,  2-S ) :   0.7295 B(  0-V ,  3-S ) :   0.8061
B(  0-V ,  4-S ) :   0.7760 B(  0-V ,  5-O ) :   2.1458 B(  1-S ,  8-C ) :   1.1055
B(  2-S ,  6-C ) :   1.1086 B(  3-S ,  9-C ) :   1.1060 B(  4-S ,  7-C ) :   1.1010
B(  6-C ,  7-C ) :   1.6804 B(  6-C , 10-S ) :   0.9336 B(  7-C , 11-S ) :   0.9453
B(  8-C ,  9-C ) :   1.7045 B(  8-C , 13-S ) :   0.9251 B(  9-C , 12-S ) :   0.9311
B( 10-S , 14-C ) :   1.2543 B( 11-S , 14-C ) :   1.2546 B( 12-S , 15-C ) :   1.2378
B( 13-S , 15-C ) :   1.2390 B( 14-C , 16-C ) :   1.4406 B( 15-C , 17-C ) :   1.4578
B( 16-C , 18-S ) :   1.0694 B( 16-C , 19-S ) :   1.0811 B( 17-C , 20-S ) :   1.0920
B( 17-C , 21-S ) :   1.0955 B( 18-S , 32-C ) :   0.9939 B( 19-S , 31-C ) :   0.9875
B( 20-S , 23-C ) :   0.9945 B( 21-S , 22-C ) :   0.9901 B( 22-C , 24-C ) :   0.9106
B( 22-C , 25-H ) :   0.9658 B( 22-C , 26-H ) :   0.9655 B( 23-C , 24-C ) :   0.9132
B( 23-C , 29-H ) :   0.9659 B( 23-C , 30-H ) :   0.9645 B( 24-C , 27-H ) :   0.9632
B( 24-C , 28-H ) :   0.9736 B( 31-C , 33-C ) :   0.9106 B( 31-C , 38-H ) :   0.9642
B( 31-C , 39-H ) :   0.9679 B( 32-C , 33-C ) :   0.9170 B( 32-C , 34-H ) :   0.9652
B( 32-C , 35-H ) :   0.9656 B( 33-C , 36-H ) :   0.9701 B( 33-C , 37-H ) :   0.9598

FINAL SINGLE POINT ENERGY     -6337.698686588037

DIPOLE MOMENT
-------------
                                X             Y             Z
Electronic contribution:     -8.19228      10.31258      -4.06800
Nuclear contribution   :      9.25394     -11.33577       4.82404
                        -----------------------------------------
Total Dipole Moment    :      1.06166      -1.02319       0.75603
                        -----------------------------------------
Magnitude (a.u.)       :      1.65699
Magnitude (Debye)      :      4.21174

Rotational constants in cm-1:     0.010712     0.000804     0.000784
Rotational constants in MHz :   321.139837    24.114097    23.493349

                             ****ORCA TERMINATED NORMALLY****
TOTAL RUN TIME: 0 days 1 hours 1 minutes 55 seconds 939 msec
