                         Program Version 5.0.4 -  RELEASE  -
|  1> ! nofrozencore ReducedPop printbasis
|  2> ! B3LYP TZVP
|  3>
|  4> %basis
|  5> newgto V "CP(PPP)" end
|  6> end
|  7>
|  8> %pal
|  9> nprocs 6
| 10> end
| 11>
| 12> % sym SymThresh 1e-2 end
| 13> * xyz -2 2
| 14> V 1.0200778436787497 -0.4081125921761125 -0.16593028120269815
| 15> S -0.09211341573394653 -0.8019414761921981 -2.388324625499328
| 16> S 0.9624874234190663 2.029422631820082 -0.8458143121102762
| 17> S -0.20944069806461157 -2.3398767659539774 0.603628993091751
| 18> S 0.7314823272362763 0.41480193765497125 2.087781820034767
| 19> O 2.5468757666938138 -0.792402818170057 -0.39791045031507805
| 20> C 1.3209336885533067 2.747633387712264 0.712800091266676
| 21> C 1.2249859969610375 2.0951505529962717 1.8867219554501902
| 22> C -0.8481458037667187 -2.355781270963033 -2.094166292826266
| 23> C -0.8840681063095142 -2.9676255889565115 -0.8963713079197848
| 24> S 1.78834599806124 4.486074886811643 0.8075425552812946
| 25> S 1.5523804070158291 3.0482800882660204 3.366503563393521
| 26> S -1.758216239326743 -4.527965667587988 -0.8136509493868902
| 27> S -1.6611298689596912 -3.217058372950665 -3.4507236954691076
| 28> C 1.8921012404540885 4.597196296591837 2.5547142397832685
| 29> C -2.272815091010148 -4.571713641734347 -2.5199097227604397
| 30> C 2.209647161280779 5.755436672900494 3.209853205965796
| 31> C -3.0535376502833023 -5.552593201077693 -3.066292947440134
| 32> S 2.6613443646126593 7.286217487417296 2.3916980901158538
| 33> S 2.2272482939243727 5.777295531005716 4.985074506628898
| 34> S -3.6241886786127595 -5.562125599191171 -4.767154407409976
| 35> S -3.5952417261955354 -6.905103137890909 -2.0525828820616847
| 36> C -5.397311685111996 -6.504784164573033 -2.373291646074373
| 37> C -5.447034049598573 -5.307968532000093 -4.654786431543079
| 38> C -5.971241462051133 -6.453824446156889 -3.8109208323232253
| 39> H -5.556541445714203 -5.531130018659648 -1.9002406545510044
| 40> H -5.968592031364621 -7.2468581890421255 -1.803904271687896
| 41> H -7.067814014198878 -6.376532682319075 -3.69389098260948
| 42> H -5.761811863180712 -7.393922113966145 -4.33307286892806
| 43> H -5.804807446676663 -5.363314268315165 -5.68992779658891
| 44> H -5.690750794472596 -4.322091769814757 -4.248536978693025
| 45> C 4.025648830774833 6.2949530432701755 5.031196575035981
| 46> C 4.442475482698489 7.523837776930711 2.8047319197604503
| 47> C 4.510943041254959 7.58067245160129 4.3189477299115016
| 48> H 5.06339174154301 6.734218436816083 2.371951943798692
| 49> H 4.715801680502435 8.481394739883818 2.3459515717941675
| 50> H 3.9275518067363206 8.442914971672732 4.660314344725656
| 51> H 5.553861856780622 7.73318957302165 4.651729145166614
| 52> H 4.280902607484018 6.375926559449742 6.094108604795366
| 53> H 4.575419724485872 5.441571086651171 4.622790233549605
| 54> *
| 55>
| 56> % eprnmr
| 57> gtensor true
| 58> Nuclei = all H {aiso,adip,aorb,fgrad,rho}
| 59> Nuclei = all V {aiso,adip,aorb,fgrad,rho}
| 60> end
| 61>
| 62>                          ****END OF INPUT****

CARTESIAN COORDINATES (ANGSTROEM)
---------------------------------
  V      1.018032   -0.405202   -0.164501
  S     -0.094159   -0.799031   -2.386895
  S      0.960441    2.032333   -0.844385
  S     -0.211487   -2.336967    0.605058
  S      0.729436    0.417712    2.089211
  O      2.544830   -0.789493   -0.396481
  C      1.318888    2.750544    0.714229
  C      1.222940    2.098061    1.888151
  C     -0.850192   -2.352871   -2.092737
  C     -0.886114   -2.964715   -0.894942
  S      1.786300    4.488985    0.808972
  S      1.550334    3.051190    3.367933
  S     -1.760262   -4.525055   -0.812222
  S     -1.663176   -3.214148   -3.449294
  C      1.890055    4.600107    2.556143
  C     -2.274861   -4.568803   -2.518480
  C      2.207601    5.758347    3.211282
  C     -3.055584   -5.549683   -3.064864
  S      2.659298    7.289128    2.393127
  S      2.225202    5.780206    4.986504
  S     -3.626235   -5.559215   -4.765725
  S     -3.597288   -6.902193   -2.051154
  C     -5.399358   -6.501874   -2.371862
  C     -5.449080   -5.305058   -4.653357
  C     -5.973287   -6.450914   -3.809492
  H     -5.558587   -5.528220   -1.898811
  H     -5.970638   -7.243948   -1.802475
  H     -7.069860   -6.373622   -3.692462
  H     -5.763858   -7.391012   -4.331644
  H     -5.806853   -5.360404   -5.688499
  H     -5.692797   -4.319182   -4.247108
  C      4.023603    6.297863    5.032626
  C      4.440430    7.526748    2.806161
  C      4.508897    7.583583    4.320377
  H      5.061346    6.737129    2.373381
  H      4.713756    8.484305    2.347381
  H      3.925506    8.445825    4.661744
  H      5.551816    7.736100    4.653158
  H      4.278857    6.378837    6.095538
  H      4.573374    5.444481    4.624219

 Total Charge           Charge          ....   -2
 Multiplicity           Mult            ....    2
 Number of Electrons    NEL             ....  321
 Basis Dimension        Dim             ....  681

ORBITAL ENERGIES
----------------
                 SPIN UP ORBITALS
  NO   OCC          E(Eh)            E(eV)
   0   1.0000    -196.674022     -5351.7722
   1   1.0000     -88.734802     -2414.5967
   2   1.0000     -88.734435     -2414.5867
   3   1.0000     -88.732802     -2414.5423
   4   1.0000     -88.732324     -2414.5293
   5   1.0000     -88.731385     -2414.5037
   6   1.0000     -88.730775     -2414.4871
   7   1.0000     -88.729078     -2414.4410
   8   1.0000     -88.728558     -2414.4268
   9   1.0000     -88.641332     -2412.0533
  10   1.0000     -88.641077     -2412.0463
  11   1.0000     -88.637918     -2411.9604
  12   1.0000     -88.636792     -2411.9297
  13   1.0000     -22.049486      -599.9970
  14   1.0000     -18.888916      -513.9935
  15   1.0000     -18.555903      -504.9318
  16   1.0000     -18.550783      -504.7925
  17   1.0000     -18.550664      -504.7892
  18   1.0000     -10.075642      -274.1721
  19   1.0000     -10.074989      -274.1544
  20   1.0000     -10.065419      -273.8940
  21   1.0000     -10.065060      -273.8842
  22   1.0000     -10.063684      -273.8468
  23   1.0000     -10.063425      -273.8397
  24   1.0000     -10.053058      -273.5576
  25   1.0000     -10.052666      -273.5469
  26   1.0000     -10.049241      -273.4537
  27   1.0000     -10.048448      -273.4322
  28   1.0000     -10.018275      -272.6111
  29   1.0000     -10.018221      -272.6096
  30   1.0000     -10.016841      -272.5721
  31   1.0000     -10.016278      -272.5568
  32   1.0000      -7.788052      -211.9237
  33   1.0000      -7.787691      -211.9139
  34   1.0000      -7.786256      -211.8748
  35   1.0000      -7.785784      -211.8620
  36   1.0000      -7.784377      -211.8237
  37   1.0000      -7.783792      -211.8077
  38   1.0000      -7.782637      -211.7763
  39   1.0000      -7.782093      -211.7615
  40   1.0000      -7.695992      -209.4186
  41   1.0000      -7.695600      -209.4079
  42   1.0000      -7.692076      -209.3120
  43   1.0000      -7.690854      -209.2788
  44   1.0000      -5.752962      -156.5461
  45   1.0000      -5.752598      -156.5361
  46   1.0000      -5.751352      -156.5023
  47   1.0000      -5.750878      -156.4894
  48   1.0000      -5.749784      -156.4596
  49   1.0000      -5.749424      -156.4498
  50   1.0000      -5.749424      -156.4498
  51   1.0000      -5.748819      -156.4333
  52   1.0000      -5.747694      -156.4027
  53   1.0000      -5.747489      -156.3971
  54   1.0000      -5.747232      -156.3901
  55   1.0000      -5.746948      -156.3824
  56   1.0000      -5.744873      -156.3260
  57   1.0000      -5.744283      -156.3099
  58   1.0000      -5.743172      -156.2797
  59   1.0000      -5.742830      -156.2704
  60   1.0000      -5.742617      -156.2646
  61   1.0000      -5.742467      -156.2605
  62   1.0000      -5.741034      -156.2215
  63   1.0000      -5.740560      -156.2086
  64   1.0000      -5.740169      -156.1979
  65   1.0000      -5.739596      -156.1824
  66   1.0000      -5.738477      -156.1519
  67   1.0000      -5.737944      -156.1374
  68   1.0000      -5.661270      -154.0510
  69   1.0000      -5.660901      -154.0409
  70   1.0000      -5.657398      -153.9456
  71   1.0000      -5.656192      -153.9128
  72   1.0000      -5.654565      -153.8685
  73   1.0000      -5.654176      -153.8580
  74   1.0000      -5.653365      -153.8359
  75   1.0000      -5.652968      -153.8251
  76   1.0000      -5.650786      -153.7657
  77   1.0000      -5.649601      -153.7335
  78   1.0000      -5.649369      -153.7272
  79   1.0000      -5.648109      -153.6929
  80   1.0000      -2.443182       -66.4823
  81   1.0000      -1.484182       -40.3866
  82   1.0000      -1.472982       -40.0819
  83   1.0000      -1.472122       -40.0585
  84   1.0000      -0.709747       -19.3132
  85   1.0000      -0.709230       -19.2991
  86   1.0000      -0.686017       -18.6675
  87   1.0000      -0.685517       -18.6539
  88   1.0000      -0.648510       -17.6469
  89   1.0000      -0.633489       -17.2381
  90   1.0000      -0.632762       -17.2183
  91   1.0000      -0.613504       -16.6943
  92   1.0000      -0.613432       -16.6923
  93   1.0000      -0.575613       -15.6632
  94   1.0000      -0.574631       -15.6365
  95   1.0000      -0.571947       -15.5635
  96   1.0000      -0.570991       -15.5374
  97   1.0000      -0.497481       -13.5371
  98   1.0000      -0.496314       -13.5054
  99   1.0000      -0.495096       -13.4723
 100   1.0000      -0.493698       -13.4342
 101   1.0000      -0.480177       -13.0663
 102   1.0000      -0.477254       -12.9867
 103   1.0000      -0.446391       -12.1469
 104   1.0000      -0.444296       -12.0899
 105   1.0000      -0.416365       -11.3299
 106   1.0000      -0.410972       -11.1831
 107   1.0000      -0.355011        -9.6603
 108   1.0000      -0.354640        -9.6502
 109   1.0000      -0.328487        -8.9386
 110   1.0000      -0.327963        -8.9243
 111   1.0000      -0.317746        -8.6463
 112   1.0000      -0.313377        -8.5274
 113   1.0000      -0.306082        -8.3289
 114   1.0000      -0.304872        -8.2960
 115   1.0000      -0.288666        -7.8550
 116   1.0000      -0.288423        -7.8484
 117   1.0000      -0.261942        -7.1278
 118   1.0000      -0.259202        -7.0532
 119   1.0000      -0.256009        -6.9664
 120   1.0000      -0.254327        -6.9206
 121   1.0000      -0.238706        -6.4955
 122   1.0000      -0.238333        -6.4854
 123   1.0000      -0.224417        -6.1067
 124   1.0000      -0.221780        -6.0349
 125   1.0000      -0.217813        -5.9270
 126   1.0000      -0.216345        -5.8871
 127   1.0000      -0.213257        -5.8030
 128   1.0000      -0.211425        -5.7532
 129   1.0000      -0.194315        -5.2876
 130   1.0000      -0.188093        -5.1183
 131   1.0000      -0.185907        -5.0588
 132   1.0000      -0.181524        -4.9395
 133   1.0000      -0.177577        -4.8321
 134   1.0000      -0.159146        -4.3306
 135   1.0000      -0.153121        -4.1666
 136   1.0000      -0.148210        -4.0330
 137   1.0000      -0.134074        -3.6483
 138   1.0000      -0.132755        -3.6124
 139   1.0000      -0.132539        -3.6066
 140   1.0000      -0.123967        -3.3733
 141   1.0000      -0.120755        -3.2859
 142   1.0000      -0.112068        -3.0495
 143   1.0000      -0.108253        -2.9457
 144   1.0000      -0.099629        -2.7110
 145   1.0000      -0.098083        -2.6690
 146   1.0000      -0.096264        -2.6195
 147   1.0000      -0.093814        -2.5528
 148   1.0000      -0.074596        -2.0299
 149   1.0000      -0.068789        -1.8718
 150   1.0000      -0.068383        -1.8608
 151   1.0000      -0.053384        -1.4527
 152   1.0000      -0.044060        -1.1989
 153   1.0000      -0.037122        -1.0101
 154   1.0000      -0.036548        -0.9945
 155   1.0000      -0.030212        -0.8221
 156   1.0000      -0.024809        -0.6751
 157   1.0000      -0.018059        -0.4914
 158   1.0000      -0.014585        -0.3969
 159   1.0000       0.020846         0.5673
 160   1.0000       0.041681         1.1342
 161   0.0000       0.136891         3.7250
 162   0.0000       0.137117         3.7311
 163   0.0000       0.154356         4.2002
 164   0.0000       0.155686         4.2364
 165   0.0000       0.167011         4.5446

                 SPIN DOWN ORBITALS
  NO   OCC          E(Eh)            E(eV)
   0   1.0000    -196.674168     -5351.7762
   1   1.0000     -88.734802     -2414.5967
   2   1.0000     -88.734436     -2414.5868
   3   1.0000     -88.732802     -2414.5423
   4   1.0000     -88.732325     -2414.5293
   5   1.0000     -88.731391     -2414.5039
   6   1.0000     -88.730783     -2414.4873
   7   1.0000     -88.729087     -2414.4412
   8   1.0000     -88.728567     -2414.4271
   9   1.0000     -88.641466     -2412.0569
  10   1.0000     -88.641210     -2412.0500
  11   1.0000     -88.638057     -2411.9642
  12   1.0000     -88.636937     -2411.9337
  13   1.0000     -22.034590      -599.5917
  14   1.0000     -18.892694      -514.0963
  15   1.0000     -18.550640      -504.7886
  16   1.0000     -18.534789      -504.3573
  17   1.0000     -18.534589      -504.3518
  18   1.0000     -10.075640      -274.1721
  19   1.0000     -10.074985      -274.1543
  20   1.0000     -10.065419      -273.8940
  21   1.0000     -10.065058      -273.8841
  22   1.0000     -10.063684      -273.8468
  23   1.0000     -10.063425      -273.8397
  24   1.0000     -10.053058      -273.5576
  25   1.0000     -10.052666      -273.5469
  26   1.0000     -10.049237      -273.4536
  27   1.0000     -10.048436      -273.4318
  28   1.0000     -10.018100      -272.6064
  29   1.0000     -10.018032      -272.6045
  30   1.0000     -10.016567      -272.5646
  31   1.0000     -10.016006      -272.5494
  32   1.0000      -7.788052      -211.9237
  33   1.0000      -7.787692      -211.9139
  34   1.0000      -7.786256      -211.8748
  35   1.0000      -7.785785      -211.8620
  36   1.0000      -7.784385      -211.8239
  37   1.0000      -7.783801      -211.8080
  38   1.0000      -7.782647      -211.7766
  39   1.0000      -7.782103      -211.7618
  40   1.0000      -7.696117      -209.4220
  41   1.0000      -7.695724      -209.4113
  42   1.0000      -7.692206      -209.3156
  43   1.0000      -7.690989      -209.2825
  44   1.0000      -5.752962      -156.5461
  45   1.0000      -5.752599      -156.5362
  46   1.0000      -5.751353      -156.5023
  47   1.0000      -5.750880      -156.4894
  48   1.0000      -5.749785      -156.4596
  49   1.0000      -5.749432      -156.4500
  50   1.0000      -5.749425      -156.4498
  51   1.0000      -5.748829      -156.4336
  52   1.0000      -5.747695      -156.4027
  53   1.0000      -5.747501      -156.3975
  54   1.0000      -5.747234      -156.3902
  55   1.0000      -5.746961      -156.3827
  56   1.0000      -5.744885      -156.3263
  57   1.0000      -5.744296      -156.3102
  58   1.0000      -5.743187      -156.2801
  59   1.0000      -5.742831      -156.2704
  60   1.0000      -5.742632      -156.2650
  61   1.0000      -5.742468      -156.2605
  62   1.0000      -5.741035      -156.2215
  63   1.0000      -5.740561      -156.2086
  64   1.0000      -5.740173      -156.1981
  65   1.0000      -5.739605      -156.1826
  66   1.0000      -5.738485      -156.1521
  67   1.0000      -5.737953      -156.1376
  68   1.0000      -5.661422      -154.0551
  69   1.0000      -5.661046      -154.0449
  70   1.0000      -5.657534      -153.9493
  71   1.0000      -5.656326      -153.9165
  72   1.0000      -5.654894      -153.8775
  73   1.0000      -5.654539      -153.8678
  74   1.0000      -5.653474      -153.8388
  75   1.0000      -5.653044      -153.8272
  76   1.0000      -5.651157      -153.7758
  77   1.0000      -5.650001      -153.7444
  78   1.0000      -5.649472      -153.7299
  79   1.0000      -5.648207      -153.6955
  80   1.0000      -2.398388       -65.2634
  81   1.0000      -1.464898       -39.8619
  82   1.0000      -1.410709       -38.3873
  83   1.0000      -1.410593       -38.3842
  84   1.0000      -0.709730       -19.3127
  85   1.0000      -0.709206       -19.2985
  86   1.0000      -0.685970       -18.6662
  87   1.0000      -0.685462       -18.6524
  88   1.0000      -0.656637       -17.8680
  89   1.0000      -0.633436       -17.2367
  90   1.0000      -0.632695       -17.2165
  91   1.0000      -0.613494       -16.6940
  92   1.0000      -0.613419       -16.6920
  93   1.0000      -0.575542       -15.6613
  94   1.0000      -0.574566       -15.6347
  95   1.0000      -0.571912       -15.5625
  96   1.0000      -0.570949       -15.5363
  97   1.0000      -0.497486       -13.5373
  98   1.0000      -0.496334       -13.5059
  99   1.0000      -0.495138       -13.4734
 100   1.0000      -0.493742       -13.4354
 101   1.0000      -0.480349       -13.0710
 102   1.0000      -0.477492       -12.9932
 103   1.0000      -0.446412       -12.1475
 104   1.0000      -0.444342       -12.0912
 105   1.0000      -0.416354       -11.3296
 106   1.0000      -0.411074       -11.1859
 107   1.0000      -0.355005        -9.6602
 108   1.0000      -0.354630        -9.6500
 109   1.0000      -0.328467        -8.9381
 110   1.0000      -0.327955        -8.9241
 111   1.0000      -0.317663        -8.6440
 112   1.0000      -0.313397        -8.5280
 113   1.0000      -0.306024        -8.3273
 114   1.0000      -0.304843        -8.2952
 115   1.0000      -0.288659        -7.8548
 116   1.0000      -0.288421        -7.8483
 117   1.0000      -0.261763        -7.1229
 118   1.0000      -0.259157        -7.0520
 119   1.0000      -0.255947        -6.9647
 120   1.0000      -0.254297        -6.9198
 121   1.0000      -0.238701        -6.4954
 122   1.0000      -0.238322        -6.4851
 123   1.0000      -0.224102        -6.0981
 124   1.0000      -0.221744        -6.0340
 125   1.0000      -0.217639        -5.9223
 126   1.0000      -0.216246        -5.8844
 127   1.0000      -0.213002        -5.7961
 128   1.0000      -0.211302        -5.7498
 129   1.0000      -0.192693        -5.2434
 130   1.0000      -0.187999        -5.1157
 131   1.0000      -0.185476        -5.0471
 132   1.0000      -0.181280        -4.9329
 133   1.0000      -0.177439        -4.8284
 134   1.0000      -0.158541        -4.3141
 135   1.0000      -0.152933        -4.1615
 136   1.0000      -0.148066        -4.0291
 137   1.0000      -0.133306        -3.6274
 138   1.0000      -0.132611        -3.6085
 139   1.0000      -0.132241        -3.5985
 140   1.0000      -0.123378        -3.3573
 141   1.0000      -0.120429        -3.2770
 142   1.0000      -0.113840        -3.0977
 143   1.0000      -0.109743        -2.9863
 144   1.0000      -0.099634        -2.7112
 145   1.0000      -0.098319        -2.6754
 146   1.0000      -0.096342        -2.6216
 147   1.0000      -0.094131        -2.5614
 148   1.0000      -0.070587        -1.9208
 149   1.0000      -0.068781        -1.8716
 150   1.0000      -0.068377        -1.8606
 151   1.0000      -0.051014        -1.3882
 152   1.0000      -0.042919        -1.1679
 153   1.0000      -0.037126        -1.0103
 154   1.0000      -0.035872        -0.9761
 155   1.0000      -0.030235        -0.8227
 156   1.0000      -0.025529        -0.6947
 157   1.0000      -0.015095        -0.4108
 158   1.0000       0.021166         0.5760
 159   1.0000       0.040560         1.1037
 160   0.0000       0.136905         3.7254
 161   0.0000       0.137119         3.7312
 162   0.0000       0.152695         4.1550
 163   0.0000       0.155184         4.2228
 164   0.0000       0.159591         4.3427

MULLIKEN ATOMIC CHARGES AND SPIN POPULATIONS
--------------------------------------------
   0 V :    0.468016    1.208743
   1 S :   -0.291980   -0.023927
   2 S :   -0.294820   -0.026387
   3 S :   -0.281916   -0.021378
   4 S :   -0.281118   -0.023668
   5 O :   -0.469165   -0.146663
   6 C :   -0.073981    0.008026
   7 C :   -0.089188    0.009539
   8 C :   -0.079187    0.005894
   9 C :   -0.090315    0.009861
  10 S :    0.104512   -0.000809
  11 S :    0.095700   -0.000387
  12 S :    0.094564   -0.000016
  13 S :    0.105029   -0.000624
  14 C :   -0.205464    0.001337
  15 C :   -0.200624    0.001020
  16 C :   -0.190241    0.000001
  17 C :   -0.191546   -0.000394
  18 S :    0.002233   -0.000113
  19 S :    0.013157   -0.000100
  20 S :    0.001360   -0.000066
  21 S :    0.012502   -0.000062
  22 C :   -0.341674   -0.000010
  23 C :   -0.280169    0.000012
  24 C :   -0.149813   -0.000011
  25 H :    0.148668   -0.000000
  26 H :    0.110661   -0.000009
  27 H :    0.079962   -0.000000
  28 H :    0.096107   -0.000002
  29 H :    0.115869   -0.000001
  30 H :    0.143155   -0.000003
  31 C :   -0.339425    0.000179
  32 C :   -0.280886    0.000205
  33 C :   -0.149963   -0.000229
  34 H :    0.142158   -0.000017
  35 H :    0.115710    0.000015
  36 H :    0.096023    0.000022
  37 H :    0.078975    0.000014
  38 H :    0.110065    0.000024
  39 H :    0.147046   -0.000019
Sum of atomic charges         :   -2.0000000

LOEWDIN ATOMIC CHARGES AND SPIN POPULATIONS
-------------------------------------------
   0 V :   -0.161339    1.161927
   1 S :    0.071869   -0.016199
   2 S :    0.066301   -0.017941
   3 S :    0.097959   -0.012785
   4 S :    0.095864   -0.013808
   5 O :   -0.321715   -0.131642
   6 C :   -0.545566    0.006966
   7 C :   -0.556047    0.009963
   8 C :   -0.548814    0.006097
   9 C :   -0.556450    0.010490
  10 S :    0.475945   -0.000987
  11 S :    0.466733   -0.000895
  12 S :    0.465763   -0.000640
  13 S :    0.476576   -0.000950
  14 C :   -0.466901    0.000108
  15 C :   -0.466275   -0.000052
  16 C :   -0.620879    0.000468
  17 C :   -0.619921    0.000090
  18 S :    0.364321   -0.000087
  19 S :    0.353282   -0.000075
  20 S :    0.364216   -0.000070
  21 S :    0.351783   -0.000063
  22 C :   -0.282854   -0.000018
  23 C :   -0.283106    0.000004
  24 C :   -0.178556   -0.000001
  25 H :    0.064830   -0.000002
  26 H :    0.050930   -0.000004
  27 H :    0.056991   -0.000002
  28 H :    0.060851   -0.000001
  29 H :    0.057130   -0.000001
  30 H :    0.062222   -0.000001
  31 C :   -0.283701    0.000013
  32 C :   -0.283684    0.000067
  33 C :   -0.178953    0.000008
  34 H :    0.061836   -0.000001
  35 H :    0.056887    0.000007
  36 H :    0.060792    0.000004
  37 H :    0.056637    0.000002
  38 H :    0.050815    0.000010
  39 H :    0.064227   -0.000001

  Mayer bond orders larger than 0.100000
B(  0-V ,  1-S ) :   0.7414 B(  0-V ,  2-S ) :   0.7317 B(  0-V ,  3-S ) :   0.8069
B(  0-V ,  4-S ) :   0.8134 B(  0-V ,  5-O ) :   2.1455 B(  1-S ,  8-C ) :   1.1285
B(  2-S ,  6-C ) :   1.1303 B(  3-S ,  9-C ) :   1.0807 B(  4-S ,  7-C ) :   1.0796
B(  6-C ,  7-C ) :   1.6848 B(  6-C , 10-S ) :   0.9330 B(  7-C , 11-S ) :   0.9395
B(  8-C ,  9-C ) :   1.6969 B(  8-C , 13-S ) :   0.9330 B(  9-C , 12-S ) :   0.9376
B( 10-S , 14-C ) :   1.2512 B( 11-S , 14-C ) :   1.2413 B( 12-S , 15-C ) :   1.2382
B( 13-S , 15-C ) :   1.2488 B( 14-C , 16-C ) :   1.4454 B( 15-C , 17-C ) :   1.4488
B( 16-C , 18-S ) :   1.1022 B( 16-C , 19-S ) :   1.0689 B( 17-C , 20-S ) :   1.1042
B( 17-C , 21-S ) :   1.0690 B( 18-S , 32-C ) :   0.9664 B( 19-S , 31-C ) :   1.0086
B( 20-S , 23-C ) :   0.9654 B( 21-S , 22-C ) :   1.0071 B( 22-C , 24-C ) :   0.9014
B( 22-C , 25-H ) :   0.9712 B( 22-C , 26-H ) :   0.9629 B( 23-C , 24-C ) :   0.9091
B( 23-C , 29-H ) :   0.9694 B( 23-C , 30-H ) :   0.9576 B( 24-C , 27-H ) :   0.9587
B( 24-C , 28-H ) :   0.9745 B( 31-C , 33-C ) :   0.9021 B( 31-C , 38-H ) :   0.9630
B( 31-C , 39-H ) :   0.9714 B( 32-C , 33-C ) :   0.9090 B( 32-C , 34-H ) :   0.9580
B( 32-C , 35-H ) :   0.9692 B( 33-C , 36-H ) :   0.9743 B( 33-C , 37-H ) :   0.9583

FINAL SINGLE POINT ENERGY     -6337.686343517949

DIPOLE MOMENT
-------------
                                X             Y             Z
Electronic contribution:     10.65583      -7.75074      -3.14686
Nuclear contribution   :    -11.91744       8.44670       3.65953
                        -----------------------------------------
Total Dipole Moment    :     -1.26161       0.69596       0.51267
                        -----------------------------------------
Magnitude (a.u.)       :      1.52933
Magnitude (Debye)      :      3.88725

Rotational constants in cm-1:     0.010768     0.000804     0.000783
Rotational constants in MHz :   322.808627    24.111244    23.487848

                             ****ORCA TERMINATED NORMALLY****
TOTAL RUN TIME: 0 days 1 hours 6 minutes 17 seconds 846 msec
