                         Program Version 5.0.4 -  RELEASE  -
|  1> ! nofrozencore ReducedPop printbasis
|  2> ! B3LYP TZVP
|  3>
|  4> %basis
|  5> newgto V "CP(PPP)" end
|  6> end
|  7>
|  8> %pal
|  9> nprocs 6
| 10> end
| 11>
| 12> % sym SymThresh 1e-2 end
| 13> * xyz -2 2
| 14> V 0.9465769035627698 -0.47155144416346906 0.27533470399472987
| 15> S -0.5281689950279612 -2.430089296163151 0.4694965602700767
| 16> S 0.8162583406732411 -0.6906302187971817 -2.1642621570832223
| 17> S -0.07421554013125305 0.2955164264887586 2.416034987842341
| 18> S 1.0989919754110724 1.9769472540842157 -0.11670478182126603
| 19> O 2.4030379429842657 -1.0239367315815289 0.5861944983945919
| 20> C 1.4310792051240506 0.8889339785587748 -2.622344755134264
| 21> C 1.5637704759790592 1.9575958628845342 -1.8138306750211226
| 22> C -1.1961745145716685 -2.197875456752165 2.0782452512414635
| 23> C -1.0151175792578873 -1.120091765975665 2.8635194275136535
| 24> S 1.8358616972448323 1.1240110006594406 -4.3462638900355435
| 25> S 2.1831026722757523 3.462582166863895 -2.588645669554566
| 26> S -1.8577302288632263 -1.15037147173976 4.457009973281312
| 27> S -2.2593194984992997 -3.489609947765175 2.713435860358819
| 28> C 2.3096742141114186 2.8141531422852974 -4.235100723226968
| 29> C -2.681113483738313 -2.703906379513144 4.23318551793773
| 30> C 2.739207171581541 3.533278254029528 -5.315511315786028
| 31> C -3.546916327679191 -3.2535943643344574 5.137779792360784
| 32> S 2.948997003425812 2.8038154733088634 -6.9340540307790635
| 33> S 3.1497033968792603 5.253121128538149 -5.158028142131673
| 34> S -4.360743745604935 -4.817728159374648 4.851930627208101
| 35> S -3.9532989984520164 -2.420132764979699 6.654974329665593
| 36> C -5.737951549353961 -2.117899539557972 6.269934606550742
| 37> C -6.1333119122636734 -4.263243475365608 4.896532572922097
| 38> C -6.520604135272504 -3.4271231700138034 6.123019417897322
| 39> H -5.786517886196977 -1.5145603541311634 5.3541308425684315
| 40> H -6.138056435684486 -1.5193565477868343 7.099267526846382
| 41> H -7.5901804048541255 -3.1893000071695723 6.037507397095397
| 42> H -6.3917490552782334 -4.0231945996188605 7.034448350396315
| 43> H -6.718203646134277 -5.192713181064776 4.8729057488582965
| 44> H -6.340385593455508 -3.7062682305072605 3.972727430342967
| 45> C 4.9569314706925445 5.076368654002634 -5.508624544880904
| 46> C 4.758918749543998 3.1422859995797165 -7.20566829153028
| 47> C 5.201028857535398 4.589418577871459 -6.94241471885837
| 48> H 5.336627226820113 2.4451751361292478 -6.576750395705511
| 49> H 4.937439431301389 2.878654738556638 -8.260672168111906
| 50> H 4.69301013629057 5.268434646509795 -7.640012410285678
| 51> H 6.27734634409004 4.647376703973542 -7.157258080939755
| 52> H 5.4096841313894615 6.068483828336451 -5.351848225274145
| 53> H 5.3777951093552 4.381424227003956 -4.76495811210939
| 54> *
| 55>
| 56> % eprnmr
| 57> gtensor true
| 58> Nuclei = all H {aiso,adip,aorb,fgrad,rho}
| 59> Nuclei = all V {aiso,adip,aorb,fgrad,rho}
| 60> end
| 61>
| 62>                          ****END OF INPUT****

CARTESIAN COORDINATES (ANGSTROEM)
---------------------------------
  V      0.944822   -0.469333    0.272746
  S     -0.529923   -2.427871    0.466908
  S      0.814504   -0.688412   -2.166850
  S     -0.075970    0.297735    2.413447
  S      1.097238    1.979165   -0.119293
  O      2.401284   -1.021718    0.583606
  C      1.429325    0.891152   -2.624933
  C      1.562016    1.959814   -1.816419
  C     -1.197929   -2.195657    2.075657
  C     -1.016872   -1.117874    2.860931
  S      1.834107    1.126229   -4.348852
  S      2.181348    3.464800   -2.591234
  S     -1.859485   -1.148153    4.454422
  S     -2.261074   -3.487392    2.710848
  C      2.307920    2.816371   -4.237689
  C     -2.682868   -2.701688    4.230597
  C      2.737453    3.535496   -5.318100
  C     -3.548671   -3.251376    5.135191
  S      2.947243    2.806034   -6.936642
  S      3.147949    5.255339   -5.160616
  S     -4.362498   -4.815510    4.849342
  S     -3.955053   -2.417915    6.652386
  C     -5.739706   -2.115681    6.267346
  C     -6.135066   -4.261025    4.893944
  C     -6.522359   -3.424905    6.120431
  H     -5.788272   -1.512342    5.351543
  H     -6.139811   -1.517138    7.096679
  H     -7.591935   -3.187082    6.034919
  H     -6.393503   -4.020976    7.031860
  H     -6.719958   -5.190495    4.870317
  H     -6.342140   -3.704050    3.970139
  C      4.955177    5.078587   -5.511213
  C      4.757164    3.144504   -7.208257
  C      5.199274    4.591637   -6.945003
  H      5.334873    2.447393   -6.579339
  H      4.935685    2.880873   -8.263260
  H      4.691256    5.270653   -7.642601
  H      6.275592    4.649595   -7.159846
  H      5.407930    6.070702   -5.354437
  H      5.376041    4.383642   -4.767546

 Total Charge           Charge          ....   -2
 Multiplicity           Mult            ....    2
 Number of Electrons    NEL             ....  321
 Basis Dimension        Dim             ....  681

ORBITAL ENERGIES
----------------
                 SPIN UP ORBITALS
  NO   OCC          E(Eh)            E(eV)
   0   1.0000    -196.674398     -5351.7824
   1   1.0000     -88.733834     -2414.5704
   2   1.0000     -88.733590     -2414.5637
   3   1.0000     -88.732427     -2414.5321
   4   1.0000     -88.732407     -2414.5316
   5   1.0000     -88.730801     -2414.4879
   6   1.0000     -88.730546     -2414.4809
   7   1.0000     -88.728734     -2414.4316
   8   1.0000     -88.728457     -2414.4241
   9   1.0000     -88.639673     -2412.0081
  10   1.0000     -88.639192     -2411.9950
  11   1.0000     -88.639173     -2411.9945
  12   1.0000     -88.638461     -2411.9751
  13   1.0000     -22.049765      -600.0046
  14   1.0000     -18.889841      -514.0187
  15   1.0000     -18.556224      -504.9405
  16   1.0000     -18.551043      -504.7996
  17   1.0000     -18.550923      -504.7963
  18   1.0000     -10.075379      -274.1650
  19   1.0000     -10.074784      -274.1488
  20   1.0000     -10.067009      -273.9372
  21   1.0000     -10.065573      -273.8982
  22   1.0000     -10.064152      -273.8595
  23   1.0000     -10.063411      -273.8393
  24   1.0000     -10.052294      -273.5368
  25   1.0000     -10.051689      -273.5204
  26   1.0000     -10.048119      -273.4232
  27   1.0000     -10.047694      -273.4117
  28   1.0000     -10.017711      -272.5958
  29   1.0000     -10.017650      -272.5941
  30   1.0000     -10.016868      -272.5728
  31   1.0000     -10.016555      -272.5643
  32   1.0000      -7.786930      -211.8931
  33   1.0000      -7.786808      -211.8898
  34   1.0000      -7.786108      -211.8708
  35   1.0000      -7.786062      -211.8695
  36   1.0000      -7.783730      -211.8061
  37   1.0000      -7.783557      -211.8014
  38   1.0000      -7.782331      -211.7680
  39   1.0000      -7.782199      -211.7644
  40   1.0000      -7.694099      -209.3671
  41   1.0000      -7.693705      -209.3564
  42   1.0000      -7.693325      -209.3460
  43   1.0000      -7.692691      -209.3288
  44   1.0000      -5.752010      -156.5202
  45   1.0000      -5.751866      -156.5162
  46   1.0000      -5.751003      -156.4928
  47   1.0000      -5.750990      -156.4924
  48   1.0000      -5.748700      -156.4301
  49   1.0000      -5.748533      -156.4255
  50   1.0000      -5.748486      -156.4243
  51   1.0000      -5.748351      -156.4206
  52   1.0000      -5.747748      -156.4042
  53   1.0000      -5.747682      -156.4024
  54   1.0000      -5.747260      -156.3909
  55   1.0000      -5.747104      -156.3866
  56   1.0000      -5.744306      -156.3105
  57   1.0000      -5.744114      -156.3053
  58   1.0000      -5.742793      -156.2693
  59   1.0000      -5.742628      -156.2648
  60   1.0000      -5.741714      -156.2400
  61   1.0000      -5.741598      -156.2368
  62   1.0000      -5.740896      -156.2177
  63   1.0000      -5.740848      -156.2164
  64   1.0000      -5.739534      -156.1807
  65   1.0000      -5.739359      -156.1759
  66   1.0000      -5.738154      -156.1431
  67   1.0000      -5.738058      -156.1405
  68   1.0000      -5.659394      -153.9999
  69   1.0000      -5.658979      -153.9886
  70   1.0000      -5.658682      -153.9806
  71   1.0000      -5.658032      -153.9629
  72   1.0000      -5.652760      -153.8194
  73   1.0000      -5.652368      -153.8088
  74   1.0000      -5.651974      -153.7980
  75   1.0000      -5.651433      -153.7833
  76   1.0000      -5.651349      -153.7810
  77   1.0000      -5.651014      -153.7719
  78   1.0000      -5.650618      -153.7611
  79   1.0000      -5.649977      -153.7437
  80   1.0000      -2.443476       -66.4904
  81   1.0000      -1.484905       -40.4063
  82   1.0000      -1.473113       -40.0855
  83   1.0000      -1.472248       -40.0619
  84   1.0000      -0.709134       -19.2965
  85   1.0000      -0.708991       -19.2926
  86   1.0000      -0.684664       -18.6306
  87   1.0000      -0.684578       -18.6283
  88   1.0000      -0.649360       -17.6700
  89   1.0000      -0.630723       -17.1628
  90   1.0000      -0.630573       -17.1588
  91   1.0000      -0.615907       -16.7597
  92   1.0000      -0.615555       -16.7501
  93   1.0000      -0.574565       -15.6347
  94   1.0000      -0.574161       -15.6237
  95   1.0000      -0.572840       -15.5878
  96   1.0000      -0.571902       -15.5622
  97   1.0000      -0.496104       -13.4997
  98   1.0000      -0.495462       -13.4822
  99   1.0000      -0.494987       -13.4693
 100   1.0000      -0.494195       -13.4477
 101   1.0000      -0.479283       -13.0419
 102   1.0000      -0.476835       -12.9753
 103   1.0000      -0.446263       -12.1434
 104   1.0000      -0.444046       -12.0831
 105   1.0000      -0.415966       -11.3190
 106   1.0000      -0.410777       -11.1778
 107   1.0000      -0.353942        -9.6313
 108   1.0000      -0.353479        -9.6187
 109   1.0000      -0.325695        -8.8626
 110   1.0000      -0.325436        -8.8556
 111   1.0000      -0.318613        -8.6699
 112   1.0000      -0.314125        -8.5478
 113   1.0000      -0.304338        -8.2815
 114   1.0000      -0.303529        -8.2594
 115   1.0000      -0.290447        -7.9035
 116   1.0000      -0.289771        -7.8851
 117   1.0000      -0.257675        -7.0117
 118   1.0000      -0.256601        -6.9825
 119   1.0000      -0.255184        -6.9439
 120   1.0000      -0.254862        -6.9352
 121   1.0000      -0.234781        -6.3887
 122   1.0000      -0.234134        -6.3711
 123   1.0000      -0.230243        -6.2652
 124   1.0000      -0.229084        -6.2337
 125   1.0000      -0.219458        -5.9717
 126   1.0000      -0.217816        -5.9271
 127   1.0000      -0.213425        -5.8076
 128   1.0000      -0.211573        -5.7572
 129   1.0000      -0.192724        -5.2443
 130   1.0000      -0.186850        -5.0844
 131   1.0000      -0.185967        -5.0604
 132   1.0000      -0.183813        -5.0018
 133   1.0000      -0.179014        -4.8712
 134   1.0000      -0.159144        -4.3305
 135   1.0000      -0.151516        -4.1230
 136   1.0000      -0.146763        -3.9936
 137   1.0000      -0.135009        -3.6738
 138   1.0000      -0.134032        -3.6472
 139   1.0000      -0.132577        -3.6076
 140   1.0000      -0.124768        -3.3951
 141   1.0000      -0.120742        -3.2856
 142   1.0000      -0.113360        -3.0847
 143   1.0000      -0.109361        -2.9759
 144   1.0000      -0.099328        -2.7029
 145   1.0000      -0.097986        -2.6663
 146   1.0000      -0.096494        -2.6257
 147   1.0000      -0.093867        -2.5543
 148   1.0000      -0.074325        -2.0225
 149   1.0000      -0.067694        -1.8420
 150   1.0000      -0.067131        -1.8267
 151   1.0000      -0.052810        -1.4370
 152   1.0000      -0.044292        -1.2052
 153   1.0000      -0.037138        -1.0106
 154   1.0000      -0.036524        -0.9939
 155   1.0000      -0.030507        -0.8301
 156   1.0000      -0.025265        -0.6875
 157   1.0000      -0.017309        -0.4710
 158   1.0000      -0.015594        -0.4243
 159   1.0000       0.021231         0.5777
 160   1.0000       0.041795         1.1373
 161   0.0000       0.136697         3.7197
 162   0.0000       0.137351         3.7375
 163   0.0000       0.161692         4.3999
 164   0.0000       0.162321         4.4170
 165   0.0000       0.170401         4.6368

                 SPIN DOWN ORBITALS
  NO   OCC          E(Eh)            E(eV)
   0   1.0000    -196.674544     -5351.7864
   1   1.0000     -88.733835     -2414.5704
   2   1.0000     -88.733590     -2414.5637
   3   1.0000     -88.732428     -2414.5321
   4   1.0000     -88.732408     -2414.5316
   5   1.0000     -88.730810     -2414.4881
   6   1.0000     -88.730554     -2414.4811
   7   1.0000     -88.728742     -2414.4318
   8   1.0000     -88.728464     -2414.4242
   9   1.0000     -88.639806     -2412.0117
  10   1.0000     -88.639327     -2411.9987
  11   1.0000     -88.639317     -2411.9985
  12   1.0000     -88.638600     -2411.9789
  13   1.0000     -22.034837      -599.5984
  14   1.0000     -18.893662      -514.1227
  15   1.0000     -18.550947      -504.7969
  16   1.0000     -18.535038      -504.3640
  17   1.0000     -18.534797      -504.3575
  18   1.0000     -10.075380      -274.1650
  19   1.0000     -10.074779      -274.1487
  20   1.0000     -10.067008      -273.9372
  21   1.0000     -10.065573      -273.8982
  22   1.0000     -10.064151      -273.8595
  23   1.0000     -10.063411      -273.8393
  24   1.0000     -10.052294      -273.5368
  25   1.0000     -10.051689      -273.5204
  26   1.0000     -10.048115      -273.4231
  27   1.0000     -10.047683      -273.4113
  28   1.0000     -10.017499      -272.5900
  29   1.0000     -10.017455      -272.5888
  30   1.0000     -10.016614      -272.5659
  31   1.0000     -10.016326      -272.5581
  32   1.0000      -7.786931      -211.8932
  33   1.0000      -7.786808      -211.8898
  34   1.0000      -7.786109      -211.8708
  35   1.0000      -7.786062      -211.8695
  36   1.0000      -7.783740      -211.8063
  37   1.0000      -7.783566      -211.8016
  38   1.0000      -7.782340      -211.7682
  39   1.0000      -7.782207      -211.7646
  40   1.0000      -7.694223      -209.3704
  41   1.0000      -7.693840      -209.3600
  42   1.0000      -7.693451      -209.3494
  43   1.0000      -7.692821      -209.3323
  44   1.0000      -5.752011      -156.5202
  45   1.0000      -5.751866      -156.5162
  46   1.0000      -5.751005      -156.4928
  47   1.0000      -5.750991      -156.4924
  48   1.0000      -5.748711      -156.4304
  49   1.0000      -5.748544      -156.4258
  50   1.0000      -5.748487      -156.4243
  51   1.0000      -5.748352      -156.4206
  52   1.0000      -5.747749      -156.4042
  53   1.0000      -5.747683      -156.4024
  54   1.0000      -5.747270      -156.3912
  55   1.0000      -5.747112      -156.3869
  56   1.0000      -5.744320      -156.3109
  57   1.0000      -5.744129      -156.3057
  58   1.0000      -5.742806      -156.2697
  59   1.0000      -5.742640      -156.2652
  60   1.0000      -5.741714      -156.2400
  61   1.0000      -5.741599      -156.2368
  62   1.0000      -5.740897      -156.2177
  63   1.0000      -5.740849      -156.2164
  64   1.0000      -5.739543      -156.1809
  65   1.0000      -5.739365      -156.1761
  66   1.0000      -5.738160      -156.1433
  67   1.0000      -5.738063      -156.1406
  68   1.0000      -5.659537      -154.0038
  69   1.0000      -5.659128      -153.9927
  70   1.0000      -5.658813      -153.9841
  71   1.0000      -5.658169      -153.9666
  72   1.0000      -5.653101      -153.8287
  73   1.0000      -5.652743      -153.8189
  74   1.0000      -5.652363      -153.8086
  75   1.0000      -5.651713      -153.7909
  76   1.0000      -5.651525      -153.7858
  77   1.0000      -5.651121      -153.7748
  78   1.0000      -5.650691      -153.7631
  79   1.0000      -5.650085      -153.7466
  80   1.0000      -2.398602       -65.2693
  81   1.0000      -1.465572       -39.8802
  82   1.0000      -1.410699       -38.3871
  83   1.0000      -1.410643       -38.3855
  84   1.0000      -0.709106       -19.2957
  85   1.0000      -0.708976       -19.2922
  86   1.0000      -0.684621       -18.6295
  87   1.0000      -0.684523       -18.6268
  88   1.0000      -0.657570       -17.8934
  89   1.0000      -0.630661       -17.1612
  90   1.0000      -0.630501       -17.1568
  91   1.0000      -0.615909       -16.7597
  92   1.0000      -0.615554       -16.7501
  93   1.0000      -0.574530       -15.6337
  94   1.0000      -0.574137       -15.6231
  95   1.0000      -0.572761       -15.5856
  96   1.0000      -0.571826       -15.5602
  97   1.0000      -0.496113       -13.4999
  98   1.0000      -0.495514       -13.4836
  99   1.0000      -0.495019       -13.4701
 100   1.0000      -0.494235       -13.4488
 101   1.0000      -0.479457       -13.0467
 102   1.0000      -0.477071       -12.9818
 103   1.0000      -0.446281       -12.1439
 104   1.0000      -0.444092       -12.0844
 105   1.0000      -0.415961       -11.3189
 106   1.0000      -0.410885       -11.1808
 107   1.0000      -0.353937        -9.6311
 108   1.0000      -0.353469        -9.6184
 109   1.0000      -0.325681        -8.8622
 110   1.0000      -0.325426        -8.8553
 111   1.0000      -0.318533        -8.6677
 112   1.0000      -0.314149        -8.5484
 113   1.0000      -0.304288        -8.2801
 114   1.0000      -0.303507        -8.2589
 115   1.0000      -0.290437        -7.9032
 116   1.0000      -0.289762        -7.8848
 117   1.0000      -0.257546        -7.0082
 118   1.0000      -0.256490        -6.9794
 119   1.0000      -0.255160        -6.9433
 120   1.0000      -0.254822        -6.9341
 121   1.0000      -0.234737        -6.3875
 122   1.0000      -0.234122        -6.3708
 123   1.0000      -0.230188        -6.2637
 124   1.0000      -0.229053        -6.2329
 125   1.0000      -0.219081        -5.9615
 126   1.0000      -0.217724        -5.9246
 127   1.0000      -0.213201        -5.8015
 128   1.0000      -0.211452        -5.7539
 129   1.0000      -0.191044        -5.1986
 130   1.0000      -0.186782        -5.0826
 131   1.0000      -0.185491        -5.0475
 132   1.0000      -0.183620        -4.9966
 133   1.0000      -0.178896        -4.8680
 134   1.0000      -0.158530        -4.3138
 135   1.0000      -0.151335        -4.1180
 136   1.0000      -0.146682        -3.9914
 137   1.0000      -0.134451        -3.6586
 138   1.0000      -0.133646        -3.6367
 139   1.0000      -0.132358        -3.6017
 140   1.0000      -0.124202        -3.3797
 141   1.0000      -0.120416        -3.2767
 142   1.0000      -0.115160        -3.1337
 143   1.0000      -0.110946        -3.0190
 144   1.0000      -0.099368        -2.7039
 145   1.0000      -0.098292        -2.6747
 146   1.0000      -0.096540        -2.6270
 147   1.0000      -0.094219        -2.5638
 148   1.0000      -0.070487        -1.9181
 149   1.0000      -0.067656        -1.8410
 150   1.0000      -0.067128        -1.8266
 151   1.0000      -0.050186        -1.3656
 152   1.0000      -0.043287        -1.1779
 153   1.0000      -0.036746        -0.9999
 154   1.0000      -0.036206        -0.9852
 155   1.0000      -0.030491        -0.8297
 156   1.0000      -0.025316        -0.6889
 157   1.0000      -0.015862        -0.4316
 158   1.0000       0.021537         0.5861
 159   1.0000       0.040676         1.1069
 160   0.0000       0.136704         3.7199
 161   0.0000       0.137343         3.7373
 162   0.0000       0.156034         4.2459
 163   0.0000       0.162021         4.4088
 164   0.0000       0.163586         4.4514

MULLIKEN ATOMIC CHARGES AND SPIN POPULATIONS
--------------------------------------------
   0 V :    0.465427    1.210513
   1 S :   -0.289762   -0.021013
   2 S :   -0.287040   -0.024721
   3 S :   -0.292434   -0.023924
   4 S :   -0.289438   -0.025739
   5 O :   -0.461430   -0.148179
   6 C :   -0.089804    0.011470
   7 C :   -0.070281    0.006500
   8 C :   -0.092252    0.007885
   9 C :   -0.075974    0.007127
  10 S :    0.104446   -0.000249
  11 S :    0.096961   -0.000705
  12 S :    0.096972   -0.000481
  13 S :    0.102340   -0.000189
  14 C :   -0.213770    0.001535
  15 C :   -0.211941    0.000952
  16 C :   -0.190495   -0.000152
  17 C :   -0.190688   -0.000410
  18 S :    0.008524   -0.000100
  19 S :    0.009595   -0.000128
  20 S :    0.008140   -0.000065
  21 S :    0.008352   -0.000082
  22 C :   -0.308508   -0.000000
  23 C :   -0.292377    0.000004
  24 C :   -0.159475   -0.000016
  25 H :    0.149845   -0.000001
  26 H :    0.116216   -0.000005
  27 H :    0.083783   -0.000000
  28 H :    0.093016   -0.000001
  29 H :    0.109946   -0.000003
  30 H :    0.136378   -0.000002
  31 C :   -0.309288    0.000205
  32 C :   -0.291248    0.000166
  33 C :   -0.159055   -0.000234
  34 H :    0.133799   -0.000012
  35 H :    0.108699    0.000014
  36 H :    0.093447    0.000023
  37 H :    0.083133    0.000015
  38 H :    0.116060    0.000027
  39 H :    0.150180   -0.000024
Sum of atomic charges         :   -2.0000000

LOEWDIN ATOMIC CHARGES AND SPIN POPULATIONS
-------------------------------------------
   0 V :   -0.157968    1.163675
   1 S :    0.085262   -0.013045
   2 S :    0.088198   -0.015416
   3 S :    0.073943   -0.015945
   4 S :    0.075358   -0.016461
   5 O :   -0.316310   -0.132865
   6 C :   -0.551634    0.010751
   7 C :   -0.550697    0.006491
   8 C :   -0.554147    0.008727
   9 C :   -0.550667    0.007067
  10 S :    0.479137   -0.000703
  11 S :    0.466083   -0.000958
  12 S :    0.466511   -0.000813
  13 S :    0.475561   -0.000809
  14 C :   -0.466480    0.000118
  15 C :   -0.465736   -0.000112
  16 C :   -0.623755    0.000473
  17 C :   -0.622651    0.000078
  18 S :    0.354474   -0.000080
  19 S :    0.362887   -0.000097
  20 S :    0.356381   -0.000066
  21 S :    0.359631   -0.000087
  22 C :   -0.283238   -0.000008
  23 C :   -0.284623   -0.000009
  24 C :   -0.177028   -0.000001
  25 H :    0.066462   -0.000001
  26 H :    0.054072   -0.000002
  27 H :    0.057755   -0.000002
  28 H :    0.060469   -0.000001
  29 H :    0.054575   -0.000002
  30 H :    0.060647   -0.000001
  31 C :   -0.284473    0.000049
  32 C :   -0.285220    0.000025
  33 C :   -0.177787    0.000007
  34 H :    0.060248   -0.000000
  35 H :    0.055027    0.000006
  36 H :    0.060764    0.000004
  37 H :    0.057323    0.000002
  38 H :    0.054321    0.000010
  39 H :    0.067322   -0.000001

  Mayer bond orders larger than 0.100000
B(  0-V ,  1-S ) :   0.7867 B(  0-V ,  2-S ) :   0.7899 B(  0-V ,  3-S ) :   0.7492
B(  0-V ,  4-S ) :   0.7645 B(  0-V ,  5-O ) :   2.1558 B(  1-S ,  8-C ) :   1.0979
B(  2-S ,  6-C ) :   1.1020 B(  3-S ,  9-C ) :   1.1099 B(  4-S ,  7-C ) :   1.1061
B(  6-C ,  7-C ) :   1.6815 B(  6-C , 10-S ) :   0.9468 B(  7-C , 11-S ) :   0.9305
B(  8-C ,  9-C ) :   1.6993 B(  8-C , 13-S ) :   0.9405 B(  9-C , 12-S ) :   0.9284
B( 10-S , 14-C ) :   1.2535 B( 11-S , 14-C ) :   1.2426 B( 12-S , 15-C ) :   1.2421
B( 13-S , 15-C ) :   1.2510 B( 14-C , 16-C ) :   1.4489 B( 15-C , 17-C ) :   1.4534
B( 16-C , 18-S ) :   1.0788 B( 16-C , 19-S ) :   1.0979 B( 17-C , 20-S ) :   1.0821
B( 17-C , 21-S ) :   1.0948 B( 18-S , 32-C ) :   0.9983 B( 19-S , 31-C ) :   0.9784
B( 20-S , 23-C ) :   0.9976 B( 21-S , 22-C ) :   0.9801 B( 22-C , 24-C ) :   0.9058
B( 22-C , 25-H ) :   0.9678 B( 22-C , 26-H ) :   0.9638 B( 23-C , 24-C ) :   0.9199
B( 23-C , 29-H ) :   0.9656 B( 23-C , 30-H ) :   0.9629 B( 24-C , 27-H ) :   0.9621
B( 24-C , 28-H ) :   0.9719 B( 31-C , 33-C ) :   0.9043 B( 31-C , 38-H ) :   0.9630
B( 31-C , 39-H ) :   0.9684 B( 32-C , 33-C ) :   0.9209 B( 32-C , 34-H ) :   0.9621
B( 32-C , 35-H ) :   0.9653 B( 33-C , 36-H ) :   0.9717 B( 33-C , 37-H ) :   0.9618

FINAL SINGLE POINT ENERGY     -6337.703279676386

DIPOLE MOMENT
-------------
                                X             Y             Z
Electronic contribution:      9.69951      -7.47448       5.70517
Nuclear contribution   :    -10.82765       8.32104      -6.33591
                        -----------------------------------------
Total Dipole Moment    :     -1.12814       0.84656      -0.63075
                        -----------------------------------------
Magnitude (a.u.)       :      1.54506
Magnitude (Debye)      :      3.92722

Rotational constants in cm-1:     0.010769     0.000805     0.000784
Rotational constants in MHz :   322.854948    24.139490    23.499834

                             ****ORCA TERMINATED NORMALLY****
TOTAL RUN TIME: 0 days 1 hours 6 minutes 41 seconds 114 msec
