                         Program Version 5.0.4 -  RELEASE  -
|  1> ! nofrozencore ReducedPop printbasis
|  2> ! B3LYP TZVP
|  3>
|  4> %basis
|  5> newgto V "CP(PPP)" end
|  6> end
|  7>
|  8> %pal
|  9> nprocs 8
| 10> end
| 11>
| 12> % sym SymThresh 1e-2 end
| 13> * xyz -2 2
| 14> V -0.6979635525203342 -0.8127344704419863 0.30195674861075517
| 15> S -1.6980385233183872 1.1291788241453162 1.463182261002884
| 16> S -1.5821219452945685 0.20674169052116773 -1.7732192539183582
| 17> S 1.022000028890521 -0.7704245834467592 2.08285771818256
| 18> S 1.1677586382027307 -1.597622804767299 -1.1082376624431123
| 19> O -1.6344528724946912 -2.064254837550363 0.5876601695578663
| 20> C -0.7429847586932495 -0.6841879034367035 -2.9724455199623794
| 21> C 0.4876149834796881 -1.4869478829527516 -2.6753708650214145
| 22> C -0.7247951376857362 1.14705935229272 2.950651560257314
| 23> C 0.31046568739647484 0.4268685207402668 3.184204379248834
| 24> S -1.2022662396145303 -0.676443620407093 -4.678928711158857
| 25> S 1.2234978818158337 -2.2385423179493 -4.092373808671361
| 26> S 1.1601624426522221 0.6769786430422343 4.761815983928183
| 27> S -1.220720438184453 2.3269633085217905 4.230164337732883
| 28> C 0.09111829362436222 -1.6220659660851842 -5.157520023584894
| 29> C 0.12377348375331633 2.0157878297661123 5.4027400737502065
| 30> C 0.24918339744546295 -2.0136846294915802 -6.831203587437932
| 31> C 0.2946843768158 2.6013561428652596 6.4599448086808655
| 32> S -0.9428371011928933 -1.4148444078089004 -7.874915261831778
| 33> S 1.5826154635619125 -2.964478547647854 -7.266557891277299
| 34> S -0.7754337471776144 3.948811593537761 7.05868869252001
| 35> S 1.681270831532632 2.264299529706665 7.59335575089991
| 36> C 2.5366366495463697 3.901560405339191 7.510871683967557
| 37> C 0.4548038681190907 5.329366776902882 7.0635645017628805
| 38> C 1.6694484060760895 5.077333310278131 7.954059185336196
| 39> H 2.9694036398177115 4.026553510042999 6.510803272058658
| 40> H 3.462365213300466 3.828508274582314 8.097195714910907
| 41> H 2.294487231257092 5.979397953708286 7.922348613872108
| 42> H 1.325452825698892 4.894865998958907 8.975974401069326
| 43> H -0.07472555320610852 6.249441886286131 7.3436107999805165
| 44> H 0.7157383316137973 5.576671519050838 6.027672824504654
| 45> C 0.5999422781348251 -4.401706122681715 -7.9109038035944845
| 46> C -1.5686934834730006 -3.0752059371227105 -8.425253203415823
| 47> C -0.4515405947720181 -3.992253653903966 -8.955707236372813
| 48> H -1.9112255754250003 -3.5824824794979233 -7.502265502689623
| 49> H -2.1471315115597696 -2.7591081403849174 -9.31848856790975
| 50> H 0.030493325345148987 -3.545297080214579 -9.836104347547831
| 51> H -0.8976707943396528 -4.896753098683701 -9.407345913737688
| 52> H 1.3961418980265776 -4.935408211644959 -8.464974814416653
| 53> H 0.00858483605028294 -4.768158036347428 -7.052847826234055
| 54> *
| 55>
| 56> % eprnmr
| 57> gtensor true
| 58> Nuclei = all H {aiso,adip,aorb,fgrad,rho}
| 59> Nuclei = all V {aiso,adip,aorb,fgrad,rho}
| 60> end
| 61>
| 62>                          ****END OF INPUT****

CARTESIAN COORDINATES (ANGSTROEM)
---------------------------------
  V     -0.696146   -0.811086    0.299011
  S     -1.696221    1.130828    1.460237
  S     -1.580304    0.208391   -1.776165
  S      1.023818   -0.768776    2.079912
  S      1.169577   -1.595974   -1.111183
  O     -1.632635   -2.062606    0.584715
  C     -0.741167   -0.682539   -2.975391
  C      0.489433   -1.485299   -2.678316
  C     -0.722977    1.148708    2.947706
  C      0.312284    0.428517    3.181259
  S     -1.200448   -0.674795   -4.681874
  S      1.225316   -2.236893   -4.095319
  S      1.161980    0.678627    4.758871
  S     -1.218903    2.328612    4.227219
  C      0.092936   -1.620417   -5.160465
  C      0.125591    2.017437    5.399795
  C      0.251001   -2.012036   -6.834149
  C      0.296502    2.603005    6.457000
  S     -0.941019   -1.413196   -7.877861
  S      1.584433   -2.962830   -7.269503
  S     -0.773616    3.950460    7.055743
  S      1.683089    2.265948    7.590410
  C      2.538455    3.903209    7.507926
  C      0.456622    5.331016    7.060619
  C      1.671266    5.078982    7.951114
  H      2.971222    4.028202    6.507858
  H      3.464183    3.830157    8.094250
  H      2.296305    5.981047    7.919403
  H      1.327271    4.896515    8.973029
  H     -0.072908    6.251091    7.340666
  H      0.717556    5.578320    6.024728
  C      0.601760   -4.400057   -7.913849
  C     -1.566876   -3.073557   -8.428198
  C     -0.449723   -3.990605   -8.958652
  H     -1.909408   -3.580834   -7.505211
  H     -2.145314   -2.757459   -9.321434
  H      0.032311   -3.543648   -9.839050
  H     -0.895853   -4.895104   -9.410291
  H      1.397960   -4.933759   -8.467920
  H      0.010403   -4.766509   -7.055793

 Total Charge           Charge          ....   -2
 Multiplicity           Mult            ....    2
 Number of Electrons    NEL             ....  321
 Basis Dimension        Dim             ....  681

ORBITAL ENERGIES
----------------
                 SPIN UP ORBITALS
  NO   OCC          E(Eh)            E(eV)
   0   1.0000    -196.681618     -5351.9789
   1   1.0000     -88.747067     -2414.9305
   2   1.0000     -88.746875     -2414.9252
   3   1.0000     -88.743902     -2414.8443
   4   1.0000     -88.743888     -2414.8440
   5   1.0000     -88.728575     -2414.4273
   6   1.0000     -88.728473     -2414.4245
   7   1.0000     -88.712829     -2413.9988
   8   1.0000     -88.712710     -2413.9956
   9   1.0000     -88.649735     -2412.2819
  10   1.0000     -88.649575     -2412.2776
  11   1.0000     -88.643823     -2412.1211
  12   1.0000     -88.643390     -2412.1093
  13   1.0000     -22.056983      -600.2010
  14   1.0000     -18.896927      -514.2115
  15   1.0000     -18.563355      -505.1346
  16   1.0000     -18.558304      -504.9971
  17   1.0000     -18.558187      -504.9940
  18   1.0000     -10.074338      -274.1367
  19   1.0000     -10.074301      -274.1357
  20   1.0000     -10.073714      -274.1197
  21   1.0000     -10.067141      -273.9408
  22   1.0000     -10.061583      -273.7896
  23   1.0000     -10.052337      -273.5380
  24   1.0000     -10.044502      -273.3248
  25   1.0000     -10.043788      -273.3054
  26   1.0000     -10.038026      -273.1486
  27   1.0000     -10.037408      -273.1318
  28   1.0000     -10.030548      -272.9451
  29   1.0000     -10.025117      -272.7973
  30   1.0000     -10.015029      -272.5228
  31   1.0000     -10.013737      -272.4876
  32   1.0000      -7.801294      -212.2840
  33   1.0000      -7.801140      -212.2798
  34   1.0000      -7.797106      -212.1700
  35   1.0000      -7.797058      -212.1687
  36   1.0000      -7.781393      -211.7425
  37   1.0000      -7.781333      -211.7408
  38   1.0000      -7.766945      -211.3493
  39   1.0000      -7.766825      -211.3460
  40   1.0000      -7.704822      -209.6589
  41   1.0000      -7.704634      -209.6537
  42   1.0000      -7.697804      -209.4679
  43   1.0000      -7.697396      -209.4568
  44   1.0000      -5.765361      -156.8834
  45   1.0000      -5.765205      -156.8792
  46   1.0000      -5.762165      -156.7965
  47   1.0000      -5.762117      -156.7952
  48   1.0000      -5.761390      -156.7754
  49   1.0000      -5.761228      -156.7710
  50   1.0000      -5.758843      -156.7061
  51   1.0000      -5.758799      -156.7049
  52   1.0000      -5.758284      -156.6909
  53   1.0000      -5.758134      -156.6868
  54   1.0000      -5.751656      -156.5105
  55   1.0000      -5.751618      -156.5095
  56   1.0000      -5.746778      -156.3778
  57   1.0000      -5.746709      -156.3759
  58   1.0000      -5.742083      -156.2500
  59   1.0000      -5.742021      -156.2483
  60   1.0000      -5.736648      -156.1021
  61   1.0000      -5.736589      -156.1005
  62   1.0000      -5.731774      -155.9695
  63   1.0000      -5.731651      -155.9661
  64   1.0000      -5.728065      -155.8686
  65   1.0000      -5.727948      -155.8654
  66   1.0000      -5.722336      -155.7127
  67   1.0000      -5.722219      -155.7095
  68   1.0000      -5.669684      -154.2799
  69   1.0000      -5.669507      -154.2751
  70   1.0000      -5.663337      -154.1072
  71   1.0000      -5.663243      -154.1047
  72   1.0000      -5.663149      -154.1021
  73   1.0000      -5.662845      -154.0939
  74   1.0000      -5.662594      -154.0870
  75   1.0000      -5.662375      -154.0811
  76   1.0000      -5.656558      -153.9228
  77   1.0000      -5.656169      -153.9122
  78   1.0000      -5.654949      -153.8790
  79   1.0000      -5.654532      -153.8676
  80   1.0000      -2.450682       -66.6865
  81   1.0000      -1.491855       -40.5954
  82   1.0000      -1.480413       -40.2841
  83   1.0000      -1.479548       -40.2605
  84   1.0000      -0.722972       -19.6731
  85   1.0000      -0.711347       -19.3567
  86   1.0000      -0.690633       -18.7931
  87   1.0000      -0.680230       -18.5100
  88   1.0000      -0.656282       -17.8583
  89   1.0000      -0.649465       -17.6729
  90   1.0000      -0.625690       -17.0259
  91   1.0000      -0.606979       -16.5167
  92   1.0000      -0.604331       -16.4447
  93   1.0000      -0.597637       -16.2625
  94   1.0000      -0.578674       -15.7465
  95   1.0000      -0.576642       -15.6912
  96   1.0000      -0.568461       -15.4686
  97   1.0000      -0.517410       -14.0794
  98   1.0000      -0.507861       -13.8196
  99   1.0000      -0.503593       -13.7035
 100   1.0000      -0.476830       -12.9752
 101   1.0000      -0.473637       -12.8883
 102   1.0000      -0.459761       -12.5107
 103   1.0000      -0.455025       -12.3819
 104   1.0000      -0.432636       -11.7726
 105   1.0000      -0.426594       -11.6082
 106   1.0000      -0.377101       -10.2614
 107   1.0000      -0.357097        -9.7171
 108   1.0000      -0.355613        -9.6767
 109   1.0000      -0.336953        -9.1690
 110   1.0000      -0.328847        -8.9484
 111   1.0000      -0.321534        -8.7494
 112   1.0000      -0.310712        -8.4549
 113   1.0000      -0.301650        -8.2083
 114   1.0000      -0.296146        -8.0585
 115   1.0000      -0.289091        -7.8666
 116   1.0000      -0.280218        -7.6251
 117   1.0000      -0.267794        -7.2870
 118   1.0000      -0.259748        -7.0681
 119   1.0000      -0.246275        -6.7015
 120   1.0000      -0.245313        -6.6753
 121   1.0000      -0.245029        -6.6676
 122   1.0000      -0.243425        -6.6239
 123   1.0000      -0.227590        -6.1930
 124   1.0000      -0.222938        -6.0664
 125   1.0000      -0.219422        -5.9708
 126   1.0000      -0.210981        -5.7411
 127   1.0000      -0.200431        -5.4540
 128   1.0000      -0.198663        -5.4059
 129   1.0000      -0.192230        -5.2308
 130   1.0000      -0.188803        -5.1376
 131   1.0000      -0.188191        -5.1209
 132   1.0000      -0.186426        -5.0729
 133   1.0000      -0.174872        -4.7585
 134   1.0000      -0.162694        -4.4271
 135   1.0000      -0.158341        -4.3087
 136   1.0000      -0.151211        -4.1147
 137   1.0000      -0.150890        -4.1059
 138   1.0000      -0.140002        -3.8097
 139   1.0000      -0.134739        -3.6664
 140   1.0000      -0.123745        -3.3673
 141   1.0000      -0.123139        -3.3508
 142   1.0000      -0.120592        -3.2815
 143   1.0000      -0.115681        -3.1478
 144   1.0000      -0.109180        -2.9709
 145   1.0000      -0.104631        -2.8472
 146   1.0000      -0.096227        -2.6185
 147   1.0000      -0.080360        -2.1867
 148   1.0000      -0.076887        -2.0922
 149   1.0000      -0.074676        -2.0320
 150   1.0000      -0.061482        -1.6730
 151   1.0000      -0.054438        -1.4813
 152   1.0000      -0.050585        -1.3765
 153   1.0000      -0.047288        -1.2868
 154   1.0000      -0.042980        -1.1695
 155   1.0000      -0.035562        -0.9677
 156   1.0000      -0.025901        -0.7048
 157   1.0000      -0.021086        -0.5738
 158   1.0000      -0.005148        -0.1401
 159   1.0000       0.018530         0.5042
 160   1.0000       0.040752         1.1089
 161   0.0000       0.125908         3.4261
 162   0.0000       0.137831         3.7506
 163   0.0000       0.154143         4.1944
 164   0.0000       0.154420         4.2020
 165   0.0000       0.163963         4.4617

                 SPIN DOWN ORBITALS
  NO   OCC          E(Eh)            E(eV)
   0   1.0000    -196.681764     -5351.9829
   1   1.0000     -88.747079     -2414.9308
   2   1.0000     -88.746886     -2414.9255
   3   1.0000     -88.743903     -2414.8444
   4   1.0000     -88.743889     -2414.8440
   5   1.0000     -88.728583     -2414.4275
   6   1.0000     -88.728481     -2414.4247
   7   1.0000     -88.712830     -2413.9988
   8   1.0000     -88.712711     -2413.9956
   9   1.0000     -88.649867     -2412.2855
  10   1.0000     -88.649706     -2412.2811
  11   1.0000     -88.643967     -2412.1250
  12   1.0000     -88.643535     -2412.1132
  13   1.0000     -22.042048      -599.7946
  14   1.0000     -18.900729      -514.3150
  15   1.0000     -18.558073      -504.9908
  16   1.0000     -18.542255      -504.5604
  17   1.0000     -18.542090      -504.5559
  18   1.0000     -10.074338      -274.1367
  19   1.0000     -10.074301      -274.1357
  20   1.0000     -10.073691      -274.1191
  21   1.0000     -10.067140      -273.9408
  22   1.0000     -10.061583      -273.7896
  23   1.0000     -10.052333      -273.5379
  24   1.0000     -10.044497      -273.3247
  25   1.0000     -10.043782      -273.3052
  26   1.0000     -10.037804      -273.1425
  27   1.0000     -10.037216      -273.1265
  28   1.0000     -10.030548      -272.9451
  29   1.0000     -10.025079      -272.7963
  30   1.0000     -10.014809      -272.5168
  31   1.0000     -10.013519      -272.4817
  32   1.0000      -7.801306      -212.2843
  33   1.0000      -7.801151      -212.2801
  34   1.0000      -7.797107      -212.1701
  35   1.0000      -7.797059      -212.1688
  36   1.0000      -7.781403      -211.7427
  37   1.0000      -7.781343      -211.7411
  38   1.0000      -7.766946      -211.3493
  39   1.0000      -7.766826      -211.3461
  40   1.0000      -7.704946      -209.6622
  41   1.0000      -7.704757      -209.6571
  42   1.0000      -7.697937      -209.4715
  43   1.0000      -7.697531      -209.4605
  44   1.0000      -5.765376      -156.8839
  45   1.0000      -5.765219      -156.8796
  46   1.0000      -5.762167      -156.7965
  47   1.0000      -5.762119      -156.7952
  48   1.0000      -5.761404      -156.7758
  49   1.0000      -5.761242      -156.7714
  50   1.0000      -5.758844      -156.7061
  51   1.0000      -5.758800      -156.7049
  52   1.0000      -5.758302      -156.6914
  53   1.0000      -5.758151      -156.6872
  54   1.0000      -5.751657      -156.5106
  55   1.0000      -5.751619      -156.5095
  56   1.0000      -5.746787      -156.3780
  57   1.0000      -5.746719      -156.3762
  58   1.0000      -5.742098      -156.2504
  59   1.0000      -5.742036      -156.2487
  60   1.0000      -5.736655      -156.1023
  61   1.0000      -5.736596      -156.1007
  62   1.0000      -5.731776      -155.9696
  63   1.0000      -5.731653      -155.9662
  64   1.0000      -5.728067      -155.8686
  65   1.0000      -5.727950      -155.8654
  66   1.0000      -5.722337      -155.7127
  67   1.0000      -5.722219      -155.7095
  68   1.0000      -5.669812      -154.2834
  69   1.0000      -5.669637      -154.2787
  70   1.0000      -5.663697      -154.1170
  71   1.0000      -5.663502      -154.1117
  72   1.0000      -5.663392      -154.1087
  73   1.0000      -5.662993      -154.0979
  74   1.0000      -5.662679      -154.0893
  75   1.0000      -5.662464      -154.0835
  76   1.0000      -5.656932      -153.9330
  77   1.0000      -5.656551      -153.9226
  78   1.0000      -5.655056      -153.8819
  79   1.0000      -5.654639      -153.8705
  80   1.0000      -2.405789       -65.4648
  81   1.0000      -1.472509       -40.0690
  82   1.0000      -1.418080       -38.5879
  83   1.0000      -1.417822       -38.5809
  84   1.0000      -0.722965       -19.6729
  85   1.0000      -0.711289       -19.3552
  86   1.0000      -0.690595       -18.7920
  87   1.0000      -0.680209       -18.5094
  88   1.0000      -0.664420       -18.0798
  89   1.0000      -0.649391       -17.6708
  90   1.0000      -0.625694       -17.0260
  91   1.0000      -0.606966       -16.5164
  92   1.0000      -0.604278       -16.4432
  93   1.0000      -0.597624       -16.2622
  94   1.0000      -0.578628       -15.7453
  95   1.0000      -0.576570       -15.6893
  96   1.0000      -0.568442       -15.4681
  97   1.0000      -0.517423       -14.0798
  98   1.0000      -0.508049       -13.8247
  99   1.0000      -0.503622       -13.7042
 100   1.0000      -0.477118       -12.9831
 101   1.0000      -0.473643       -12.8885
 102   1.0000      -0.459778       -12.5112
 103   1.0000      -0.455039       -12.3822
 104   1.0000      -0.432675       -11.7737
 105   1.0000      -0.426693       -11.6109
 106   1.0000      -0.377099       -10.2614
 107   1.0000      -0.357092        -9.7170
 108   1.0000      -0.355597        -9.6763
 109   1.0000      -0.336951        -9.1689
 110   1.0000      -0.328786        -8.9467
 111   1.0000      -0.321557        -8.7500
 112   1.0000      -0.310654        -8.4533
 113   1.0000      -0.301599        -8.2069
 114   1.0000      -0.296143        -8.0585
 115   1.0000      -0.289086        -7.8664
 116   1.0000      -0.280196        -7.6245
 117   1.0000      -0.267732        -7.2854
 118   1.0000      -0.259657        -7.0656
 119   1.0000      -0.245936        -6.6923
 120   1.0000      -0.245274        -6.6742
 121   1.0000      -0.244959        -6.6657
 122   1.0000      -0.243379        -6.6227
 123   1.0000      -0.227426        -6.1886
 124   1.0000      -0.222835        -6.0636
 125   1.0000      -0.219155        -5.9635
 126   1.0000      -0.210905        -5.7390
 127   1.0000      -0.199526        -5.4294
 128   1.0000      -0.198381        -5.3982
 129   1.0000      -0.192125        -5.2280
 130   1.0000      -0.188111        -5.1188
 131   1.0000      -0.187672        -5.1068
 132   1.0000      -0.186382        -5.0717
 133   1.0000      -0.174770        -4.7557
 134   1.0000      -0.162182        -4.4132
 135   1.0000      -0.158016        -4.2998
 136   1.0000      -0.150955        -4.1077
 137   1.0000      -0.150857        -4.1050
 138   1.0000      -0.139865        -3.8059
 139   1.0000      -0.133183        -3.6241
 140   1.0000      -0.124652        -3.3920
 141   1.0000      -0.124022        -3.3748
 142   1.0000      -0.120451        -3.2776
 143   1.0000      -0.116734        -3.1765
 144   1.0000      -0.110065        -2.9950
 145   1.0000      -0.105005        -2.8573
 146   1.0000      -0.096339        -2.6215
 147   1.0000      -0.079054        -2.1512
 148   1.0000      -0.074656        -2.0315
 149   1.0000      -0.074134        -2.0173
 150   1.0000      -0.059414        -1.6167
 151   1.0000      -0.054235        -1.4758
 152   1.0000      -0.049596        -1.3496
 153   1.0000      -0.047437        -1.2908
 154   1.0000      -0.042280        -1.1505
 155   1.0000      -0.036226        -0.9857
 156   1.0000      -0.021522        -0.5856
 157   1.0000      -0.005313        -0.1446
 158   1.0000       0.018672         0.5081
 159   1.0000       0.039828         1.0838
 160   0.0000       0.125828         3.4240
 161   0.0000       0.137804         3.7498
 162   0.0000       0.149410         4.0657
 163   0.0000       0.154637         4.2079
 164   0.0000       0.158531         4.3139

MULLIKEN ATOMIC CHARGES AND SPIN POPULATIONS
--------------------------------------------
   0 V :    0.463679    1.210537
   1 S :   -0.299704   -0.024259
   2 S :   -0.251764   -0.022846
   3 S :   -0.297866   -0.025099
   4 S :   -0.247792   -0.023655
   5 O :   -0.462862   -0.147305
   6 C :   -0.132061    0.008234
   7 C :   -0.135688    0.006268
   8 C :   -0.059608    0.008428
   9 C :   -0.060965    0.007979
  10 S :    0.205443   -0.000895
  11 S :    0.206655   -0.000817
  12 S :    0.059529   -0.000517
  13 S :    0.058693   -0.000476
  14 C :   -0.193121    0.001555
  15 C :   -0.309880    0.001432
  16 C :   -0.355110    0.002309
  17 C :   -0.033919   -0.000851
  18 S :    0.009853   -0.000159
  19 S :    0.010095   -0.000154
  20 S :    0.009638   -0.000138
  21 S :    0.009788   -0.000141
  22 C :   -0.310965    0.000002
  23 C :   -0.310646    0.000002
  24 C :   -0.159603   -0.000014
  25 H :    0.147258   -0.000003
  26 H :    0.122903   -0.000006
  27 H :    0.083936   -0.000000
  28 H :    0.103140    0.000000
  29 H :    0.122601   -0.000007
  30 H :    0.147277   -0.000003
  31 C :   -0.283379    0.000391
  32 C :   -0.282112    0.000387
  33 C :   -0.154565   -0.000315
  34 H :    0.132724   -0.000036
  35 H :    0.086747    0.000066
  36 H :    0.065917    0.000040
  37 H :    0.077208    0.000029
  38 H :    0.087113    0.000066
  39 H :    0.131412   -0.000032
Sum of atomic charges         :   -2.0000000

LOEWDIN ATOMIC CHARGES AND SPIN POPULATIONS
-------------------------------------------
   0 V :   -0.155805    1.163882
   1 S :    0.069445   -0.015886
   2 S :    0.118534   -0.014123
   3 S :    0.070624   -0.016596
   4 S :    0.122116   -0.014644
   5 O :   -0.316220   -0.132120
   6 C :   -0.574377    0.007916
   7 C :   -0.576452    0.006389
   8 C :   -0.538514    0.008505
   9 C :   -0.538662    0.008031
  10 S :    0.575909   -0.001303
  11 S :    0.576665   -0.001260
  12 S :    0.431779   -0.000853
  13 S :    0.431099   -0.000857
  14 C :   -0.551865    0.001129
  15 C :   -0.445683   -0.000058
  16 C :   -0.753193    0.001752
  17 C :   -0.556441    0.000052
  18 S :    0.364014   -0.000067
  19 S :    0.365157   -0.000063
  20 S :    0.356829   -0.000134
  21 S :    0.356578   -0.000137
  22 C :   -0.288125   -0.000006
  23 C :   -0.287944   -0.000007
  24 C :   -0.171940   -0.000001
  25 H :    0.063993   -0.000003
  26 H :    0.058442   -0.000005
  27 H :    0.061418   -0.000001
  28 H :    0.064351   -0.000000
  29 H :    0.058322   -0.000005
  30 H :    0.063831   -0.000003
  31 C :   -0.295701    0.000201
  32 C :   -0.296251    0.000189
  33 C :   -0.190113    0.000006
  34 H :    0.064896    0.000000
  35 H :    0.050143    0.000027
  36 H :    0.049444    0.000012
  37 H :    0.051220    0.000012
  38 H :    0.049293    0.000028
  39 H :    0.063184    0.000002

  Mayer bond orders larger than 0.100000
B(  0-V ,  1-S ) :   0.7856 B(  0-V ,  2-S ) :   0.7561 B(  0-V ,  3-S ) :   0.7788
B(  0-V ,  4-S ) :   0.7635 B(  0-V ,  5-O ) :   2.1522 B(  1-S ,  8-C ) :   1.0826
B(  2-S ,  6-C ) :   1.1591 B(  3-S ,  9-C ) :   1.0849 B(  4-S ,  7-C ) :   1.1589
B(  6-C ,  7-C ) :   1.4478 B(  6-C , 10-S ) :   1.0024 B(  7-C , 11-S ) :   1.0057
B(  8-C ,  9-C ) :   1.7935 B(  8-C , 13-S ) :   0.9112 B(  9-C , 12-S ) :   0.9133
B( 10-S , 14-C ) :   1.3054 B( 11-S , 14-C ) :   1.3044 B( 12-S , 15-C ) :   1.2335
B( 13-S , 15-C ) :   1.2339 B( 14-C , 16-C ) :   1.0457 B( 15-C , 17-C ) :   1.5976
B( 16-C , 18-S ) :   1.1893 B( 16-C , 19-S ) :   1.1895 B( 17-C , 20-S ) :   1.0471
B( 17-C , 21-S ) :   1.0475 B( 18-S , 32-C ) :   0.9669 B( 19-S , 31-C ) :   0.9666
B( 20-S , 23-C ) :   0.9988 B( 21-S , 22-C ) :   0.9980 B( 22-C , 24-C ) :   0.9135
B( 22-C , 25-H ) :   0.9636 B( 22-C , 26-H ) :   0.9647 B( 23-C , 24-C ) :   0.9132
B( 23-C , 29-H ) :   0.9648 B( 23-C , 30-H ) :   0.9636 B( 24-C , 27-H ) :   0.9595
B( 24-C , 28-H ) :   0.9769 B( 31-C , 33-C ) :   0.9280 B( 31-C , 38-H ) :   0.9540
B( 31-C , 39-H ) :   0.9591 B( 32-C , 33-C ) :   0.9280 B( 32-C , 34-H ) :   0.9584
B( 32-C , 35-H ) :   0.9526 B( 33-C , 36-H ) :   0.9581 B( 33-C , 37-H ) :   0.9651

FINAL SINGLE POINT ENERGY     -6337.574583409171

DIPOLE MOMENT
-------------
                                X             Y             Z
Electronic contribution:     -8.80063      -7.45511       9.17068
Nuclear contribution   :      9.93083       9.40486      -7.70737
                        -----------------------------------------
Total Dipole Moment    :      1.13020       1.94975       1.46331
                        -----------------------------------------
Magnitude (a.u.)       :      2.68704
Magnitude (Debye)      :      6.82991

Rotational constants in cm-1:     0.010753     0.000804     0.000783
Rotational constants in MHz :   322.362454    24.112756    23.482688

                             ****ORCA TERMINATED NORMALLY****
TOTAL RUN TIME: 0 days 1 hours 3 minutes 42 seconds 942 msec
