                         Program Version 5.0.4 -  RELEASE  -
|  1> ! nofrozencore ReducedPop printbasis
|  2> ! B3LYP TZVP
|  3>
|  4> %basis
|  5> newgto V "CP(PPP)" end
|  6> end
|  7>
|  8> %pal
|  9> nprocs 8
| 10> end
| 11>
| 12> % sym SymThresh 1e-2 end
| 13> * xyz -2 2
| 14> V -0.04438024865446836 -1.078941926715396 0.26997840684402336
| 15> S -1.8060780693504288 -0.1488904064399978 1.7364080266125705
| 16> S -1.6440134118649545 -0.6991768166263245 -1.5804222754151596
| 17> S 1.564356771504778 -0.09740043938254334 1.8760858895392385
| 18> S 1.7058561133647727 -0.554906879400133 -1.3874513551009418
| 19> O -0.027564108347227632 -2.6516735519557444 0.4945652467434712
| 20> C -0.5484887636225768 -0.8729463720677 -2.9452513992797997
| 21> C 0.794232026617984 -0.811588883498076 -2.867713910371576
| 22> C -0.8552643733277198 0.382354109644023 3.1167486861511096
| 23> C 0.4892470211818123 0.40536423096080015 3.1704955674561797
| 24> S -1.2423465476569444 -1.0744087553864026 -4.590222438657838
| 25> S 1.6933169978653768 -0.9234369538801727 -4.41686219899984
| 26> S 1.219634934814655 1.0478358242237382 4.680205758759546
| 27> S -1.722647756465802 0.9920635998598323 4.567088695705667
| 28> C 0.2871950657826825 -1.0732488363213077 -5.47693398552822
| 29> C -0.2929956983502586 1.455863632392897 5.497611490888202
| 30> C 0.37692963094182064 -1.1876178781984876 -6.837006527140908
| 31> C -0.35065517686238196 2.057485338111417 6.724510309953592
| 32> S -1.0638259446105789 -1.393968373782123 -7.865421814732484
| 33> S 1.9478812812197293 -1.1748025178982375 -7.678270666520147
| 34> S -1.901476715133979 2.4523520131682925 7.50837489260384
| 35> S 1.1220260310409627 2.52496319663584 7.613442624800886
| 36> C 0.862825252455407 4.355952224133471 7.667354177643676
| 37> C -1.736158399937319 4.293341831058694 7.5852234789044735
| 38> C -0.46875049591949364 4.767550404495453 8.304109627535963
| 39> H 0.9226544241543946 4.802966196494714 6.362088675474622
| 40> H 1.5309467602336564 4.688991395145408 8.084730465222165
| 41> H -0.4971564024252266 5.889145912160042 8.340451707377381
| 42> H -0.4897697526670046 4.4476411063616625 9.201783953451175
| 43> H -2.4291694474604437 4.584767239226431 7.950238970980042
| 44> H -1.7341852200089634 4.750912335796876 6.260540917678722
| 45> C 1.8921457050686874 -2.8798328097357206 -8.396745795713706
| 46> C -0.6698158709620781 -3.0690500752680374 -8.549403997076848
| 47> C 0.6713902509383224 -3.133929490643921 -9.28371947990924
| 48> H -0.6963095285182423 -3.7926864739111275 -7.716998023034041
| 49> H -1.4823371981931683 -3.302568782526444 -9.227168349063573
| 50> H 0.6670053135310314 -2.418408800727899 -10.105090418340858
| 51> H 0.7718223366844367 -4.136787469494806 -9.72385402328638
| 52> H 2.8046849195457813 -2.9802429098887275 -8.97268348734605
| 53> H 1.9288996045842464 -3.601863312668115 -7.563703294039516
| 54> *
| 55>
| 56> % eprnmr
| 57> gtensor true
| 58> Nuclei = all H {aiso,adip,aorb,fgrad,rho}
| 59> Nuclei = all V {aiso,adip,aorb,fgrad,rho}
| 60> end
| 61>
| 62>                          ****END OF INPUT****

CARTESIAN COORDINATES (ANGSTROEM)
---------------------------------
  V     -0.044303   -1.076426    0.267087
  S     -1.806000   -0.146374    1.733516
  S     -1.643936   -0.696661   -1.583314
  S      1.564434   -0.094884    1.873194
  S      1.705934   -0.552391   -1.390343
  O     -0.027487   -2.649157    0.491674
  C     -0.548411   -0.870430   -2.948143
  C      0.794310   -0.809073   -2.870605
  C     -0.855187    0.384870    3.113857
  C      0.489325    0.407880    3.167604
  S     -1.242269   -1.071893   -4.593114
  S      1.693395   -0.920921   -4.419754
  S      1.219713    1.050352    4.677314
  S     -1.722570    0.994580    4.564197
  C      0.287273   -1.070733   -5.479826
  C     -0.292918    1.458380    5.494720
  C      0.377007   -1.185102   -6.839898
  C     -0.350578    2.060001    6.721619
  S     -1.063748   -1.391452   -7.868313
  S      1.947959   -1.172286   -7.681162
  S     -1.901399    2.454868    7.505483
  S      1.122104    2.527479    7.610551
  C      0.862903    4.358468    7.664463
  C     -1.736081    4.295858    7.582332
  C     -0.468673    4.770067    8.301218
  H      0.922732    4.805482    6.359197
  H      1.531024    4.691508    8.081839
  H     -0.497079    5.891662    8.337560
  H     -0.489692    4.450157    9.198892
  H     -2.429092    4.587283    7.947347
  H     -1.734108    4.753428    6.257649
  C      1.892223   -2.877317   -8.399637
  C     -0.669738   -3.066534   -8.552296
  C      0.671468   -3.131413   -9.286611
  H     -0.696232   -3.790170   -7.719890
  H     -1.482260   -3.300053   -9.230060
  H      0.667083   -2.415893  -10.107982
  H      0.771900   -4.134271   -9.726746
  H      2.804762   -2.977727   -8.975575
  H      1.928977   -3.599347   -7.566595

 Total Charge           Charge          ....   -2
 Multiplicity           Mult            ....    2
 Number of Electrons    NEL             ....  321
 Basis Dimension        Dim             ....  681

ORBITAL ENERGIES
----------------
                 SPIN UP ORBITALS
  NO   OCC          E(Eh)            E(eV)
   0   1.0000    -196.674464     -5351.7842
   1   1.0000     -88.736055     -2414.6308
   2   1.0000     -88.735698     -2414.6211
   3   1.0000     -88.732895     -2414.5448
   4   1.0000     -88.732885     -2414.5445
   5   1.0000     -88.730026     -2414.4668
   6   1.0000     -88.730003     -2414.4661
   7   1.0000     -88.729815     -2414.4610
   8   1.0000     -88.729632     -2414.4560
   9   1.0000     -88.639489     -2412.0031
  10   1.0000     -88.639181     -2411.9947
  11   1.0000     -88.639010     -2411.9901
  12   1.0000     -88.638991     -2411.9896
  13   1.0000     -22.049855      -600.0071
  14   1.0000     -18.889734      -514.0158
  15   1.0000     -18.556304      -504.9427
  16   1.0000     -18.551131      -504.8019
  17   1.0000     -18.551030      -504.7992
  18   1.0000     -10.076563      -274.1972
  19   1.0000     -10.075392      -274.1653
  20   1.0000     -10.063250      -273.8350
  21   1.0000     -10.063191      -273.8334
  22   1.0000     -10.061650      -273.7914
  23   1.0000     -10.061256      -273.7807
  24   1.0000     -10.050658      -273.4923
  25   1.0000     -10.049793      -273.4688
  26   1.0000     -10.047901      -273.4173
  27   1.0000     -10.042821      -273.2790
  28   1.0000     -10.017745      -272.5967
  29   1.0000     -10.017685      -272.5951
  30   1.0000     -10.016892      -272.5735
  31   1.0000     -10.016807      -272.5712
  32   1.0000      -7.789405      -211.9605
  33   1.0000      -7.789069      -211.9513
  34   1.0000      -7.786343      -211.8772
  35   1.0000      -7.786324      -211.8767
  36   1.0000      -7.783307      -211.7946
  37   1.0000      -7.783293      -211.7942
  38   1.0000      -7.783061      -211.7878
  39   1.0000      -7.782927      -211.7842
  40   1.0000      -7.693745      -209.3574
  41   1.0000      -7.693542      -209.3519
  42   1.0000      -7.693336      -209.3463
  43   1.0000      -7.693263      -209.3443
  44   1.0000      -5.754386      -156.5848
  45   1.0000      -5.754051      -156.5757
  46   1.0000      -5.751336      -156.5018
  47   1.0000      -5.751312      -156.5011
  48   1.0000      -5.750917      -156.4904
  49   1.0000      -5.750591      -156.4815
  50   1.0000      -5.748280      -156.4187
  51   1.0000      -5.748271      -156.4184
  52   1.0000      -5.748002      -156.4111
  53   1.0000      -5.747908      -156.4085
  54   1.0000      -5.747905      -156.4084
  55   1.0000      -5.747870      -156.4075
  56   1.0000      -5.744311      -156.3106
  57   1.0000      -5.743959      -156.3011
  58   1.0000      -5.743816      -156.2972
  59   1.0000      -5.743809      -156.2970
  60   1.0000      -5.743579      -156.2907
  61   1.0000      -5.743431      -156.2867
  62   1.0000      -5.741148      -156.2246
  63   1.0000      -5.741118      -156.2238
  64   1.0000      -5.739092      -156.1686
  65   1.0000      -5.739090      -156.1686
  66   1.0000      -5.738891      -156.1632
  67   1.0000      -5.738755      -156.1595
  68   1.0000      -5.659068      -153.9911
  69   1.0000      -5.658838      -153.9848
  70   1.0000      -5.658635      -153.9793
  71   1.0000      -5.658589      -153.9780
  72   1.0000      -5.652414      -153.8100
  73   1.0000      -5.652166      -153.8033
  74   1.0000      -5.652022      -153.7993
  75   1.0000      -5.651924      -153.7967
  76   1.0000      -5.651077      -153.7736
  77   1.0000      -5.650860      -153.7677
  78   1.0000      -5.650653      -153.7621
  79   1.0000      -5.650549      -153.7593
  80   1.0000      -2.443486       -66.4906
  81   1.0000      -1.484792       -40.4032
  82   1.0000      -1.473122       -40.0857
  83   1.0000      -1.472308       -40.0635
  84   1.0000      -0.712391       -19.3851
  85   1.0000      -0.709117       -19.2961
  86   1.0000      -0.690211       -18.7816
  87   1.0000      -0.685273       -18.6472
  88   1.0000      -0.649356       -17.6699
  89   1.0000      -0.635853       -17.3024
  90   1.0000      -0.631036       -17.1714
  91   1.0000      -0.630709       -17.1625
  92   1.0000      -0.617017       -16.7899
  93   1.0000      -0.575033       -15.6474
  94   1.0000      -0.574976       -15.6459
  95   1.0000      -0.573988       -15.6190
  96   1.0000      -0.572725       -15.5847
  97   1.0000      -0.511835       -13.9277
  98   1.0000      -0.505472       -13.7546
  99   1.0000      -0.495918       -13.4946
 100   1.0000      -0.495676       -13.4880
 101   1.0000      -0.481077       -13.0908
 102   1.0000      -0.477393       -12.9905
 103   1.0000      -0.463665       -12.6170
 104   1.0000      -0.445906       -12.1337
 105   1.0000      -0.417015       -11.3476
 106   1.0000      -0.411138       -11.1876
 107   1.0000      -0.358120        -9.7449
 108   1.0000      -0.355123        -9.6634
 109   1.0000      -0.339012        -9.2250
 110   1.0000      -0.326901        -8.8954
 111   1.0000      -0.318899        -8.6777
 112   1.0000      -0.314201        -8.5499
 113   1.0000      -0.306765        -8.3475
 114   1.0000      -0.303727        -8.2648
 115   1.0000      -0.290686        -7.9100
 116   1.0000      -0.268309        -7.3010
 117   1.0000      -0.264517        -7.1979
 118   1.0000      -0.257292        -7.0013
 119   1.0000      -0.256621        -6.9830
 120   1.0000      -0.255470        -6.9517
 121   1.0000      -0.241112        -6.5610
 122   1.0000      -0.234105        -6.3703
 123   1.0000      -0.231868        -6.3095
 124   1.0000      -0.231114        -6.2889
 125   1.0000      -0.218513        -5.9460
 126   1.0000      -0.216415        -5.8889
 127   1.0000      -0.213497        -5.8096
 128   1.0000      -0.204399        -5.5620
 129   1.0000      -0.192670        -5.2428
 130   1.0000      -0.185656        -5.0519
 131   1.0000      -0.183115        -4.9828
 132   1.0000      -0.182974        -4.9790
 133   1.0000      -0.177338        -4.8256
 134   1.0000      -0.158942        -4.3250
 135   1.0000      -0.151167        -4.1135
 136   1.0000      -0.146275        -3.9803
 137   1.0000      -0.135576        -3.6892
 138   1.0000      -0.134748        -3.6667
 139   1.0000      -0.132426        -3.6035
 140   1.0000      -0.124897        -3.3986
 141   1.0000      -0.120589        -3.2814
 142   1.0000      -0.113030        -3.0757
 143   1.0000      -0.109444        -2.9781
 144   1.0000      -0.099246        -2.7006
 145   1.0000      -0.097666        -2.6576
 146   1.0000      -0.097501        -2.6531
 147   1.0000      -0.094518        -2.5720
 148   1.0000      -0.074050        -2.0150
 149   1.0000      -0.067810        -1.8452
 150   1.0000      -0.067086        -1.8255
 151   1.0000      -0.051847        -1.4108
 152   1.0000      -0.045121        -1.2278
 153   1.0000      -0.037255        -1.0138
 154   1.0000      -0.036630        -0.9967
 155   1.0000      -0.030984        -0.8431
 156   1.0000      -0.024484        -0.6662
 157   1.0000      -0.018655        -0.5076
 158   1.0000      -0.014942        -0.4066
 159   1.0000       0.020885         0.5683
 160   1.0000       0.041750         1.1361
 161   0.0000       0.137373         3.7381
 162   0.0000       0.137437         3.7398
 163   0.0000       0.155941         4.2434
 164   0.0000       0.160874         4.3776
 165   0.0000       0.162402         4.4192

                 SPIN DOWN ORBITALS
  NO   OCC          E(Eh)            E(eV)
   0   1.0000    -196.674611     -5351.7882
   1   1.0000     -88.736055     -2414.6308
   2   1.0000     -88.735699     -2414.6211
   3   1.0000     -88.732896     -2414.5449
   4   1.0000     -88.732885     -2414.5446
   5   1.0000     -88.730034     -2414.4670
   6   1.0000     -88.730011     -2414.4663
   7   1.0000     -88.729823     -2414.4612
   8   1.0000     -88.729641     -2414.4563
   9   1.0000     -88.639625     -2412.0068
  10   1.0000     -88.639321     -2411.9985
  11   1.0000     -88.639149     -2411.9939
  12   1.0000     -88.639132     -2411.9934
  13   1.0000     -22.034926      -599.6008
  14   1.0000     -18.893515      -514.1187
  15   1.0000     -18.551039      -504.7994
  16   1.0000     -18.535097      -504.3656
  17   1.0000     -18.534917      -504.3607
  18   1.0000     -10.076562      -274.1972
  19   1.0000     -10.075386      -274.1652
  20   1.0000     -10.063249      -273.8349
  21   1.0000     -10.063190      -273.8333
  22   1.0000     -10.061650      -273.7914
  23   1.0000     -10.061257      -273.7807
  24   1.0000     -10.050658      -273.4923
  25   1.0000     -10.049789      -273.4687
  26   1.0000     -10.047889      -273.4170
  27   1.0000     -10.042821      -273.2790
  28   1.0000     -10.017507      -272.5902
  29   1.0000     -10.017471      -272.5893
  30   1.0000     -10.016680      -272.5677
  31   1.0000     -10.016584      -272.5651
  32   1.0000      -7.789406      -211.9605
  33   1.0000      -7.789070      -211.9514
  34   1.0000      -7.786344      -211.8772
  35   1.0000      -7.786325      -211.8767
  36   1.0000      -7.783317      -211.7948
  37   1.0000      -7.783302      -211.7944
  38   1.0000      -7.783070      -211.7881
  39   1.0000      -7.782937      -211.7845
  40   1.0000      -7.693872      -209.3609
  41   1.0000      -7.693672      -209.3555
  42   1.0000      -7.693465      -209.3498
  43   1.0000      -7.693395      -209.3479
  44   1.0000      -5.754387      -156.5848
  45   1.0000      -5.754052      -156.5757
  46   1.0000      -5.751337      -156.5018
  47   1.0000      -5.751313      -156.5012
  48   1.0000      -5.750918      -156.4904
  49   1.0000      -5.750592      -156.4816
  50   1.0000      -5.748291      -156.4190
  51   1.0000      -5.748282      -156.4187
  52   1.0000      -5.748012      -156.4114
  53   1.0000      -5.747909      -156.4086
  54   1.0000      -5.747906      -156.4085
  55   1.0000      -5.747880      -156.4078
  56   1.0000      -5.744312      -156.3107
  57   1.0000      -5.743960      -156.3011
  58   1.0000      -5.743831      -156.2976
  59   1.0000      -5.743823      -156.2974
  60   1.0000      -5.743593      -156.2911
  61   1.0000      -5.743445      -156.2871
  62   1.0000      -5.741148      -156.2246
  63   1.0000      -5.741119      -156.2238
  64   1.0000      -5.739098      -156.1688
  65   1.0000      -5.739096      -156.1688
  66   1.0000      -5.738899      -156.1634
  67   1.0000      -5.738764      -156.1597
  68   1.0000      -5.659210      -153.9949
  69   1.0000      -5.658977      -153.9886
  70   1.0000      -5.658776      -153.9831
  71   1.0000      -5.658731      -153.9819
  72   1.0000      -5.652764      -153.8195
  73   1.0000      -5.652553      -153.8138
  74   1.0000      -5.652382      -153.8091
  75   1.0000      -5.652307      -153.8071
  76   1.0000      -5.651182      -153.7765
  77   1.0000      -5.650946      -153.7701
  78   1.0000      -5.650758      -153.7650
  79   1.0000      -5.650642      -153.7618
  80   1.0000      -2.398611       -65.2695
  81   1.0000      -1.465506       -39.8785
  82   1.0000      -1.410754       -38.3886
  83   1.0000      -1.410592       -38.3842
  84   1.0000      -0.712381       -19.3849
  85   1.0000      -0.709091       -19.2953
  86   1.0000      -0.690167       -18.7804
  87   1.0000      -0.685217       -18.6457
  88   1.0000      -0.657461       -17.8904
  89   1.0000      -0.635799       -17.3010
  90   1.0000      -0.630961       -17.1693
  91   1.0000      -0.630710       -17.1625
  92   1.0000      -0.617017       -16.7899
  93   1.0000      -0.575009       -15.6468
  94   1.0000      -0.574908       -15.6440
  95   1.0000      -0.573959       -15.6182
  96   1.0000      -0.572642       -15.5824
  97   1.0000      -0.511844       -13.9280
  98   1.0000      -0.505484       -13.7549
  99   1.0000      -0.495936       -13.4951
 100   1.0000      -0.495719       -13.4892
 101   1.0000      -0.481301       -13.0969
 102   1.0000      -0.477647       -12.9974
 103   1.0000      -0.463703       -12.6180
 104   1.0000      -0.445938       -12.1346
 105   1.0000      -0.417019       -11.3477
 106   1.0000      -0.411249       -11.1907
 107   1.0000      -0.358120        -9.7449
 108   1.0000      -0.355114        -9.6631
 109   1.0000      -0.338996        -9.2245
 110   1.0000      -0.326885        -8.8950
 111   1.0000      -0.318820        -8.6755
 112   1.0000      -0.314229        -8.5506
 113   1.0000      -0.306737        -8.3468
 114   1.0000      -0.303688        -8.2638
 115   1.0000      -0.290681        -7.9098
 116   1.0000      -0.268300        -7.3008
 117   1.0000      -0.264413        -7.1950
 118   1.0000      -0.257227        -6.9995
 119   1.0000      -0.256541        -6.9808
 120   1.0000      -0.255447        -6.9511
 121   1.0000      -0.241049        -6.5593
 122   1.0000      -0.234072        -6.3694
 123   1.0000      -0.231817        -6.3081
 124   1.0000      -0.231075        -6.2879
 125   1.0000      -0.218037        -5.9331
 126   1.0000      -0.216275        -5.8851
 127   1.0000      -0.213359        -5.8058
 128   1.0000      -0.204296        -5.5592
 129   1.0000      -0.190991        -5.1971
 130   1.0000      -0.185356        -5.0438
 131   1.0000      -0.182903        -4.9770
 132   1.0000      -0.182832        -4.9751
 133   1.0000      -0.177219        -4.8224
 134   1.0000      -0.158322        -4.3082
 135   1.0000      -0.150997        -4.1088
 136   1.0000      -0.146196        -3.9782
 137   1.0000      -0.134765        -3.6671
 138   1.0000      -0.134625        -3.6633
 139   1.0000      -0.132208        -3.5976
 140   1.0000      -0.124247        -3.3809
 141   1.0000      -0.120262        -3.2725
 142   1.0000      -0.114823        -3.1245
 143   1.0000      -0.111009        -3.0207
 144   1.0000      -0.099226        -2.7001
 145   1.0000      -0.098000        -2.6667
 146   1.0000      -0.097485        -2.6527
 147   1.0000      -0.094864        -2.5814
 148   1.0000      -0.070204        -1.9103
 149   1.0000      -0.067798        -1.8449
 150   1.0000      -0.067092        -1.8257
 151   1.0000      -0.049253        -1.3402
 152   1.0000      -0.044180        -1.2022
 153   1.0000      -0.037297        -1.0149
 154   1.0000      -0.036065        -0.9814
 155   1.0000      -0.031039        -0.8446
 156   1.0000      -0.025516        -0.6943
 157   1.0000      -0.015153        -0.4123
 158   1.0000       0.021181         0.5764
 159   1.0000       0.040649         1.1061
 160   0.0000       0.137361         3.7378
 161   0.0000       0.137448         3.7401
 162   0.0000       0.154876         4.2144
 163   0.0000       0.157737         4.2922
 164   0.0000       0.161138         4.3848

MULLIKEN ATOMIC CHARGES AND SPIN POPULATIONS
--------------------------------------------
   0 V :    0.471002    1.210499
   1 S :   -0.290740   -0.022421
   2 S :   -0.289664   -0.025202
   3 S :   -0.288911   -0.023361
   4 S :   -0.285507   -0.025679
   5 O :   -0.467865   -0.146588
   6 C :   -0.077427    0.009696
   7 C :   -0.084385    0.008057
   8 C :   -0.083680    0.007726
   9 C :   -0.084420    0.007391
  10 S :    0.099588   -0.000585
  11 S :    0.100876   -0.000628
  12 S :    0.101069   -0.000396
  13 S :    0.100297   -0.000349
  14 C :   -0.213845    0.001523
  15 C :   -0.210093    0.000994
  16 C :   -0.191056   -0.000078
  17 C :   -0.182122   -0.000398
  18 S :    0.008949   -0.000114
  19 S :    0.009140   -0.000113
  20 S :    0.011575   -0.000068
  21 S :    0.010756   -0.000071
  22 C :   -0.316422   -0.000002
  23 C :   -0.321149   -0.000003
  24 C :   -0.186884   -0.000008
  25 H :    0.081062   -0.000003
  26 H :    0.190458   -0.000002
  27 H :    0.070316   -0.000001
  28 H :    0.119168    0.000000
  29 H :    0.197758   -0.000003
  30 H :    0.075124   -0.000004
  31 C :   -0.299828    0.000194
  32 C :   -0.300658    0.000190
  33 C :   -0.158237   -0.000238
  34 H :    0.139608   -0.000017
  35 H :    0.115956    0.000019
  36 H :    0.092919    0.000023
  37 H :    0.081879    0.000015
  38 H :    0.115772    0.000020
  39 H :    0.139623   -0.000017
Sum of atomic charges         :   -2.0000000

LOEWDIN ATOMIC CHARGES AND SPIN POPULATIONS
-------------------------------------------
   0 V :   -0.155913    1.163876
   1 S :    0.080247   -0.014450
   2 S :    0.079378   -0.016070
   3 S :    0.081531   -0.015235
   4 S :    0.083295   -0.016301
   5 O :   -0.319167   -0.131500
   6 C :   -0.549995    0.009055
   7 C :   -0.552159    0.007952
   8 C :   -0.552086    0.008124
   9 C :   -0.552141    0.007660
  10 S :    0.471225   -0.000901
  11 S :    0.472187   -0.000950
  12 S :    0.472559   -0.000825
  13 S :    0.471839   -0.000832
  14 C :   -0.464986    0.000160
  15 C :   -0.462473   -0.000081
  16 C :   -0.622606    0.000477
  17 C :   -0.617617    0.000084
  18 S :    0.358742   -0.000090
  19 S :    0.360108   -0.000087
  20 S :    0.367727   -0.000072
  21 S :    0.366060   -0.000074
  22 C :   -0.240362   -0.000006
  23 C :   -0.233045   -0.000008
  24 C :   -0.146594   -0.000001
  25 H :    0.077932   -0.000003
  26 H :   -0.021001   -0.000002
  27 H :    0.065106   -0.000002
  28 H :    0.032047   -0.000000
  29 H :   -0.030359   -0.000002
  30 H :    0.075777   -0.000003
  31 C :   -0.284270    0.000043
  32 C :   -0.284024    0.000037
  33 C :   -0.175787    0.000006
  34 H :    0.063996   -0.000001
  35 H :    0.051784    0.000008
  36 H :    0.059421    0.000004
  37 H :    0.057904    0.000002
  38 H :    0.051893    0.000008
  39 H :    0.063827   -0.000001

  Mayer bond orders larger than 0.100000
B(  0-V ,  1-S ) :   0.7715 B(  0-V ,  2-S ) :   0.7713 B(  0-V ,  3-S ) :   0.7648
B(  0-V ,  4-S ) :   0.7786 B(  0-V ,  5-O ) :   2.1484 B(  1-S ,  8-C ) :   1.1035
B(  2-S ,  6-C ) :   1.1041 B(  3-S ,  9-C ) :   1.1061 B(  4-S ,  7-C ) :   1.1046
B(  6-C ,  7-C ) :   1.6847 B(  6-C , 10-S ) :   0.9349 B(  7-C , 11-S ) :   0.9388
B(  8-C ,  9-C ) :   1.6984 B(  8-C , 13-S ) :   0.9337 B(  9-C , 12-S ) :   0.9356
B( 10-S , 14-C ) :   1.2486 B( 11-S , 14-C ) :   1.2484 B( 12-S , 15-C ) :   1.2459
B( 13-S , 15-C ) :   1.2462 B( 14-C , 16-C ) :   1.4514 B( 15-C , 17-C ) :   1.4590
B( 16-C , 18-S ) :   1.0880 B( 16-C , 19-S ) :   1.0893 B( 17-C , 20-S ) :   1.0866
B( 17-C , 21-S ) :   1.0882 B( 18-S , 32-C ) :   0.9919 B( 19-S , 31-C ) :   0.9918
B( 20-S , 23-C ) :   0.9968 B( 21-S , 22-C ) :   0.9953 B( 22-C , 24-C ) :   0.9179
B( 22-C , 25-H ) :   0.9505 B( 22-C , 26-H ) :   0.9611 B( 23-C , 24-C ) :   0.9181
B( 23-C , 29-H ) :   0.9598 B( 23-C , 30-H ) :   0.9491 B( 24-C , 27-H ) :   0.9572
B( 24-C , 28-H ) :   0.9712 B( 31-C , 33-C ) :   0.9140 B( 31-C , 38-H ) :   0.9659
B( 31-C , 39-H ) :   0.9655 B( 32-C , 33-C ) :   0.9136 B( 32-C , 34-H ) :   0.9653
B( 32-C , 35-H ) :   0.9658 B( 33-C , 36-H ) :   0.9720 B( 33-C , 37-H ) :   0.9622

FINAL SINGLE POINT ENERGY     -6337.507160346332

DIPOLE MOMENT
-------------
                                X             Y             Z
Electronic contribution:     -1.28316     -12.10364       7.45163
Nuclear contribution   :      1.42586      13.31733      -7.94269
                        -----------------------------------------
Total Dipole Moment    :      0.14269       1.21369      -0.49106
                        -----------------------------------------
Magnitude (a.u.)       :      1.31702
Magnitude (Debye)      :      3.34761

Rotational constants in cm-1:     0.010763     0.000804     0.000783
Rotational constants in MHz :   322.661640    24.115096    23.486992

                             ****ORCA TERMINATED NORMALLY****
TOTAL RUN TIME: 0 days 1 hours 1 minutes 57 seconds 674 msec
