                         Program Version 5.0.4 -  RELEASE  -
|  1> ! nofrozencore ReducedPop printbasis
|  2> ! B3LYP TZVP
|  3>
|  4> %basis
|  5> newgto V "CP(PPP)" end
|  6> end
|  7>
|  8> %pal
|  9> nprocs 6
| 10> end
| 11>
| 12> % sym SymThresh 1e-2 end
| 13> * xyz -2 2
| 14> V -0.7698162376181065 0.1873187556060475 0.7818323399193109
| 15> S 1.2805491130990898 0.9394590068404011 1.943397393883346
| 16> S -0.543046635834178 2.253539461348897 -0.5621749037439361
| 17> S 0.031287220665042206 -2.1122604509148495 1.2303472631554284
| 18> S -1.6863137791561482 -0.8233439387218959 -1.2733024479828126
| 19> O -1.9909111965965747 0.4558122301402379 1.762174089414828
| 20> C -1.6612885267971191 1.870004935305512 -1.86508072744621
| 21> C -2.115859206155666 0.6378763251494571 -2.151444654957022
| 22> C 1.882783373134374 -0.5808768598938477 2.5901716150688956
| 23> C 1.3859750957777308 -1.7973648560245117 2.3029896806755117
| 24> S -2.1968064346562466 3.191083913636926 -2.9594588396574384
| 25> S -3.1767121320197007 0.48716677816856807 -3.591618675028392
| 26> S 2.219223212088393 -3.200727175231989 3.052887839439983
| 27> S 3.304300005555972 -0.5376049748335839 3.6881598394748276
| 28> C -3.1565908771280435 2.192734927153366 -4.060430220786553
| 29> C 3.4835158955203394 -2.2859798951266463 3.883311672836716
| 30> C -3.819595267656418 2.6808087890828403 -5.146506610235908
| 31> C 4.485442993488125 -2.86773952239752 4.606683127949169
| 32> S -3.8206908952961123 4.419956700040159 -5.551402513812208
| 33> S -4.766630957278664 1.6262870459799148 -6.225247921514421
| 34> S 5.740743282982443 -1.9026233530768117 5.424844170004583
| 35> S 4.634087478352933 -4.638308043240093 4.755023244915614
| 36> C 6.268958662391388 -4.842460845355371 3.9098206238795807
| 37> C 7.21191613783503 -2.518957995587179 4.485013406551657
| 38> C 7.398418242005386 -4.035872859640617 4.555904415479238
| 39> H 6.143294575344456 -4.561090781222269 2.8620330619786034
| 40> H 6.490862201302742 -5.911169552243171 3.9624868838077676
| 41> H 8.336346727523749 -4.288954542416975 4.042047080724429
| 42> H 7.507115423092453 -4.339072978260757 5.6019550846829125
| 43> H 8.073364307998933 -2.00622168370754 4.92075341794644
| 44> H 7.120155625937993 -2.182155938320092 3.4498033322077815
| 45> C -6.4162585870135525 2.396134078030157 -5.9503885212136725
| 46> C -5.637354643385283 4.769963774369078 -5.336242062243343
| 47> C -6.510796506190407 3.8656800944362892 -6.255224260844996
| 48> H -5.85389903566065 4.28460614028415 -4.3282433837027545
| 49> H -5.697044568029709 5.746996012821285 -5.913096722504498
| 50> H -6.236850539295751 4.023603034498038 -7.303076802061272
| 51> H -7.557933552875311 4.177231827673503 -6.135393982659959
| 52> H -7.250919032577854 1.6922690600729526 -6.327956928969811
| 53> H -6.942771569807425 1.962523170397121 -5.014362560000441
| 54> *
| 55>
| 56> % eprnmr
| 57> gtensor true
| 58> Nuclei = all H {aiso,adip,aorb,fgrad,rho}
| 59> Nuclei = all V {aiso,adip,aorb,fgrad,rho}
| 60> end
| 61>
| 62>                          ****END OF INPUT****

CARTESIAN COORDINATES (ANGSTROEM)
---------------------------------
  V     -0.768899    0.187810    0.778142
  S      1.281466    0.939950    1.939708
  S     -0.542130    2.254030   -0.565865
  S      0.032204   -2.111770    1.226657
  S     -1.685397   -0.822853   -1.276992
  O     -1.989994    0.456303    1.758484
  C     -1.660372    1.870496   -1.868771
  C     -2.114942    0.638367   -2.155135
  C      1.883700   -0.580386    2.586482
  C      1.386892   -1.796874    2.299300
  S     -2.195890    3.191575   -2.963149
  S     -3.175795    0.487658   -3.595309
  S      2.220140   -3.200236    3.049198
  S      3.305217   -0.537114    3.684470
  C     -3.155674    2.193226   -4.064120
  C      3.484433   -2.285489    3.879622
  C     -3.818678    2.681300   -5.150196
  C      4.486360   -2.867249    4.602993
  S     -3.819774    4.420448   -5.555092
  S     -4.765714    1.626778   -6.228938
  S      5.741660   -1.902132    5.421154
  S      4.635004   -4.637817    4.751333
  C      6.269876   -4.841970    3.906131
  C      7.212833   -2.518467    4.481324
  C      7.399335   -4.035382    4.552215
  H      6.144211   -4.560600    2.858343
  H      6.491779   -5.910679    3.958797
  H      8.337264   -4.288464    4.038357
  H      7.508032   -4.338582    5.598265
  H      8.074281   -2.005731    4.917064
  H      7.121073   -2.181665    3.446113
  C     -6.415342    2.396625   -5.954078
  C     -5.636438    4.770455   -5.339932
  C     -6.509880    3.866171   -6.258914
  H     -5.852982    4.285097   -4.331933
  H     -5.696128    5.747487   -5.916787
  H     -6.235934    4.024094   -7.306767
  H     -7.557017    4.177723   -6.139084
  H     -7.250002    1.692760   -6.331647
  H     -6.941855    1.963014   -5.018052

 Total Charge           Charge          ....   -2
 Multiplicity           Mult            ....    2
 Number of Electrons    NEL             ....  321
 Basis Dimension        Dim             ....  681

ORBITAL ENERGIES
----------------
                 SPIN UP ORBITALS
  NO   OCC          E(Eh)            E(eV)
   0   1.0000    -196.674705     -5351.7908
   1   1.0000     -88.737359     -2414.6663
   2   1.0000     -88.733266     -2414.5549
   3   1.0000     -88.733090     -2414.5501
   4   1.0000     -88.731575     -2414.5089
   5   1.0000     -88.730578     -2414.4818
   6   1.0000     -88.730556     -2414.4812
   7   1.0000     -88.729921     -2414.4639
   8   1.0000     -88.729878     -2414.4627
   9   1.0000     -88.639703     -2412.0089
  10   1.0000     -88.639697     -2412.0088
  11   1.0000     -88.639533     -2412.0043
  12   1.0000     -88.639223     -2411.9959
  13   1.0000     -22.050096      -600.0136
  14   1.0000     -18.890034      -514.0239
  15   1.0000     -18.556546      -504.9493
  16   1.0000     -18.551370      -504.8085
  17   1.0000     -18.551270      -504.8057
  18   1.0000     -10.076958      -274.2080
  19   1.0000     -10.076288      -274.1897
  20   1.0000     -10.075686      -274.1734
  21   1.0000     -10.072428      -274.0847
  22   1.0000     -10.063309      -273.8366
  23   1.0000     -10.063225      -273.8343
  24   1.0000     -10.053526      -273.5703
  25   1.0000     -10.051158      -273.5059
  26   1.0000     -10.048362      -273.4298
  27   1.0000     -10.048346      -273.4294
  28   1.0000     -10.018293      -272.6116
  29   1.0000     -10.017705      -272.5956
  30   1.0000     -10.017383      -272.5869
  31   1.0000     -10.016907      -272.5739
  32   1.0000      -7.790417      -211.9880
  33   1.0000      -7.786713      -211.8872
  34   1.0000      -7.786540      -211.8825
  35   1.0000      -7.785123      -211.8440
  36   1.0000      -7.783861      -211.8096
  37   1.0000      -7.783745      -211.8065
  38   1.0000      -7.783186      -211.7913
  39   1.0000      -7.783156      -211.7905
  40   1.0000      -7.694052      -209.3658
  41   1.0000      -7.693957      -209.3632
  42   1.0000      -7.693759      -209.3578
  43   1.0000      -7.693554      -209.3522
  44   1.0000      -5.755458      -156.6140
  45   1.0000      -5.752065      -156.5216
  46   1.0000      -5.751703      -156.5118
  47   1.0000      -5.751527      -156.5070
  48   1.0000      -5.750072      -156.4674
  49   1.0000      -5.748807      -156.4330
  50   1.0000      -5.748699      -156.4301
  51   1.0000      -5.748284      -156.4188
  52   1.0000      -5.748138      -156.4148
  53   1.0000      -5.748116      -156.4142
  54   1.0000      -5.748109      -156.4140
  55   1.0000      -5.746652      -156.3743
  56   1.0000      -5.745159      -156.3337
  57   1.0000      -5.744348      -156.3117
  58   1.0000      -5.744246      -156.3089
  59   1.0000      -5.743707      -156.2942
  60   1.0000      -5.743680      -156.2935
  61   1.0000      -5.741509      -156.2344
  62   1.0000      -5.741337      -156.2297
  63   1.0000      -5.739973      -156.1926
  64   1.0000      -5.739700      -156.1852
  65   1.0000      -5.739588      -156.1821
  66   1.0000      -5.738989      -156.1658
  67   1.0000      -5.738965      -156.1652
  68   1.0000      -5.659366      -153.9992
  69   1.0000      -5.659266      -153.9965
  70   1.0000      -5.659098      -153.9919
  71   1.0000      -5.658852      -153.9852
  72   1.0000      -5.652674      -153.8171
  73   1.0000      -5.652624      -153.8157
  74   1.0000      -5.652426      -153.8103
  75   1.0000      -5.652229      -153.8050
  76   1.0000      -5.651356      -153.7812
  77   1.0000      -5.651286      -153.7793
  78   1.0000      -5.651051      -153.7729
  79   1.0000      -5.650870      -153.7680
  80   1.0000      -2.443752       -66.4979
  81   1.0000      -1.485060       -40.4105
  82   1.0000      -1.473392       -40.0930
  83   1.0000      -1.472577       -40.0709
  84   1.0000      -0.710385       -19.3306
  85   1.0000      -0.709504       -19.3066
  86   1.0000      -0.686205       -18.6726
  87   1.0000      -0.685396       -18.6506
  88   1.0000      -0.649625       -17.6772
  89   1.0000      -0.632442       -17.2096
  90   1.0000      -0.631293       -17.1783
  91   1.0000      -0.617143       -16.7933
  92   1.0000      -0.616417       -16.7736
  93   1.0000      -0.574483       -15.6325
  94   1.0000      -0.574241       -15.6259
  95   1.0000      -0.573987       -15.6190
  96   1.0000      -0.572706       -15.5841
  97   1.0000      -0.498621       -13.5682
  98   1.0000      -0.496347       -13.5063
  99   1.0000      -0.495807       -13.4916
 100   1.0000      -0.494800       -13.4642
 101   1.0000      -0.479889       -13.0584
 102   1.0000      -0.477229       -12.9861
 103   1.0000      -0.446870       -12.1600
 104   1.0000      -0.444429       -12.0935
 105   1.0000      -0.416774       -11.3410
 106   1.0000      -0.411517       -11.1980
 107   1.0000      -0.364359        -9.9147
 108   1.0000      -0.355060        -9.6617
 109   1.0000      -0.339534        -9.2392
 110   1.0000      -0.326481        -8.8840
 111   1.0000      -0.318611        -8.6698
 112   1.0000      -0.313912        -8.5420
 113   1.0000      -0.307200        -8.3593
 114   1.0000      -0.303813        -8.2672
 115   1.0000      -0.292073        -7.9477
 116   1.0000      -0.273834        -7.4514
 117   1.0000      -0.261064        -7.1039
 118   1.0000      -0.256844        -6.9891
 119   1.0000      -0.256708        -6.9854
 120   1.0000      -0.250182        -6.8078
 121   1.0000      -0.234587        -6.3834
 122   1.0000      -0.233563        -6.3556
 123   1.0000      -0.230507        -6.2724
 124   1.0000      -0.227396        -6.1878
 125   1.0000      -0.219683        -5.9779
 126   1.0000      -0.215738        -5.8705
 127   1.0000      -0.211891        -5.7658
 128   1.0000      -0.195432        -5.3180
 129   1.0000      -0.192490        -5.2379
 130   1.0000      -0.187149        -5.0926
 131   1.0000      -0.183592        -4.9958
 132   1.0000      -0.178849        -4.8667
 133   1.0000      -0.175506        -4.7758
 134   1.0000      -0.159380        -4.3370
 135   1.0000      -0.149963        -4.0807
 136   1.0000      -0.144258        -3.9255
 137   1.0000      -0.135500        -3.6872
 138   1.0000      -0.134222        -3.6524
 139   1.0000      -0.132363        -3.6018
 140   1.0000      -0.124976        -3.4008
 141   1.0000      -0.120817        -3.2876
 142   1.0000      -0.113315        -3.0835
 143   1.0000      -0.109334        -2.9751
 144   1.0000      -0.099600        -2.7103
 145   1.0000      -0.097967        -2.6658
 146   1.0000      -0.096946        -2.6380
 147   1.0000      -0.093888        -2.5548
 148   1.0000      -0.074430        -2.0254
 149   1.0000      -0.067872        -1.8469
 150   1.0000      -0.067217        -1.8291
 151   1.0000      -0.052194        -1.4203
 152   1.0000      -0.045495        -1.2380
 153   1.0000      -0.037873        -1.0306
 154   1.0000      -0.036944        -1.0053
 155   1.0000      -0.031656        -0.8614
 156   1.0000      -0.024780        -0.6743
 157   1.0000      -0.018958        -0.5159
 158   1.0000      -0.015270        -0.4155
 159   1.0000       0.020302         0.5524
 160   1.0000       0.041217         1.1216
 161   0.0000       0.133689         3.6379
 162   0.0000       0.137509         3.7418
 163   0.0000       0.156556         4.2601
 164   0.0000       0.162340         4.4175
 165   0.0000       0.162389         4.4188

                 SPIN DOWN ORBITALS
  NO   OCC          E(Eh)            E(eV)
   0   1.0000    -196.674852     -5351.7948
   1   1.0000     -88.737360     -2414.6663
   2   1.0000     -88.733266     -2414.5549
   3   1.0000     -88.733090     -2414.5501
   4   1.0000     -88.731576     -2414.5089
   5   1.0000     -88.730586     -2414.4820
   6   1.0000     -88.730565     -2414.4814
   7   1.0000     -88.729929     -2414.4641
   8   1.0000     -88.729886     -2414.4629
   9   1.0000     -88.639843     -2412.0127
  10   1.0000     -88.639834     -2412.0125
  11   1.0000     -88.639674     -2412.0082
  12   1.0000     -88.639362     -2411.9997
  13   1.0000     -22.035167      -599.6074
  14   1.0000     -18.893814      -514.1268
  15   1.0000     -18.551281      -504.8060
  16   1.0000     -18.535338      -504.3722
  17   1.0000     -18.535156      -504.3672
  18   1.0000     -10.076957      -274.2079
  19   1.0000     -10.076282      -274.1896
  20   1.0000     -10.075685      -274.1733
  21   1.0000     -10.072427      -274.0847
  22   1.0000     -10.063309      -273.8366
  23   1.0000     -10.063225      -273.8343
  24   1.0000     -10.053526      -273.5703
  25   1.0000     -10.051158      -273.5059
  26   1.0000     -10.048358      -273.4297
  27   1.0000     -10.048335      -273.4291
  28   1.0000     -10.018056      -272.6052
  29   1.0000     -10.017491      -272.5898
  30   1.0000     -10.017159      -272.5807
  31   1.0000     -10.016695      -272.5681
  32   1.0000      -7.790418      -211.9881
  33   1.0000      -7.786713      -211.8872
  34   1.0000      -7.786540      -211.8825
  35   1.0000      -7.785124      -211.8440
  36   1.0000      -7.783870      -211.8099
  37   1.0000      -7.783755      -211.8067
  38   1.0000      -7.783195      -211.7915
  39   1.0000      -7.783166      -211.7907
  40   1.0000      -7.694183      -209.3694
  41   1.0000      -7.694084      -209.3667
  42   1.0000      -7.693890      -209.3614
  43   1.0000      -7.693683      -209.3558
  44   1.0000      -5.755459      -156.6140
  45   1.0000      -5.752066      -156.5217
  46   1.0000      -5.751704      -156.5118
  47   1.0000      -5.751528      -156.5070
  48   1.0000      -5.750073      -156.4674
  49   1.0000      -5.748818      -156.4333
  50   1.0000      -5.748710      -156.4303
  51   1.0000      -5.748284      -156.4188
  52   1.0000      -5.748149      -156.4151
  53   1.0000      -5.748119      -156.4143
  54   1.0000      -5.748117      -156.4142
  55   1.0000      -5.746653      -156.3744
  56   1.0000      -5.745159      -156.3337
  57   1.0000      -5.744361      -156.3120
  58   1.0000      -5.744260      -156.3093
  59   1.0000      -5.743722      -156.2946
  60   1.0000      -5.743694      -156.2938
  61   1.0000      -5.741510      -156.2344
  62   1.0000      -5.741338      -156.2297
  63   1.0000      -5.739974      -156.1926
  64   1.0000      -5.739710      -156.1854
  65   1.0000      -5.739596      -156.1823
  66   1.0000      -5.738995      -156.1660
  67   1.0000      -5.738971      -156.1653
  68   1.0000      -5.659505      -154.0030
  69   1.0000      -5.659408      -154.0003
  70   1.0000      -5.659239      -153.9957
  71   1.0000      -5.658994      -153.9890
  72   1.0000      -5.653061      -153.8276
  73   1.0000      -5.652975      -153.8253
  74   1.0000      -5.652809      -153.8207
  75   1.0000      -5.652590      -153.8148
  76   1.0000      -5.651443      -153.7836
  77   1.0000      -5.651391      -153.7822
  78   1.0000      -5.651144      -153.7755
  79   1.0000      -5.650977      -153.7709
  80   1.0000      -2.398876       -65.2767
  81   1.0000      -1.465776       -39.8858
  82   1.0000      -1.411019       -38.3958
  83   1.0000      -1.410861       -38.3915
  84   1.0000      -0.710360       -19.3299
  85   1.0000      -0.709488       -19.3062
  86   1.0000      -0.686149       -18.6711
  87   1.0000      -0.685353       -18.6494
  88   1.0000      -0.657731       -17.8978
  89   1.0000      -0.632368       -17.2076
  90   1.0000      -0.631234       -17.1767
  91   1.0000      -0.617145       -16.7934
  92   1.0000      -0.616417       -16.7735
  93   1.0000      -0.574453       -15.6317
  94   1.0000      -0.574219       -15.6253
  95   1.0000      -0.573904       -15.6167
  96   1.0000      -0.572639       -15.5823
  97   1.0000      -0.498637       -13.5686
  98   1.0000      -0.496380       -13.5072
  99   1.0000      -0.495847       -13.4927
 100   1.0000      -0.494840       -13.4653
 101   1.0000      -0.480082       -13.0637
 102   1.0000      -0.477482       -12.9929
 103   1.0000      -0.446892       -12.1606
 104   1.0000      -0.444473       -12.0947
 105   1.0000      -0.416773       -11.3410
 106   1.0000      -0.411628       -11.2010
 107   1.0000      -0.364355        -9.9146
 108   1.0000      -0.355056        -9.6616
 109   1.0000      -0.339517        -9.2387
 110   1.0000      -0.326471        -8.8837
 111   1.0000      -0.318531        -8.6677
 112   1.0000      -0.313937        -8.5427
 113   1.0000      -0.307163        -8.3583
 114   1.0000      -0.303779        -8.2662
 115   1.0000      -0.292069        -7.9476
 116   1.0000      -0.273779        -7.4499
 117   1.0000      -0.261023        -7.1028
 118   1.0000      -0.256753        -6.9866
 119   1.0000      -0.256652        -6.9839
 120   1.0000      -0.250131        -6.8064
 121   1.0000      -0.234512        -6.3814
 122   1.0000      -0.233502        -6.3539
 123   1.0000      -0.230468        -6.2713
 124   1.0000      -0.227315        -6.1856
 125   1.0000      -0.219440        -5.9713
 126   1.0000      -0.215426        -5.8620
 127   1.0000      -0.211743        -5.7618
 128   1.0000      -0.195268        -5.3135
 129   1.0000      -0.190637        -5.1875
 130   1.0000      -0.187068        -5.0904
 131   1.0000      -0.183374        -4.9899
 132   1.0000      -0.178754        -4.8641
 133   1.0000      -0.175373        -4.7721
 134   1.0000      -0.158759        -4.3201
 135   1.0000      -0.149804        -4.0764
 136   1.0000      -0.144176        -3.9232
 137   1.0000      -0.134767        -3.6672
 138   1.0000      -0.134014        -3.6467
 139   1.0000      -0.132121        -3.5952
 140   1.0000      -0.124377        -3.3845
 141   1.0000      -0.120490        -3.2787
 142   1.0000      -0.115101        -3.1321
 143   1.0000      -0.110951        -3.0191
 144   1.0000      -0.099587        -2.7099
 145   1.0000      -0.098298        -2.6748
 146   1.0000      -0.096934        -2.6377
 147   1.0000      -0.094166        -2.5624
 148   1.0000      -0.070602        -1.9212
 149   1.0000      -0.067867        -1.8468
 150   1.0000      -0.067215        -1.8290
 151   1.0000      -0.049604        -1.3498
 152   1.0000      -0.044555        -1.2124
 153   1.0000      -0.037930        -1.0321
 154   1.0000      -0.036373        -0.9898
 155   1.0000      -0.031704        -0.8627
 156   1.0000      -0.025816        -0.7025
 157   1.0000      -0.015480        -0.4212
 158   1.0000       0.020585         0.5601
 159   1.0000       0.040118         1.0917
 160   0.0000       0.133686         3.6378
 161   0.0000       0.137498         3.7415
 162   0.0000       0.155136         4.2215
 163   0.0000       0.157869         4.2958
 164   0.0000       0.162477         4.4212

MULLIKEN ATOMIC CHARGES AND SPIN POPULATIONS
--------------------------------------------
   0 V :    0.471473    1.210503
   1 S :   -0.291228   -0.022479
   2 S :   -0.289054   -0.025125
   3 S :   -0.289505   -0.023432
   4 S :   -0.285925   -0.025635
   5 O :   -0.467625   -0.146606
   6 C :   -0.077358    0.009675
   7 C :   -0.082827    0.008064
   8 C :   -0.083914    0.007764
   9 C :   -0.084315    0.007392
  10 S :    0.102227   -0.000590
  11 S :    0.098990   -0.000624
  12 S :    0.099529   -0.000394
  13 S :    0.098756   -0.000347
  14 C :   -0.211416    0.001523
  15 C :   -0.212892    0.001000
  16 C :   -0.196245   -0.000086
  17 C :   -0.189243   -0.000408
  18 S :    0.008951   -0.000122
  19 S :    0.038455   -0.000109
  20 S :    0.008352   -0.000069
  21 S :    0.008167   -0.000071
  22 C :   -0.300519   -0.000001
  23 C :   -0.300650   -0.000001
  24 C :   -0.157822   -0.000012
  25 H :    0.143624   -0.000001
  26 H :    0.113884   -0.000004
  27 H :    0.083447   -0.000000
  28 H :    0.092174   -0.000001
  29 H :    0.113397   -0.000005
  30 H :    0.142727   -0.000001
  31 C :   -0.344853    0.000174
  32 C :   -0.287919    0.000204
  33 C :   -0.145432   -0.000253
  34 H :    0.164571   -0.000030
  35 H :    0.120023    0.000042
  36 H :    0.095318    0.000027
  37 H :    0.081182    0.000016
  38 H :    0.100994    0.000032
  39 H :    0.112499   -0.000010
Sum of atomic charges         :   -2.0000000

LOEWDIN ATOMIC CHARGES AND SPIN POPULATIONS
-------------------------------------------
   0 V :   -0.155665    1.163883
   1 S :    0.079824   -0.014498
   2 S :    0.079447   -0.016026
   3 S :    0.081030   -0.015294
   4 S :    0.082656   -0.016268
   5 O :   -0.318915   -0.131525
   6 C :   -0.549271    0.009047
   7 C :   -0.551496    0.007970
   8 C :   -0.552293    0.008136
   9 C :   -0.552310    0.007674
  10 S :    0.472710   -0.000905
  11 S :    0.471095   -0.000947
  12 S :    0.470850   -0.000823
  13 S :    0.470130   -0.000830
  14 C :   -0.463392    0.000177
  15 C :   -0.464933   -0.000080
  16 C :   -0.625353    0.000457
  17 C :   -0.621432    0.000084
  18 S :    0.348499   -0.000094
  19 S :    0.373742   -0.000084
  20 S :    0.359211   -0.000073
  21 S :    0.358331   -0.000075
  22 C :   -0.282896   -0.000007
  23 C :   -0.283936   -0.000009
  24 C :   -0.176008   -0.000002
  25 H :    0.062772   -0.000001
  26 H :    0.053688   -0.000002
  27 H :    0.058055   -0.000002
  28 H :    0.060237   -0.000001
  29 H :    0.053544   -0.000002
  30 H :    0.062197   -0.000002
  31 C :   -0.342775    0.000042
  32 C :   -0.295908    0.000037
  33 C :   -0.183134    0.000007
  34 H :    0.092179    0.000000
  35 H :    0.074088    0.000014
  36 H :    0.058329    0.000005
  37 H :    0.059306    0.000002
  38 H :    0.068245    0.000014
  39 H :    0.069551   -0.000002

  Mayer bond orders larger than 0.100000
B(  0-V ,  1-S ) :   0.7721 B(  0-V ,  2-S ) :   0.7707 B(  0-V ,  3-S ) :   0.7653
B(  0-V ,  4-S ) :   0.7776 B(  0-V ,  5-O ) :   2.1489 B(  1-S ,  8-C ) :   1.1033
B(  2-S ,  6-C ) :   1.1050 B(  3-S ,  9-C ) :   1.1060 B(  4-S ,  7-C ) :   1.1040
B(  6-C ,  7-C ) :   1.6861 B(  6-C , 10-S ) :   0.9347 B(  7-C , 11-S ) :   0.9385
B(  8-C ,  9-C ) :   1.6995 B(  8-C , 13-S ) :   0.9335 B(  9-C , 12-S ) :   0.9351
B( 10-S , 14-C ) :   1.2519 B( 11-S , 14-C ) :   1.2472 B( 12-S , 15-C ) :   1.2466
B( 13-S , 15-C ) :   1.2464 B( 14-C , 16-C ) :   1.4403 B( 15-C , 17-C ) :   1.4552
B( 16-C , 18-S ) :   1.1114 B( 16-C , 19-S ) :   1.0508 B( 17-C , 20-S ) :   1.0871
B( 17-C , 21-S ) :   1.0890 B( 18-S , 32-C ) :   1.0032 B( 19-S , 31-C ) :   1.0210
B( 20-S , 23-C ) :   0.9911 B( 21-S , 22-C ) :   0.9908 B( 22-C , 24-C ) :   0.9127
B( 22-C , 25-H ) :   0.9658 B( 22-C , 26-H ) :   0.9656 B( 23-C , 24-C ) :   0.9143
B( 23-C , 29-H ) :   0.9656 B( 23-C , 30-H ) :   0.9655 B( 24-C , 27-H ) :   0.9624
B( 24-C , 28-H ) :   0.9719 B( 31-C , 33-C ) :   0.9531 B( 31-C , 38-H ) :   0.9435
B( 31-C , 39-H ) :   0.9331 B( 32-C , 33-C ) :   0.9016 B( 32-C , 34-H ) :   0.9534
B( 32-C , 35-H ) :   0.9549 B( 33-C , 36-H ) :   0.9723 B( 33-C , 37-H ) :   0.9600

FINAL SINGLE POINT ENERGY     -6337.642639293787

DIPOLE MOMENT
-------------
                                X             Y             Z
Electronic contribution:     -6.56179       1.86903      11.85997
Nuclear contribution   :      7.38237      -2.16243     -13.16354
                        -----------------------------------------
Total Dipole Moment    :      0.82058      -0.29340      -1.30357
                        -----------------------------------------
Magnitude (a.u.)       :      1.56803
Magnitude (Debye)      :      3.98562

Rotational constants in cm-1:     0.010759     0.000804     0.000783
Rotational constants in MHz :   322.558201    24.115842    23.486671

                             ****ORCA TERMINATED NORMALLY****
TOTAL RUN TIME: 0 days 1 hours 6 minutes 21 seconds 692 msec
