                         Program Version 5.0.4 -  RELEASE  -
|  1> ! nofrozencore ReducedPop printbasis
|  2> ! B3LYP TZVP
|  3>
|  4> %basis
|  5> newgto V "CP(PPP)" end
|  6> end
|  7>
|  8> %pal
|  9> nprocs 6
| 10> end
| 11>
| 12> % sym SymThresh 1e-2 end
| 13> * xyz -2 2
| 14> V -1.0112253003784417 0.4653450215204464 0.012058552179514638
| 15> S -0.8264986986166366 -0.20978154149899536 -2.360609406982932
| 16> S -1.2871589226641458 -1.94879316334591 0.48486125873317465
| 17> S 0.5230595997508579 2.3169461453631675 -0.5787946516254575
| 18> S 0.14034938045562673 0.5670057012497381 2.1913444882532764
| 19> O -2.45396879175428 1.0995112545956192 0.2094896292340177
| 20> C -1.0309127473793072 -1.9301872138207212 2.2239234742332865
| 21> C -0.45520592903021523 -0.9223047472580078 2.90730333125047
| 22> C 0.0363759286848165 1.161404023412185 -3.039007753193023
| 23> C 0.5779073561196956 2.1690536333258694 -2.3261931328399177
| 24> S -1.4923407079435844 -3.379514735691585 3.181811495995305
| 25> S -0.21855250283841868 -1.1795360832061266 4.668372878635534
| 26> S 1.4599372647929347 3.4267139133227102 -3.260295038938575
| 27> S 0.27151272866555165 1.2290042987939314 -4.820717021761869
| 28> C -0.9041923847588617 -2.803779905805539 4.743842101639153
| 29> C 1.2491001033636748 2.6907620742055642 -4.843878851902557
| 30> C -0.9772786199481885 -3.538206031631952 5.899798053688995
| 31> C 1.7781597563676874 3.227611465179832 -6.000055544884573
| 32> S -1.7305803335365646 -5.148728105687318 5.949949316995312
| 33> S -0.3679161285117684 -2.911585157551111 7.4488628505036925
| 34> S 1.5629962229288106 2.455244772883891 -7.57857471391228
| 35> S 2.7876603117664382 4.682581808399488 -5.9838191001416
| 36> C 4.449858743422942 3.963427135800775 -6.6000610373140844
| 37> C 3.37445045116174 2.0110039302488185 -8.004905807276257
| 38> C 4.1455924784347244 3.284249851730944 -7.893373792269609
| 39> H 4.717370638262847 3.1349816635851875 -5.916485856458565
| 40> H 5.312477000618539 4.65819313234628 -6.673395252104734
| 41> H 5.168787112396561 2.753636992933389 -7.9395241862699795
| 42> H 4.101949716994722 3.9686919241657455 -8.811142933575333
| 43> H 3.557306966102026 1.4843586645364084 -8.964312280337387
| 44> H 3.7608016944479465 1.3868284837255807 -7.176863584634367
| 45> C -1.9732908045421031 -2.8590230504893612 8.40446990995215
| 46> C -3.1454746027649243 -4.774460970743908 7.113371440010426
| 47> C -2.646955881835705 -4.2174842885789 8.432930381298217
| 48> H -3.788059995442491 -4.031018413575112 6.632947829957027
| 49> H -3.7269771725413547 -5.687673711476323 7.270704422911016
| 50> H -2.057227564292358 -4.955964513650896 8.992516089892627
| 51> H -3.5725054552992512 -4.0402598587976835 9.010356622279843
| 52> H -1.7706287076914087 -2.5031018222658092 9.418884279421508
| 53> H -2.6352456110940383 -2.142504565484364 7.90968821376995
| 54> *
| 55>
| 56> % eprnmr
| 57> gtensor true
| 58> Nuclei = all H {aiso,adip,aorb,fgrad,rho}
| 59> Nuclei = all V {aiso,adip,aorb,fgrad,rho}
| 60> end
| 61>
| 62>                          ****END OF INPUT****

CARTESIAN COORDINATES (ANGSTROEM)
---------------------------------
  V     -1.008888    0.462859    0.013806
  S     -0.824161   -0.212267   -2.358862
  S     -1.284821   -1.951279    0.486609
  S      0.525397    2.314460   -0.577047
  S      0.142687    0.564520    2.193092
  O     -2.451631    1.097025    0.211237
  C     -1.028575   -1.932673    2.225671
  C     -0.452868   -0.924791    2.909051
  C      0.038713    1.158918   -3.037260
  C      0.580245    2.166568   -2.324445
  S     -1.490003   -3.382001    3.183559
  S     -0.216215   -1.182022    4.670121
  S      1.462275    3.424228   -3.258547
  S      0.273850    1.226518   -4.818969
  C     -0.901855   -2.806266    4.745590
  C      1.251438    2.688276   -4.842131
  C     -0.974941   -3.540692    5.901546
  C      1.780497    3.225126   -5.998308
  S     -1.728243   -5.151214    5.951697
  S     -0.365579   -2.914071    7.450611
  S      1.565334    2.452759   -7.576827
  S      2.789998    4.680096   -5.982071
  C      4.452196    3.960941   -6.598313
  C      3.376788    2.008518   -8.003158
  C      4.147930    3.281764   -7.891626
  H      4.719708    3.132496   -5.914738
  H      5.314814    4.655707   -6.671647
  H      5.171125    2.751151   -7.937776
  H      4.104287    3.966206   -8.809395
  H      3.559644    1.481873   -8.962564
  H      3.763139    1.384343   -7.175116
  C     -1.970953   -2.861509    8.406218
  C     -3.143137   -4.776947    7.115119
  C     -2.644618   -4.219970    8.434678
  H     -3.785723   -4.033504    6.634696
  H     -3.724640   -5.690160    7.272452
  H     -2.054890   -4.958450    8.994264
  H     -3.570168   -4.042746    9.012104
  H     -1.768291   -2.505588    9.420632
  H     -2.632908   -2.144990    7.911436

 Total Charge           Charge          ....   -2
 Multiplicity           Mult            ....    2
 Number of Electrons    NEL             ....  321
 Basis Dimension        Dim             ....  681

ORBITAL ENERGIES
----------------
                 SPIN UP ORBITALS
  NO   OCC          E(Eh)            E(eV)
   0   1.0000    -196.675838     -5351.8216
   1   1.0000     -88.733007     -2414.5479
   2   1.0000     -88.732892     -2414.5447
   3   1.0000     -88.732015     -2414.5209
   4   1.0000     -88.731999     -2414.5204
   5   1.0000     -88.731261     -2414.5004
   6   1.0000     -88.731122     -2414.4966
   7   1.0000     -88.728598     -2414.4279
   8   1.0000     -88.728568     -2414.4271
   9   1.0000     -88.641123     -2412.0476
  10   1.0000     -88.640557     -2412.0322
  11   1.0000     -88.640513     -2412.0310
  12   1.0000     -88.640297     -2412.0251
  13   1.0000     -22.051224      -600.0443
  14   1.0000     -18.891255      -514.0572
  15   1.0000     -18.557667      -504.9798
  16   1.0000     -18.552501      -504.8392
  17   1.0000     -18.552403      -504.8365
  18   1.0000     -10.078245      -274.2430
  19   1.0000     -10.076723      -274.2016
  20   1.0000     -10.071714      -274.0653
  21   1.0000     -10.071684      -274.0644
  22   1.0000     -10.064852      -273.8786
  23   1.0000     -10.064813      -273.8775
  24   1.0000     -10.055776      -273.6316
  25   1.0000     -10.050112      -273.4775
  26   1.0000     -10.049180      -273.4521
  27   1.0000     -10.048843      -273.4429
  28   1.0000     -10.019940      -272.6564
  29   1.0000     -10.019159      -272.6352
  30   1.0000     -10.019087      -272.6332
  31   1.0000     -10.018152      -272.6078
  32   1.0000      -7.786239      -211.8743
  33   1.0000      -7.786143      -211.8717
  34   1.0000      -7.785315      -211.8492
  35   1.0000      -7.785296      -211.8487
  36   1.0000      -7.784498      -211.8269
  37   1.0000      -7.784401      -211.8243
  38   1.0000      -7.781660      -211.7497
  39   1.0000      -7.781610      -211.7484
  40   1.0000      -7.695417      -209.4029
  41   1.0000      -7.694959      -209.3905
  42   1.0000      -7.694867      -209.3880
  43   1.0000      -7.694572      -209.3800
  44   1.0000      -5.751114      -156.4958
  45   1.0000      -5.751026      -156.4934
  46   1.0000      -5.750298      -156.4736
  47   1.0000      -5.750288      -156.4733
  48   1.0000      -5.749419      -156.4497
  49   1.0000      -5.749322      -156.4470
  50   1.0000      -5.746907      -156.3813
  51   1.0000      -5.746892      -156.3809
  52   1.0000      -5.746710      -156.3759
  53   1.0000      -5.746657      -156.3745
  54   1.0000      -5.746612      -156.3733
  55   1.0000      -5.746599      -156.3729
  56   1.0000      -5.745004      -156.3295
  57   1.0000      -5.744900      -156.3267
  58   1.0000      -5.743239      -156.2815
  59   1.0000      -5.743205      -156.2806
  60   1.0000      -5.742170      -156.2524
  61   1.0000      -5.742066      -156.2496
  62   1.0000      -5.740354      -156.2030
  63   1.0000      -5.740258      -156.2004
  64   1.0000      -5.740119      -156.1966
  65   1.0000      -5.740092      -156.1958
  66   1.0000      -5.736465      -156.0971
  67   1.0000      -5.736413      -156.0957
  68   1.0000      -5.660726      -154.0362
  69   1.0000      -5.660244      -154.0231
  70   1.0000      -5.660153      -154.0206
  71   1.0000      -5.659893      -154.0135
  72   1.0000      -5.654080      -153.8553
  73   1.0000      -5.653610      -153.8426
  74   1.0000      -5.653500      -153.8396
  75   1.0000      -5.653230      -153.8322
  76   1.0000      -5.652760      -153.8194
  77   1.0000      -5.652281      -153.8064
  78   1.0000      -5.652197      -153.8041
  79   1.0000      -5.651871      -153.7952
  80   1.0000      -2.444889       -66.5288
  81   1.0000      -1.486238       -40.4426
  82   1.0000      -1.474523       -40.1238
  83   1.0000      -1.473713       -40.1018
  84   1.0000      -0.711264       -19.3545
  85   1.0000      -0.710019       -19.3206
  86   1.0000      -0.691043       -18.8042
  87   1.0000      -0.687297       -18.7023
  88   1.0000      -0.650846       -17.7104
  89   1.0000      -0.635541       -17.2940
  90   1.0000      -0.633158       -17.2291
  91   1.0000      -0.614528       -16.7222
  92   1.0000      -0.608507       -16.5583
  93   1.0000      -0.577229       -15.7072
  94   1.0000      -0.575428       -15.6582
  95   1.0000      -0.574565       -15.6347
  96   1.0000      -0.573545       -15.6069
  97   1.0000      -0.502496       -13.6736
  98   1.0000      -0.498489       -13.5646
  99   1.0000      -0.494147       -13.4464
 100   1.0000      -0.487205       -13.2575
 101   1.0000      -0.482506       -13.1297
 102   1.0000      -0.479190       -13.0394
 103   1.0000      -0.445295       -12.1171
 104   1.0000      -0.436514       -11.8781
 105   1.0000      -0.416686       -11.3386
 106   1.0000      -0.411758       -11.2045
 107   1.0000      -0.356811        -9.7093
 108   1.0000      -0.356448        -9.6994
 109   1.0000      -0.333279        -9.0690
 110   1.0000      -0.328276        -8.9328
 111   1.0000      -0.319749        -8.7008
 112   1.0000      -0.314919        -8.5694
 113   1.0000      -0.302082        -8.2201
 114   1.0000      -0.294536        -8.0147
 115   1.0000      -0.291947        -7.9443
 116   1.0000      -0.286334        -7.7915
 117   1.0000      -0.262953        -7.1553
 118   1.0000      -0.259431        -7.0595
 119   1.0000      -0.257421        -7.0048
 120   1.0000      -0.257118        -6.9965
 121   1.0000      -0.247815        -6.7434
 122   1.0000      -0.237937        -6.4746
 123   1.0000      -0.233839        -6.3631
 124   1.0000      -0.227685        -6.1956
 125   1.0000      -0.219470        -5.9721
 126   1.0000      -0.217388        -5.9154
 127   1.0000      -0.214829        -5.8458
 128   1.0000      -0.212090        -5.7713
 129   1.0000      -0.193680        -5.2703
 130   1.0000      -0.183405        -4.9907
 131   1.0000      -0.182420        -4.9639
 132   1.0000      -0.177153        -4.8206
 133   1.0000      -0.170400        -4.6368
 134   1.0000      -0.160020        -4.3544
 135   1.0000      -0.150026        -4.0824
 136   1.0000      -0.145158        -3.9499
 137   1.0000      -0.134677        -3.6648
 138   1.0000      -0.134327        -3.6552
 139   1.0000      -0.128714        -3.5025
 140   1.0000      -0.122445        -3.3319
 141   1.0000      -0.122264        -3.3270
 142   1.0000      -0.114591        -3.1182
 143   1.0000      -0.109190        -2.9712
 144   1.0000      -0.101153        -2.7525
 145   1.0000      -0.099255        -2.7009
 146   1.0000      -0.095419        -2.5965
 147   1.0000      -0.092307        -2.5118
 148   1.0000      -0.075263        -2.0480
 149   1.0000      -0.066360        -1.8058
 150   1.0000      -0.062436        -1.6990
 151   1.0000      -0.053331        -1.4512
 152   1.0000      -0.046470        -1.2645
 153   1.0000      -0.038168        -1.0386
 154   1.0000      -0.037473        -1.0197
 155   1.0000      -0.031525        -0.8578
 156   1.0000      -0.026201        -0.7130
 157   1.0000      -0.020041        -0.5453
 158   1.0000      -0.016523        -0.4496
 159   1.0000       0.019306         0.5253
 160   1.0000       0.040211         1.0942
 161   0.0000       0.130947         3.5632
 162   0.0000       0.135751         3.6940
 163   0.0000       0.157535         4.2868
 164   0.0000       0.160924         4.3790
 165   0.0000       0.161058         4.3826

                 SPIN DOWN ORBITALS
  NO   OCC          E(Eh)            E(eV)
   0   1.0000    -196.675985     -5351.8256
   1   1.0000     -88.733015     -2414.5481
   2   1.0000     -88.732900     -2414.5450
   3   1.0000     -88.732016     -2414.5209
   4   1.0000     -88.732000     -2414.5205
   5   1.0000     -88.731270     -2414.5006
   6   1.0000     -88.731130     -2414.4968
   7   1.0000     -88.728598     -2414.4279
   8   1.0000     -88.728568     -2414.4271
   9   1.0000     -88.641259     -2412.0513
  10   1.0000     -88.640696     -2412.0360
  11   1.0000     -88.640654     -2412.0348
  12   1.0000     -88.640439     -2412.0290
  13   1.0000     -22.036299      -599.6382
  14   1.0000     -18.895023      -514.1597
  15   1.0000     -18.552408      -504.8367
  16   1.0000     -18.536471      -504.4030
  17   1.0000     -18.536291      -504.3981
  18   1.0000     -10.078244      -274.2430
  19   1.0000     -10.076717      -274.2014
  20   1.0000     -10.071714      -274.0653
  21   1.0000     -10.071684      -274.0645
  22   1.0000     -10.064851      -273.8785
  23   1.0000     -10.064812      -273.8774
  24   1.0000     -10.055776      -273.6316
  25   1.0000     -10.050112      -273.4774
  26   1.0000     -10.049176      -273.4520
  27   1.0000     -10.048831      -273.4426
  28   1.0000     -10.019726      -272.6506
  29   1.0000     -10.018947      -272.6294
  30   1.0000     -10.018850      -272.6268
  31   1.0000     -10.017930      -272.6017
  32   1.0000      -7.786248      -211.8746
  33   1.0000      -7.786152      -211.8720
  34   1.0000      -7.785315      -211.8492
  35   1.0000      -7.785297      -211.8487
  36   1.0000      -7.784507      -211.8272
  37   1.0000      -7.784411      -211.8246
  38   1.0000      -7.781660      -211.7497
  39   1.0000      -7.781610      -211.7484
  40   1.0000      -7.695544      -209.4064
  41   1.0000      -7.695088      -209.3940
  42   1.0000      -7.694998      -209.3915
  43   1.0000      -7.694705      -209.3836
  44   1.0000      -5.751125      -156.4961
  45   1.0000      -5.751037      -156.4937
  46   1.0000      -5.750299      -156.4736
  47   1.0000      -5.750289      -156.4733
  48   1.0000      -5.749430      -156.4499
  49   1.0000      -5.749333      -156.4473
  50   1.0000      -5.746908      -156.3813
  51   1.0000      -5.746893      -156.3809
  52   1.0000      -5.746725      -156.3763
  53   1.0000      -5.746658      -156.3745
  54   1.0000      -5.746626      -156.3736
  55   1.0000      -5.746599      -156.3729
  56   1.0000      -5.745018      -156.3299
  57   1.0000      -5.744914      -156.3271
  58   1.0000      -5.743239      -156.2815
  59   1.0000      -5.743206      -156.2806
  60   1.0000      -5.742176      -156.2526
  61   1.0000      -5.742072      -156.2497
  62   1.0000      -5.740362      -156.2032
  63   1.0000      -5.740268      -156.2006
  64   1.0000      -5.740120      -156.1966
  65   1.0000      -5.740093      -156.1959
  66   1.0000      -5.736466      -156.0972
  67   1.0000      -5.736414      -156.0958
  68   1.0000      -5.660868      -154.0400
  69   1.0000      -5.660385      -154.0269
  70   1.0000      -5.660291      -154.0244
  71   1.0000      -5.660035      -154.0174
  72   1.0000      -5.654429      -153.8648
  73   1.0000      -5.653969      -153.8523
  74   1.0000      -5.653888      -153.8501
  75   1.0000      -5.653613      -153.8426
  76   1.0000      -5.652865      -153.8223
  77   1.0000      -5.652387      -153.8093
  78   1.0000      -5.652284      -153.8065
  79   1.0000      -5.651966      -153.7978
  80   1.0000      -2.400028       -65.3081
  81   1.0000      -1.466975       -39.9184
  82   1.0000      -1.412168       -38.4270
  83   1.0000      -1.412001       -38.4225
  84   1.0000      -0.711249       -19.3541
  85   1.0000      -0.709992       -19.3199
  86   1.0000      -0.691006       -18.8032
  87   1.0000      -0.687244       -18.7009
  88   1.0000      -0.658918       -17.9301
  89   1.0000      -0.635485       -17.2924
  90   1.0000      -0.633083       -17.2271
  91   1.0000      -0.614527       -16.7221
  92   1.0000      -0.608509       -16.5584
  93   1.0000      -0.577208       -15.7066
  94   1.0000      -0.575400       -15.6574
  95   1.0000      -0.574488       -15.6326
  96   1.0000      -0.573467       -15.6048
  97   1.0000      -0.502523       -13.6743
  98   1.0000      -0.498525       -13.5656
  99   1.0000      -0.494167       -13.4470
 100   1.0000      -0.487245       -13.2586
 101   1.0000      -0.482713       -13.1353
 102   1.0000      -0.479448       -13.0464
 103   1.0000      -0.445321       -12.1178
 104   1.0000      -0.436546       -11.8790
 105   1.0000      -0.416683       -11.3385
 106   1.0000      -0.411864       -11.2074
 107   1.0000      -0.356808        -9.7092
 108   1.0000      -0.356439        -9.6992
 109   1.0000      -0.333264        -9.0686
 110   1.0000      -0.328257        -8.9323
 111   1.0000      -0.319666        -8.6986
 112   1.0000      -0.314947        -8.5701
 113   1.0000      -0.302042        -8.2190
 114   1.0000      -0.294499        -8.0137
 115   1.0000      -0.291943        -7.9442
 116   1.0000      -0.286333        -7.7915
 117   1.0000      -0.262951        -7.1553
 118   1.0000      -0.259267        -7.0550
 119   1.0000      -0.257370        -7.0034
 120   1.0000      -0.257092        -6.9958
 121   1.0000      -0.247725        -6.7409
 122   1.0000      -0.237891        -6.4733
 123   1.0000      -0.233820        -6.3626
 124   1.0000      -0.227661        -6.1950
 125   1.0000      -0.218888        -5.9562
 126   1.0000      -0.217323        -5.9137
 127   1.0000      -0.214705        -5.8424
 128   1.0000      -0.212025        -5.7695
 129   1.0000      -0.191712        -5.2167
 130   1.0000      -0.183159        -4.9840
 131   1.0000      -0.182276        -4.9600
 132   1.0000      -0.177016        -4.8169
 133   1.0000      -0.170302        -4.6342
 134   1.0000      -0.159392        -4.3373
 135   1.0000      -0.149879        -4.0784
 136   1.0000      -0.145097        -3.9483
 137   1.0000      -0.134232        -3.6526
 138   1.0000      -0.133807        -3.6411
 139   1.0000      -0.127946        -3.4816
 140   1.0000      -0.122406        -3.3308
 141   1.0000      -0.122073        -3.3218
 142   1.0000      -0.116359        -3.1663
 143   1.0000      -0.110746        -3.0135
 144   1.0000      -0.101178        -2.7532
 145   1.0000      -0.099551        -2.7089
 146   1.0000      -0.095558        -2.6003
 147   1.0000      -0.092346        -2.5129
 148   1.0000      -0.071450        -1.9443
 149   1.0000      -0.066360        -1.8057
 150   1.0000      -0.062431        -1.6988
 151   1.0000      -0.050739        -1.3807
 152   1.0000      -0.045529        -1.2389
 153   1.0000      -0.037604        -1.0233
 154   1.0000      -0.037517        -1.0209
 155   1.0000      -0.031530        -0.8580
 156   1.0000      -0.027237        -0.7411
 157   1.0000      -0.016742        -0.4556
 158   1.0000       0.019603         0.5334
 159   1.0000       0.039106         1.0641
 160   0.0000       0.130947         3.5633
 161   0.0000       0.135746         3.6938
 162   0.0000       0.154741         4.2107
 163   0.0000       0.158183         4.3044
 164   0.0000       0.161423         4.3925

MULLIKEN ATOMIC CHARGES AND SPIN POPULATIONS
--------------------------------------------
   0 V :    0.469990    1.210234
   1 S :   -0.288966   -0.022365
   2 S :   -0.288850   -0.025255
   3 S :   -0.287011   -0.023308
   4 S :   -0.284780   -0.025722
   5 O :   -0.466881   -0.146312
   6 C :   -0.077614    0.009655
   7 C :   -0.084811    0.008033
   8 C :   -0.085309    0.007720
   9 C :   -0.086022    0.007334
  10 S :    0.103666   -0.000597
  11 S :    0.105144   -0.000633
  12 S :    0.114930   -0.000391
  13 S :    0.114398   -0.000347
  14 C :   -0.218361    0.001503
  15 C :   -0.215830    0.001022
  16 C :   -0.184679   -0.000038
  17 C :   -0.191212   -0.000392
  18 S :    0.004013   -0.000110
  19 S :    0.004196   -0.000109
  20 S :   -0.011269   -0.000058
  21 S :   -0.011152   -0.000060
  22 C :   -0.261168    0.000003
  23 C :   -0.260479    0.000002
  24 C :   -0.179220   -0.000021
  25 H :    0.129311   -0.000001
  26 H :    0.125338    0.000000
  27 H :    0.036415    0.000000
  28 H :    0.095305   -0.000001
  29 H :    0.124882   -0.000000
  30 H :    0.128946   -0.000001
  31 C :   -0.299129    0.000219
  32 C :   -0.300132    0.000213
  33 C :   -0.153140   -0.000266
  34 H :    0.138680   -0.000020
  35 H :    0.118358    0.000025
  36 H :    0.093606    0.000017
  37 H :    0.071960    0.000021
  38 H :    0.118219    0.000026
  39 H :    0.138661   -0.000021
Sum of atomic charges         :   -2.0000000

LOEWDIN ATOMIC CHARGES AND SPIN POPULATIONS
-------------------------------------------
   0 V :   -0.155829    1.163646
   1 S :    0.081926   -0.014389
   2 S :    0.080086   -0.016113
   3 S :    0.083179   -0.015194
   4 S :    0.083943   -0.016339
   5 O :   -0.318214   -0.131235
   6 C :   -0.549639    0.009018
   7 C :   -0.551886    0.007925
   8 C :   -0.551503    0.008101
   9 C :   -0.551429    0.007641
  10 S :    0.474654   -0.000916
  11 S :    0.475787   -0.000959
  12 S :    0.484338   -0.000828
  13 S :    0.484029   -0.000836
  14 C :   -0.465890    0.000179
  15 C :   -0.468083   -0.000080
  16 C :   -0.627684    0.000478
  17 C :   -0.640288    0.000096
  18 S :    0.351276   -0.000085
  19 S :    0.352608   -0.000083
  20 S :    0.334496   -0.000064
  21 S :    0.334304   -0.000065
  22 C :   -0.271101   -0.000007
  23 C :   -0.270987   -0.000009
  24 C :   -0.202149   -0.000001
  25 H :    0.065829   -0.000001
  26 H :    0.065939   -0.000001
  27 H :    0.060044   -0.000002
  28 H :    0.063534   -0.000001
  29 H :    0.065798   -0.000001
  30 H :    0.065551   -0.000001
  31 C :   -0.279048    0.000050
  32 C :   -0.278820    0.000043
  33 C :   -0.181455    0.000007
  34 H :    0.063137   -0.000001
  35 H :    0.056624    0.000010
  36 H :    0.060070    0.000004
  37 H :    0.057157    0.000002
  38 H :    0.056675    0.000010
  39 H :    0.063021   -0.000001

  Mayer bond orders larger than 0.100000
B(  0-V ,  1-S ) :   0.7707 B(  0-V ,  2-S ) :   0.7720 B(  0-V ,  3-S ) :   0.7641
B(  0-V ,  4-S ) :   0.7792 B(  0-V ,  5-O ) :   2.1495 B(  1-S ,  8-C ) :   1.1079
B(  2-S ,  6-C ) :   1.1054 B(  3-S ,  9-C ) :   1.1108 B(  4-S ,  7-C ) :   1.1057
B(  6-C ,  7-C ) :   1.6817 B(  6-C , 10-S ) :   0.9351 B(  7-C , 11-S ) :   0.9391
B(  8-C ,  9-C ) :   1.6865 B(  8-C , 13-S ) :   0.9355 B(  9-C , 12-S ) :   0.9377
B( 10-S , 14-C ) :   1.2533 B( 11-S , 14-C ) :   1.2533 B( 12-S , 15-C ) :   1.2647
B( 13-S , 15-C ) :   1.2658 B( 14-C , 16-C ) :   1.4531 B( 15-C , 17-C ) :   1.4302
B( 16-C , 18-S ) :   1.0924 B( 16-C , 19-S ) :   1.0938 B( 17-C , 20-S ) :   1.1000
B( 17-C , 21-S ) :   1.1011 B( 18-S , 32-C ) :   0.9806 B( 19-S , 31-C ) :   0.9810
B( 20-S , 23-C ) :   0.9400 B( 21-S , 22-C ) :   0.9390 B( 22-C , 24-C ) :   0.9503
B( 22-C , 25-H ) :   0.9698 B( 22-C , 26-H ) :   0.9532 B( 23-C , 24-C ) :   0.9504
B( 23-C , 29-H ) :   0.9533 B( 23-C , 30-H ) :   0.9695 B( 24-C , 27-H ) :   0.9778
B( 24-C , 28-H ) :   0.9175 B( 31-C , 33-C ) :   0.9226 B( 31-C , 38-H ) :   0.9615
B( 31-C , 39-H ) :   0.9674 B( 32-C , 33-C ) :   0.9225 B( 32-C , 34-H ) :   0.9673
B( 32-C , 35-H ) :   0.9614 B( 33-C , 36-H ) :   0.9583 B( 33-C , 37-H ) :   0.9712

FINAL SINGLE POINT ENERGY     -6337.662631512479

DIPOLE MOMENT
-------------
                                X             Y             Z
Electronic contribution:    -11.85630       6.91381      -3.02636
Nuclear contribution   :     13.13750      -7.75255       3.49872
                        -----------------------------------------
Total Dipole Moment    :      1.28120      -0.83874       0.47236
                        -----------------------------------------
Magnitude (a.u.)       :      1.60253
Magnitude (Debye)      :      4.07330

Rotational constants in cm-1:     0.010757     0.000804     0.000784
Rotational constants in MHz :   322.490689    24.114033    23.489292

                             ****ORCA TERMINATED NORMALLY****
TOTAL RUN TIME: 0 days 1 hours 6 minutes 30 seconds 299 msec
