                         Program Version 5.0.4 -  RELEASE  -
|  1> ! nofrozencore ReducedPop printbasis
|  2> ! B3LYP TZVP
|  3>
|  4> %basis
|  5> newgto V "CP(PPP)" end
|  6> end
|  7>
|  8> %pal
|  9> nprocs 6
| 10> end
| 11>
| 12> % sym SymThresh 1e-2 end
| 13> * xyz -2 2
| 14> V -0.49607601046318284 0.9740059690547632 0.20958646602923425
| 15> S 1.433274917136053 0.8936228302298411 1.7648559484500848
| 16> S 1.3737538927190895 1.2440811226027546 -1.3888765173915276
| 17> S -1.6365582154610925 -0.4970449703784681 1.83512098306931
| 18> S -1.6657181384455153 -0.1919141432537444 -1.638349324799137
| 19> O -0.727425018526664 2.5948924524247214 0.35259070471680637
| 20> C 0.519875509920506 1.0064374038085553 -2.927514353384111
| 21> C -0.699986720815812 0.4364591472014706 -2.9612535124750283
| 22> C 0.7528609745869915 0.07756232559081477 3.1856834685985156
| 23> C -0.48220795278799367 -0.45529520597055634 3.1530896829925785
| 24> S 1.2005693929938066 1.3705344815469476 -4.592695170814444
| 25> S -1.4774423368123017 0.14825873099964648 -4.512655685565427
| 26> S -1.0990464690495474 -1.2903185790044744 4.577192904073586
| 27> S 1.6151394623375512 -0.1577123968235002 4.786973560669429
| 28> C -0.20288953637395318 0.7455649846182981 -5.533170831726332
| 29> C 0.31485359962509085 -1.120909175589681 5.575928849516373
| 30> C -0.2649829225163685 0.7624287451166882 -6.9014054797108155
| 31> C 0.4320202484360929 -1.651347916876732 6.831781261338003
| 32> S 1.0996434570864775 1.5062654772375357 -7.734799836865222
| 33> S -1.6029138689130034 0.14831967613371455 -7.951361490839411
| 34> S 1.973774643364035 -1.3884556514268105 7.646599465904509
| 35> S -0.799375971314415 -2.618566865560016 7.733331997294201
| 36> C 0.17283851352471272 -4.201366045726179 7.750006327934688
| 37> C 2.514491384571076 -3.1434543254794973 7.907937524634477
| 38> C 1.4697619619816278 -4.061766825250741 8.549883776127395
| 39> H 0.37165508673277137 -4.482888177223775 6.708677095574503
| 40> H -0.4795854190636237 -4.962869291065873 8.196808906051785
| 41> H 1.9255267078601868 -5.056394505278393 8.658106111428673
| 42> H 1.2277347738299187 -3.7025493807873637 9.555912530964736
| 43> H 3.3970571034482275 -3.0689177007791626 8.556431485823122
| 44> H 2.8344848146971757 -3.555610723738195 6.941369539055319
| 45> C -2.103257055423052 1.8022351085558397 -8.635024033717038
| 46> C 0.2354645974379546 2.8686252367489256 -8.651260682306338
| 47> C -0.9860220707237048 2.434800944489571 -9.466677451637212
| 48> H -0.05102680084682347 3.646931540499189 -7.930861966379225
| 49> H 1.0031884179364876 3.2847263955880335 -9.316601077262852
| 50> H -0.6804049902751631 1.7289638998809997 -10.246588673386421
| 51> H -1.3835319897561564 3.327859893653642 -9.969951542298334
| 52> H -2.9952508516902547 1.6250796884166077 -9.250646606885141
| 53> H -2.3861676434343377 2.4430798384417534 -7.790395742734217
| 54> *
| 55>
| 56> % eprnmr
| 57> gtensor true
| 58> Nuclei = all H {aiso,adip,aorb,fgrad,rho}
| 59> Nuclei = all V {aiso,adip,aorb,fgrad,rho}
| 60> end
| 61>
| 62>                          ****END OF INPUT****

CARTESIAN COORDINATES (ANGSTROEM)
---------------------------------
  V     -0.494965    0.971576    0.206837
  S      1.434386    0.891193    1.762106
  S      1.374865    1.241652   -1.391626
  S     -1.635448   -0.499474    1.832371
  S     -1.664607   -0.194344   -1.641099
  O     -0.726314    2.592463    0.349841
  C      0.520986    1.004008   -2.930264
  C     -0.698876    0.434030   -2.964003
  C      0.753972    0.075133    3.182934
  C     -0.481097   -0.457725    3.150340
  S      1.201680    1.368105   -4.595445
  S     -1.476332    0.145829   -4.515405
  S     -1.097936   -1.292748    4.574443
  S      1.616250   -0.160142    4.784224
  C     -0.201779    0.743135   -5.535921
  C      0.315964   -1.123339    5.573179
  C     -0.263872    0.759999   -6.904155
  C      0.433131   -1.653777    6.829031
  S      1.100754    1.503836   -7.737550
  S     -1.601803    0.145890   -7.954111
  S      1.974885   -1.390885    7.643850
  S     -0.798265   -2.620996    7.730582
  C      0.173949   -4.203796    7.747257
  C      2.515602   -3.145884    7.905188
  C      1.470873   -4.064196    8.547134
  H      0.372766   -4.485318    6.705927
  H     -0.478475   -4.965299    8.194059
  H      1.926637   -5.058824    8.655356
  H      1.228845   -3.704979    9.553163
  H      3.398168   -3.071347    8.553682
  H      2.835596   -3.558040    6.938620
  C     -2.102146    1.799806   -8.637774
  C      0.236575    2.866196   -8.654010
  C     -0.984911    2.432371   -9.469427
  H     -0.049916    3.644502   -7.933612
  H      1.004299    3.282297   -9.319351
  H     -0.679294    1.726534  -10.249338
  H     -1.382421    3.325430   -9.972701
  H     -2.994140    1.622650   -9.253396
  H     -2.385057    2.440650   -7.793146

 Total Charge           Charge          ....   -2
 Multiplicity           Mult            ....    2
 Number of Electrons    NEL             ....  321
 Basis Dimension        Dim             ....  681

ORBITAL ENERGIES
----------------
                 SPIN UP ORBITALS
  NO   OCC          E(Eh)            E(eV)
   0   1.0000    -196.680696     -5351.9538
   1   1.0000     -88.738453     -2414.6961
   2   1.0000     -88.738102     -2414.6865
   3   1.0000     -88.733457     -2414.5601
   4   1.0000     -88.733034     -2414.5486
   5   1.0000     -88.729635     -2414.4561
   6   1.0000     -88.728899     -2414.4361
   7   1.0000     -88.727264     -2414.3916
   8   1.0000     -88.726696     -2414.3761
   9   1.0000     -88.641815     -2412.0664
  10   1.0000     -88.641615     -2412.0610
  11   1.0000     -88.640064     -2412.0188
  12   1.0000     -88.639190     -2411.9950
  13   1.0000     -22.055582      -600.1629
  14   1.0000     -18.883301      -513.8408
  15   1.0000     -18.562031      -505.0985
  16   1.0000     -18.556980      -504.9611
  17   1.0000     -18.556709      -504.9537
  18   1.0000     -10.075780      -274.1759
  19   1.0000     -10.075269      -274.1620
  20   1.0000     -10.065966      -273.9089
  21   1.0000     -10.065844      -273.9056
  22   1.0000     -10.063653      -273.8459
  23   1.0000     -10.063307      -273.8365
  24   1.0000     -10.051805      -273.5235
  25   1.0000     -10.051479      -273.5147
  26   1.0000     -10.049165      -273.4517
  27   1.0000     -10.048617      -273.4368
  28   1.0000     -10.020963      -272.6843
  29   1.0000     -10.020543      -272.6729
  30   1.0000     -10.015308      -272.5304
  31   1.0000     -10.014976      -272.5214
  32   1.0000      -7.791133      -212.0075
  33   1.0000      -7.790733      -211.9966
  34   1.0000      -7.785306      -211.8489
  35   1.0000      -7.784847      -211.8364
  36   1.0000      -7.783637      -211.8035
  37   1.0000      -7.782860      -211.7824
  38   1.0000      -7.781856      -211.7551
  39   1.0000      -7.781352      -211.7413
  40   1.0000      -7.696355      -209.4285
  41   1.0000      -7.696277      -209.4263
  42   1.0000      -7.693677      -209.3556
  43   1.0000      -7.692840      -209.3328
  44   1.0000      -5.756130      -156.6323
  45   1.0000      -5.755734      -156.6215
  46   1.0000      -5.752942      -156.5455
  47   1.0000      -5.752547      -156.5348
  48   1.0000      -5.750401      -156.4764
  49   1.0000      -5.749938      -156.4638
  50   1.0000      -5.748662      -156.4290
  51   1.0000      -5.747890      -156.4080
  52   1.0000      -5.746721      -156.3762
  53   1.0000      -5.746219      -156.3626
  54   1.0000      -5.746110      -156.3596
  55   1.0000      -5.745851      -156.3525
  56   1.0000      -5.745635      -156.3467
  57   1.0000      -5.745442      -156.3414
  58   1.0000      -5.745013      -156.3297
  59   1.0000      -5.744251      -156.3090
  60   1.0000      -5.742091      -156.2502
  61   1.0000      -5.741547      -156.2354
  62   1.0000      -5.740942      -156.2190
  63   1.0000      -5.740511      -156.2072
  64   1.0000      -5.738466      -156.1516
  65   1.0000      -5.737780      -156.1329
  66   1.0000      -5.737681      -156.1302
  67   1.0000      -5.737295      -156.1197
  68   1.0000      -5.661501      -154.0573
  69   1.0000      -5.661423      -154.0551
  70   1.0000      -5.659301      -153.9974
  71   1.0000      -5.658490      -153.9753
  72   1.0000      -5.655002      -153.8804
  73   1.0000      -5.654881      -153.8771
  74   1.0000      -5.653839      -153.8488
  75   1.0000      -5.653792      -153.8475
  76   1.0000      -5.652402      -153.8097
  77   1.0000      -5.651565      -153.7869
  78   1.0000      -5.650690      -153.7631
  79   1.0000      -5.649782      -153.7384
  80   1.0000      -2.447135       -66.5899
  81   1.0000      -1.483232       -40.3608
  82   1.0000      -1.477834       -40.2139
  83   1.0000      -1.476548       -40.1789
  84   1.0000      -0.709577       -19.3086
  85   1.0000      -0.708772       -19.2867
  86   1.0000      -0.685461       -18.6523
  87   1.0000      -0.685171       -18.6445
  88   1.0000      -0.640023       -17.4159
  89   1.0000      -0.632136       -17.2013
  90   1.0000      -0.631610       -17.1870
  91   1.0000      -0.615889       -16.7592
  92   1.0000      -0.615128       -16.7385
  93   1.0000      -0.574321       -15.6281
  94   1.0000      -0.573635       -15.6094
  95   1.0000      -0.572382       -15.5753
  96   1.0000      -0.571502       -15.5514
  97   1.0000      -0.498365       -13.5612
  98   1.0000      -0.497332       -13.5331
  99   1.0000      -0.494323       -13.4512
 100   1.0000      -0.492485       -13.4012
 101   1.0000      -0.479035       -13.0352
 102   1.0000      -0.476462       -12.9652
 103   1.0000      -0.446178       -12.1411
 104   1.0000      -0.443863       -12.0781
 105   1.0000      -0.416559       -11.3352
 106   1.0000      -0.410651       -11.1744
 107   1.0000      -0.354695        -9.6517
 108   1.0000      -0.354469        -9.6456
 109   1.0000      -0.327273        -8.9056
 110   1.0000      -0.326690        -8.8897
 111   1.0000      -0.317930        -8.6513
 112   1.0000      -0.313638        -8.5345
 113   1.0000      -0.304951        -8.2981
 114   1.0000      -0.304092        -8.2748
 115   1.0000      -0.290717        -7.9108
 116   1.0000      -0.290192        -7.8965
 117   1.0000      -0.257832        -7.0160
 118   1.0000      -0.256726        -6.9859
 119   1.0000      -0.255165        -6.9434
 120   1.0000      -0.254856        -6.9350
 121   1.0000      -0.234573        -6.3831
 122   1.0000      -0.233914        -6.3651
 123   1.0000      -0.230606        -6.2751
 124   1.0000      -0.229188        -6.2365
 125   1.0000      -0.219909        -5.9840
 126   1.0000      -0.217659        -5.9228
 127   1.0000      -0.213359        -5.8058
 128   1.0000      -0.211615        -5.7583
 129   1.0000      -0.194006        -5.2792
 130   1.0000      -0.188501        -5.1294
 131   1.0000      -0.187590        -5.1046
 132   1.0000      -0.181526        -4.9396
 133   1.0000      -0.178100        -4.8463
 134   1.0000      -0.158789        -4.3209
 135   1.0000      -0.152357        -4.1458
 136   1.0000      -0.147051        -4.0015
 137   1.0000      -0.135350        -3.6831
 138   1.0000      -0.133874        -3.6429
 139   1.0000      -0.131077        -3.5668
 140   1.0000      -0.120522        -3.2796
 141   1.0000      -0.115103        -3.1321
 142   1.0000      -0.103718        -2.8223
 143   1.0000      -0.101637        -2.7657
 144   1.0000      -0.098045        -2.6680
 145   1.0000      -0.096695        -2.6312
 146   1.0000      -0.092417        -2.5148
 147   1.0000      -0.090027        -2.4498
 148   1.0000      -0.075175        -2.0456
 149   1.0000      -0.067744        -1.8434
 150   1.0000      -0.067351        -1.8327
 151   1.0000      -0.049383        -1.3438
 152   1.0000      -0.045442        -1.2365
 153   1.0000      -0.040896        -1.1128
 154   1.0000      -0.036203        -0.9851
 155   1.0000      -0.029272        -0.7965
 156   1.0000      -0.025358        -0.6900
 157   1.0000      -0.017133        -0.4662
 158   1.0000      -0.013601        -0.3701
 159   1.0000       0.020545         0.5591
 160   1.0000       0.042068         1.1447
 161   0.0000       0.136449         3.7130
 162   0.0000       0.136566         3.7162
 163   0.0000       0.159770         4.3476
 164   0.0000       0.161052         4.3825
 165   0.0000       0.162252         4.4151

                 SPIN DOWN ORBITALS
  NO   OCC          E(Eh)            E(eV)
   0   1.0000    -196.680827     -5351.9574
   1   1.0000     -88.738453     -2414.6961
   2   1.0000     -88.738102     -2414.6865
   3   1.0000     -88.733467     -2414.5604
   4   1.0000     -88.733042     -2414.5488
   5   1.0000     -88.729636     -2414.4561
   6   1.0000     -88.728900     -2414.4361
   7   1.0000     -88.727271     -2414.3918
   8   1.0000     -88.726704     -2414.3764
   9   1.0000     -88.641947     -2412.0700
  10   1.0000     -88.641748     -2412.0646
  11   1.0000     -88.640228     -2412.0232
  12   1.0000     -88.639368     -2411.9998
  13   1.0000     -22.040115      -599.7420
  14   1.0000     -18.887902      -513.9659
  15   1.0000     -18.556199      -504.9398
  16   1.0000     -18.540439      -504.5110
  17   1.0000     -18.540307      -504.5074
  18   1.0000     -10.075783      -274.1760
  19   1.0000     -10.075267      -274.1620
  20   1.0000     -10.065966      -273.9089
  21   1.0000     -10.065843      -273.9055
  22   1.0000     -10.063653      -273.8459
  23   1.0000     -10.063307      -273.8365
  24   1.0000     -10.051805      -273.5235
  25   1.0000     -10.051479      -273.5147
  26   1.0000     -10.049161      -273.4516
  27   1.0000     -10.048606      -273.4365
  28   1.0000     -10.020746      -272.6783
  29   1.0000     -10.020382      -272.6685
  30   1.0000     -10.015063      -272.5237
  31   1.0000     -10.014757      -272.5154
  32   1.0000      -7.791133      -212.0075
  33   1.0000      -7.790733      -211.9966
  34   1.0000      -7.785316      -211.8492
  35   1.0000      -7.784854      -211.8367
  36   1.0000      -7.783638      -211.8036
  37   1.0000      -7.782861      -211.7824
  38   1.0000      -7.781866      -211.7553
  39   1.0000      -7.781362      -211.7416
  40   1.0000      -7.696481      -209.4319
  41   1.0000      -7.696404      -209.4298
  42   1.0000      -7.693829      -209.3597
  43   1.0000      -7.693004      -209.3373
  44   1.0000      -5.756131      -156.6323
  45   1.0000      -5.755734      -156.6215
  46   1.0000      -5.752942      -156.5455
  47   1.0000      -5.752548      -156.5348
  48   1.0000      -5.750415      -156.4768
  49   1.0000      -5.749949      -156.4641
  50   1.0000      -5.748663      -156.4291
  51   1.0000      -5.747891      -156.4081
  52   1.0000      -5.746730      -156.3765
  53   1.0000      -5.746227      -156.3628
  54   1.0000      -5.746129      -156.3601
  55   1.0000      -5.745851      -156.3525
  56   1.0000      -5.745650      -156.3471
  57   1.0000      -5.745442      -156.3414
  58   1.0000      -5.745014      -156.3298
  59   1.0000      -5.744253      -156.3091
  60   1.0000      -5.742103      -156.2506
  61   1.0000      -5.741558      -156.2357
  62   1.0000      -5.740949      -156.2192
  63   1.0000      -5.740516      -156.2074
  64   1.0000      -5.738468      -156.1516
  65   1.0000      -5.737786      -156.1331
  66   1.0000      -5.737682      -156.1303
  67   1.0000      -5.737305      -156.1200
  68   1.0000      -5.661631      -154.0608
  69   1.0000      -5.661562      -154.0589
  70   1.0000      -5.659463      -154.0018
  71   1.0000      -5.658659      -153.9799
  72   1.0000      -5.655377      -153.8906
  73   1.0000      -5.655192      -153.8856
  74   1.0000      -5.653918      -153.8509
  75   1.0000      -5.653906      -153.8506
  76   1.0000      -5.652863      -153.8222
  77   1.0000      -5.652049      -153.8001
  78   1.0000      -5.650787      -153.7657
  79   1.0000      -5.649911      -153.7419
  80   1.0000      -2.400581       -65.3231
  81   1.0000      -1.461620       -39.7727
  82   1.0000      -1.413931       -38.4750
  83   1.0000      -1.413532       -38.4642
  84   1.0000      -0.709565       -19.3082
  85   1.0000      -0.708750       -19.2861
  86   1.0000      -0.685425       -18.6514
  87   1.0000      -0.685127       -18.6432
  88   1.0000      -0.650647       -17.7050
  89   1.0000      -0.632121       -17.2009
  90   1.0000      -0.631578       -17.1861
  91   1.0000      -0.615890       -16.7592
  92   1.0000      -0.615127       -16.7385
  93   1.0000      -0.574321       -15.6281
  94   1.0000      -0.573609       -15.6087
  95   1.0000      -0.572332       -15.5739
  96   1.0000      -0.571448       -15.5499
  97   1.0000      -0.498383       -13.5617
  98   1.0000      -0.497358       -13.5338
  99   1.0000      -0.494435       -13.4543
 100   1.0000      -0.492578       -13.4037
 101   1.0000      -0.479242       -13.0408
 102   1.0000      -0.476736       -12.9727
 103   1.0000      -0.446224       -12.1424
 104   1.0000      -0.443929       -12.0799
 105   1.0000      -0.416621       -11.3368
 106   1.0000      -0.410835       -11.1794
 107   1.0000      -0.354693        -9.6517
 108   1.0000      -0.354466        -9.6455
 109   1.0000      -0.327263        -8.9053
 110   1.0000      -0.326697        -8.8899
 111   1.0000      -0.317860        -8.6494
 112   1.0000      -0.313668        -8.5353
 113   1.0000      -0.304912        -8.2971
 114   1.0000      -0.304071        -8.2742
 115   1.0000      -0.290704        -7.9105
 116   1.0000      -0.290183        -7.8963
 117   1.0000      -0.257700        -7.0124
 118   1.0000      -0.256630        -6.9833
 119   1.0000      -0.255137        -6.9426
 120   1.0000      -0.254826        -6.9342
 121   1.0000      -0.234525        -6.3818
 122   1.0000      -0.233906        -6.3649
 123   1.0000      -0.230553        -6.2737
 124   1.0000      -0.229160        -6.2358
 125   1.0000      -0.219599        -5.9756
 126   1.0000      -0.217512        -5.9188
 127   1.0000      -0.213147        -5.8000
 128   1.0000      -0.211497        -5.7551
 129   1.0000      -0.192399        -5.2355
 130   1.0000      -0.188424        -5.1273
 131   1.0000      -0.187445        -5.1006
 132   1.0000      -0.181186        -4.9303
 133   1.0000      -0.177985        -4.8432
 134   1.0000      -0.158248        -4.3061
 135   1.0000      -0.152171        -4.1408
 136   1.0000      -0.146962        -3.9990
 137   1.0000      -0.135200        -3.6790
 138   1.0000      -0.133497        -3.6326
 139   1.0000      -0.130906        -3.5621
 140   1.0000      -0.120240        -3.2719
 141   1.0000      -0.115302        -3.1375
 142   1.0000      -0.105088        -2.8596
 143   1.0000      -0.102428        -2.7872
 144   1.0000      -0.098281        -2.6744
 145   1.0000      -0.096760        -2.6330
 146   1.0000      -0.094509        -2.5717
 147   1.0000      -0.091568        -2.4917
 148   1.0000      -0.071263        -1.9392
 149   1.0000      -0.067472        -1.8360
 150   1.0000      -0.067352        -1.8327
 151   1.0000      -0.047798        -1.3006
 152   1.0000      -0.043947        -1.1959
 153   1.0000      -0.037082        -1.0091
 154   1.0000      -0.036233        -0.9860
 155   1.0000      -0.029677        -0.8075
 156   1.0000      -0.024795        -0.6747
 157   1.0000      -0.015499        -0.4217
 158   1.0000       0.020906         0.5689
 159   1.0000       0.040669         1.1067
 160   0.0000       0.136467         3.7134
 161   0.0000       0.136577         3.7165
 162   0.0000       0.154111         4.1936
 163   0.0000       0.161217         4.3869
 164   0.0000       0.162742         4.4284

MULLIKEN ATOMIC CHARGES AND SPIN POPULATIONS
--------------------------------------------
   0 V :    0.440175    1.251181
   1 S :   -0.244883   -0.031364
   2 S :   -0.242829   -0.034810
   3 S :   -0.319414   -0.017990
   4 S :   -0.319671   -0.021664
   5 O :   -0.469743   -0.178285
   6 C :   -0.010671    0.012821
   7 C :   -0.150057    0.005222
   8 C :   -0.012554    0.008300
   9 C :   -0.156756    0.006697
  10 S :    0.079281   -0.000926
  11 S :    0.120904   -0.000040
  12 S :    0.118431    0.000271
  13 S :    0.079911   -0.000995
  14 C :   -0.214605    0.001522
  15 C :   -0.215379    0.000806
  16 C :   -0.184291   -0.000232
  17 C :   -0.180100   -0.000288
  18 S :    0.005028   -0.000145
  19 S :    0.007145   -0.000062
  20 S :    0.005538   -0.000141
  21 S :    0.006867   -0.000017
  22 C :   -0.307862    0.000013
  23 C :   -0.291535    0.000000
  24 C :   -0.161033   -0.000030
  25 H :    0.152407    0.000000
  26 H :    0.118252   -0.000004
  27 H :    0.084279    0.000001
  28 H :    0.093753    0.000002
  29 H :    0.108446    0.000000
  30 H :    0.134110   -0.000001
  31 C :   -0.308020    0.000195
  32 C :   -0.292986    0.000141
  33 C :   -0.159842   -0.000224
  34 H :    0.133399   -0.000013
  35 H :    0.108393    0.000010
  36 H :    0.093818    0.000023
  37 H :    0.083314    0.000015
  38 H :    0.117767    0.000028
  39 H :    0.151014   -0.000019
Sum of atomic charges         :   -2.0000000

LOEWDIN ATOMIC CHARGES AND SPIN POPULATIONS
-------------------------------------------
   0 V :   -0.137826    1.202912
   1 S :    0.104154   -0.021168
   2 S :    0.103988   -0.023654
   3 S :    0.065103   -0.011275
   4 S :    0.061575   -0.012922
   5 O :   -0.357870   -0.162325
   6 C :   -0.530544    0.008388
   7 C :   -0.566062    0.007889
   8 C :   -0.534981    0.005905
   9 C :   -0.564929    0.009351
  10 S :    0.442156   -0.000697
  11 S :    0.498124   -0.000912
  12 S :    0.495743   -0.000726
  13 S :    0.442548   -0.000992
  14 C :   -0.466027    0.000079
  15 C :   -0.465860   -0.000161
  16 C :   -0.619916    0.000442
  17 C :   -0.618972    0.000114
  18 S :    0.366525   -0.000129
  19 S :    0.348717   -0.000032
  20 S :    0.367421   -0.000135
  21 S :    0.348604   -0.000022
  22 C :   -0.280829   -0.000006
  23 C :   -0.285550   -0.000004
  24 C :   -0.176960   -0.000002
  25 H :    0.067495   -0.000000
  26 H :    0.054116   -0.000000
  27 H :    0.058129   -0.000001
  28 H :    0.060219   -0.000000
  29 H :    0.054373   -0.000003
  30 H :    0.059732   -0.000001
  31 C :   -0.281703    0.000048
  32 C :   -0.286222    0.000012
  33 C :   -0.177424    0.000007
  34 H :    0.059423   -0.000001
  35 H :    0.054384    0.000002
  36 H :    0.060233    0.000004
  37 H :    0.057791    0.000001
  38 H :    0.054083    0.000013
  39 H :    0.067037    0.000001

  Mayer bond orders larger than 0.100000
B(  0-V ,  1-S ) :   0.7842 B(  0-V ,  2-S ) :   0.7900 B(  0-V ,  3-S ) :   0.7776
B(  0-V ,  4-S ) :   0.7811 B(  0-V ,  5-O ) :   2.1392 B(  1-S ,  8-C ) :   1.0995
B(  2-S ,  6-C ) :   1.1025 B(  3-S ,  9-C ) :   1.0912 B(  4-S ,  7-C ) :   1.0901
B(  6-C ,  7-C ) :   1.6747 B(  6-C , 10-S ) :   0.8976 B(  7-C , 11-S ) :   0.9795
B(  8-C ,  9-C ) :   1.6910 B(  8-C , 13-S ) :   0.8954 B(  9-C , 12-S ) :   0.9736
B( 10-S , 14-C ) :   1.2334 B( 11-S , 14-C ) :   1.2506 B( 12-S , 15-C ) :   1.2494
B( 13-S , 15-C ) :   1.2310 B( 14-C , 16-C ) :   1.4509 B( 15-C , 17-C ) :   1.4548
B( 16-C , 18-S ) :   1.0738 B( 16-C , 19-S ) :   1.0880 B( 17-C , 20-S ) :   1.0727
B( 17-C , 21-S ) :   1.0880 B( 18-S , 32-C ) :   0.9926 B( 19-S , 31-C ) :   0.9826
B( 20-S , 23-C ) :   0.9919 B( 21-S , 22-C ) :   0.9814 B( 22-C , 24-C ) :   0.9063
B( 22-C , 25-H ) :   0.9686 B( 22-C , 26-H ) :   0.9641 B( 23-C , 24-C ) :   0.9185
B( 23-C , 29-H ) :   0.9658 B( 23-C , 30-H ) :   0.9623 B( 24-C , 27-H ) :   0.9622
B( 24-C , 28-H ) :   0.9725 B( 31-C , 33-C ) :   0.9063 B( 31-C , 38-H ) :   0.9642
B( 31-C , 39-H ) :   0.9687 B( 32-C , 33-C ) :   0.9177 B( 32-C , 34-H ) :   0.9622
B( 32-C , 35-H ) :   0.9659 B( 33-C , 36-H ) :   0.9722 B( 33-C , 37-H ) :   0.9621

FINAL SINGLE POINT ENERGY     -6337.675735492288

DIPOLE MOMENT
-------------
                                X             Y             Z
Electronic contribution:     -4.64252      11.18528       5.92836
Nuclear contribution   :      4.88944     -12.68642      -6.52009
                        -----------------------------------------
Total Dipole Moment    :      0.24691      -1.50113      -0.59173
                        -----------------------------------------
Magnitude (a.u.)       :      1.63233
Magnitude (Debye)      :      4.14906

Rotational constants in cm-1:     0.010727     0.000804     0.000783
Rotational constants in MHz :   321.592798    24.115657    23.476107

                             ****ORCA TERMINATED NORMALLY****
TOTAL RUN TIME: 0 days 1 hours 6 minutes 18 seconds 451 msec
