                         Program Version 5.0.4 -  RELEASE  -
|  1> ! nofrozencore ReducedPop printbasis
|  2> ! B3LYP TZVP
|  3>
|  4> %basis
|  5> newgto V "CP(PPP)" end
|  6> end
|  7>
|  8> %pal
|  9> nprocs 6
| 10> end
| 11>
| 12> % sym SymThresh 1e-2 end
| 13> * xyz -2 2
| 14> V 0.7833082384625737 -0.014571829163532531 -0.7906872207393316
| 15> S 2.1316986489775176 0.5522915213208283 1.2041711483122122
| 16> S 0.6474196253456765 -2.288857316119541 0.17684568270759346
| 17> S 0.010173074744926599 2.3366245476914655 -0.7186679783299721
| 18> S -1.4866947005805409 -0.4504362089084441 -1.652211618324337
| 19> O 1.7864509651310903 -0.13880114352227105 -2.016453941038105
| 20> C -0.6534828964571051 -2.9418291097754703 -0.8094950076539683
| 21> C -1.5109774378486003 -2.2043984357712216 -1.5400395005573295
| 22> C 1.922932198757363 2.296852263972722 1.2721721913509023
| 23> C 1.0743034427705354 3.00741651780411 0.5068846041372507
| 24> S -0.9338319137364347 -4.716219874136239 -0.8067411211781081
| 25> S -2.816149423237129 -3.0968104097621345 -2.389577169640702
| 26> S 1.0095116609709935 4.776080591239156 0.8123157146554674
| 27> S 2.872248074235261 3.2236312612517044 2.4836254050183535
| 28> C -2.3669594511276415 -4.717515222742311 -1.8366819156430159
| 29> C 2.164978225323698 4.808893151326512 2.1492138347175276
| 30> C -3.060700437625184 -5.84289059806961 -2.1884999354719588
| 31> C 2.484803750332752 5.942576090790369 2.8437552607838734
| 32> S -2.5378672138355625 -7.468007861016009 -1.654165109413093
| 33> S -4.501548209382692 -5.784869866989355 -3.2239185052128803
| 34> S 3.6550411286919062 5.925308352937393 4.187667456964314
| 35> S 1.7265445316110914 7.514215152694942 2.4807502682846927
| 36> C 0.866941865729845 7.777063270919211 4.097989933132737
| 37> C 2.5082351414355526 6.4313080156143 5.552176590923422
| 38> C 1.809404125895007 7.7701730012228944 5.3037951666343535
| 39> H 0.09812863527637822 7.0088003816535664 4.207803861411034
| 40> H 0.36955640538662005 8.746767706285416 4.015303387853188
| 41> H 1.2298503433652899 8.013831437144082 6.20531346275315
| 42> H 2.55896116237242 8.557520877653479 5.176201040537396
| 43> H 3.1353625913788297 6.486028612423281 6.445495122468308
| 44> H 1.782496959378598 5.627099392566394 5.691616380513973
| 45> C -3.8852315084187716 -6.741802417039779 -4.616132157520579
| 46> C -2.173197305397226 -8.20704403849886 -3.3705635871498654
| 47> C -3.402453540414142 -8.155330268855748 -4.285876686494202
| 48> H -1.2440832760741714 -7.592713528720385 -3.536766934632391
| 49> H -1.8454059953213775 -9.18913931693059 -2.959269227408742
| 50> H -4.35881447815333 -8.600576507737236 -3.935296724588921
| 51> H -2.8268284507076054 -8.933270318500748 -4.973575006847449
| 52> H -4.6041536536925625 -6.961293081590139 -5.4433822367778575
| 53> H -2.967425467699684 -6.416428670314062 -5.197063367946753
| 54> *
| 55>
| 56> % eprnmr
| 57> gtensor true
| 58> Nuclei = all H {aiso,adip,aorb,fgrad,rho}
| 59> Nuclei = all V {aiso,adip,aorb,fgrad,rho}
| 60> end
| 61>
| 62>                          ****END OF INPUT****

CARTESIAN COORDINATES (ANGSTROEM)
---------------------------------
  V      0.780342   -0.016465   -0.789165
  S      2.128733    0.550398    1.205693
  S      0.644454   -2.290751    0.178367
  S      0.007207    2.334731   -0.717146
  S     -1.489661   -0.452330   -1.650690
  O      1.783485   -0.140695   -2.014932
  C     -0.656449   -2.943723   -0.807973
  C     -1.513943   -2.206292   -1.538518
  C      1.919966    2.294959    1.273694
  C      1.071338    3.005523    0.508406
  S     -0.936798   -4.718113   -0.805219
  S     -2.819115   -3.098704   -2.388055
  S      1.006546    4.774187    0.813838
  S      2.869282    3.221738    2.485147
  C     -2.369925   -4.719409   -1.835160
  C      2.162012    4.807000    2.150736
  C     -3.063666   -5.844784   -2.186978
  C      2.481838    5.940683    2.845277
  S     -2.540833   -7.469901   -1.652643
  S     -4.504514   -5.786763   -3.222397
  S      3.652075    5.923415    4.189189
  S      1.723579    7.512322    2.482272
  C      0.863976    7.775170    4.099512
  C      2.505269    6.429414    5.553698
  C      1.806438    7.768279    5.305317
  H      0.095163    7.006907    4.209326
  H      0.366591    8.744874    4.016825
  H      1.226884    8.011938    6.206835
  H      2.555995    8.555627    5.177723
  H      3.132397    6.484135    6.447017
  H      1.779531    5.625206    5.693138
  C     -3.888197   -6.743696   -4.614610
  C     -2.176163   -8.208938   -3.369042
  C     -3.405419   -8.157224   -4.284355
  H     -1.247049   -7.594607   -3.535245
  H     -1.848372   -9.191033   -2.957747
  H     -4.361780   -8.602470   -3.933775
  H     -2.829794   -8.935164   -4.972053
  H     -4.607120   -6.963187   -5.441860
  H     -2.970391   -6.418322   -5.195542

 Total Charge           Charge          ....   -2
 Multiplicity           Mult            ....    2
 Number of Electrons    NEL             ....  321
 Basis Dimension        Dim             ....  681

ORBITAL ENERGIES
----------------
                 SPIN UP ORBITALS
  NO   OCC          E(Eh)            E(eV)
   0   1.0000    -196.674984     -5351.7984
   1   1.0000     -88.745088     -2414.8766
   2   1.0000     -88.733373     -2414.5578
   3   1.0000     -88.732963     -2414.5467
   4   1.0000     -88.731626     -2414.5103
   5   1.0000     -88.730395     -2414.4768
   6   1.0000     -88.730112     -2414.4691
   7   1.0000     -88.730025     -2414.4667
   8   1.0000     -88.724661     -2414.3208
   9   1.0000     -88.639993     -2412.0168
  10   1.0000     -88.639896     -2412.0142
  11   1.0000     -88.639808     -2412.0118
  12   1.0000     -88.639369     -2411.9999
  13   1.0000     -22.050376      -600.0212
  14   1.0000     -18.890264      -514.0302
  15   1.0000     -18.556824      -504.9568
  16   1.0000     -18.551652      -504.8161
  17   1.0000     -18.551551      -504.8134
  18   1.0000     -10.076720      -274.2015
  19   1.0000     -10.075865      -274.1782
  20   1.0000     -10.073212      -274.1060
  21   1.0000     -10.070128      -274.0221
  22   1.0000     -10.064607      -273.8719
  23   1.0000     -10.063324      -273.8370
  24   1.0000     -10.063226      -273.8343
  25   1.0000     -10.051153      -273.5058
  26   1.0000     -10.049328      -273.4561
  27   1.0000     -10.048403      -273.4309
  28   1.0000     -10.018704      -272.6228
  29   1.0000     -10.017929      -272.6017
  30   1.0000     -10.017892      -272.6007
  31   1.0000     -10.017135      -272.5801
  32   1.0000      -7.798460      -212.2069
  33   1.0000      -7.786833      -211.8905
  34   1.0000      -7.786422      -211.8793
  35   1.0000      -7.784822      -211.8358
  36   1.0000      -7.783712      -211.8056
  37   1.0000      -7.783384      -211.7967
  38   1.0000      -7.783326      -211.7951
  39   1.0000      -7.778387      -211.6607
  40   1.0000      -7.694300      -209.3725
  41   1.0000      -7.694156      -209.3686
  42   1.0000      -7.694078      -209.3665
  43   1.0000      -7.693717      -209.3567
  44   1.0000      -5.763684      -156.8378
  45   1.0000      -5.759906      -156.7350
  46   1.0000      -5.753131      -156.5507
  47   1.0000      -5.751823      -156.5151
  48   1.0000      -5.751405      -156.5037
  49   1.0000      -5.749764      -156.4590
  50   1.0000      -5.748646      -156.4286
  51   1.0000      -5.748407      -156.4221
  52   1.0000      -5.748336      -156.4202
  53   1.0000      -5.748275      -156.4185
  54   1.0000      -5.747995      -156.4109
  55   1.0000      -5.745303      -156.3376
  56   1.0000      -5.744230      -156.3085
  57   1.0000      -5.743903      -156.2995
  58   1.0000      -5.743843      -156.2979
  59   1.0000      -5.743136      -156.2787
  60   1.0000      -5.741625      -156.2376
  61   1.0000      -5.741223      -156.2266
  62   1.0000      -5.740686      -156.2120
  63   1.0000      -5.740024      -156.1940
  64   1.0000      -5.739537      -156.1808
  65   1.0000      -5.739190      -156.1713
  66   1.0000      -5.739136      -156.1698
  67   1.0000      -5.733275      -156.0104
  68   1.0000      -5.659618      -154.0060
  69   1.0000      -5.659469      -154.0020
  70   1.0000      -5.659405      -154.0002
  71   1.0000      -5.659018      -153.9897
  72   1.0000      -5.652937      -153.8242
  73   1.0000      -5.652842      -153.8217
  74   1.0000      -5.652739      -153.8188
  75   1.0000      -5.652391      -153.8094
  76   1.0000      -5.651625      -153.7885
  77   1.0000      -5.651480      -153.7846
  78   1.0000      -5.651368      -153.7815
  79   1.0000      -5.651032      -153.7724
  80   1.0000      -2.444019       -66.5051
  81   1.0000      -1.485319       -40.4176
  82   1.0000      -1.473658       -40.1003
  83   1.0000      -1.472840       -40.0780
  84   1.0000      -0.711517       -19.3613
  85   1.0000      -0.709530       -19.3073
  86   1.0000      -0.687399       -18.7051
  87   1.0000      -0.685505       -18.6535
  88   1.0000      -0.649879       -17.6841
  89   1.0000      -0.632682       -17.2162
  90   1.0000      -0.631250       -17.1772
  91   1.0000      -0.619315       -16.8524
  92   1.0000      -0.617177       -16.7942
  93   1.0000      -0.575251       -15.6534
  94   1.0000      -0.574505       -15.6331
  95   1.0000      -0.574148       -15.6234
  96   1.0000      -0.572833       -15.5876
  97   1.0000      -0.499696       -13.5974
  98   1.0000      -0.496199       -13.5023
  99   1.0000      -0.495901       -13.4942
 100   1.0000      -0.494069       -13.4443
 101   1.0000      -0.480349       -13.0710
 102   1.0000      -0.477574       -12.9955
 103   1.0000      -0.446472       -12.1491
 104   1.0000      -0.441291       -12.0081
 105   1.0000      -0.416103       -11.3227
 106   1.0000      -0.411056       -11.1854
 107   1.0000      -0.356712        -9.7066
 108   1.0000      -0.355186        -9.6651
 109   1.0000      -0.326471        -8.8837
 110   1.0000      -0.324335        -8.8256
 111   1.0000      -0.321089        -8.7373
 112   1.0000      -0.316375        -8.6090
 113   1.0000      -0.310653        -8.4533
 114   1.0000      -0.303861        -8.2685
 115   1.0000      -0.292225        -7.9518
 116   1.0000      -0.281471        -7.6592
 117   1.0000      -0.272439        -7.4134
 118   1.0000      -0.257076        -6.9954
 119   1.0000      -0.256682        -6.9847
 120   1.0000      -0.246959        -6.7201
 121   1.0000      -0.234464        -6.3801
 122   1.0000      -0.233807        -6.3622
 123   1.0000      -0.230583        -6.2745
 124   1.0000      -0.222691        -6.0597
 125   1.0000      -0.219850        -5.9824
 126   1.0000      -0.216188        -5.8828
 127   1.0000      -0.211950        -5.7674
 128   1.0000      -0.202456        -5.5091
 129   1.0000      -0.193423        -5.2633
 130   1.0000      -0.189941        -5.1686
 131   1.0000      -0.187253        -5.0954
 132   1.0000      -0.181810        -4.9473
 133   1.0000      -0.168290        -4.5794
 134   1.0000      -0.159604        -4.3430
 135   1.0000      -0.151070        -4.1108
 136   1.0000      -0.146621        -3.9897
 137   1.0000      -0.134694        -3.6652
 138   1.0000      -0.133481        -3.6322
 139   1.0000      -0.131466        -3.5774
 140   1.0000      -0.124731        -3.3941
 141   1.0000      -0.121259        -3.2996
 142   1.0000      -0.113570        -3.0904
 143   1.0000      -0.109690        -2.9848
 144   1.0000      -0.100058        -2.7227
 145   1.0000      -0.098342        -2.6760
 146   1.0000      -0.097813        -2.6616
 147   1.0000      -0.095306        -2.5934
 148   1.0000      -0.074596        -2.0299
 149   1.0000      -0.067485        -1.8364
 150   1.0000      -0.067031        -1.8240
 151   1.0000      -0.052459        -1.4275
 152   1.0000      -0.045687        -1.2432
 153   1.0000      -0.037597        -1.0231
 154   1.0000      -0.037171        -1.0115
 155   1.0000      -0.031427        -0.8552
 156   1.0000      -0.025061        -0.6819
 157   1.0000      -0.019201        -0.5225
 158   1.0000      -0.015574        -0.4238
 159   1.0000       0.020249         0.5510
 160   1.0000       0.041122         1.1190
 161   0.0000       0.134846         3.6693
 162   0.0000       0.137349         3.7375
 163   0.0000       0.153896         4.1877
 164   0.0000       0.162296         4.4163
 165   0.0000       0.165416         4.5012

                 SPIN DOWN ORBITALS
  NO   OCC          E(Eh)            E(eV)
   0   1.0000    -196.675131     -5351.8024
   1   1.0000     -88.745089     -2414.8766
   2   1.0000     -88.733374     -2414.5579
   3   1.0000     -88.732963     -2414.5467
   4   1.0000     -88.731635     -2414.5105
   5   1.0000     -88.730404     -2414.4770
   6   1.0000     -88.730120     -2414.4693
   7   1.0000     -88.730033     -2414.4670
   8   1.0000     -88.724662     -2414.3208
   9   1.0000     -88.640132     -2412.0206
  10   1.0000     -88.640033     -2412.0179
  11   1.0000     -88.639949     -2412.0156
  12   1.0000     -88.639508     -2412.0036
  13   1.0000     -22.035449      -599.6151
  14   1.0000     -18.894041      -514.1330
  15   1.0000     -18.551561      -504.8136
  16   1.0000     -18.535622      -504.3799
  17   1.0000     -18.535438      -504.3749
  18   1.0000     -10.076714      -274.2013
  19   1.0000     -10.075864      -274.1782
  20   1.0000     -10.073212      -274.1060
  21   1.0000     -10.070127      -274.0221
  22   1.0000     -10.064607      -273.8719
  23   1.0000     -10.063325      -273.8370
  24   1.0000     -10.063226      -273.8343
  25   1.0000     -10.051153      -273.5058
  26   1.0000     -10.049317      -273.4558
  27   1.0000     -10.048399      -273.4308
  28   1.0000     -10.018470      -272.6164
  29   1.0000     -10.017715      -272.5959
  30   1.0000     -10.017665      -272.5945
  31   1.0000     -10.016923      -272.5743
  32   1.0000      -7.798460      -212.2069
  33   1.0000      -7.786834      -211.8905
  34   1.0000      -7.786423      -211.8793
  35   1.0000      -7.784832      -211.8360
  36   1.0000      -7.783722      -211.8058
  37   1.0000      -7.783394      -211.7969
  38   1.0000      -7.783336      -211.7953
  39   1.0000      -7.778387      -211.6607
  40   1.0000      -7.694430      -209.3761
  41   1.0000      -7.694284      -209.3721
  42   1.0000      -7.694209      -209.3701
  43   1.0000      -7.693847      -209.3602
  44   1.0000      -5.763685      -156.8378
  45   1.0000      -5.759907      -156.7350
  46   1.0000      -5.753132      -156.5507
  47   1.0000      -5.751824      -156.5151
  48   1.0000      -5.751406      -156.5037
  49   1.0000      -5.749775      -156.4593
  50   1.0000      -5.748657      -156.4289
  51   1.0000      -5.748408      -156.4221
  52   1.0000      -5.748347      -156.4205
  53   1.0000      -5.748286      -156.4188
  54   1.0000      -5.747996      -156.4109
  55   1.0000      -5.745317      -156.3380
  56   1.0000      -5.744244      -156.3088
  57   1.0000      -5.743917      -156.2999
  58   1.0000      -5.743857      -156.2983
  59   1.0000      -5.743138      -156.2787
  60   1.0000      -5.741626      -156.2376
  61   1.0000      -5.741224      -156.2266
  62   1.0000      -5.740694      -156.2122
  63   1.0000      -5.740025      -156.1940
  64   1.0000      -5.739547      -156.1810
  65   1.0000      -5.739196      -156.1715
  66   1.0000      -5.739142      -156.1700
  67   1.0000      -5.733276      -156.0104
  68   1.0000      -5.659756      -154.0098
  69   1.0000      -5.659611      -154.0058
  70   1.0000      -5.659545      -154.0041
  71   1.0000      -5.659160      -153.9936
  72   1.0000      -5.653324      -153.8348
  73   1.0000      -5.653193      -153.8312
  74   1.0000      -5.653119      -153.8292
  75   1.0000      -5.652752      -153.8192
  76   1.0000      -5.651712      -153.7909
  77   1.0000      -5.651585      -153.7874
  78   1.0000      -5.651461      -153.7841
  79   1.0000      -5.651138      -153.7753
  80   1.0000      -2.399147       -65.2841
  81   1.0000      -1.466041       -39.8930
  82   1.0000      -1.411290       -38.4032
  83   1.0000      -1.411137       -38.3990
  84   1.0000      -0.711493       -19.3607
  85   1.0000      -0.709515       -19.3069
  86   1.0000      -0.687341       -18.7035
  87   1.0000      -0.685462       -18.6524
  88   1.0000      -0.657979       -17.9045
  89   1.0000      -0.632612       -17.2142
  90   1.0000      -0.631192       -17.1756
  91   1.0000      -0.619312       -16.8523
  92   1.0000      -0.617179       -16.7943
  93   1.0000      -0.575219       -15.6525
  94   1.0000      -0.574482       -15.6324
  95   1.0000      -0.574067       -15.6212
  96   1.0000      -0.572767       -15.5858
  97   1.0000      -0.499719       -13.5980
  98   1.0000      -0.496223       -13.5029
  99   1.0000      -0.495947       -13.4954
 100   1.0000      -0.494105       -13.4453
 101   1.0000      -0.480544       -13.0763
 102   1.0000      -0.477825       -13.0023
 103   1.0000      -0.446501       -12.1499
 104   1.0000      -0.441331       -12.0092
 105   1.0000      -0.416101       -11.3227
 106   1.0000      -0.411161       -11.1883
 107   1.0000      -0.356702        -9.7064
 108   1.0000      -0.355182        -9.6650
 109   1.0000      -0.326460        -8.8834
 110   1.0000      -0.324309        -8.8249
 111   1.0000      -0.321053        -8.7363
 112   1.0000      -0.316368        -8.6088
 113   1.0000      -0.310630        -8.4527
 114   1.0000      -0.303826        -8.2675
 115   1.0000      -0.292220        -7.9517
 116   1.0000      -0.281448        -7.6586
 117   1.0000      -0.272358        -7.4112
 118   1.0000      -0.257000        -6.9933
 119   1.0000      -0.256601        -6.9825
 120   1.0000      -0.246871        -6.7177
 121   1.0000      -0.234424        -6.3790
 122   1.0000      -0.233796        -6.3619
 123   1.0000      -0.230542        -6.2734
 124   1.0000      -0.222649        -6.0586
 125   1.0000      -0.219558        -5.9745
 126   1.0000      -0.215836        -5.8732
 127   1.0000      -0.211811        -5.7637
 128   1.0000      -0.202411        -5.5079
 129   1.0000      -0.192139        -5.2284
 130   1.0000      -0.189088        -5.1454
 131   1.0000      -0.187163        -5.0930
 132   1.0000      -0.181655        -4.9431
 133   1.0000      -0.168170        -4.5761
 134   1.0000      -0.158977        -4.3260
 135   1.0000      -0.150898        -4.1062
 136   1.0000      -0.146533        -3.9874
 137   1.0000      -0.134094        -3.6489
 138   1.0000      -0.133273        -3.6265
 139   1.0000      -0.130948        -3.5633
 140   1.0000      -0.124321        -3.3829
 141   1.0000      -0.120932        -3.2907
 142   1.0000      -0.115350        -3.1388
 143   1.0000      -0.111230        -3.0267
 144   1.0000      -0.100064        -2.7229
 145   1.0000      -0.098622        -2.6836
 146   1.0000      -0.097854        -2.6627
 147   1.0000      -0.095613        -2.6018
 148   1.0000      -0.070763        -1.9256
 149   1.0000      -0.067471        -1.8360
 150   1.0000      -0.067040        -1.8242
 151   1.0000      -0.049875        -1.3572
 152   1.0000      -0.044750        -1.2177
 153   1.0000      -0.037635        -1.0241
 154   1.0000      -0.036607        -0.9961
 155   1.0000      -0.031466        -0.8562
 156   1.0000      -0.026091        -0.7100
 157   1.0000      -0.015784        -0.4295
 158   1.0000       0.020535         0.5588
 159   1.0000       0.040026         1.0892
 160   0.0000       0.134854         3.6696
 161   0.0000       0.137339         3.7372
 162   0.0000       0.153300         4.1715
 163   0.0000       0.156695         4.2639
 164   0.0000       0.162978         4.4349

MULLIKEN ATOMIC CHARGES AND SPIN POPULATIONS
--------------------------------------------
   0 V :    0.471448    1.210431
   1 S :   -0.291119   -0.022496
   2 S :   -0.289032   -0.025050
   3 S :   -0.289057   -0.023448
   4 S :   -0.284698   -0.025636
   5 O :   -0.467646   -0.146552
   6 C :   -0.078692    0.009664
   7 C :   -0.083742    0.008040
   8 C :   -0.084103    0.007762
   9 C :   -0.084670    0.007395
  10 S :    0.103843   -0.000597
  11 S :    0.099143   -0.000619
  12 S :    0.100027   -0.000394
  13 S :    0.099215   -0.000347
  14 C :   -0.208009    0.001496
  15 C :   -0.212161    0.000996
  16 C :   -0.202642   -0.000037
  17 C :   -0.190322   -0.000403
  18 S :   -0.040262   -0.000124
  19 S :    0.050792   -0.000104
  20 S :    0.007153   -0.000068
  21 S :    0.009336   -0.000071
  22 C :   -0.300229   -0.000001
  23 C :   -0.300808   -0.000002
  24 C :   -0.157530   -0.000011
  25 H :    0.142627   -0.000001
  26 H :    0.113721   -0.000004
  27 H :    0.083481   -0.000001
  28 H :    0.091917   -0.000001
  29 H :    0.113331   -0.000005
  30 H :    0.143574   -0.000001
  31 C :   -0.255365    0.000173
  32 C :   -0.289774    0.000163
  33 C :   -0.176706   -0.000186
  34 H :    0.165408   -0.000012
  35 H :    0.106539    0.000008
  36 H :    0.092561    0.000024
  37 H :    0.069517    0.000004
  38 H :    0.109694    0.000030
  39 H :    0.113240   -0.000018
Sum of atomic charges         :   -2.0000000

LOEWDIN ATOMIC CHARGES AND SPIN POPULATIONS
-------------------------------------------
   0 V :   -0.155804    1.163821
   1 S :    0.079952   -0.014499
   2 S :    0.079757   -0.015949
   3 S :    0.081347   -0.015308
   4 S :    0.083523   -0.016281
   5 O :   -0.318856   -0.131474
   6 C :   -0.550858    0.009040
   7 C :   -0.550886    0.007948
   8 C :   -0.552406    0.008133
   9 C :   -0.552347    0.007667
  10 S :    0.475511   -0.000910
  11 S :    0.470125   -0.000949
  12 S :    0.471265   -0.000823
  13 S :    0.470647   -0.000829
  14 C :   -0.464652    0.000168
  15 C :   -0.465148   -0.000080
  16 C :   -0.622942    0.000478
  17 C :   -0.622031    0.000085
  18 S :    0.312916   -0.000101
  19 S :    0.407260   -0.000078
  20 S :    0.357857   -0.000073
  21 S :    0.359727   -0.000075
  22 C :   -0.283800   -0.000007
  23 C :   -0.282898   -0.000009
  24 C :   -0.176074   -0.000002
  25 H :    0.062373   -0.000002
  26 H :    0.053697   -0.000002
  27 H :    0.058033   -0.000002
  28 H :    0.060170   -0.000001
  29 H :    0.053471   -0.000002
  30 H :    0.062563   -0.000002
  31 C :   -0.321462    0.000045
  32 C :   -0.285267    0.000041
  33 C :   -0.198317    0.000009
  34 H :    0.080280   -0.000000
  35 H :    0.054660    0.000004
  36 H :    0.063122    0.000005
  37 H :    0.079812   -0.000000
  38 H :    0.062221    0.000014
  39 H :    0.063461   -0.000002

  Mayer bond orders larger than 0.100000
B(  0-V ,  1-S ) :   0.7721 B(  0-V ,  2-S ) :   0.7700 B(  0-V ,  3-S ) :   0.7656
B(  0-V ,  4-S ) :   0.7779 B(  0-V ,  5-O ) :   2.1488 B(  1-S ,  8-C ) :   1.1034
B(  2-S ,  6-C ) :   1.1047 B(  3-S ,  9-C ) :   1.1063 B(  4-S ,  7-C ) :   1.1058
B(  6-C ,  7-C ) :   1.6832 B(  6-C , 10-S ) :   0.9334 B(  7-C , 11-S ) :   0.9418
B(  8-C ,  9-C ) :   1.6987 B(  8-C , 13-S ) :   0.9335 B(  9-C , 12-S ) :   0.9355
B( 10-S , 14-C ) :   1.2523 B( 11-S , 14-C ) :   1.2471 B( 12-S , 15-C ) :   1.2465
B( 13-S , 15-C ) :   1.2467 B( 14-C , 16-C ) :   1.4476 B( 15-C , 17-C ) :   1.4535
B( 16-C , 18-S ) :   1.1032 B( 16-C , 19-S ) :   1.0617 B( 17-C , 20-S ) :   1.0886
B( 17-C , 21-S ) :   1.0881 B( 18-S , 32-C ) :   0.9366 B( 19-S , 31-C ) :   0.9902
B( 20-S , 23-C ) :   0.9909 B( 21-S , 22-C ) :   0.9911 B( 22-C , 24-C ) :   0.9130
B( 22-C , 25-H ) :   0.9658 B( 22-C , 26-H ) :   0.9654 B( 23-C , 24-C ) :   0.9143
B( 23-C , 29-H ) :   0.9658 B( 23-C , 30-H ) :   0.9655 B( 24-C , 27-H ) :   0.9625
B( 24-C , 28-H ) :   0.9717 B( 31-C , 33-C ) :   0.8922 B( 31-C , 38-H ) :   0.9605
B( 31-C , 39-H ) :   0.9593 B( 32-C , 33-C ) :   0.9265 B( 32-C , 34-H ) :   0.9581
B( 32-C , 35-H ) :   0.9698 B( 33-C , 36-H ) :   0.9630 B( 33-C , 37-H ) :   0.9606

FINAL SINGLE POINT ENERGY     -6337.647205486574

DIPOLE MOMENT
-------------
                                X             Y             Z
Electronic contribution:     10.54310       2.85085      -7.95294
Nuclear contribution   :    -11.74366      -3.01399       8.95370
                        -----------------------------------------
Total Dipole Moment    :     -1.20056      -0.16314       1.00076
                        -----------------------------------------
Magnitude (a.u.)       :      1.57146
Magnitude (Debye)      :      3.99433

Rotational constants in cm-1:     0.010759     0.000804     0.000783
Rotational constants in MHz :   322.546662    24.115864    23.486423

                             ****ORCA TERMINATED NORMALLY****
TOTAL RUN TIME: 0 days 1 hours 6 minutes 28 seconds 271 msec
