                         Program Version 5.0.4 -  RELEASE  -
|  1> ! nofrozencore ReducedPop printbasis
|  2> ! B3LYP TZVP
|  3>
|  4> %basis
|  5> newgto V "CP(PPP)" end
|  6> end
|  7>
|  8> %pal
|  9> nprocs 8
| 10> end
| 11>
| 12> % sym SymThresh 1e-2 end
| 13> * xyz -2 2
| 14> V -0.43746211416958874 -1.0324518154345925 -0.06564997953607833
| 15> S 0.5807363138850098 -0.9289266276055261 -2.31950045473582
| 16> S 1.8044492434502615 -1.3411180200511252 0.9557689791492137
| 17> S -2.1261120974935332 0.5669877445434474 -0.9453695629086982
| 18> S -0.9729635794389299 0.25465919768193457 1.9661437709298826
| 19> O -1.4527171923659516 -2.2729753463906053 0.19328044602052272
| 20> C 1.3868472471971836 -0.9507407025453377 2.6137558274491117
| 21> C 0.29758834712507587 -0.3014872915602055 3.0657891397302683
| 22> C -0.6607567591695209 -0.02878333783525013 -3.1724189501860964
| 23> C -1.746134635119608 0.5890493850196327 -2.6708405829833244
| 24> S 2.6106677131539513 -1.4676420543787674 3.7800336032020123
| 25> S 0.2944663421169284 -0.0037788324871967796 4.866342085572213
| 26> S -2.74614736157915 1.4765228191820223 -3.9130734540328587
| 27> S -0.34668059652283234 0.08846571995322061 -4.908975036281172
| 28> C 1.8643070789518572 -0.8011262872856978 5.208548503019227
| 29> C -1.6936297916012004 1.1191806681982892 -5.319713107012267
| 30> C 2.4092611174722807 -0.875711389587005 6.461287258859399
| 31> C -1.9340944014654184 1.5991485292241066 -6.578524465632434
| 32> S 3.961817296163301 -1.6704125140837764 6.9126001191945585
| 33> S 1.4932757321773116 -0.143446327771059 7.78099908045672
| 34> S -0.9528094906797551 1.2749421918939687 -8.053776447087925
| 35> S -3.3225683585955923 2.672041500524595 -6.787419665700042
| 36> C -2.459957948756312 4.198689258780869 -7.388654825630835
| 37> C -0.3667313340954197 3.017478667883621 -8.307747207708651
| 38> C -1.5214823453396094 3.9838030711848984 -8.579724036535946
| 39> H -1.910742348365651 4.637826154431848 -6.547444380322677
| 40> H -3.267318779172075 4.8865798292720335 -7.665106746039629
| 41> H -1.1018063703219785 4.961952534286884 -8.854604882104162
| 42> H -2.094160599760828 3.6213823325669825 -9.439856756176765
| 43> H 0.3204342504793542 2.987088277073533 -9.1610231581792
| 44> H 0.19975630359471327 3.313695010980173 -7.418614057154833
| 45> C 1.2165959554879278 -1.631044236028572 8.850295889606539
| 46> C 3.2114045274330802 -3.000560935784985 7.9674476588406575
| 47> C 2.4789702969187313 -2.4310681770169227 9.184268023546803
| 48> H 2.5373197221547743 -3.5887098357189844 7.335756809129869
| 49> H 4.039601285011645 -3.6452858696536987 8.283415766151084
| 50> H 3.1728785421687737 -1.804919435894085 9.754980377512695
| 51> H 2.1811409859402286 -3.2657925718534644 9.834680953338976
| 52> H 0.7679369411431175 -1.2365782261860747 9.76960345902065
| 53> H 0.4778182143247235 -2.275868472850031 8.359264264972833
| 54> *
| 55>
| 56> % eprnmr
| 57> gtensor true
| 58> Nuclei = all H {aiso,adip,aorb,fgrad,rho}
| 59> Nuclei = all V {aiso,adip,aorb,fgrad,rho}
| 60> end
| 61>
| 62>                          ****END OF INPUT****

CARTESIAN COORDINATES (ANGSTROEM)
---------------------------------
  V     -0.435198   -1.030149   -0.063583
  S      0.583000   -0.926624   -2.317433
  S      1.806713   -1.338816    0.957836
  S     -2.123848    0.569290   -0.943303
  S     -0.970700    0.256962    1.968211
  O     -1.450453   -2.270673    0.195348
  C      1.389111   -0.948438    2.615823
  C      0.299852   -0.299185    3.067856
  C     -0.658493   -0.026481   -3.170352
  C     -1.743871    0.591352   -2.668774
  S      2.612931   -1.465340    3.782101
  S      0.296730   -0.001476    4.868409
  S     -2.743884    1.478825   -3.911006
  S     -0.344417    0.090768   -4.906908
  C      1.866571   -0.798824    5.210616
  C     -1.691366    1.121483   -5.317646
  C      2.411525   -0.873409    6.463354
  C     -1.931831    1.601451   -6.576457
  S      3.964081   -1.668110    6.914667
  S      1.495539   -0.141144    7.783066
  S     -0.950546    1.277245   -8.051709
  S     -3.320305    2.674344   -6.785353
  C     -2.457694    4.200992   -7.386588
  C     -0.364468    3.019781   -8.305680
  C     -1.519219    3.986105   -8.577657
  H     -1.908479    4.640129   -6.545377
  H     -3.265055    4.888882   -7.663040
  H     -1.099543    4.964255   -8.852538
  H     -2.091897    3.623685   -9.437790
  H      0.322698    2.989391   -9.158956
  H      0.202020    3.315997   -7.416547
  C      1.218860   -1.628742    8.852363
  C      3.213668   -2.998259    7.969515
  C      2.481234   -2.428766    9.186335
  H      2.539583   -3.586407    7.337824
  H      4.041865   -3.642983    8.285483
  H      3.175142   -1.802617    9.757047
  H      2.183405   -3.263490    9.836748
  H      0.770201   -1.234276    9.771671
  H      0.480082   -2.273566    8.361331

 Total Charge           Charge          ....   -2
 Multiplicity           Mult            ....    2
 Number of Electrons    NEL             ....  321
 Basis Dimension        Dim             ....  681

ORBITAL ENERGIES
----------------
                 SPIN UP ORBITALS
  NO   OCC          E(Eh)            E(eV)
   0   1.0000    -196.678950     -5351.9063
   1   1.0000     -88.737299     -2414.6647
   2   1.0000     -88.736852     -2414.6525
   3   1.0000     -88.732494     -2414.5339
   4   1.0000     -88.732209     -2414.5262
   5   1.0000     -88.729931     -2414.4642
   6   1.0000     -88.729599     -2414.4551
   7   1.0000     -88.727682     -2414.4030
   8   1.0000     -88.727360     -2414.3942
   9   1.0000     -88.641151     -2412.0483
  10   1.0000     -88.640907     -2412.0417
  11   1.0000     -88.639477     -2412.0028
  12   1.0000     -88.638945     -2411.9883
  13   1.0000     -22.053967      -600.1190
  14   1.0000     -18.885856      -513.9103
  15   1.0000     -18.560433      -505.0551
  16   1.0000     -18.555310      -504.9157
  17   1.0000     -18.555122      -504.9105
  18   1.0000     -10.075517      -274.1688
  19   1.0000     -10.075468      -274.1674
  20   1.0000     -10.065354      -273.8922
  21   1.0000     -10.064832      -273.8780
  22   1.0000     -10.063326      -273.8370
  23   1.0000     -10.062905      -273.8256
  24   1.0000     -10.051641      -273.5190
  25   1.0000     -10.051206      -273.5072
  26   1.0000     -10.048485      -273.4332
  27   1.0000     -10.048443      -273.4320
  28   1.0000     -10.019615      -272.6476
  29   1.0000     -10.019540      -272.6455
  30   1.0000     -10.015657      -272.5399
  31   1.0000     -10.015375      -272.5322
  32   1.0000      -7.790139      -211.9805
  33   1.0000      -7.789714      -211.9689
  34   1.0000      -7.784635      -211.8307
  35   1.0000      -7.784387      -211.8239
  36   1.0000      -7.783872      -211.8099
  37   1.0000      -7.783507      -211.8000
  38   1.0000      -7.782034      -211.7599
  39   1.0000      -7.781702      -211.7509
  40   1.0000      -7.695693      -209.4105
  41   1.0000      -7.695370      -209.4017
  42   1.0000      -7.693310      -209.3456
  43   1.0000      -7.692811      -209.3320
  44   1.0000      -5.755123      -156.6049
  45   1.0000      -5.754708      -156.5936
  46   1.0000      -5.751916      -156.5176
  47   1.0000      -5.751470      -156.5054
  48   1.0000      -5.749691      -156.4570
  49   1.0000      -5.749442      -156.4503
  50   1.0000      -5.748879      -156.4349
  51   1.0000      -5.748521      -156.4252
  52   1.0000      -5.746909      -156.3813
  53   1.0000      -5.746586      -156.3726
  54   1.0000      -5.745372      -156.3395
  55   1.0000      -5.745280      -156.3370
  56   1.0000      -5.745121      -156.3327
  57   1.0000      -5.744918      -156.3272
  58   1.0000      -5.744864      -156.3257
  59   1.0000      -5.744444      -156.3143
  60   1.0000      -5.742310      -156.2562
  61   1.0000      -5.741983      -156.2473
  62   1.0000      -5.740324      -156.2022
  63   1.0000      -5.740076      -156.1954
  64   1.0000      -5.738702      -156.1580
  65   1.0000      -5.738336      -156.1481
  66   1.0000      -5.737963      -156.1379
  67   1.0000      -5.737611      -156.1283
  68   1.0000      -5.660871      -154.0401
  69   1.0000      -5.660559      -154.0316
  70   1.0000      -5.658861      -153.9854
  71   1.0000      -5.658331      -153.9710
  72   1.0000      -5.654316      -153.8618
  73   1.0000      -5.654039      -153.8542
  74   1.0000      -5.653165      -153.8305
  75   1.0000      -5.652821      -153.8211
  76   1.0000      -5.651990      -153.7985
  77   1.0000      -5.651557      -153.7867
  78   1.0000      -5.650386      -153.7548
  79   1.0000      -5.649852      -153.7403
  80   1.0000      -2.446068       -66.5609
  81   1.0000      -1.483899       -40.3790
  82   1.0000      -1.476387       -40.1745
  83   1.0000      -1.475247       -40.1435
  84   1.0000      -0.709507       -19.3067
  85   1.0000      -0.709040       -19.2940
  86   1.0000      -0.685435       -18.6516
  87   1.0000      -0.685113       -18.6429
  88   1.0000      -0.643606       -17.5134
  89   1.0000      -0.631821       -17.1927
  90   1.0000      -0.631386       -17.1809
  91   1.0000      -0.616344       -16.7716
  92   1.0000      -0.615781       -16.7562
  93   1.0000      -0.574399       -15.6302
  94   1.0000      -0.574013       -15.6197
  95   1.0000      -0.572549       -15.5799
  96   1.0000      -0.571743       -15.5579
  97   1.0000      -0.498010       -13.5515
  98   1.0000      -0.497005       -13.5242
  99   1.0000      -0.494780       -13.4636
 100   1.0000      -0.492968       -13.4143
 101   1.0000      -0.479215       -13.0401
 102   1.0000      -0.476603       -12.9690
 103   1.0000      -0.446440       -12.1482
 104   1.0000      -0.444151       -12.0860
 105   1.0000      -0.416475       -11.3329
 106   1.0000      -0.410581       -11.1725
 107   1.0000      -0.354847        -9.6559
 108   1.0000      -0.354522        -9.6470
 109   1.0000      -0.326885        -8.8950
 110   1.0000      -0.326369        -8.8809
 111   1.0000      -0.318284        -8.6609
 112   1.0000      -0.313799        -8.5389
 113   1.0000      -0.304729        -8.2921
 114   1.0000      -0.303883        -8.2691
 115   1.0000      -0.291329        -7.9275
 116   1.0000      -0.290723        -7.9110
 117   1.0000      -0.258046        -7.0218
 118   1.0000      -0.256918        -6.9911
 119   1.0000      -0.255292        -6.9469
 120   1.0000      -0.255174        -6.9436
 121   1.0000      -0.234404        -6.3785
 122   1.0000      -0.233892        -6.3645
 123   1.0000      -0.230749        -6.2790
 124   1.0000      -0.229333        -6.2405
 125   1.0000      -0.219589        -5.9753
 126   1.0000      -0.217855        -5.9281
 127   1.0000      -0.213934        -5.8214
 128   1.0000      -0.211441        -5.7536
 129   1.0000      -0.193985        -5.2786
 130   1.0000      -0.187963        -5.1147
 131   1.0000      -0.187396        -5.0993
 132   1.0000      -0.181880        -4.9492
 133   1.0000      -0.178622        -4.8605
 134   1.0000      -0.158814        -4.3216
 135   1.0000      -0.152023        -4.1368
 136   1.0000      -0.146714        -3.9923
 137   1.0000      -0.135037        -3.6746
 138   1.0000      -0.133907        -3.6438
 139   1.0000      -0.131362        -3.5745
 140   1.0000      -0.120563        -3.2807
 141   1.0000      -0.118769        -3.2319
 142   1.0000      -0.106017        -2.8849
 143   1.0000      -0.103145        -2.8067
 144   1.0000      -0.098814        -2.6889
 145   1.0000      -0.097003        -2.6396
 146   1.0000      -0.095154        -2.5893
 147   1.0000      -0.092273        -2.5109
 148   1.0000      -0.074850        -2.0368
 149   1.0000      -0.067724        -1.8429
 150   1.0000      -0.066896        -1.8203
 151   1.0000      -0.050541        -1.3753
 152   1.0000      -0.045181        -1.2294
 153   1.0000      -0.040329        -1.0974
 154   1.0000      -0.036582        -0.9955
 155   1.0000      -0.029703        -0.8083
 156   1.0000      -0.024642        -0.6705
 157   1.0000      -0.016851        -0.4585
 158   1.0000      -0.014700        -0.4000
 159   1.0000       0.020495         0.5577
 160   1.0000       0.042092         1.1454
 161   0.0000       0.136555         3.7158
 162   0.0000       0.137126         3.7314
 163   0.0000       0.161325         4.3899
 164   0.0000       0.161702         4.4001
 165   0.0000       0.165103         4.4927

                 SPIN DOWN ORBITALS
  NO   OCC          E(Eh)            E(eV)
   0   1.0000    -196.679084     -5351.9100
   1   1.0000     -88.737299     -2414.6647
   2   1.0000     -88.736852     -2414.6525
   3   1.0000     -88.732502     -2414.5341
   4   1.0000     -88.732217     -2414.5264
   5   1.0000     -88.729932     -2414.4642
   6   1.0000     -88.729600     -2414.4552
   7   1.0000     -88.727690     -2414.4032
   8   1.0000     -88.727367     -2414.3944
   9   1.0000     -88.641282     -2412.0519
  10   1.0000     -88.641041     -2412.0454
  11   1.0000     -88.639647     -2412.0074
  12   1.0000     -88.639104     -2411.9926
  13   1.0000     -22.038699      -599.7035
  14   1.0000     -18.890141      -514.0269
  15   1.0000     -18.554813      -504.9021
  16   1.0000     -18.538984      -504.4714
  17   1.0000     -18.538796      -504.4663
  18   1.0000     -10.075514      -274.1687
  19   1.0000     -10.075470      -274.1675
  20   1.0000     -10.065353      -273.8922
  21   1.0000     -10.064832      -273.8780
  22   1.0000     -10.063325      -273.8370
  23   1.0000     -10.062905      -273.8256
  24   1.0000     -10.051641      -273.5190
  25   1.0000     -10.051206      -273.5072
  26   1.0000     -10.048474      -273.4329
  27   1.0000     -10.048439      -273.4319
  28   1.0000     -10.019453      -272.6432
  29   1.0000     -10.019338      -272.6400
  30   1.0000     -10.015416      -272.5333
  31   1.0000     -10.015128      -272.5255
  32   1.0000      -7.790140      -211.9805
  33   1.0000      -7.789714      -211.9689
  34   1.0000      -7.784644      -211.8309
  35   1.0000      -7.784396      -211.8242
  36   1.0000      -7.783873      -211.8100
  37   1.0000      -7.783508      -211.8000
  38   1.0000      -7.782045      -211.7602
  39   1.0000      -7.781712      -211.7511
  40   1.0000      -7.695819      -209.4139
  41   1.0000      -7.695498      -209.4051
  42   1.0000      -7.693467      -209.3499
  43   1.0000      -7.692958      -209.3360
  44   1.0000      -5.755124      -156.6049
  45   1.0000      -5.754708      -156.5936
  46   1.0000      -5.751917      -156.5176
  47   1.0000      -5.751470      -156.5054
  48   1.0000      -5.749702      -156.4574
  49   1.0000      -5.749454      -156.4506
  50   1.0000      -5.748880      -156.4350
  51   1.0000      -5.748522      -156.4252
  52   1.0000      -5.746918      -156.3816
  53   1.0000      -5.746595      -156.3728
  54   1.0000      -5.745387      -156.3399
  55   1.0000      -5.745282      -156.3371
  56   1.0000      -5.745137      -156.3331
  57   1.0000      -5.744919      -156.3272
  58   1.0000      -5.744864      -156.3257
  59   1.0000      -5.744444      -156.3143
  60   1.0000      -5.742323      -156.2565
  61   1.0000      -5.741995      -156.2476
  62   1.0000      -5.740330      -156.2023
  63   1.0000      -5.740083      -156.1956
  64   1.0000      -5.738704      -156.1581
  65   1.0000      -5.738338      -156.1481
  66   1.0000      -5.737972      -156.1382
  67   1.0000      -5.737617      -156.1285
  68   1.0000      -5.661010      -154.0439
  69   1.0000      -5.660694      -154.0353
  70   1.0000      -5.659024      -153.9899
  71   1.0000      -5.658485      -153.9752
  72   1.0000      -5.654627      -153.8702
  73   1.0000      -5.654399      -153.8640
  74   1.0000      -5.653286      -153.8337
  75   1.0000      -5.652905      -153.8234
  76   1.0000      -5.652447      -153.8109
  77   1.0000      -5.651999      -153.7987
  78   1.0000      -5.650511      -153.7582
  79   1.0000      -5.649954      -153.7431
  80   1.0000      -2.400141       -65.3111
  81   1.0000      -1.463129       -39.8138
  82   1.0000      -1.413047       -38.4510
  83   1.0000      -1.412769       -38.4434
  84   1.0000      -0.709484       -19.3060
  85   1.0000      -0.709027       -19.2936
  86   1.0000      -0.685386       -18.6503
  87   1.0000      -0.685075       -18.6419
  88   1.0000      -0.653287       -17.7768
  89   1.0000      -0.631774       -17.1914
  90   1.0000      -0.631340       -17.1796
  91   1.0000      -0.616343       -16.7716
  92   1.0000      -0.615782       -16.7563
  93   1.0000      -0.574384       -15.6298
  94   1.0000      -0.574003       -15.6194
  95   1.0000      -0.572486       -15.5781
  96   1.0000      -0.571683       -15.5563
  97   1.0000      -0.498024       -13.5519
  98   1.0000      -0.497031       -13.5249
  99   1.0000      -0.494876       -13.4663
 100   1.0000      -0.493046       -13.4165
 101   1.0000      -0.479418       -13.0456
 102   1.0000      -0.476874       -12.9764
 103   1.0000      -0.446477       -12.1493
 104   1.0000      -0.444212       -12.0876
 105   1.0000      -0.416517       -11.3340
 106   1.0000      -0.410742       -11.1768
 107   1.0000      -0.354841        -9.6557
 108   1.0000      -0.354520        -9.6470
 109   1.0000      -0.326874        -8.8947
 110   1.0000      -0.326370        -8.8810
 111   1.0000      -0.318210        -8.6589
 112   1.0000      -0.313832        -8.5398
 113   1.0000      -0.304684        -8.2909
 114   1.0000      -0.303865        -8.2686
 115   1.0000      -0.291317        -7.9271
 116   1.0000      -0.290718        -7.9108
 117   1.0000      -0.257911        -7.0181
 118   1.0000      -0.256819        -6.9884
 119   1.0000      -0.255255        -6.9458
 120   1.0000      -0.255154        -6.9431
 121   1.0000      -0.234360        -6.3773
 122   1.0000      -0.233881        -6.3642
 123   1.0000      -0.230695        -6.2775
 124   1.0000      -0.229304        -6.2397
 125   1.0000      -0.219227        -5.9655
 126   1.0000      -0.217756        -5.9255
 127   1.0000      -0.213731        -5.8159
 128   1.0000      -0.211306        -5.7499
 129   1.0000      -0.192330        -5.2336
 130   1.0000      -0.187872        -5.1122
 131   1.0000      -0.187302        -5.0968
 132   1.0000      -0.181492        -4.9386
 133   1.0000      -0.178510        -4.8575
 134   1.0000      -0.158262        -4.3065
 135   1.0000      -0.151837        -4.1317
 136   1.0000      -0.146633        -3.9901
 137   1.0000      -0.134845        -3.6693
 138   1.0000      -0.133474        -3.6320
 139   1.0000      -0.131167        -3.5692
 140   1.0000      -0.120256        -3.2723
 141   1.0000      -0.118647        -3.2286
 142   1.0000      -0.107800        -2.9334
 143   1.0000      -0.104492        -2.8434
 144   1.0000      -0.098888        -2.6909
 145   1.0000      -0.097140        -2.6433
 146   1.0000      -0.096191        -2.6175
 147   1.0000      -0.093272        -2.5381
 148   1.0000      -0.070954        -1.9308
 149   1.0000      -0.067686        -1.8418
 150   1.0000      -0.066769        -1.8169
 151   1.0000      -0.048470        -1.3189
 152   1.0000      -0.043893        -1.1944
 153   1.0000      -0.036942        -1.0052
 154   1.0000      -0.036612        -0.9963
 155   1.0000      -0.030079        -0.8185
 156   1.0000      -0.025137        -0.6840
 157   1.0000      -0.015413        -0.4194
 158   1.0000       0.020855         0.5675
 159   1.0000       0.040917         1.1134
 160   0.0000       0.136566         3.7161
 161   0.0000       0.137124         3.7313
 162   0.0000       0.154950         4.2164
 163   0.0000       0.161704         4.4002
 164   0.0000       0.163079         4.4376

MULLIKEN ATOMIC CHARGES AND SPIN POPULATIONS
--------------------------------------------
   0 V :    0.453083    1.235844
   1 S :   -0.318829   -0.018262
   2 S :   -0.317976   -0.021018
   3 S :   -0.255562   -0.030256
   4 S :   -0.248793   -0.032879
   5 O :   -0.468549   -0.165787
   6 C :   -0.132885    0.006791
   7 C :   -0.028869    0.010539
   8 C :   -0.141782    0.007152
   9 C :   -0.026183    0.007912
  10 S :    0.115526   -0.000122
  11 S :    0.084328   -0.000910
  12 S :    0.084679   -0.000833
  13 S :    0.114384    0.000243
  14 C :   -0.216686    0.001300
  15 C :   -0.213438    0.000912
  16 C :   -0.183614   -0.000040
  17 C :   -0.185611   -0.000374
  18 S :    0.008477   -0.000077
  19 S :    0.007258   -0.000136
  20 S :    0.007045   -0.000013
  21 S :    0.006123   -0.000125
  22 C :   -0.294397   -0.000002
  23 C :   -0.305961    0.000003
  24 C :   -0.159056   -0.000019
  25 H :    0.136075   -0.000002
  26 H :    0.109503   -0.000001
  27 H :    0.083697   -0.000000
  28 H :    0.092920    0.000000
  29 H :    0.116916   -0.000006
  30 H :    0.149975    0.000000
  31 C :   -0.293211    0.000149
  32 C :   -0.306466    0.000189
  33 C :   -0.158877   -0.000215
  34 H :    0.149527   -0.000018
  35 H :    0.116916    0.000026
  36 H :    0.092976    0.000020
  37 H :    0.083040    0.000014
  38 H :    0.109188    0.000012
  39 H :    0.135109   -0.000014
Sum of atomic charges         :   -2.0000000

LOEWDIN ATOMIC CHARGES AND SPIN POPULATIONS
-------------------------------------------
   0 V :   -0.140472    1.188430
   1 S :    0.063633   -0.011350
   2 S :    0.062519   -0.012860
   3 S :    0.097878   -0.020467
   4 S :    0.103360   -0.022130
   5 O :   -0.343667   -0.150196
   6 C :   -0.562145    0.008859
   7 C :   -0.537747    0.007571
   8 C :   -0.563189    0.009318
   9 C :   -0.539178    0.005941
  10 S :    0.492379   -0.000943
  11 S :    0.448883   -0.000833
  12 S :    0.449230   -0.000868
  13 S :    0.490865   -0.000724
  14 C :   -0.465497    0.000082
  15 C :   -0.465590   -0.000137
  16 C :   -0.620729    0.000442
  17 C :   -0.620465    0.000105
  18 S :    0.350616   -0.000050
  19 S :    0.367599   -0.000117
  20 S :    0.350556   -0.000022
  21 S :    0.364983   -0.000121
  22 C :   -0.285188   -0.000004
  23 C :   -0.281565   -0.000009
  24 C :   -0.176686   -0.000002
  25 H :    0.060201   -0.000002
  26 H :    0.054111   -0.000003
  27 H :    0.058014   -0.000001
  28 H :    0.060147   -0.000000
  29 H :    0.053793   -0.000001
  30 H :    0.066107   -0.000001
  31 C :   -0.285918    0.000023
  32 C :   -0.281722    0.000043
  33 C :   -0.176770    0.000006
  34 H :    0.065934    0.000000
  35 H :    0.053715    0.000012
  36 H :    0.060192    0.000004
  37 H :    0.057911    0.000001
  38 H :    0.054157    0.000003
  39 H :    0.059745   -0.000001

  Mayer bond orders larger than 0.100000
B(  0-V ,  1-S ) :   0.7761 B(  0-V ,  2-S ) :   0.7737 B(  0-V ,  3-S ) :   0.7689
B(  0-V ,  4-S ) :   0.7945 B(  0-V ,  5-O ) :   2.1439 B(  1-S ,  8-C ) :   1.0934
B(  2-S ,  6-C ) :   1.0934 B(  3-S ,  9-C ) :   1.1063 B(  4-S ,  7-C ) :   1.1003
B(  6-C ,  7-C ) :   1.6818 B(  6-C , 10-S ) :   0.9662 B(  7-C , 11-S ) :   0.9069
B(  8-C ,  9-C ) :   1.6913 B(  8-C , 13-S ) :   0.9654 B(  9-C , 12-S ) :   0.9048
B( 10-S , 14-C ) :   1.2512 B( 11-S , 14-C ) :   1.2374 B( 12-S , 15-C ) :   1.2357
B( 13-S , 15-C ) :   1.2499 B( 14-C , 16-C ) :   1.4514 B( 15-C , 17-C ) :   1.4538
B( 16-C , 18-S ) :   1.0884 B( 16-C , 19-S ) :   1.0785 B( 17-C , 20-S ) :   1.0888
B( 17-C , 21-S ) :   1.0785 B( 18-S , 32-C ) :   0.9849 B( 19-S , 31-C ) :   0.9928
B( 20-S , 23-C ) :   0.9845 B( 21-S , 22-C ) :   0.9923 B( 22-C , 24-C ) :   0.9170
B( 22-C , 25-H ) :   0.9631 B( 22-C , 26-H ) :   0.9658 B( 23-C , 24-C ) :   0.9084
B( 23-C , 29-H ) :   0.9646 B( 23-C , 30-H ) :   0.9678 B( 24-C , 27-H ) :   0.9624
B( 24-C , 28-H ) :   0.9722 B( 31-C , 33-C ) :   0.9174 B( 31-C , 38-H ) :   0.9658
B( 31-C , 39-H ) :   0.9633 B( 32-C , 33-C ) :   0.9083 B( 32-C , 34-H ) :   0.9681
B( 32-C , 35-H ) :   0.9643 B( 33-C , 36-H ) :   0.9722 B( 33-C , 37-H ) :   0.9623

FINAL SINGLE POINT ENERGY     -6337.687799498528

DIPOLE MOMENT
-------------
                                X             Y             Z
Electronic contribution:     -6.06920     -11.56150      -3.97004
Nuclear contribution   :      7.00113      12.79217       4.32694
                        -----------------------------------------
Total Dipole Moment    :      0.93193       1.23067       0.35690
                        -----------------------------------------
Magnitude (a.u.)       :      1.58443
Magnitude (Debye)      :      4.02731

Rotational constants in cm-1:     0.010750     0.000804     0.000783
Rotational constants in MHz :   322.269801    24.112342    23.484412

                             ****ORCA TERMINATED NORMALLY****
TOTAL RUN TIME: 0 days 1 hours 2 minutes 52 seconds 982 msec
