                         Program Version 5.0.4 -  RELEASE  -
|  1> ! nofrozencore ReducedPop printbasis
|  2> ! B3LYP TZVP
|  3>
|  4> %basis
|  5> newgto V "CP(PPP)" end
|  6> end
|  7>
|  8> %pal
|  9> nprocs 6
| 10> end
| 11>
| 12> % sym SymThresh 1e-2 end
| 13> * xyz -2 2
| 14> V -0.1713714772023318 1.082390108720806 -0.19164450637013436
| 15> S -1.375573741846155 0.7826733652817018 1.9478578463245162
| 16> S 1.8947116668325832 0.8743001187573526 1.1555952510794483
| 17> S -2.1072558627573788 -0.05195796114677452 -1.2380961516021793
| 18> S 1.1069572629415643 -0.03840123484052021 -1.978989653763921
| 19> O -0.2695531336657323 2.6236119658158645 -0.5750804483520554
| 20> C 3.0548717178449496 0.6163703305869113 -0.14040899271851648
| 21> C 2.739124722081329 0.24757132783922609 -1.3944875691990977
| 22> C -2.9393236394880606 0.21093931398360136 1.3820549731149587
| 23> C -3.22966020003398 -0.12478119692351565 0.1110027178757692
| 24> S 4.807233382194064 0.7771752387406133 0.22527429895241066
| 25> S 4.1107732323360295 -0.04579888166740718 -2.5148243216253903
| 26> S -4.889895153320783 -0.7355477893345874 -0.1967109098827912
| 27> S -4.2589336333762216 0.004567108587638022 2.583125197624956
| 28> C 5.417378331339733 0.3061861084039386 -1.3712488655631343
| 29> C -5.457090838478949 -0.6690016455478813 1.4738707405102924
| 30> C 6.736775841865062 0.24575073438850548 -1.6920790415724671
| 31> C -6.703502072753955 -1.0829866139480866 1.866169858349904
| 32> S 8.023833943506672 0.6391793375113516 -0.5114442569495926
| 33> S 7.292506873867784 -0.26907698083376713 -3.314514034996612
| 34> S -7.226889817175927 -1.0084776815389818 3.564751724095896
| 35> S -7.864698405398775 -1.7841338696073108 0.7140776539922151
| 36> C -8.01607636758452 -3.4737008965961276 1.4468663806458557
| 37> C -7.479421588646724 -2.8131353170604902 3.872886884033445
| 38> C -8.407756617383022 -3.500658416630307 2.9035551407303117
| 39> H -7.000247850109558 -3.8631033122372256 1.307556477500037
| 40> H -8.701943263631154 -4.079754926122157 0.8445811892052733
| 41> H -8.622834239484419 -4.530049019848751 3.232123540474983
| 42> H -9.357023496613918 -2.9491550732751928 2.9631256685805982
| 43> H -7.806358041462422 -2.970095443112968 4.906725869680572
| 44> H -6.456812485907712 -3.196735319321105 3.773310884942463
| 45> C 8.073269866797453 1.3519247558628729 -3.798720359671313
| 46> C 8.688448112300415 2.1265153199110514 -1.4185295705148175
| 47> C 9.30408595863895 1.6803738879093468 -2.826605741812421
| 48> H 8.158143579687538 3.1265256021196484 -1.541443882359775
| 49> H 9.550464376611245 2.2452640960820656 -0.7132716394693839
| 50> H 10.197869271246182 1.0248851546924163 -2.8437852162079613
| 51> H 9.581304660245966 2.700540909751181 -3.2284988983685925
| 52> H 8.509353705963377 0.9282212256101547 -4.7395209476742615
| 53> H 7.515475371334284 2.3143410273082305 -4.039122194450508
| 54> *
| 55>
| 56> % eprnmr
| 57> gtensor true
| 58> Nuclei = all H {aiso,adip,aorb,fgrad,rho}
| 59> Nuclei = all V {aiso,adip,aorb,fgrad,rho}
| 60> end
| 61>
| 62>                          ****END OF INPUT****

CARTESIAN COORDINATES (ANGSTROEM)
---------------------------------
  V     -0.168748    1.079598   -0.191512
  S     -1.372950    0.779881    1.947991
  S      1.897335    0.871508    1.155728
  S     -2.104632   -0.054750   -1.237963
  S      1.109581   -0.041193   -1.978857
  O     -0.266930    2.620820   -0.574948
  C      3.057495    0.613578   -0.140276
  C      2.741748    0.244779   -1.394355
  C     -2.936700    0.208147    1.382188
  C     -3.227037   -0.127573    0.111136
  S      4.809857    0.774383    0.225407
  S      4.113397   -0.048591   -2.514691
  S     -4.887272   -0.738340   -0.196578
  S     -4.256310    0.001775    2.583258
  C      5.420002    0.303394   -1.371116
  C     -5.454467   -0.671794    1.474004
  C      6.739399    0.242958   -1.691946
  C     -6.700879   -1.085779    1.866303
  S      8.026457    0.636387   -0.511311
  S      7.295130   -0.271869   -3.314381
  S     -7.224266   -1.011270    3.564885
  S     -7.862075   -1.786926    0.714211
  C     -8.013453   -3.476493    1.446999
  C     -7.476798   -2.815928    3.873020
  C     -8.405133   -3.503451    2.903688
  H     -6.997624   -3.865896    1.307689
  H     -8.699320   -4.082547    0.844714
  H     -8.620211   -4.532841    3.232256
  H     -9.354400   -2.951947    2.963259
  H     -7.803734   -2.972888    4.906859
  H     -6.454189   -3.199528    3.773444
  C      8.075893    1.349132   -3.798587
  C      8.691072    2.123723   -1.418397
  C      9.306710    1.677582   -2.826473
  H      8.160767    3.123733   -1.541311
  H      9.553088    2.242472   -0.713139
  H     10.200493    1.022093   -2.843652
  H      9.583928    2.697749   -3.228366
  H      8.511977    0.925429   -4.739388
  H      7.518099    2.311549   -4.038989

 Total Charge           Charge          ....   -2
 Multiplicity           Mult            ....    2
 Number of Electrons    NEL             ....  321
 Basis Dimension        Dim             ....  681

ORBITAL ENERGIES
----------------
                 SPIN UP ORBITALS
  NO   OCC          E(Eh)            E(eV)
   0   1.0000    -196.674547     -5351.7865
   1   1.0000     -88.738380     -2414.6941
   2   1.0000     -88.738311     -2414.6922
   3   1.0000     -88.732248     -2414.5272
   4   1.0000     -88.732138     -2414.5242
   5   1.0000     -88.730729     -2414.4859
   6   1.0000     -88.730683     -2414.4846
   7   1.0000     -88.728496     -2414.4251
   8   1.0000     -88.728369     -2414.4217
   9   1.0000     -88.639718     -2412.0094
  10   1.0000     -88.639175     -2411.9946
  11   1.0000     -88.638901     -2411.9871
  12   1.0000     -88.638679     -2411.9811
  13   1.0000     -22.049937      -600.0093
  14   1.0000     -18.889269      -514.0031
  15   1.0000     -18.556384      -504.9449
  16   1.0000     -18.551213      -504.8042
  17   1.0000     -18.551116      -504.8015
  18   1.0000     -10.076689      -274.2006
  19   1.0000     -10.076011      -274.1822
  20   1.0000     -10.075985      -274.1815
  21   1.0000     -10.073674      -274.1186
  22   1.0000     -10.063954      -273.8541
  23   1.0000     -10.061775      -273.7948
  24   1.0000     -10.061763      -273.7945
  25   1.0000     -10.049197      -273.4526
  26   1.0000     -10.048504      -273.4337
  27   1.0000     -10.046040      -273.3666
  28   1.0000     -10.018185      -272.6087
  29   1.0000     -10.017395      -272.5872
  30   1.0000     -10.016860      -272.5726
  31   1.0000     -10.015915      -272.5469
  32   1.0000      -7.791167      -212.0084
  33   1.0000      -7.791125      -212.0073
  34   1.0000      -7.785859      -211.8640
  35   1.0000      -7.785756      -211.8612
  36   1.0000      -7.784010      -211.8137
  37   1.0000      -7.783991      -211.8132
  38   1.0000      -7.781692      -211.7506
  39   1.0000      -7.781605      -211.7482
  40   1.0000      -7.693984      -209.3640
  41   1.0000      -7.693540      -209.3519
  42   1.0000      -7.693232      -209.3435
  43   1.0000      -7.692939      -209.3355
  44   1.0000      -5.756147      -156.6327
  45   1.0000      -5.756102      -156.6315
  46   1.0000      -5.752873      -156.5436
  47   1.0000      -5.752822      -156.5423
  48   1.0000      -5.750868      -156.4891
  49   1.0000      -5.750756      -156.4860
  50   1.0000      -5.748958      -156.4371
  51   1.0000      -5.748936      -156.4365
  52   1.0000      -5.747410      -156.3950
  53   1.0000      -5.747313      -156.3923
  54   1.0000      -5.746643      -156.3741
  55   1.0000      -5.746544      -156.3714
  56   1.0000      -5.745958      -156.3555
  57   1.0000      -5.745915      -156.3543
  58   1.0000      -5.744520      -156.3163
  59   1.0000      -5.744496      -156.3157
  60   1.0000      -5.742210      -156.2535
  61   1.0000      -5.742121      -156.2510
  62   1.0000      -5.740614      -156.2101
  63   1.0000      -5.740510      -156.2072
  64   1.0000      -5.739825      -156.1886
  65   1.0000      -5.739821      -156.1885
  66   1.0000      -5.737518      -156.1258
  67   1.0000      -5.737441      -156.1237
  68   1.0000      -5.659307      -153.9976
  69   1.0000      -5.658853      -153.9852
  70   1.0000      -5.658532      -153.9765
  71   1.0000      -5.658264      -153.9692
  72   1.0000      -5.652641      -153.8162
  73   1.0000      -5.652190      -153.8039
  74   1.0000      -5.651888      -153.7957
  75   1.0000      -5.651612      -153.7882
  76   1.0000      -5.651308      -153.7799
  77   1.0000      -5.650841      -153.7672
  78   1.0000      -5.650545      -153.7591
  79   1.0000      -5.650237      -153.7508
  80   1.0000      -2.443446       -66.4895
  81   1.0000      -1.484481       -40.3948
  82   1.0000      -1.473123       -40.0857
  83   1.0000      -1.472316       -40.0638
  84   1.0000      -0.711458       -19.3598
  85   1.0000      -0.705230       -19.1903
  86   1.0000      -0.687957       -18.7203
  87   1.0000      -0.677265       -18.4293
  88   1.0000      -0.648748       -17.6533
  89   1.0000      -0.632672       -17.2159
  90   1.0000      -0.624808       -17.0019
  91   1.0000      -0.618718       -16.8362
  92   1.0000      -0.612417       -16.6647
  93   1.0000      -0.575199       -15.6520
  94   1.0000      -0.573750       -15.6125
  95   1.0000      -0.572141       -15.5687
  96   1.0000      -0.570195       -15.5158
  97   1.0000      -0.496504       -13.5106
  98   1.0000      -0.496442       -13.5089
  99   1.0000      -0.494329       -13.4514
 100   1.0000      -0.489901       -13.3309
 101   1.0000      -0.479117       -13.0374
 102   1.0000      -0.475058       -12.9270
 103   1.0000      -0.445228       -12.1153
 104   1.0000      -0.441070       -12.0021
 105   1.0000      -0.415667       -11.3109
 106   1.0000      -0.410589       -11.1727
 107   1.0000      -0.358934        -9.7671
 108   1.0000      -0.352277        -9.5860
 109   1.0000      -0.332778        -9.0553
 110   1.0000      -0.319417        -8.6918
 111   1.0000      -0.315120        -8.5748
 112   1.0000      -0.309237        -8.4148
 113   1.0000      -0.303535        -8.2596
 114   1.0000      -0.297485        -8.0950
 115   1.0000      -0.293793        -7.9945
 116   1.0000      -0.286002        -7.7825
 117   1.0000      -0.259356        -7.0574
 118   1.0000      -0.258694        -7.0394
 119   1.0000      -0.252153        -6.8614
 120   1.0000      -0.241388        -6.5685
 121   1.0000      -0.241080        -6.5601
 122   1.0000      -0.236794        -6.4435
 123   1.0000      -0.232744        -6.3333
 124   1.0000      -0.220260        -5.9936
 125   1.0000      -0.216669        -5.8959
 126   1.0000      -0.212931        -5.7941
 127   1.0000      -0.208245        -5.6666
 128   1.0000      -0.207550        -5.6477
 129   1.0000      -0.192130        -5.2281
 130   1.0000      -0.189229        -5.1492
 131   1.0000      -0.185848        -5.0572
 132   1.0000      -0.184045        -5.0081
 133   1.0000      -0.179062        -4.8725
 134   1.0000      -0.159013        -4.3270
 135   1.0000      -0.151191        -4.1141
 136   1.0000      -0.145752        -3.9661
 137   1.0000      -0.136019        -3.7013
 138   1.0000      -0.132417        -3.6033
 139   1.0000      -0.131021        -3.5653
 140   1.0000      -0.123506        -3.3608
 141   1.0000      -0.120385        -3.2758
 142   1.0000      -0.112243        -3.0543
 143   1.0000      -0.107806        -2.9335
 144   1.0000      -0.099476        -2.7069
 145   1.0000      -0.097460        -2.6520
 146   1.0000      -0.096859        -2.6357
 147   1.0000      -0.094623        -2.5748
 148   1.0000      -0.074004        -2.0138
 149   1.0000      -0.069241        -1.8841
 150   1.0000      -0.066334        -1.8050
 151   1.0000      -0.051820        -1.4101
 152   1.0000      -0.045087        -1.2269
 153   1.0000      -0.037675        -1.0252
 154   1.0000      -0.036622        -0.9965
 155   1.0000      -0.031192        -0.8488
 156   1.0000      -0.024432        -0.6648
 157   1.0000      -0.018658        -0.5077
 158   1.0000      -0.014741        -0.4011
 159   1.0000       0.020907         0.5689
 160   1.0000       0.041792         1.1372
 161   0.0000       0.132988         3.6188
 162   0.0000       0.137208         3.7336
 163   0.0000       0.158360         4.3092
 164   0.0000       0.160781         4.3751
 165   0.0000       0.161053         4.3825

                 SPIN DOWN ORBITALS
  NO   OCC          E(Eh)            E(eV)
   0   1.0000    -196.674693     -5351.7905
   1   1.0000     -88.738381     -2414.6941
   2   1.0000     -88.738312     -2414.6922
   3   1.0000     -88.732248     -2414.5272
   4   1.0000     -88.732139     -2414.5243
   5   1.0000     -88.730738     -2414.4861
   6   1.0000     -88.730691     -2414.4848
   7   1.0000     -88.728504     -2414.4253
   8   1.0000     -88.728378     -2414.4219
   9   1.0000     -88.639855     -2412.0131
  10   1.0000     -88.639314     -2411.9984
  11   1.0000     -88.639042     -2411.9910
  12   1.0000     -88.638821     -2411.9849
  13   1.0000     -22.034990      -599.6026
  14   1.0000     -18.893074      -514.1067
  15   1.0000     -18.551101      -504.8011
  16   1.0000     -18.535168      -504.3676
  17   1.0000     -18.534987      -504.3626
  18   1.0000     -10.076688      -274.2006
  19   1.0000     -10.076010      -274.1822
  20   1.0000     -10.075984      -274.1815
  21   1.0000     -10.073670      -274.1185
  22   1.0000     -10.063954      -273.8541
  23   1.0000     -10.061775      -273.7948
  24   1.0000     -10.061764      -273.7945
  25   1.0000     -10.049193      -273.4524
  26   1.0000     -10.048504      -273.4337
  27   1.0000     -10.046029      -273.3663
  28   1.0000     -10.017971      -272.6029
  29   1.0000     -10.017183      -272.5814
  30   1.0000     -10.016621      -272.5661
  31   1.0000     -10.015691      -272.5408
  32   1.0000      -7.791168      -212.0085
  33   1.0000      -7.791125      -212.0073
  34   1.0000      -7.785860      -211.8640
  35   1.0000      -7.785756      -211.8612
  36   1.0000      -7.784019      -211.8139
  37   1.0000      -7.784001      -211.8134
  38   1.0000      -7.781702      -211.7509
  39   1.0000      -7.781614      -211.7485
  40   1.0000      -7.694112      -209.3674
  41   1.0000      -7.693669      -209.3554
  42   1.0000      -7.693363      -209.3470
  43   1.0000      -7.693072      -209.3391
  44   1.0000      -5.756149      -156.6328
  45   1.0000      -5.756103      -156.6315
  46   1.0000      -5.752874      -156.5437
  47   1.0000      -5.752824      -156.5423
  48   1.0000      -5.750868      -156.4891
  49   1.0000      -5.750757      -156.4861
  50   1.0000      -5.748968      -156.4374
  51   1.0000      -5.748947      -156.4368
  52   1.0000      -5.747411      -156.3950
  53   1.0000      -5.747314      -156.3924
  54   1.0000      -5.746653      -156.3744
  55   1.0000      -5.746554      -156.3717
  56   1.0000      -5.745959      -156.3555
  57   1.0000      -5.745916      -156.3543
  58   1.0000      -5.744534      -156.3167
  59   1.0000      -5.744510      -156.3161
  60   1.0000      -5.742224      -156.2539
  61   1.0000      -5.742134      -156.2514
  62   1.0000      -5.740615      -156.2101
  63   1.0000      -5.740511      -156.2072
  64   1.0000      -5.739831      -156.1887
  65   1.0000      -5.739827      -156.1886
  66   1.0000      -5.737526      -156.1260
  67   1.0000      -5.737449      -156.1239
  68   1.0000      -5.659449      -154.0014
  69   1.0000      -5.658995      -153.9891
  70   1.0000      -5.658672      -153.9803
  71   1.0000      -5.658406      -153.9731
  72   1.0000      -5.652990      -153.8257
  73   1.0000      -5.652550      -153.8137
  74   1.0000      -5.652277      -153.8063
  75   1.0000      -5.651997      -153.7987
  76   1.0000      -5.651413      -153.7828
  77   1.0000      -5.650947      -153.7701
  78   1.0000      -5.650632      -153.7615
  79   1.0000      -5.650331      -153.7533
  80   1.0000      -2.398513       -65.2669
  81   1.0000      -1.465119       -39.8679
  82   1.0000      -1.410711       -38.3874
  83   1.0000      -1.410547       -38.3829
  84   1.0000      -0.711446       -19.3594
  85   1.0000      -0.705196       -19.1894
  86   1.0000      -0.687913       -18.7191
  87   1.0000      -0.677209       -18.4278
  88   1.0000      -0.656942       -17.8763
  89   1.0000      -0.632616       -17.2144
  90   1.0000      -0.624732       -16.9998
  91   1.0000      -0.618720       -16.8362
  92   1.0000      -0.612417       -16.6647
  93   1.0000      -0.575176       -15.6513
  94   1.0000      -0.573682       -15.6107
  95   1.0000      -0.572110       -15.5679
  96   1.0000      -0.570120       -15.5138
  97   1.0000      -0.496523       -13.5111
  98   1.0000      -0.496484       -13.5100
  99   1.0000      -0.494357       -13.4521
 100   1.0000      -0.489989       -13.3333
 101   1.0000      -0.479314       -13.0428
 102   1.0000      -0.475264       -12.9326
 103   1.0000      -0.445256       -12.1160
 104   1.0000      -0.441110       -12.0032
 105   1.0000      -0.415664       -11.3108
 106   1.0000      -0.410697       -11.1756
 107   1.0000      -0.358925        -9.7668
 108   1.0000      -0.352272        -9.5858
 109   1.0000      -0.332769        -9.0551
 110   1.0000      -0.319346        -8.6898
 111   1.0000      -0.315146        -8.5756
 112   1.0000      -0.309187        -8.4134
 113   1.0000      -0.303500        -8.2587
 114   1.0000      -0.297472        -8.0946
 115   1.0000      -0.293794        -7.9945
 116   1.0000      -0.285963        -7.7814
 117   1.0000      -0.259252        -7.0546
 118   1.0000      -0.258639        -7.0379
 119   1.0000      -0.252083        -6.8595
 120   1.0000      -0.241346        -6.5673
 121   1.0000      -0.241046        -6.5592
 122   1.0000      -0.236752        -6.4423
 123   1.0000      -0.232684        -6.3317
 124   1.0000      -0.220059        -5.9881
 125   1.0000      -0.216346        -5.8871
 126   1.0000      -0.212694        -5.7877
 127   1.0000      -0.208186        -5.6650
 128   1.0000      -0.207526        -5.6471
 129   1.0000      -0.190318        -5.1788
 130   1.0000      -0.189018        -5.1434
 131   1.0000      -0.185669        -5.0523
 132   1.0000      -0.183919        -5.0047
 133   1.0000      -0.178902        -4.8682
 134   1.0000      -0.158414        -4.3107
 135   1.0000      -0.151018        -4.1094
 136   1.0000      -0.145673        -3.9640
 137   1.0000      -0.135618        -3.6903
 138   1.0000      -0.132200        -3.5973
 139   1.0000      -0.130260        -3.5446
 140   1.0000      -0.123151        -3.3511
 141   1.0000      -0.120047        -3.2667
 142   1.0000      -0.114050        -3.1035
 143   1.0000      -0.109404        -2.9770
 144   1.0000      -0.099553        -2.7090
 145   1.0000      -0.097523        -2.6537
 146   1.0000      -0.097111        -2.6425
 147   1.0000      -0.094871        -2.5816
 148   1.0000      -0.070162        -1.9092
 149   1.0000      -0.069240        -1.8841
 150   1.0000      -0.066327        -1.8049
 151   1.0000      -0.049212        -1.3391
 152   1.0000      -0.044146        -1.2013
 153   1.0000      -0.037744        -1.0271
 154   1.0000      -0.036069        -0.9815
 155   1.0000      -0.031249        -0.8503
 156   1.0000      -0.025482        -0.6934
 157   1.0000      -0.014959        -0.4070
 158   1.0000       0.021210         0.5771
 159   1.0000       0.040673         1.1068
 160   0.0000       0.132997         3.6190
 161   0.0000       0.137202         3.7335
 162   0.0000       0.156084         4.2473
 163   0.0000       0.158550         4.3144
 164   0.0000       0.160950         4.3797

MULLIKEN ATOMIC CHARGES AND SPIN POPULATIONS
--------------------------------------------
   0 V :    0.470648    1.211790
   1 S :   -0.290319   -0.022404
   2 S :   -0.290315   -0.025372
   3 S :   -0.288465   -0.023353
   4 S :   -0.286060   -0.025841
   5 O :   -0.468842   -0.147599
   6 C :   -0.077201    0.009708
   7 C :   -0.084365    0.008066
   8 C :   -0.084322    0.007748
   9 C :   -0.084691    0.007395
  10 S :    0.096696   -0.000562
  11 S :    0.098547   -0.000607
  12 S :    0.101915   -0.000392
  13 S :    0.100875   -0.000344
  14 C :   -0.231345    0.001543
  15 C :   -0.205125    0.000999
  16 C :   -0.170430   -0.000119
  17 C :   -0.202833   -0.000402
  18 S :    0.008179   -0.000128
  19 S :    0.008366   -0.000128
  20 S :    0.008111   -0.000066
  21 S :    0.008000   -0.000068
  22 C :   -0.313744   -0.000001
  23 C :   -0.312857   -0.000001
  24 C :   -0.146416   -0.000013
  25 H :    0.145482   -0.000001
  26 H :    0.119612   -0.000003
  27 H :    0.086320   -0.000001
  28 H :    0.086018   -0.000001
  29 H :    0.119274   -0.000004
  30 H :    0.144826   -0.000001
  31 C :   -0.249480    0.000167
  32 C :   -0.250174    0.000163
  33 C :   -0.183734   -0.000188
  34 H :    0.132409   -0.000012
  35 H :    0.085837    0.000009
  36 H :    0.111740    0.000004
  37 H :    0.069529    0.000021
  38 H :    0.085617    0.000010
  39 H :    0.132717   -0.000012
Sum of atomic charges         :   -2.0000000

LOEWDIN ATOMIC CHARGES AND SPIN POPULATIONS
-------------------------------------------
   0 V :   -0.155478    1.165101
   1 S :    0.080440   -0.014433
   2 S :    0.079035   -0.016215
   3 S :    0.081721   -0.015232
   4 S :    0.082927   -0.016434
   5 O :   -0.320976   -0.132494
   6 C :   -0.550172    0.009060
   7 C :   -0.552412    0.007960
   8 C :   -0.552221    0.008141
   9 C :   -0.552237    0.007674
  10 S :    0.466544   -0.000882
  11 S :    0.467925   -0.000934
  12 S :    0.473882   -0.000824
  13 S :    0.472977   -0.000830
  14 C :   -0.462880    0.000130
  15 C :   -0.465903   -0.000080
  16 C :   -0.619046    0.000469
  17 C :   -0.624709    0.000086
  18 S :    0.364893   -0.000104
  19 S :    0.366173   -0.000101
  20 S :    0.359277   -0.000071
  21 S :    0.358871   -0.000073
  22 C :   -0.287516   -0.000007
  23 C :   -0.287516   -0.000009
  24 C :   -0.182138   -0.000002
  25 H :    0.062169   -0.000001
  26 H :    0.057514   -0.000002
  27 H :    0.060191   -0.000002
  28 H :    0.059790   -0.000001
  29 H :    0.057451   -0.000002
  30 H :    0.061988   -0.000001
  31 C :   -0.291780    0.000050
  32 C :   -0.291409    0.000043
  33 C :   -0.180157    0.000006
  34 H :    0.071760   -0.000000
  35 H :    0.048514    0.000005
  36 H :    0.066562    0.000002
  37 H :    0.055815    0.000002
  38 H :    0.048630    0.000005
  39 H :    0.071502    0.000000

  Mayer bond orders larger than 0.100000
B(  0-V ,  1-S ) :   0.7708 B(  0-V ,  2-S ) :   0.7727 B(  0-V ,  3-S ) :   0.7642
B(  0-V ,  4-S ) :   0.7801 B(  0-V ,  5-O ) :   2.1475 B(  1-S ,  8-C ) :   1.1041
B(  2-S ,  6-C ) :   1.1032 B(  3-S ,  9-C ) :   1.1069 B(  4-S ,  7-C ) :   1.1034
B(  6-C ,  7-C ) :   1.6885 B(  6-C , 10-S ) :   0.9351 B(  7-C , 11-S ) :   0.9392
B(  8-C ,  9-C ) :   1.6959 B(  8-C , 13-S ) :   0.9344 B(  9-C , 12-S ) :   0.9362
B( 10-S , 14-C ) :   1.2477 B( 11-S , 14-C ) :   1.2477 B( 12-S , 15-C ) :   1.2473
B( 13-S , 15-C ) :   1.2473 B( 14-C , 16-C ) :   1.4991 B( 15-C , 17-C ) :   1.4314
B( 16-C , 18-S ) :   1.0666 B( 16-C , 19-S ) :   1.0673 B( 17-C , 20-S ) :   1.0962
B( 17-C , 21-S ) :   1.0964 B( 18-S , 32-C ) :   0.9888 B( 19-S , 31-C ) :   0.9889
B( 20-S , 23-C ) :   0.9757 B( 21-S , 22-C ) :   0.9748 B( 22-C , 24-C ) :   0.9067
B( 22-C , 25-H ) :   0.9803 B( 22-C , 26-H ) :   0.9607 B( 23-C , 24-C ) :   0.9077
B( 23-C , 29-H ) :   0.9607 B( 23-C , 30-H ) :   0.9800 B( 24-C , 27-H ) :   0.9520
B( 24-C , 28-H ) :   0.9771 B( 31-C , 33-C ) :   0.9391 B( 31-C , 38-H ) :   0.9776
B( 31-C , 39-H ) :   0.9253 B( 32-C , 33-C ) :   0.9390 B( 32-C , 34-H ) :   0.9252
B( 32-C , 35-H ) :   0.9776 B( 33-C , 36-H ) :   0.9426 B( 33-C , 37-H ) :   0.9898

FINAL SINGLE POINT ENERGY     -6337.659681540523

DIPOLE MOMENT
-------------
                                X             Y             Z
Electronic contribution:     -5.30340      12.08745      -0.69259
Nuclear contribution   :      6.04219     -13.63581       0.79240
                        -----------------------------------------
Total Dipole Moment    :      0.73879      -1.54836       0.09981
                        -----------------------------------------
Magnitude (a.u.)       :      1.71849
Magnitude (Debye)      :      4.36805

Rotational constants in cm-1:     0.010738     0.000804     0.000783
Rotational constants in MHz :   321.904459    24.113813    23.486441

                             ****ORCA TERMINATED NORMALLY****
TOTAL RUN TIME: 0 days 1 hours 6 minutes 14 seconds 799 msec
