                         Program Version 5.0.4 -  RELEASE  -
|  1> ! nofrozencore ReducedPop printbasis
|  2> ! B3LYP TZVP
|  3>
|  4> %basis
|  5> newgto V "CP(PPP)" end
|  6> end
|  7>
|  8> %pal
|  9> nprocs 8
| 10> end
| 11>
| 12> % sym SymThresh 1e-2 end
| 13> * xyz -2 2
| 14> V 0.9043208793983859 -0.43755934626031073 -0.4783066582291949
| 15> S 0.6644216164617154 -1.8949867667438718 1.5051669392011002
| 16> S -1.0698562349741005 -1.6341372879665357 -1.3679997041225624
| 17> S 1.7876856475474405 1.2588917050820383 1.0929296918615248
| 18> S 0.017275549715931218 1.5249832491424535 -1.6772457061450297
| 19> O 2.1375831159679417 -0.9842800644677939 -1.3174421063948356
| 20> C -1.5008398071763132 -0.5443471155138712 -2.676861434632861
| 21> C -1.0706252618999417 0.7226442595939669 -2.797154460465594
| 22> C 1.501802408438878 -0.947922656495155 2.7272335551355615
| 23> C 1.9461241769164483 0.31155768789099064 2.5631478741304212
| 24> S -2.628097769712473 -1.1041307597456103 -3.9529087346995384
| 25> S -1.703605891706291 1.6328104294326784 -4.202540452429754
| 26> S 2.7217849703922985 1.0793681175618706 3.989540636395441
| 27> S 1.7544120739775098 -1.6783890196424356 4.349062597464267
| 28> C -2.9294423228318727 0.4632111202574131 -4.72237314978828
| 29> C 2.4979695214113704 -0.2674665113828104 5.11129222329956
| 30> C -3.357416091085482 0.4940502235458553 -6.08195008694453
| 31> C 2.8634118554352446 -0.22299169323830206 6.428170433875692
| 32> S -4.5300629986805765 -0.7802955508527507 -6.62359335485532
| 33> S -3.5933258220979853 2.127371943675478 -6.836745486193504
| 34> S 2.6142863959583234 -1.6072867541754616 7.522493553585496
| 35> S 3.590739820790581 1.2336170820711798 7.154306424253859
| 36> C 2.2608065350578674 1.6084340466572433 8.386608107972046
| 37> C 1.4347143664210207 -0.80697201009918 8.703989464302655
| 38> C 1.9848279866708365 0.461100671643921 9.361280488143315
| 39> H 1.3565465362471576 1.87661575496896 7.835682547320822
| 40> H 2.6056308328855162 2.492851385506054 8.928231263598962
| 41> H 1.2491920346924514 0.8094175480258528 10.09979474141023
| 42> H 2.903005395078888 0.21918526754565973 9.905737429771436
| 43> H 1.2224151380458688 -1.5656118710119862 9.461452648146937
| 44> H 0.508875014312895 -0.5943196775674505 8.164889696764384
| 45> C -2.927066240408899 1.515535954873406 -8.43278569589252
| 46> C -3.693420398203112 -0.8846054050988637 -8.254081541436094
| 47> C -3.709415281950543 0.3854203188514585 -9.115962137815528
| 48> H -2.640854078776363 -1.1022852450362055 -8.005867098884337
| 49> H -4.097233441658053 -1.7540751246430488 -8.803564100503634
| 50> H -4.727337089606697 0.6876575522712933 -9.414237222758526
| 51> H -3.1485836780702128 0.13785647804714363 -10.04044733645271
| 52> H -2.783639743378272 2.377479090981347 -9.10905877525908
| 53> H -1.9300522213102 1.119266665564611 -8.176351437864536
| 54> *
| 55>
| 56> % eprnmr
| 57> gtensor true
| 58> Nuclei = all H {aiso,adip,aorb,fgrad,rho}
| 59> Nuclei = all V {aiso,adip,aorb,fgrad,rho}
| 60> end
| 61>
| 62>                          ****END OF INPUT****

CARTESIAN COORDINATES (ANGSTROEM)
---------------------------------
  V      0.900726   -0.436359   -0.478886
  S      0.660827   -1.893786    1.504587
  S     -1.073451   -1.632937   -1.368579
  S      1.784091    1.260092    1.092350
  S      0.013681    1.526184   -1.677825
  O      2.133988   -0.983080   -1.318022
  C     -1.504434   -0.543147   -2.677441
  C     -1.074220    0.723845   -2.797734
  C      1.498208   -0.946722    2.726654
  C      1.942530    0.312758    2.562568
  S     -2.631692   -1.102930   -3.953488
  S     -1.707201    1.634011   -4.203120
  S      2.718190    1.080569    3.988961
  S      1.750817   -1.677189    4.348483
  C     -2.933037    0.464412   -4.722953
  C      2.494375   -0.266266    5.110713
  C     -3.361011    0.495251   -6.082530
  C      2.859817   -0.221791    6.427591
  S     -4.533658   -0.779095   -6.624173
  S     -3.596920    2.128572   -6.837325
  S      2.610692   -1.606086    7.521914
  S      3.587145    1.234818    7.153727
  C      2.257212    1.609634    8.386029
  C      1.431120   -0.805772    8.703410
  C      1.981233    0.462301    9.360701
  H      1.352952    1.877816    7.835103
  H      2.602036    2.494052    8.927652
  H      1.245597    0.810618   10.099215
  H      2.899411    0.220386    9.905158
  H      1.218821   -1.564411    9.460873
  H      0.505280   -0.593119    8.164310
  C     -2.930661    1.516736   -8.433365
  C     -3.697015   -0.883405   -8.254661
  C     -3.713010    0.386621   -9.116542
  H     -2.644449   -1.101085   -8.006447
  H     -4.100828   -1.752875   -8.804144
  H     -4.730932    0.688858   -9.414817
  H     -3.152178    0.139057  -10.041027
  H     -2.787234    2.378680   -9.109638
  H     -1.933647    1.120467   -8.176931

 Total Charge           Charge          ....   -2
 Multiplicity           Mult            ....    2
 Number of Electrons    NEL             ....  321
 Basis Dimension        Dim             ....  681

ORBITAL ENERGIES
----------------
                 SPIN UP ORBITALS
  NO   OCC          E(Eh)            E(eV)
   0   1.0000    -196.677054     -5351.8547
   1   1.0000     -88.734174     -2414.5796
   2   1.0000     -88.734113     -2414.5780
   3   1.0000     -88.731953     -2414.5192
   4   1.0000     -88.731521     -2414.5074
   5   1.0000     -88.731334     -2414.5023
   6   1.0000     -88.731277     -2414.5008
   7   1.0000     -88.729126     -2414.4423
   8   1.0000     -88.729103     -2414.4416
   9   1.0000     -88.643202     -2412.1042
  10   1.0000     -88.643028     -2412.0994
  11   1.0000     -88.641721     -2412.0639
  12   1.0000     -88.641265     -2412.0514
  13   1.0000     -22.052461      -600.0780
  14   1.0000     -18.892585      -514.0934
  15   1.0000     -18.558920      -505.0139
  16   1.0000     -18.553735      -504.8728
  17   1.0000     -18.553623      -504.8698
  18   1.0000     -10.077244      -274.2157
  19   1.0000     -10.077002      -274.2092
  20   1.0000     -10.064117      -273.8585
  21   1.0000     -10.064058      -273.8569
  22   1.0000     -10.058871      -273.7158
  23   1.0000     -10.058803      -273.7139
  24   1.0000     -10.051928      -273.5269
  25   1.0000     -10.050033      -273.4753
  26   1.0000     -10.049586      -273.4631
  27   1.0000     -10.049529      -273.4616
  28   1.0000     -10.022286      -272.7203
  29   1.0000     -10.021384      -272.6957
  30   1.0000     -10.019500      -272.6445
  31   1.0000     -10.018705      -272.6228
  32   1.0000      -7.787631      -211.9122
  33   1.0000      -7.787549      -211.9100
  34   1.0000      -7.785140      -211.8444
  35   1.0000      -7.784752      -211.8339
  36   1.0000      -7.784605      -211.8299
  37   1.0000      -7.784573      -211.8290
  38   1.0000      -7.782555      -211.7741
  39   1.0000      -7.782501      -211.7726
  40   1.0000      -7.697593      -209.4621
  41   1.0000      -7.697321      -209.4548
  42   1.0000      -7.695999      -209.4188
  43   1.0000      -7.695598      -209.4079
  44   1.0000      -5.752615      -156.5366
  45   1.0000      -5.752539      -156.5345
  46   1.0000      -5.750007      -156.4656
  47   1.0000      -5.749625      -156.4552
  48   1.0000      -5.749546      -156.4531
  49   1.0000      -5.749525      -156.4525
  50   1.0000      -5.749201      -156.4437
  51   1.0000      -5.749123      -156.4416
  52   1.0000      -5.747152      -156.3880
  53   1.0000      -5.747085      -156.3861
  54   1.0000      -5.745648      -156.3470
  55   1.0000      -5.745269      -156.3367
  56   1.0000      -5.745136      -156.3331
  57   1.0000      -5.745092      -156.3319
  58   1.0000      -5.744483      -156.3153
  59   1.0000      -5.744443      -156.3142
  60   1.0000      -5.742433      -156.2595
  61   1.0000      -5.742354      -156.2574
  62   1.0000      -5.741049      -156.2219
  63   1.0000      -5.740633      -156.2106
  64   1.0000      -5.740411      -156.2045
  65   1.0000      -5.740380      -156.2037
  66   1.0000      -5.737401      -156.1226
  67   1.0000      -5.737360      -156.1215
  68   1.0000      -5.662861      -154.0943
  69   1.0000      -5.662628      -154.0879
  70   1.0000      -5.661306      -154.0520
  71   1.0000      -5.660885      -154.0405
  72   1.0000      -5.656154      -153.9118
  73   1.0000      -5.655915      -153.9053
  74   1.0000      -5.655000      -153.8804
  75   1.0000      -5.654701      -153.8722
  76   1.0000      -5.654671      -153.8714
  77   1.0000      -5.654291      -153.8611
  78   1.0000      -5.653328      -153.8349
  79   1.0000      -5.652912      -153.8236
  80   1.0000      -2.446155       -66.5633
  81   1.0000      -1.487503       -40.4770
  82   1.0000      -1.475839       -40.1596
  83   1.0000      -1.474938       -40.1351
  84   1.0000      -0.710635       -19.3374
  85   1.0000      -0.706382       -19.2216
  86   1.0000      -0.686628       -18.6841
  87   1.0000      -0.685192       -18.6450
  88   1.0000      -0.652098       -17.7445
  89   1.0000      -0.632380       -17.2079
  90   1.0000      -0.624282       -16.9876
  91   1.0000      -0.618081       -16.8188
  92   1.0000      -0.612735       -16.6734
  93   1.0000      -0.575852       -15.6697
  94   1.0000      -0.574509       -15.6332
  95   1.0000      -0.574252       -15.6262
  96   1.0000      -0.572744       -15.5852
  97   1.0000      -0.497373       -13.5342
  98   1.0000      -0.496988       -13.5237
  99   1.0000      -0.489955       -13.3324
 100   1.0000      -0.489391       -13.3170
 101   1.0000      -0.480120       -13.0647
 102   1.0000      -0.475040       -12.9265
 103   1.0000      -0.447435       -12.1753
 104   1.0000      -0.438570       -11.9341
 105   1.0000      -0.416202       -11.3254
 106   1.0000      -0.410715       -11.1761
 107   1.0000      -0.356144        -9.6912
 108   1.0000      -0.354745        -9.6531
 109   1.0000      -0.327366        -8.9081
 110   1.0000      -0.320826        -8.7301
 111   1.0000      -0.319446        -8.6926
 112   1.0000      -0.313591        -8.5333
 113   1.0000      -0.304923        -8.2974
 114   1.0000      -0.298378        -8.1193
 115   1.0000      -0.293020        -7.9735
 116   1.0000      -0.280453        -7.6315
 117   1.0000      -0.258058        -7.0221
 118   1.0000      -0.257815        -7.0155
 119   1.0000      -0.245768        -6.6877
 120   1.0000      -0.242198        -6.5905
 121   1.0000      -0.238698        -6.4953
 122   1.0000      -0.235354        -6.4043
 123   1.0000      -0.231498        -6.2994
 124   1.0000      -0.222697        -6.0599
 125   1.0000      -0.220938        -6.0120
 126   1.0000      -0.215982        -5.8772
 127   1.0000      -0.213078        -5.7982
 128   1.0000      -0.210933        -5.7398
 129   1.0000      -0.195903        -5.3308
 130   1.0000      -0.188430        -5.1275
 131   1.0000      -0.185000        -5.0341
 132   1.0000      -0.181315        -4.9338
 133   1.0000      -0.179005        -4.8710
 134   1.0000      -0.160642        -4.3713
 135   1.0000      -0.153835        -4.1861
 136   1.0000      -0.148762        -4.0480
 137   1.0000      -0.136612        -3.7174
 138   1.0000      -0.135829        -3.6961
 139   1.0000      -0.134152        -3.6505
 140   1.0000      -0.127144        -3.4598
 141   1.0000      -0.122473        -3.3327
 142   1.0000      -0.115528        -3.1437
 143   1.0000      -0.111843        -3.0434
 144   1.0000      -0.100261        -2.7282
 145   1.0000      -0.098522        -2.6809
 146   1.0000      -0.096680        -2.6308
 147   1.0000      -0.095769        -2.6060
 148   1.0000      -0.076700        -2.0871
 149   1.0000      -0.068295        -1.8584
 150   1.0000      -0.061801        -1.6817
 151   1.0000      -0.053728        -1.4620
 152   1.0000      -0.047799        -1.3007
 153   1.0000      -0.038912        -1.0589
 154   1.0000      -0.037276        -1.0143
 155   1.0000      -0.029567        -0.8046
 156   1.0000      -0.027563        -0.7500
 157   1.0000      -0.021010        -0.5717
 158   1.0000      -0.018762        -0.5105
 159   1.0000       0.018175         0.4946
 160   1.0000       0.038733         1.0540
 161   0.0000       0.113686         3.0935
 162   0.0000       0.136358         3.7105
 163   0.0000       0.161400         4.3919
 164   0.0000       0.163623         4.4524
 165   0.0000       0.169837         4.6215

                 SPIN DOWN ORBITALS
  NO   OCC          E(Eh)            E(eV)
   0   1.0000    -196.677201     -5351.8587
   1   1.0000     -88.734175     -2414.5797
   2   1.0000     -88.734114     -2414.5780
   3   1.0000     -88.731966     -2414.5195
   4   1.0000     -88.731533     -2414.5078
   5   1.0000     -88.731342     -2414.5026
   6   1.0000     -88.731285     -2414.5010
   7   1.0000     -88.729127     -2414.4423
   8   1.0000     -88.729104     -2414.4417
   9   1.0000     -88.643344     -2412.1080
  10   1.0000     -88.643171     -2412.1033
  11   1.0000     -88.641860     -2412.0676
  12   1.0000     -88.641406     -2412.0553
  13   1.0000     -22.037537      -599.6719
  14   1.0000     -18.896384      -514.1967
  15   1.0000     -18.553651      -504.8705
  16   1.0000     -18.537732      -504.4373
  17   1.0000     -18.537497      -504.4309
  18   1.0000     -10.077227      -274.2153
  19   1.0000     -10.077001      -274.2091
  20   1.0000     -10.064117      -273.8585
  21   1.0000     -10.064058      -273.8570
  22   1.0000     -10.058869      -273.7157
  23   1.0000     -10.058800      -273.7139
  24   1.0000     -10.051928      -273.5269
  25   1.0000     -10.050000      -273.4744
  26   1.0000     -10.049586      -273.4631
  27   1.0000     -10.049525      -273.4615
  28   1.0000     -10.022060      -272.7141
  29   1.0000     -10.021169      -272.6899
  30   1.0000     -10.019283      -272.6386
  31   1.0000     -10.018491      -272.6170
  32   1.0000      -7.787632      -211.9122
  33   1.0000      -7.787550      -211.9100
  34   1.0000      -7.785153      -211.8448
  35   1.0000      -7.784764      -211.8342
  36   1.0000      -7.784614      -211.8301
  37   1.0000      -7.784582      -211.8292
  38   1.0000      -7.782556      -211.7741
  39   1.0000      -7.782502      -211.7726
  40   1.0000      -7.697725      -209.4657
  41   1.0000      -7.697454      -209.4584
  42   1.0000      -7.696129      -209.4223
  43   1.0000      -7.695729      -209.4114
  44   1.0000      -5.752616      -156.5366
  45   1.0000      -5.752540      -156.5346
  46   1.0000      -5.750022      -156.4660
  47   1.0000      -5.749639      -156.4556
  48   1.0000      -5.749556      -156.4534
  49   1.0000      -5.749535      -156.4528
  50   1.0000      -5.749202      -156.4437
  51   1.0000      -5.749124      -156.4416
  52   1.0000      -5.747153      -156.3880
  53   1.0000      -5.747086      -156.3862
  54   1.0000      -5.745665      -156.3475
  55   1.0000      -5.745286      -156.3372
  56   1.0000      -5.745150      -156.3335
  57   1.0000      -5.745106      -156.3323
  58   1.0000      -5.744484      -156.3153
  59   1.0000      -5.744444      -156.3143
  60   1.0000      -5.742434      -156.2596
  61   1.0000      -5.742354      -156.2574
  62   1.0000      -5.741068      -156.2224
  63   1.0000      -5.740651      -156.2111
  64   1.0000      -5.740416      -156.2047
  65   1.0000      -5.740386      -156.2039
  66   1.0000      -5.737402      -156.1226
  67   1.0000      -5.737360      -156.1215
  68   1.0000      -5.663001      -154.0981
  69   1.0000      -5.662770      -154.0918
  70   1.0000      -5.661450      -154.0559
  71   1.0000      -5.661029      -154.0444
  72   1.0000      -5.656540      -153.9223
  73   1.0000      -5.656296      -153.9156
  74   1.0000      -5.655096      -153.8830
  75   1.0000      -5.655026      -153.8811
  76   1.0000      -5.654801      -153.8750
  77   1.0000      -5.654655      -153.8710
  78   1.0000      -5.653437      -153.8378
  79   1.0000      -5.653021      -153.8265
  80   1.0000      -2.401281       -65.3422
  81   1.0000      -1.468198       -39.9517
  82   1.0000      -1.413391       -38.4603
  83   1.0000      -1.413324       -38.4585
  84   1.0000      -0.710618       -19.3369
  85   1.0000      -0.706336       -19.2204
  86   1.0000      -0.686584       -18.6829
  87   1.0000      -0.685139       -18.6436
  88   1.0000      -0.660254       -17.9664
  89   1.0000      -0.632321       -17.2063
  90   1.0000      -0.624198       -16.9853
  91   1.0000      -0.618083       -16.8189
  92   1.0000      -0.612732       -16.6733
  93   1.0000      -0.575828       -15.6691
  94   1.0000      -0.574446       -15.6315
  95   1.0000      -0.574228       -15.6256
  96   1.0000      -0.572677       -15.5833
  97   1.0000      -0.497398       -13.5349
  98   1.0000      -0.497040       -13.5251
  99   1.0000      -0.489981       -13.3331
 100   1.0000      -0.489558       -13.3216
 101   1.0000      -0.480326       -13.0703
 102   1.0000      -0.475161       -12.9298
 103   1.0000      -0.447467       -12.1762
 104   1.0000      -0.438622       -11.9355
 105   1.0000      -0.416224       -11.3260
 106   1.0000      -0.410795       -11.1783
 107   1.0000      -0.356139        -9.6910
 108   1.0000      -0.354720        -9.6524
 109   1.0000      -0.327355        -8.9078
 110   1.0000      -0.320792        -8.7292
 111   1.0000      -0.319368        -8.6905
 112   1.0000      -0.313596        -8.5334
 113   1.0000      -0.304884        -8.2963
 114   1.0000      -0.298337        -8.1182
 115   1.0000      -0.293016        -7.9734
 116   1.0000      -0.280445        -7.6313
 117   1.0000      -0.257951        -7.0192
 118   1.0000      -0.257746        -7.0136
 119   1.0000      -0.245717        -6.6863
 120   1.0000      -0.241942        -6.5836
 121   1.0000      -0.238666        -6.4944
 122   1.0000      -0.235331        -6.4037
 123   1.0000      -0.231456        -6.2982
 124   1.0000      -0.222641        -6.0584
 125   1.0000      -0.220681        -6.0050
 126   1.0000      -0.215608        -5.8670
 127   1.0000      -0.212976        -5.7954
 128   1.0000      -0.210814        -5.7366
 129   1.0000      -0.194542        -5.2937
 130   1.0000      -0.188366        -5.1257
 131   1.0000      -0.184783        -5.0282
 132   1.0000      -0.180734        -4.9180
 133   1.0000      -0.178887        -4.8678
 134   1.0000      -0.159969        -4.3530
 135   1.0000      -0.153683        -4.1819
 136   1.0000      -0.148675        -4.0457
 137   1.0000      -0.135952        -3.6994
 138   1.0000      -0.135488        -3.6868
 139   1.0000      -0.133919        -3.6441
 140   1.0000      -0.126662        -3.4466
 141   1.0000      -0.122187        -3.3249
 142   1.0000      -0.117397        -3.1945
 143   1.0000      -0.113453        -3.0872
 144   1.0000      -0.100364        -2.7310
 145   1.0000      -0.098522        -2.6809
 146   1.0000      -0.096838        -2.6351
 147   1.0000      -0.096110        -2.6153
 148   1.0000      -0.072869        -1.9829
 149   1.0000      -0.068286        -1.8582
 150   1.0000      -0.061795        -1.6815
 151   1.0000      -0.051117        -1.3910
 152   1.0000      -0.046881        -1.2757
 153   1.0000      -0.038417        -1.0454
 154   1.0000      -0.037302        -1.0150
 155   1.0000      -0.029300        -0.7973
 156   1.0000      -0.028575        -0.7776
 157   1.0000      -0.019026        -0.5177
 158   1.0000       0.018459         0.5023
 159   1.0000       0.037761         1.0275
 160   0.0000       0.113661         3.0929
 161   0.0000       0.136347         3.7102
 162   0.0000       0.153532         4.1778
 163   0.0000       0.161885         4.4051
 164   0.0000       0.164304         4.4709

MULLIKEN ATOMIC CHARGES AND SPIN POPULATIONS
--------------------------------------------
   0 V :    0.465460    1.211427
   1 S :   -0.290486   -0.022909
   2 S :   -0.270905   -0.024939
   3 S :   -0.288532   -0.023824
   4 S :   -0.265959   -0.025502
   5 O :   -0.466006   -0.147103
   6 C :   -0.097532    0.008978
   7 C :   -0.105579    0.007678
   8 C :   -0.083768    0.007876
   9 C :   -0.084798    0.007506
  10 S :    0.115864   -0.001105
  11 S :    0.117158   -0.001030
  12 S :    0.100618   -0.000392
  13 S :    0.099784   -0.000345
  14 C :   -0.157034    0.002733
  15 C :   -0.211214    0.001032
  16 C :   -0.287904    0.000614
  17 C :   -0.191428   -0.000417
  18 S :   -0.005392   -0.000109
  19 S :   -0.004049   -0.000105
  20 S :    0.008766   -0.000066
  21 S :    0.008906   -0.000069
  22 C :   -0.301588   -0.000002
  23 C :   -0.300630   -0.000004
  24 C :   -0.157278   -0.000009
  25 H :    0.143443   -0.000001
  26 H :    0.114199   -0.000004
  27 H :    0.083929   -0.000001
  28 H :    0.092182   -0.000001
  29 H :    0.113885   -0.000005
  30 H :    0.143108   -0.000001
  31 C :   -0.296192   -0.000007
  32 C :   -0.295756   -0.000001
  33 C :   -0.150244   -0.000045
  34 H :    0.150492    0.000027
  35 H :    0.119251    0.000032
  36 H :    0.085046    0.000038
  37 H :    0.080985   -0.000006
  38 H :    0.118952    0.000031
  39 H :    0.150246    0.000030
Sum of atomic charges         :   -2.0000000

LOEWDIN ATOMIC CHARGES AND SPIN POPULATIONS
-------------------------------------------
   0 V :   -0.159210    1.164651
   1 S :    0.080636   -0.014814
   2 S :    0.087121   -0.016071
   3 S :    0.082000   -0.015566
   4 S :    0.091390   -0.016394
   5 O :   -0.318130   -0.131937
   6 C :   -0.548958    0.008482
   7 C :   -0.550597    0.007631
   8 C :   -0.552135    0.008224
   9 C :   -0.552102    0.007780
  10 S :    0.486291   -0.001382
  11 S :    0.486781   -0.001340
  12 S :    0.471734   -0.000816
  13 S :    0.470972   -0.000824
  14 C :   -0.479877    0.000714
  15 C :   -0.465380   -0.000064
  16 C :   -0.604910    0.001631
  17 C :   -0.621464    0.000088
  18 S :    0.338445   -0.000042
  19 S :    0.340285   -0.000035
  20 S :    0.359274   -0.000071
  21 S :    0.358833   -0.000073
  22 C :   -0.283153   -0.000008
  23 C :   -0.283303   -0.000009
  24 C :   -0.175929   -0.000002
  25 H :    0.062619   -0.000002
  26 H :    0.053719   -0.000002
  27 H :    0.058188   -0.000002
  28 H :    0.060248   -0.000001
  29 H :    0.053680   -0.000002
  30 H :    0.062465   -0.000002
  31 C :   -0.295050    0.000083
  32 C :   -0.294580    0.000080
  33 C :   -0.172823    0.000007
  34 H :    0.066719    0.000012
  35 H :    0.050110    0.000026
  36 H :    0.058478    0.000008
  37 H :    0.060903    0.000001
  38 H :    0.050169    0.000025
  39 H :    0.066538    0.000013

  Mayer bond orders larger than 0.100000
B(  0-V ,  1-S ) :   0.7744 B(  0-V ,  2-S ) :   0.7702 B(  0-V ,  3-S ) :   0.7678
B(  0-V ,  4-S ) :   0.7776 B(  0-V ,  5-O ) :   2.1500 B(  1-S ,  8-C ) :   1.1028
B(  2-S ,  6-C ) :   1.1201 B(  3-S ,  9-C ) :   1.1059 B(  4-S ,  7-C ) :   1.1208
B(  6-C ,  7-C ) :   1.6238 B(  6-C , 10-S ) :   0.9836 B(  7-C , 11-S ) :   0.9904
B(  8-C ,  9-C ) :   1.6983 B(  8-C , 13-S ) :   0.9339 B(  9-C , 12-S ) :   0.9358
B( 10-S , 14-C ) :   1.1829 B( 11-S , 14-C ) :   1.1790 B( 12-S , 15-C ) :   1.2459
B( 13-S , 15-C ) :   1.2460 B( 14-C , 16-C ) :   1.4356 B( 15-C , 17-C ) :   1.4557
B( 16-C , 18-S ) :   1.0566 B( 16-C , 19-S ) :   1.0555 B( 17-C , 20-S ) :   1.0886
B( 17-C , 21-S ) :   1.0894 B( 18-S , 32-C ) :   0.9577 B( 19-S , 31-C ) :   0.9583
B( 20-S , 23-C ) :   0.9910 B( 21-S , 22-C ) :   0.9906 B( 22-C , 24-C ) :   0.9131
B( 22-C , 25-H ) :   0.9659 B( 22-C , 26-H ) :   0.9654 B( 23-C , 24-C ) :   0.9132
B( 23-C , 29-H ) :   0.9656 B( 23-C , 30-H ) :   0.9658 B( 24-C , 27-H ) :   0.9628
B( 24-C , 28-H ) :   0.9719 B( 31-C , 33-C ) :   0.9131 B( 31-C , 38-H ) :   0.9554
B( 31-C , 39-H ) :   0.9905 B( 32-C , 33-C ) :   0.9128 B( 32-C , 34-H ) :   0.9907
B( 32-C , 35-H ) :   0.9554 B( 33-C , 36-H ) :   0.9525 B( 33-C , 37-H ) :   0.9806

FINAL SINGLE POINT ENERGY     -6337.677032319706

DIPOLE MOMENT
-------------
                                X             Y             Z
Electronic contribution:     11.91674      -5.79137      -2.17773
Nuclear contribution   :    -13.05719       6.42473       2.95471
                        -----------------------------------------
Total Dipole Moment    :     -1.14045       0.63336       0.77698
                        -----------------------------------------
Magnitude (a.u.)       :      1.51837
Magnitude (Debye)      :      3.85940

Rotational constants in cm-1:     0.010784     0.000804     0.000784
Rotational constants in MHz :   323.302387    24.117737    23.491782

                             ****ORCA TERMINATED NORMALLY****
TOTAL RUN TIME: 0 days 1 hours 1 minutes 50 seconds 870 msec
