                         Program Version 5.0.4 -  RELEASE  -
|  1> ! nofrozencore ReducedPop printbasis
|  2> ! B3LYP TZVP
|  3>
|  4> %basis
|  5> newgto V "CP(PPP)" end
|  6> end
|  7>
|  8> %pal
|  9> nprocs 6
| 10> end
| 11>
| 12> % sym SymThresh 1e-2 end
| 13> * xyz -2 2
| 14> V 0.32033373829085277 -1.029172846231134 0.27777919387548344
| 15> S 1.824016689611748 -0.5615131261698142 -1.6300354965229444
| 16> S 1.730996177801652 0.5652105372661227 1.5407472233268547
| 17> S -1.447090225418252 -1.3614725123657907 -1.424374807498832
| 18> S -1.5420707447274573 -0.17808869032634994 1.6533391022713855
| 19> O 0.7046182202751149 -2.465335577994642 0.8380695353848355
| 20> C 0.6853017966463651 0.8362117072613778 2.926319657037364
| 21> C -0.6299298594589507 0.5406318312154528 2.9696962767321264
| 22> C 0.8009229493730515 -1.0105669352760365 -2.9880880396491616
| 23> C -0.50372924178577 -1.3264188506440735 -2.905584188897645
| 24> S 1.369651889281037 1.6339837861523427 4.385802464174161
| 25> S -1.5057954520983146 1.000923251877882 4.469019399172736
| 26> S -1.3384671485046546 -1.694474896463609 -4.452367774967546
| 27> S 1.5198095449584361 -1.0096113592198201 -4.634372257427811
| 28> C -0.13063634775330088 1.712111982539418 5.302369295996424
| 29> C 0.040410216682639166 -1.4049002962721133 -5.523235666052662
| 30> C -0.22261596519164015 2.282619032340542 6.556310315166033
| 31> C -0.028367813005690606 -1.4824402746230547 -6.882988379548218
| 32> S 1.1904225392122165 2.9292617427225855 7.404537341829223
| 33> S -1.7497103123526943 2.3344787418426383 7.450452575227658
| 34> S 1.394895482292018 -1.1813724733260509 -7.917875559987465
| 35> S -1.5536501474477997 -1.8685139827942905 -7.727959169855043
| 36> C -1.7344525202365402 -0.2876025999892965 -8.63969734887661
| 37> C 0.7492604795232608 0.2881647426769166 -8.804864507646924
| 38> C -0.5687450443401983 0.08122006008417859 -9.586239024276432
| 39> H -1.951771089814024 0.5007356616096116 -7.914298006736704
| 40> H -2.6448818293786296 -0.4656768687098821 -9.221481932340014
| 41> H -0.8100106824439907 0.9372610617534135 -10.23563264423008
| 42> H -0.40966309203335044 -0.7938965998701616 -10.23398117930697
| 43> H 1.5650234244891732 0.5064449870106789 -9.501855712135285
| 44> H 0.6887538290874722 1.115792162515727 -8.093438600227893
| 45> C -1.3199528674305108 1.2386961150918896 8.958489475650916
| 46> C 1.2617201749080273 1.7553614100457275 8.913992062493064
| 47> C -0.08418473543434542 1.8271544920522649 9.552055280704465
| 48> H 1.3188271730632861 0.7223155690343954 8.520753825281975
| 49> H 2.0872867345542576 1.9069849008044122 9.640244409274839
| 50> H -0.2504506043923894 2.7178210985690026 10.253311052109296
| 51> H 0.10998730824013395 0.9167157346482002 10.23328476973281
| 52> H -2.1178449223322424 1.073538755801307 9.711748588142
| 53> H -0.9919442095606511 0.2574731336368971 8.565880183809792
| 54> *
| 55>
| 56> % eprnmr
| 57> gtensor true
| 58> Nuclei = all H {aiso,adip,aorb,fgrad,rho}
| 59> Nuclei = all V {aiso,adip,aorb,fgrad,rho}
| 60> end
| 61>
| 62>                          ****END OF INPUT****

CARTESIAN COORDINATES (ANGSTROEM)
---------------------------------
  V      0.319561   -1.025658    0.279100
  S      1.823244   -0.557998   -1.628715
  S      1.730223    0.568726    1.542068
  S     -1.447863   -1.357957   -1.423054
  S     -1.542844   -0.174573    1.654659
  O      0.703845   -2.461820    0.839390
  C      0.684529    0.839727    2.927640
  C     -0.630703    0.544147    2.971017
  C      0.800150   -1.007052   -2.986768
  C     -0.504502   -1.322904   -2.904264
  S      1.368879    1.637499    4.387123
  S     -1.506568    1.004439    4.470340
  S     -1.339240   -1.690960   -4.451047
  S      1.519037   -1.006096   -4.633052
  C     -0.131409    1.715627    5.303690
  C      0.039637   -1.401385   -5.521915
  C     -0.223389    2.286134    6.557631
  C     -0.029141   -1.478925   -6.881668
  S      1.189650    2.932777    7.405858
  S     -1.750483    2.337994    7.451773
  S      1.394123   -1.177857   -7.916555
  S     -1.554423   -1.864999   -7.726639
  C     -1.735225   -0.284087   -8.638377
  C      0.748488    0.291680   -8.803544
  C     -0.569518    0.084735   -9.584919
  H     -1.952544    0.504251   -7.912978
  H     -2.645655   -0.462162   -9.220162
  H     -0.810784    0.940776  -10.234312
  H     -0.410436   -0.790381  -10.232661
  H      1.564251    0.509960   -9.500535
  H      0.687981    1.119307   -8.092118
  C     -1.320726    1.242211    8.959810
  C      1.260947    1.758877    8.915312
  C     -0.084958    1.830670    9.553376
  H      1.318054    0.725831    8.522074
  H      2.086514    1.910500    9.641565
  H     -0.251223    2.721336   10.254631
  H      0.109214    0.920231   10.234605
  H     -2.118618    1.077054    9.713069
  H     -0.992717    0.260988    8.567201

 Total Charge           Charge          ....   -2
 Multiplicity           Mult            ....    2
 Number of Electrons    NEL             ....  321
 Basis Dimension        Dim             ....  681

ORBITAL ENERGIES
----------------
                 SPIN UP ORBITALS
  NO   OCC          E(Eh)            E(eV)
   0   1.0000    -196.675470     -5351.8116
   1   1.0000     -88.735010     -2414.6024
   2   1.0000     -88.734894     -2414.5992
   3   1.0000     -88.732895     -2414.5448
   4   1.0000     -88.732775     -2414.5416
   5   1.0000     -88.729752     -2414.4593
   6   1.0000     -88.729690     -2414.4576
   7   1.0000     -88.728461     -2414.4242
   8   1.0000     -88.728452     -2414.4239
   9   1.0000     -88.640636     -2412.0343
  10   1.0000     -88.640426     -2412.0286
  11   1.0000     -88.640085     -2412.0193
  12   1.0000     -88.639582     -2412.0057
  13   1.0000     -22.050858      -600.0343
  14   1.0000     -18.890764      -514.0438
  15   1.0000     -18.557305      -504.9699
  16   1.0000     -18.552136      -504.8293
  17   1.0000     -18.552034      -504.8265
  18   1.0000     -10.077942      -274.2348
  19   1.0000     -10.075487      -274.1679
  20   1.0000     -10.071707      -274.0651
  21   1.0000     -10.071682      -274.0644
  22   1.0000     -10.063423      -273.8397
  23   1.0000     -10.063408      -273.8392
  24   1.0000     -10.055756      -273.6310
  25   1.0000     -10.055050      -273.6118
  26   1.0000     -10.048893      -273.4443
  27   1.0000     -10.048365      -273.4299
  28   1.0000     -10.019947      -272.6566
  29   1.0000     -10.019021      -272.6314
  30   1.0000     -10.017879      -272.6003
  31   1.0000     -10.017080      -272.5786
  32   1.0000      -7.788605      -211.9387
  33   1.0000      -7.788503      -211.9359
  34   1.0000      -7.786077      -211.8699
  35   1.0000      -7.786034      -211.8688
  36   1.0000      -7.783018      -211.7867
  37   1.0000      -7.782996      -211.7861
  38   1.0000      -7.781512      -211.7457
  39   1.0000      -7.781490      -211.7451
  40   1.0000      -7.694985      -209.3912
  41   1.0000      -7.694711      -209.3837
  42   1.0000      -7.694358      -209.3741
  43   1.0000      -7.693941      -209.3628
  44   1.0000      -5.753592      -156.5632
  45   1.0000      -5.753485      -156.5603
  46   1.0000      -5.750949      -156.4913
  47   1.0000      -5.750898      -156.4899
  48   1.0000      -5.750152      -156.4696
  49   1.0000      -5.750057      -156.4670
  50   1.0000      -5.747981      -156.4105
  51   1.0000      -5.747966      -156.4101
  52   1.0000      -5.746546      -156.3715
  53   1.0000      -5.746505      -156.3703
  54   1.0000      -5.746494      -156.3700
  55   1.0000      -5.746485      -156.3698
  56   1.0000      -5.743556      -156.2901
  57   1.0000      -5.743525      -156.2893
  58   1.0000      -5.743405      -156.2860
  59   1.0000      -5.743300      -156.2831
  60   1.0000      -5.743100      -156.2777
  61   1.0000      -5.743089      -156.2774
  62   1.0000      -5.742030      -156.2486
  63   1.0000      -5.741987      -156.2474
  64   1.0000      -5.738798      -156.1606
  65   1.0000      -5.738776      -156.1600
  66   1.0000      -5.736313      -156.0930
  67   1.0000      -5.736287      -156.0923
  68   1.0000      -5.660284      -154.0242
  69   1.0000      -5.660030      -154.0172
  70   1.0000      -5.659663      -154.0073
  71   1.0000      -5.659232      -153.9955
  72   1.0000      -5.653617      -153.8427
  73   1.0000      -5.653367      -153.8359
  74   1.0000      -5.653031      -153.8268
  75   1.0000      -5.652621      -153.8156
  76   1.0000      -5.652324      -153.8076
  77   1.0000      -5.652018      -153.7992
  78   1.0000      -5.651678      -153.7900
  79   1.0000      -5.651239      -153.7780
  80   1.0000      -2.444489       -66.5179
  81   1.0000      -1.485787       -40.4303
  82   1.0000      -1.474134       -40.1132
  83   1.0000      -1.473313       -40.0909
  84   1.0000      -0.711138       -19.3510
  85   1.0000      -0.709800       -19.3146
  86   1.0000      -0.691071       -18.8050
  87   1.0000      -0.684623       -18.6295
  88   1.0000      -0.650369       -17.6974
  89   1.0000      -0.635484       -17.2924
  90   1.0000      -0.629789       -17.1374
  91   1.0000      -0.620814       -16.8932
  92   1.0000      -0.608496       -16.5580
  93   1.0000      -0.576899       -15.6982
  94   1.0000      -0.574316       -15.6279
  95   1.0000      -0.574153       -15.6235
  96   1.0000      -0.572764       -15.5857
  97   1.0000      -0.502425       -13.6717
  98   1.0000      -0.498674       -13.5696
  99   1.0000      -0.493725       -13.4349
 100   1.0000      -0.487194       -13.2572
 101   1.0000      -0.481751       -13.1091
 102   1.0000      -0.477342       -12.9891
 103   1.0000      -0.447061       -12.1651
 104   1.0000      -0.436458       -11.8766
 105   1.0000      -0.416350       -11.3295
 106   1.0000      -0.411379       -11.1942
 107   1.0000      -0.356960        -9.7134
 108   1.0000      -0.354526        -9.6471
 109   1.0000      -0.333378        -9.0717
 110   1.0000      -0.326406        -8.8820
 111   1.0000      -0.319529        -8.6948
 112   1.0000      -0.314850        -8.5675
 113   1.0000      -0.304762        -8.2930
 114   1.0000      -0.294386        -8.0106
 115   1.0000      -0.292451        -7.9580
 116   1.0000      -0.286542        -7.7972
 117   1.0000      -0.263021        -7.1572
 118   1.0000      -0.258541        -7.0353
 119   1.0000      -0.257394        -7.0040
 120   1.0000      -0.254914        -6.9366
 121   1.0000      -0.247606        -6.7377
 122   1.0000      -0.235471        -6.4075
 123   1.0000      -0.227797        -6.1987
 124   1.0000      -0.223531        -6.0826
 125   1.0000      -0.219490        -5.9726
 126   1.0000      -0.217197        -5.9102
 127   1.0000      -0.212801        -5.7906
 128   1.0000      -0.211487        -5.7548
 129   1.0000      -0.193309        -5.2602
 130   1.0000      -0.190737        -5.1902
 131   1.0000      -0.185115        -5.0372
 132   1.0000      -0.177681        -4.8349
 133   1.0000      -0.170088        -4.6283
 134   1.0000      -0.160071        -4.3558
 135   1.0000      -0.150577        -4.0974
 136   1.0000      -0.145028        -3.9464
 137   1.0000      -0.136071        -3.7027
 138   1.0000      -0.133817        -3.6413
 139   1.0000      -0.129058        -3.5118
 140   1.0000      -0.122587        -3.3358
 141   1.0000      -0.121720        -3.3122
 142   1.0000      -0.114079        -3.1043
 143   1.0000      -0.108936        -2.9643
 144   1.0000      -0.100837        -2.7439
 145   1.0000      -0.098373        -2.6769
 146   1.0000      -0.097598        -2.6558
 147   1.0000      -0.091745        -2.4965
 148   1.0000      -0.074854        -2.0369
 149   1.0000      -0.068976        -1.8769
 150   1.0000      -0.062498        -1.7007
 151   1.0000      -0.052927        -1.4402
 152   1.0000      -0.046001        -1.2518
 153   1.0000      -0.037595        -1.0230
 154   1.0000      -0.037514        -1.0208
 155   1.0000      -0.031422        -0.8550
 156   1.0000      -0.025527        -0.6946
 157   1.0000      -0.019638        -0.5344
 158   1.0000      -0.016159        -0.4397
 159   1.0000       0.019784         0.5384
 160   1.0000       0.040710         1.1078
 161   0.0000       0.130995         3.5645
 162   0.0000       0.137374         3.7381
 163   0.0000       0.156685         4.2636
 164   0.0000       0.161288         4.3889
 165   0.0000       0.161658         4.3989

                 SPIN DOWN ORBITALS
  NO   OCC          E(Eh)            E(eV)
   0   1.0000    -196.675617     -5351.8156
   1   1.0000     -88.735010     -2414.6024
   2   1.0000     -88.734895     -2414.5992
   3   1.0000     -88.732904     -2414.5451
   4   1.0000     -88.732784     -2414.5418
   5   1.0000     -88.729760     -2414.4595
   6   1.0000     -88.729698     -2414.4578
   7   1.0000     -88.728461     -2414.4242
   8   1.0000     -88.728453     -2414.4239
   9   1.0000     -88.640775     -2412.0381
  10   1.0000     -88.640567     -2412.0325
  11   1.0000     -88.640223     -2412.0231
  12   1.0000     -88.639722     -2412.0095
  13   1.0000     -22.035930      -599.6281
  14   1.0000     -18.894533      -514.1464
  15   1.0000     -18.552043      -504.8267
  16   1.0000     -18.536104      -504.3930
  17   1.0000     -18.535920      -504.3880
  18   1.0000     -10.077935      -274.2346
  19   1.0000     -10.075486      -274.1679
  20   1.0000     -10.071706      -274.0650
  21   1.0000     -10.071680      -274.0644
  22   1.0000     -10.063423      -273.8397
  23   1.0000     -10.063408      -273.8392
  24   1.0000     -10.055756      -273.6310
  25   1.0000     -10.055050      -273.6118
  26   1.0000     -10.048881      -273.4440
  27   1.0000     -10.048361      -273.4298
  28   1.0000     -10.019711      -272.6502
  29   1.0000     -10.018799      -272.6254
  30   1.0000     -10.017665      -272.5945
  31   1.0000     -10.016868      -272.5728
  32   1.0000      -7.788605      -211.9387
  33   1.0000      -7.788504      -211.9360
  34   1.0000      -7.786087      -211.8702
  35   1.0000      -7.786044      -211.8690
  36   1.0000      -7.783028      -211.7870
  37   1.0000      -7.783005      -211.7863
  38   1.0000      -7.781513      -211.7457
  39   1.0000      -7.781490      -211.7451
  40   1.0000      -7.695115      -209.3947
  41   1.0000      -7.694843      -209.3873
  42   1.0000      -7.694487      -209.3776
  43   1.0000      -7.694071      -209.3663
  44   1.0000      -5.753593      -156.5632
  45   1.0000      -5.753486      -156.5603
  46   1.0000      -5.750959      -156.4916
  47   1.0000      -5.750909      -156.4902
  48   1.0000      -5.750153      -156.4696
  49   1.0000      -5.750058      -156.4670
  50   1.0000      -5.747992      -156.4108
  51   1.0000      -5.747976      -156.4104
  52   1.0000      -5.746560      -156.3718
  53   1.0000      -5.746507      -156.3704
  54   1.0000      -5.746506      -156.3704
  55   1.0000      -5.746486      -156.3698
  56   1.0000      -5.743570      -156.2905
  57   1.0000      -5.743539      -156.2896
  58   1.0000      -5.743406      -156.2860
  59   1.0000      -5.743301      -156.2832
  60   1.0000      -5.743102      -156.2777
  61   1.0000      -5.743091      -156.2774
  62   1.0000      -5.742039      -156.2488
  63   1.0000      -5.741997      -156.2477
  64   1.0000      -5.738804      -156.1608
  65   1.0000      -5.738783      -156.1602
  66   1.0000      -5.736314      -156.0930
  67   1.0000      -5.736287      -156.0923
  68   1.0000      -5.660422      -154.0279
  69   1.0000      -5.660171      -154.0211
  70   1.0000      -5.659806      -154.0111
  71   1.0000      -5.659374      -153.9994
  72   1.0000      -5.654002      -153.8532
  73   1.0000      -5.653748      -153.8463
  74   1.0000      -5.653383      -153.8364
  75   1.0000      -5.652983      -153.8255
  76   1.0000      -5.652412      -153.8099
  77   1.0000      -5.652112      -153.8018
  78   1.0000      -5.651784      -153.7929
  79   1.0000      -5.651346      -153.7809
  80   1.0000      -2.399618       -65.2969
  81   1.0000      -1.466517       -39.9060
  82   1.0000      -1.411758       -38.4159
  83   1.0000      -1.411604       -38.4117
  84   1.0000      -0.711112       -19.3503
  85   1.0000      -0.709785       -19.3142
  86   1.0000      -0.691021       -18.8036
  87   1.0000      -0.684578       -18.6283
  88   1.0000      -0.658451       -17.9174
  89   1.0000      -0.635411       -17.2904
  90   1.0000      -0.629730       -17.1358
  91   1.0000      -0.620816       -16.8933
  92   1.0000      -0.608494       -16.5580
  93   1.0000      -0.576871       -15.6975
  94   1.0000      -0.574230       -15.6256
  95   1.0000      -0.574128       -15.6228
  96   1.0000      -0.572700       -15.5840
  97   1.0000      -0.502449       -13.6723
  98   1.0000      -0.498698       -13.5702
  99   1.0000      -0.493788       -13.4367
 100   1.0000      -0.487225       -13.2581
 101   1.0000      -0.481969       -13.1151
 102   1.0000      -0.477568       -12.9953
 103   1.0000      -0.447097       -12.1661
 104   1.0000      -0.436484       -11.8773
 105   1.0000      -0.416349       -11.3294
 106   1.0000      -0.411487       -11.1971
 107   1.0000      -0.356951        -9.7131
 108   1.0000      -0.354521        -9.6470
 109   1.0000      -0.333354        -9.0710
 110   1.0000      -0.326400        -8.8818
 111   1.0000      -0.319448        -8.6926
 112   1.0000      -0.314878        -8.5683
 113   1.0000      -0.304719        -8.2918
 114   1.0000      -0.294344        -8.0095
 115   1.0000      -0.292444        -7.9578
 116   1.0000      -0.286539        -7.7971
 117   1.0000      -0.263017        -7.1571
 118   1.0000      -0.258408        -7.0317
 119   1.0000      -0.257327        -7.0022
 120   1.0000      -0.254864        -6.9352
 121   1.0000      -0.247521        -6.7354
 122   1.0000      -0.235425        -6.4062
 123   1.0000      -0.227780        -6.1982
 124   1.0000      -0.223495        -6.0816
 125   1.0000      -0.219109        -5.9622
 126   1.0000      -0.216944        -5.9034
 127   1.0000      -0.212756        -5.7894
 128   1.0000      -0.211331        -5.7506
 129   1.0000      -0.191961        -5.2235
 130   1.0000      -0.190020        -5.1707
 131   1.0000      -0.184896        -5.0313
 132   1.0000      -0.177530        -4.8308
 133   1.0000      -0.169963        -4.6249
 134   1.0000      -0.159479        -4.3397
 135   1.0000      -0.150416        -4.0930
 136   1.0000      -0.144966        -3.9447
 137   1.0000      -0.135596        -3.6898
 138   1.0000      -0.133602        -3.6355
 139   1.0000      -0.127893        -3.4802
 140   1.0000      -0.122775        -3.3409
 141   1.0000      -0.121397        -3.3034
 142   1.0000      -0.115841        -3.1522
 143   1.0000      -0.110440        -3.0052
 144   1.0000      -0.100903        -2.7457
 145   1.0000      -0.098637        -2.6840
 146   1.0000      -0.097690        -2.6583
 147   1.0000      -0.091900        -2.5007
 148   1.0000      -0.071027        -1.9327
 149   1.0000      -0.068965        -1.8766
 150   1.0000      -0.062493        -1.7005
 151   1.0000      -0.050359        -1.3703
 152   1.0000      -0.045079        -1.2267
 153   1.0000      -0.037557        -1.0220
 154   1.0000      -0.037006        -1.0070
 155   1.0000      -0.031432        -0.8553
 156   1.0000      -0.026564        -0.7229
 157   1.0000      -0.016368        -0.4454
 158   1.0000       0.020058         0.5458
 159   1.0000       0.039622         1.0782
 160   0.0000       0.130954         3.5634
 161   0.0000       0.137353         3.7376
 162   0.0000       0.155062         4.2195
 163   0.0000       0.157470         4.2850
 164   0.0000       0.161582         4.3969

MULLIKEN ATOMIC CHARGES AND SPIN POPULATIONS
--------------------------------------------
   0 V :    0.470357    1.210474
   1 S :   -0.291159   -0.022614
   2 S :   -0.287473   -0.025087
   3 S :   -0.289321   -0.023535
   4 S :   -0.283298   -0.025566
   5 O :   -0.467512   -0.146417
   6 C :   -0.079050    0.009613
   7 C :   -0.086007    0.007964
   8 C :   -0.083411    0.007737
   9 C :   -0.083976    0.007406
  10 S :    0.114233   -0.000635
  11 S :    0.116244   -0.000662
  12 S :    0.096192   -0.000395
  13 S :    0.095204   -0.000348
  14 C :   -0.217889    0.001572
  15 C :   -0.210583    0.001001
  16 C :   -0.191336   -0.000002
  17 C :   -0.195853   -0.000418
  18 S :   -0.010345   -0.000104
  19 S :   -0.010350   -0.000104
  20 S :    0.013276   -0.000071
  21 S :    0.013277   -0.000074
  22 C :   -0.295829   -0.000002
  23 C :   -0.295080   -0.000002
  24 C :   -0.168153   -0.000009
  25 H :    0.145987   -0.000001
  26 H :    0.107607   -0.000005
  27 H :    0.094350   -0.000001
  28 H :    0.091106   -0.000001
  29 H :    0.107288   -0.000005
  30 H :    0.145505   -0.000001
  31 C :   -0.260289    0.000262
  32 C :   -0.261939    0.000256
  33 C :   -0.178189   -0.000295
  34 H :    0.128106   -0.000025
  35 H :    0.124807    0.000047
  36 H :    0.095438    0.000007
  37 H :    0.035354    0.000019
  38 H :    0.124534    0.000048
  39 H :    0.128177   -0.000025
Sum of atomic charges         :   -2.0000000

LOEWDIN ATOMIC CHARGES AND SPIN POPULATIONS
-------------------------------------------
   0 V :   -0.155875    1.163869
   1 S :    0.079863   -0.014613
   2 S :    0.081308   -0.015965
   3 S :    0.081190   -0.015388
   4 S :    0.085176   -0.016202
   5 O :   -0.318883   -0.131339
   6 C :   -0.549009    0.008967
   7 C :   -0.551358    0.007884
   8 C :   -0.552451    0.008123
   9 C :   -0.552462    0.007661
  10 S :    0.484113   -0.000954
  11 S :    0.485714   -0.000989
  12 S :    0.467935   -0.000823
  13 S :    0.467043   -0.000830
  14 C :   -0.468127    0.000259
  15 C :   -0.464190   -0.000080
  16 C :   -0.640768    0.000479
  17 C :   -0.617082    0.000082
  18 S :    0.334346   -0.000077
  19 S :    0.335577   -0.000075
  20 S :    0.366837   -0.000075
  21 S :    0.366358   -0.000078
  22 C :   -0.289101   -0.000008
  23 C :   -0.289238   -0.000009
  24 C :   -0.174128   -0.000002
  25 H :    0.061739   -0.000002
  26 H :    0.051006   -0.000003
  27 H :    0.060391   -0.000001
  28 H :    0.061808   -0.000001
  29 H :    0.050953   -0.000003
  30 H :    0.061566   -0.000002
  31 C :   -0.271646    0.000075
  32 C :   -0.271623    0.000067
  33 C :   -0.202316    0.000012
  34 H :    0.065353   -0.000001
  35 H :    0.065747    0.000017
  36 H :    0.063601    0.000003
  37 H :    0.059774    0.000001
  38 H :    0.065729    0.000018
  39 H :    0.065131   -0.000001

  Mayer bond orders larger than 0.100000
B(  0-V ,  1-S ) :   0.7733 B(  0-V ,  2-S ) :   0.7696 B(  0-V ,  3-S ) :   0.7666
B(  0-V ,  4-S ) :   0.7769 B(  0-V ,  5-O ) :   2.1489 B(  1-S ,  8-C ) :   1.1024
B(  2-S ,  6-C ) :   1.1092 B(  3-S ,  9-C ) :   1.1050 B(  4-S ,  7-C ) :   1.1095
B(  6-C ,  7-C ) :   1.6728 B(  6-C , 10-S ) :   0.9373 B(  7-C , 11-S ) :   0.9407
B(  8-C ,  9-C ) :   1.7015 B(  8-C , 13-S ) :   0.9331 B(  9-C , 12-S ) :   0.9349
B( 10-S , 14-C ) :   1.2666 B( 11-S , 14-C ) :   1.2679 B( 12-S , 15-C ) :   1.2425
B( 13-S , 15-C ) :   1.2423 B( 14-C , 16-C ) :   1.4264 B( 15-C , 17-C ) :   1.4543
B( 16-C , 18-S ) :   1.1002 B( 16-C , 19-S ) :   1.1011 B( 17-C , 20-S ) :   1.0812
B( 17-C , 21-S ) :   1.0817 B( 18-S , 32-C ) :   0.9397 B( 19-S , 31-C ) :   0.9403
B( 20-S , 23-C ) :   0.9998 B( 21-S , 22-C ) :   0.9993 B( 22-C , 24-C ) :   0.9092
B( 22-C , 25-H ) :   0.9628 B( 22-C , 26-H ) :   0.9696 B( 23-C , 24-C ) :   0.9098
B( 23-C , 29-H ) :   0.9696 B( 23-C , 30-H ) :   0.9628 B( 24-C , 27-H ) :   0.9520
B( 24-C , 28-H ) :   0.9822 B( 31-C , 33-C ) :   0.9503 B( 31-C , 38-H ) :   0.9533
B( 31-C , 39-H ) :   0.9698 B( 32-C , 33-C ) :   0.9503 B( 32-C , 34-H ) :   0.9696
B( 32-C , 35-H ) :   0.9532 B( 33-C , 36-H ) :   0.9171 B( 33-C , 37-H ) :   0.9775

FINAL SINGLE POINT ENERGY     -6337.662549512574

DIPOLE MOMENT
-------------
                                X             Y             Z
Electronic contribution:      4.20917     -12.29076      -0.57591
Nuclear contribution   :     -4.66850      13.54114       0.37987
                        -----------------------------------------
Total Dipole Moment    :     -0.45933       1.25038      -0.19604
                        -----------------------------------------
Magnitude (a.u.)       :      1.34643
Magnitude (Debye)      :      3.42234

Rotational constants in cm-1:     0.010760     0.000804     0.000783
Rotational constants in MHz :   322.585535    24.114591    23.487655

                             ****ORCA TERMINATED NORMALLY****
TOTAL RUN TIME: 0 days 1 hours 6 minutes 14 seconds 982 msec
