                         Program Version 5.0.4 -  RELEASE  -
|  1> ! nofrozencore ReducedPop printbasis
|  2> ! B3LYP TZVP
|  3>
|  4> %basis
|  5> newgto V "CP(PPP)" end
|  6> end
|  7>
|  8> %pal
|  9> nprocs 8
| 10> end
| 11>
| 12> % sym SymThresh 1e-2 end
| 13> * xyz -2 2
| 14> V -0.8841016947967745 0.46266049654896 0.491277779997774
| 15> S 0.2787370066448248 -0.43440991458841605 2.4130599757797087
| 16> S 0.9402441004292043 2.190950768087929 0.41202828855430634
| 17> S -1.5745591837903976 -1.9269504878432517 0.018802565967760462
| 18> S -0.9173558765609626 0.6582047183854924 -1.930713635295546
| 19> O -2.1413170971386974 1.2419165712319788 1.0726703552340338
| 20> C 0.627553866139913 2.827371027464036 -1.1986291103126148
| 21> C -0.11358253856683032 2.206133009598761 -2.1356208407431385
| 22> C -0.27569322422396314 -2.099930382537349 2.4467981450535596
| 23> C -1.0201338372268258 -2.699342312064711 1.499080181155435
| 24> S 1.3842565446957373 4.379640890064846 -1.6959927611122112
| 25> S -0.2115788100546739 2.992366380135955 -3.746073637932241
| 26> S -1.4199808317582046 -4.426283072439635 1.7901552470351914
| 27> S 0.23902622881530594 -3.113053308362851 3.8400456373817278
| 28> C 0.8060452822909369 4.386579266116673 -3.366821354798592
| 29> C -0.509215615388818 -4.619343562190261 3.2924665283503765
| 30> C 1.1203212685593427 5.3859102967081505 -4.246100483588761
| 31> C -0.43055639648900157 -5.826825033711115 3.9296134463417483
| 32> S 2.0954689787056937 6.788595496078078 -3.7306720871602423
| 33> S 0.5648310005860229 5.391932273420038 -5.938009647815202
| 34> S 0.4384460578970041 -6.071141206923682 5.4648186068196125
| 35> S -1.189807843058297 -7.276554129956683 3.213170719329013
| 36> C 0.3035971496596818 -8.366891438771283 3.0195335263676655
| 37> C 1.7626143360937299 -7.168955948824289 4.773520173212084
| 38> C 1.185648649951214 -8.494912111962574 4.267598326692594
| 39> H 0.8967491649532647 -7.991748433612111 2.1710070523420715
| 40> H -0.10431746111247003 -9.35061632346293 2.742259238665021
| 41> H 2.0169843296239933 -9.168274201943383 4.015756925503919
| 42> H 0.6177478249791829 -8.967183033787151 5.078337274091233
| 43> H 2.484359654855845 -7.344378387174379 5.585461082151449
| 44> H 2.271707828130865 -6.615968151635844 3.9700453652379273
| 45> C -0.5143893429975076 6.8918610386444765 -5.821391705761936
| 46> C 0.8766944183498909 8.149092844018403 -4.057298020439984
| 47> C 0.2791446528506253 8.15203862931736 -5.467944249802521
| 48> H 0.08113242309286806 8.085321507540224 -3.3056320405077733
| 49> H 1.4369301239748318 9.075111033293489 -3.88303384607068
| 50> H 1.0767653475023569 8.290814397027535 -6.2060344564099115
| 51> H -0.39120632111158055 9.019653694045916 -5.544271646640001
| 52> H -0.9936825009413269 7.001164988172235 -6.801178394250241
| 53> H -1.2928511200958515 6.688761804880473 -5.077535673194235
| 54> *
| 55>
| 56> % eprnmr
| 57> gtensor true
| 58> Nuclei = all H {aiso,adip,aorb,fgrad,rho}
| 59> Nuclei = all V {aiso,adip,aorb,fgrad,rho}
| 60> end
| 61>
| 62>                          ****END OF INPUT****

CARTESIAN COORDINATES (ANGSTROEM)
---------------------------------
  V     -0.881280    0.463192    0.488738
  S      0.281559   -0.433878    2.410520
  S      0.943066    2.191483    0.409489
  S     -1.571737   -1.926419    0.016263
  S     -0.914534    0.658737   -1.933253
  O     -2.138495    1.242448    1.070131
  C      0.630376    2.827903   -1.201169
  C     -0.110760    2.206665   -2.138161
  C     -0.272871   -2.099399    2.444258
  C     -1.017312   -2.698810    1.496540
  S      1.387079    4.380173   -1.698532
  S     -0.208757    2.992898   -3.748613
  S     -1.417159   -4.425751    1.787616
  S      0.241848   -3.112521    3.837506
  C      0.808867    4.387111   -3.369361
  C     -0.506393   -4.618812    3.289927
  C      1.123143    5.386442   -4.248640
  C     -0.427734   -5.826293    3.927074
  S      2.098291    6.789127   -3.733212
  S      0.567653    5.392464   -5.940549
  S      0.441268   -6.070609    5.462279
  S     -1.186986   -7.276022    3.210631
  C      0.306419   -8.366360    3.016994
  C      1.765436   -7.168424    4.770980
  C      1.188471   -8.494380    4.265059
  H      0.899571   -7.991217    2.168467
  H     -0.101495   -9.350084    2.739720
  H      2.019806   -9.167742    4.013217
  H      0.620570   -8.966651    5.075798
  H      2.487182   -7.343847    5.582921
  H      2.274530   -6.615436    3.967506
  C     -0.511567    6.892393   -5.823931
  C      0.879517    8.149625   -4.059838
  C      0.281967    8.152570   -5.470484
  H      0.083955    8.085853   -3.308172
  H      1.439752    9.075643   -3.885574
  H      1.079588    8.291346   -6.208574
  H     -0.388384    9.020186   -5.546811
  H     -0.990860    7.001697   -6.803718
  H     -1.290029    6.689294   -5.080075

 Total Charge           Charge          ....   -2
 Multiplicity           Mult            ....    2
 Number of Electrons    NEL             ....  321
 Basis Dimension        Dim             ....  681

ORBITAL ENERGIES
----------------
                 SPIN UP ORBITALS
  NO   OCC          E(Eh)            E(eV)
   0   1.0000    -196.674441     -5351.7836
   1   1.0000     -88.734234     -2414.5813
   2   1.0000     -88.733726     -2414.5674
   3   1.0000     -88.732592     -2414.5366
   4   1.0000     -88.732387     -2414.5310
   5   1.0000     -88.731032     -2414.4941
   6   1.0000     -88.730520     -2414.4802
   7   1.0000     -88.729264     -2414.4460
   8   1.0000     -88.728717     -2414.4311
   9   1.0000     -88.639628     -2412.0069
  10   1.0000     -88.639425     -2412.0014
  11   1.0000     -88.639129     -2411.9933
  12   1.0000     -88.638950     -2411.9884
  13   1.0000     -22.049845      -600.0068
  14   1.0000     -18.889719      -514.0154
  15   1.0000     -18.556281      -504.9421
  16   1.0000     -18.551137      -504.8021
  17   1.0000     -18.551012      -504.7987
  18   1.0000     -10.075591      -274.1708
  19   1.0000     -10.075459      -274.1672
  20   1.0000     -10.065837      -273.9054
  21   1.0000     -10.064713      -273.8748
  22   1.0000     -10.064440      -273.8673
  23   1.0000     -10.063656      -273.8460
  24   1.0000     -10.051804      -273.5235
  25   1.0000     -10.051510      -273.5155
  26   1.0000     -10.048557      -273.4351
  27   1.0000     -10.048120      -273.4233
  28   1.0000     -10.017996      -272.6035
  29   1.0000     -10.017771      -272.5974
  30   1.0000     -10.016980      -272.5759
  31   1.0000     -10.016911      -272.5740
  32   1.0000      -7.787642      -211.9125
  33   1.0000      -7.787169      -211.8996
  34   1.0000      -7.785950      -211.8665
  35   1.0000      -7.785691      -211.8594
  36   1.0000      -7.784169      -211.8180
  37   1.0000      -7.783752      -211.8067
  38   1.0000      -7.782563      -211.7743
  39   1.0000      -7.782078      -211.7611
  40   1.0000      -7.694394      -209.3751
  41   1.0000      -7.694042      -209.3655
  42   1.0000      -7.693070      -209.3391
  43   1.0000      -7.692877      -209.3338
  44   1.0000      -5.752566      -156.5353
  45   1.0000      -5.752115      -156.5230
  46   1.0000      -5.750985      -156.4923
  47   1.0000      -5.750763      -156.4862
  48   1.0000      -5.749330      -156.4472
  49   1.0000      -5.749133      -156.4419
  50   1.0000      -5.748814      -156.4332
  51   1.0000      -5.748710      -156.4304
  52   1.0000      -5.747501      -156.3974
  53   1.0000      -5.747488      -156.3971
  54   1.0000      -5.747192      -156.3891
  55   1.0000      -5.747013      -156.3842
  56   1.0000      -5.744698      -156.3212
  57   1.0000      -5.744252      -156.3091
  58   1.0000      -5.743080      -156.2771
  59   1.0000      -5.742596      -156.2640
  60   1.0000      -5.742414      -156.2590
  61   1.0000      -5.741944      -156.2462
  62   1.0000      -5.740744      -156.2136
  63   1.0000      -5.740487      -156.2066
  64   1.0000      -5.739998      -156.1933
  65   1.0000      -5.739589      -156.1821
  66   1.0000      -5.738374      -156.1491
  67   1.0000      -5.737876      -156.1355
  68   1.0000      -5.659656      -154.0071
  69   1.0000      -5.659311      -153.9977
  70   1.0000      -5.658447      -153.9742
  71   1.0000      -5.658229      -153.9682
  72   1.0000      -5.652973      -153.8252
  73   1.0000      -5.652613      -153.8154
  74   1.0000      -5.651812      -153.7936
  75   1.0000      -5.651749      -153.7919
  76   1.0000      -5.651624      -153.7885
  77   1.0000      -5.651423      -153.7830
  78   1.0000      -5.650324      -153.7531
  79   1.0000      -5.650146      -153.7483
  80   1.0000      -2.443566       -66.4928
  81   1.0000      -1.484794       -40.4033
  82   1.0000      -1.473279       -40.0900
  83   1.0000      -1.472435       -40.0670
  84   1.0000      -0.709121       -19.2962
  85   1.0000      -0.708802       -19.2875
  86   1.0000      -0.685103       -18.6426
  87   1.0000      -0.684507       -18.6264
  88   1.0000      -0.649330       -17.6692
  89   1.0000      -0.630970       -17.1696
  90   1.0000      -0.630604       -17.1596
  91   1.0000      -0.616454       -16.7746
  92   1.0000      -0.615420       -16.7464
  93   1.0000      -0.574156       -15.6236
  94   1.0000      -0.573990       -15.6191
  95   1.0000      -0.573108       -15.5951
  96   1.0000      -0.572119       -15.5681
  97   1.0000      -0.496719       -13.5164
  98   1.0000      -0.496022       -13.4974
  99   1.0000      -0.494841       -13.4653
 100   1.0000      -0.494061       -13.4441
 101   1.0000      -0.479382       -13.0446
 102   1.0000      -0.476811       -12.9747
 103   1.0000      -0.446492       -12.1497
 104   1.0000      -0.444222       -12.0879
 105   1.0000      -0.416058       -11.3215
 106   1.0000      -0.410843       -11.1796
 107   1.0000      -0.354645        -9.6504
 108   1.0000      -0.353812        -9.6277
 109   1.0000      -0.326287        -8.8787
 110   1.0000      -0.325726        -8.8635
 111   1.0000      -0.318580        -8.6690
 112   1.0000      -0.314040        -8.5455
 113   1.0000      -0.304643        -8.2898
 114   1.0000      -0.303836        -8.2678
 115   1.0000      -0.291223        -7.9246
 116   1.0000      -0.289645        -7.8816
 117   1.0000      -0.257461        -7.0059
 118   1.0000      -0.257090        -6.9958
 119   1.0000      -0.255232        -6.9452
 120   1.0000      -0.254950        -6.9375
 121   1.0000      -0.234630        -6.3846
 122   1.0000      -0.234201        -6.3729
 123   1.0000      -0.230457        -6.2711
 124   1.0000      -0.229171        -6.2361
 125   1.0000      -0.219552        -5.9743
 126   1.0000      -0.217774        -5.9259
 127   1.0000      -0.213803        -5.8179
 128   1.0000      -0.211318        -5.7502
 129   1.0000      -0.192870        -5.2482
 130   1.0000      -0.187437        -5.1004
 131   1.0000      -0.185676        -5.0525
 132   1.0000      -0.183906        -5.0043
 133   1.0000      -0.179052        -4.8722
 134   1.0000      -0.159324        -4.3354
 135   1.0000      -0.151558        -4.1241
 136   1.0000      -0.146797        -3.9946
 137   1.0000      -0.135953        -3.6995
 138   1.0000      -0.134007        -3.6465
 139   1.0000      -0.132018        -3.5924
 140   1.0000      -0.124748        -3.3946
 141   1.0000      -0.120783        -3.2867
 142   1.0000      -0.113057        -3.0764
 143   1.0000      -0.109277        -2.9736
 144   1.0000      -0.099607        -2.7104
 145   1.0000      -0.098024        -2.6674
 146   1.0000      -0.096608        -2.6288
 147   1.0000      -0.094121        -2.5612
 148   1.0000      -0.074467        -2.0263
 149   1.0000      -0.067593        -1.8393
 150   1.0000      -0.067005        -1.8233
 151   1.0000      -0.051823        -1.4102
 152   1.0000      -0.045466        -1.2372
 153   1.0000      -0.037023        -1.0074
 154   1.0000      -0.036179        -0.9845
 155   1.0000      -0.030857        -0.8397
 156   1.0000      -0.024978        -0.6797
 157   1.0000      -0.018260        -0.4969
 158   1.0000      -0.015170        -0.4128
 159   1.0000       0.020823         0.5666
 160   1.0000       0.041621         1.1326
 161   0.0000       0.136741         3.7209
 162   0.0000       0.136892         3.7250
 163   0.0000       0.161857         4.4044
 164   0.0000       0.161936         4.4065
 165   0.0000       0.170304         4.6342

                 SPIN DOWN ORBITALS
  NO   OCC          E(Eh)            E(eV)
   0   1.0000    -196.674588     -5351.7876
   1   1.0000     -88.734235     -2414.5813
   2   1.0000     -88.733727     -2414.5675
   3   1.0000     -88.732592     -2414.5366
   4   1.0000     -88.732388     -2414.5310
   5   1.0000     -88.731039     -2414.4943
   6   1.0000     -88.730528     -2414.4804
   7   1.0000     -88.729273     -2414.4463
   8   1.0000     -88.728726     -2414.4314
   9   1.0000     -88.639760     -2412.0105
  10   1.0000     -88.639560     -2412.0050
  11   1.0000     -88.639275     -2411.9973
  12   1.0000     -88.639091     -2411.9923
  13   1.0000     -22.034929      -599.6009
  14   1.0000     -18.893493      -514.1181
  15   1.0000     -18.551020      -504.7989
  16   1.0000     -18.535113      -504.3661
  17   1.0000     -18.534918      -504.3608
  18   1.0000     -10.075591      -274.1708
  19   1.0000     -10.075454      -274.1670
  20   1.0000     -10.065838      -273.9054
  21   1.0000     -10.064712      -273.8747
  22   1.0000     -10.064440      -273.8673
  23   1.0000     -10.063655      -273.8460
  24   1.0000     -10.051804      -273.5235
  25   1.0000     -10.051510      -273.5155
  26   1.0000     -10.048553      -273.4350
  27   1.0000     -10.048109      -273.4229
  28   1.0000     -10.017777      -272.5976
  29   1.0000     -10.017556      -272.5916
  30   1.0000     -10.016761      -272.5699
  31   1.0000     -10.016667      -272.5674
  32   1.0000      -7.787642      -211.9125
  33   1.0000      -7.787169      -211.8996
  34   1.0000      -7.785951      -211.8665
  35   1.0000      -7.785692      -211.8594
  36   1.0000      -7.784177      -211.8182
  37   1.0000      -7.783761      -211.8069
  38   1.0000      -7.782573      -211.7746
  39   1.0000      -7.782088      -211.7614
  40   1.0000      -7.694516      -209.3784
  41   1.0000      -7.694167      -209.3689
  42   1.0000      -7.693207      -209.3428
  43   1.0000      -7.693010      -209.3374
  44   1.0000      -5.752567      -156.5353
  45   1.0000      -5.752116      -156.5230
  46   1.0000      -5.750986      -156.4923
  47   1.0000      -5.750764      -156.4862
  48   1.0000      -5.749330      -156.4472
  49   1.0000      -5.749142      -156.4421
  50   1.0000      -5.748815      -156.4332
  51   1.0000      -5.748720      -156.4306
  52   1.0000      -5.747513      -156.3978
  53   1.0000      -5.747490      -156.3971
  54   1.0000      -5.747193      -156.3891
  55   1.0000      -5.747025      -156.3845
  56   1.0000      -5.744710      -156.3215
  57   1.0000      -5.744264      -156.3094
  58   1.0000      -5.743095      -156.2776
  59   1.0000      -5.742612      -156.2644
  60   1.0000      -5.742415      -156.2591
  61   1.0000      -5.741945      -156.2463
  62   1.0000      -5.740745      -156.2136
  63   1.0000      -5.740488      -156.2066
  64   1.0000      -5.740002      -156.1934
  65   1.0000      -5.739597      -156.1824
  66   1.0000      -5.738382      -156.1493
  67   1.0000      -5.737883      -156.1357
  68   1.0000      -5.659806      -154.0111
  69   1.0000      -5.659453      -154.0015
  70   1.0000      -5.658585      -153.9779
  71   1.0000      -5.658363      -153.9719
  72   1.0000      -5.653304      -153.8342
  73   1.0000      -5.652981      -153.8254
  74   1.0000      -5.652214      -153.8046
  75   1.0000      -5.651999      -153.7987
  76   1.0000      -5.651848      -153.7946
  77   1.0000      -5.651504      -153.7852
  78   1.0000      -5.650420      -153.7558
  79   1.0000      -5.650256      -153.7513
  80   1.0000      -2.398724       -65.2726
  81   1.0000      -1.465523       -39.8789
  82   1.0000      -1.411051       -38.3966
  83   1.0000      -1.410682       -38.3866
  84   1.0000      -0.709095       -19.2954
  85   1.0000      -0.708786       -19.2870
  86   1.0000      -0.685047       -18.6411
  87   1.0000      -0.684464       -18.6252
  88   1.0000      -0.657432       -17.8896
  89   1.0000      -0.630898       -17.1676
  90   1.0000      -0.630539       -17.1578
  91   1.0000      -0.616453       -16.7746
  92   1.0000      -0.615421       -16.7465
  93   1.0000      -0.574126       -15.6228
  94   1.0000      -0.573964       -15.6184
  95   1.0000      -0.573027       -15.5929
  96   1.0000      -0.572044       -15.5661
  97   1.0000      -0.496721       -13.5165
  98   1.0000      -0.496046       -13.4981
  99   1.0000      -0.494885       -13.4665
 100   1.0000      -0.494112       -13.4455
 101   1.0000      -0.479569       -13.0497
 102   1.0000      -0.477058       -12.9814
 103   1.0000      -0.446511       -12.1502
 104   1.0000      -0.444268       -12.0891
 105   1.0000      -0.416054       -11.3214
 106   1.0000      -0.410950       -11.1825
 107   1.0000      -0.354635        -9.6501
 108   1.0000      -0.353806        -9.6276
 109   1.0000      -0.326270        -8.8783
 110   1.0000      -0.325716        -8.8632
 111   1.0000      -0.318498        -8.6668
 112   1.0000      -0.314061        -8.5460
 113   1.0000      -0.304593        -8.2884
 114   1.0000      -0.303810        -8.2671
 115   1.0000      -0.291217        -7.9244
 116   1.0000      -0.289640        -7.8815
 117   1.0000      -0.257299        -7.0015
 118   1.0000      -0.257005        -6.9935
 119   1.0000      -0.255199        -6.9443
 120   1.0000      -0.254918        -6.9367
 121   1.0000      -0.234578        -6.3832
 122   1.0000      -0.234191        -6.3727
 123   1.0000      -0.230411        -6.2698
 124   1.0000      -0.229139        -6.2352
 125   1.0000      -0.219175        -5.9641
 126   1.0000      -0.217664        -5.9229
 127   1.0000      -0.213594        -5.8122
 128   1.0000      -0.211176        -5.7464
 129   1.0000      -0.191144        -5.2013
 130   1.0000      -0.187342        -5.0978
 131   1.0000      -0.185291        -5.0420
 132   1.0000      -0.183709        -4.9990
 133   1.0000      -0.178945        -4.8694
 134   1.0000      -0.158678        -4.3179
 135   1.0000      -0.151391        -4.1196
 136   1.0000      -0.146716        -3.9923
 137   1.0000      -0.135286        -3.6813
 138   1.0000      -0.133862        -3.6426
 139   1.0000      -0.131631        -3.5819
 140   1.0000      -0.124124        -3.3776
 141   1.0000      -0.120445        -3.2775
 142   1.0000      -0.114778        -3.1233
 143   1.0000      -0.110880        -3.0172
 144   1.0000      -0.099602        -2.7103
 145   1.0000      -0.098351        -2.6763
 146   1.0000      -0.096625        -2.6293
 147   1.0000      -0.094419        -2.5693
 148   1.0000      -0.070612        -1.9215
 149   1.0000      -0.067579        -1.8389
 150   1.0000      -0.066927        -1.8212
 151   1.0000      -0.049292        -1.3413
 152   1.0000      -0.044484        -1.2105
 153   1.0000      -0.037034        -1.0077
 154   1.0000      -0.035688        -0.9711
 155   1.0000      -0.030859        -0.8397
 156   1.0000      -0.025624        -0.6973
 157   1.0000      -0.015346        -0.4176
 158   1.0000       0.021122         0.5748
 159   1.0000       0.040504         1.1022
 160   0.0000       0.136745         3.7210
 161   0.0000       0.136893         3.7251
 162   0.0000       0.155928         4.2430
 163   0.0000       0.161953         4.4070
 164   0.0000       0.163304         4.4437

MULLIKEN ATOMIC CHARGES AND SPIN POPULATIONS
--------------------------------------------
   0 V :    0.471470    1.209573
   1 S :   -0.278000   -0.021227
   2 S :   -0.295438   -0.026160
   3 S :   -0.301816   -0.024106
   4 S :   -0.281192   -0.024509
   5 O :   -0.467865   -0.146525
   6 C :   -0.071955    0.008742
   7 C :   -0.089611    0.008993
   8 C :   -0.089969    0.009461
   9 C :   -0.078930    0.005797
  10 S :    0.098493   -0.000728
  11 S :    0.101581   -0.000461
  12 S :    0.098817   -0.000563
  13 S :    0.099361   -0.000077
  14 C :   -0.213412    0.001508
  15 C :   -0.210764    0.000973
  16 C :   -0.190664   -0.000076
  17 C :   -0.189022   -0.000409
  18 S :    0.008645   -0.000115
  19 S :    0.009131   -0.000115
  20 S :    0.007665   -0.000068
  21 S :    0.007817   -0.000074
  22 C :   -0.291125   -0.000002
  23 C :   -0.310932    0.000001
  24 C :   -0.159589   -0.000012
  25 H :    0.135012   -0.000000
  26 H :    0.109125   -0.000004
  27 H :    0.084032   -0.000000
  28 H :    0.093743   -0.000001
  29 H :    0.116740   -0.000005
  30 H :    0.151839   -0.000003
  31 C :   -0.306685    0.000205
  32 C :   -0.294091    0.000185
  33 C :   -0.158326   -0.000241
  34 H :    0.136389   -0.000015
  35 H :    0.110530    0.000017
  36 H :    0.092740    0.000024
  37 H :    0.082841    0.000015
  38 H :    0.115626    0.000024
  39 H :    0.147790   -0.000022
Sum of atomic charges         :   -2.0000000

LOEWDIN ATOMIC CHARGES AND SPIN POPULATIONS
-------------------------------------------
   0 V :   -0.156356    1.162923
   1 S :    0.101257   -0.012702
   2 S :    0.067882   -0.017422
   3 S :    0.061100   -0.016579
   4 S :    0.093951   -0.014808
   5 O :   -0.319522   -0.131452
   6 C :   -0.549349    0.008032
   7 C :   -0.552562    0.009007
   8 C :   -0.552044    0.009998
   9 C :   -0.551923    0.006068
  10 S :    0.470179   -0.000971
  11 S :    0.472817   -0.000867
  12 S :    0.470335   -0.000908
  13 S :    0.470395   -0.000690
  14 C :   -0.465283    0.000154
  15 C :   -0.465371   -0.000093
  16 C :   -0.622428    0.000478
  17 C :   -0.621120    0.000081
  18 S :    0.357981   -0.000094
  19 S :    0.359393   -0.000085
  20 S :    0.357135   -0.000069
  21 S :    0.356607   -0.000080
  22 C :   -0.284825   -0.000007
  23 C :   -0.282838   -0.000010
  24 C :   -0.177431   -0.000002
  25 H :    0.060487   -0.000001
  26 H :    0.055057   -0.000002
  27 H :    0.057781   -0.000002
  28 H :    0.060484   -0.000001
  29 H :    0.054048   -0.000002
  30 H :    0.067867   -0.000002
  31 C :   -0.283596    0.000043
  32 C :   -0.284699    0.000038
  33 C :   -0.176926    0.000006
  34 H :    0.060337   -0.000001
  35 H :    0.054270    0.000007
  36 H :    0.060346    0.000005
  37 H :    0.057681    0.000002
  38 H :    0.053653    0.000010
  39 H :    0.065227   -0.000001

  Mayer bond orders larger than 0.100000
B(  0-V ,  1-S ) :   0.8071 B(  0-V ,  2-S ) :   0.7504 B(  0-V ,  3-S ) :   0.7306
B(  0-V ,  4-S ) :   0.7979 B(  0-V ,  5-O ) :   2.1481 B(  1-S ,  8-C ) :   1.0908
B(  2-S ,  6-C ) :   1.1128 B(  3-S ,  9-C ) :   1.1177 B(  4-S ,  7-C ) :   1.0958
B(  6-C ,  7-C ) :   1.6841 B(  6-C , 10-S ) :   0.9333 B(  7-C , 11-S ) :   0.9401
B(  8-C ,  9-C ) :   1.6982 B(  8-C , 13-S ) :   0.9348 B(  9-C , 12-S ) :   0.9340
B( 10-S , 14-C ) :   1.2494 B( 11-S , 14-C ) :   1.2464 B( 12-S , 15-C ) :   1.2464
B( 13-S , 15-C ) :   1.2427 B( 14-C , 16-C ) :   1.4523 B( 15-C , 17-C ) :   1.4564
B( 16-C , 18-S ) :   1.0819 B( 16-C , 19-S ) :   1.0937 B( 17-C , 20-S ) :   1.0945
B( 17-C , 21-S ) :   1.0784 B( 18-S , 32-C ) :   0.9966 B( 19-S , 31-C ) :   0.9841
B( 20-S , 23-C ) :   0.9786 B( 21-S , 22-C ) :   0.9959 B( 22-C , 24-C ) :   0.9191
B( 22-C , 25-H ) :   0.9623 B( 22-C , 26-H ) :   0.9657 B( 23-C , 24-C ) :   0.9050
B( 23-C , 29-H ) :   0.9632 B( 23-C , 30-H ) :   0.9682 B( 24-C , 27-H ) :   0.9621
B( 24-C , 28-H ) :   0.9722 B( 31-C , 33-C ) :   0.9083 B( 31-C , 38-H ) :   0.9642
B( 31-C , 39-H ) :   0.9676 B( 32-C , 33-C ) :   0.9177 B( 32-C , 34-H ) :   0.9635
B( 32-C , 35-H ) :   0.9658 B( 33-C , 36-H ) :   0.9719 B( 33-C , 37-H ) :   0.9623

FINAL SINGLE POINT ENERGY     -6337.703177939109

DIPOLE MOMENT
-------------
                                X             Y             Z
Electronic contribution:    -10.46472       2.93971       8.19029
Nuclear contribution   :     11.65516      -3.29127      -9.08109
                        -----------------------------------------
Total Dipole Moment    :      1.19043      -0.35156      -0.89080
                        -----------------------------------------
Magnitude (a.u.)       :      1.52782
Magnitude (Debye)      :      3.88342

Rotational constants in cm-1:     0.010755     0.000804     0.000783
Rotational constants in MHz :   322.428404    24.117017    23.486198

                             ****ORCA TERMINATED NORMALLY****
TOTAL RUN TIME: 0 days 1 hours 2 minutes 6 seconds 801 msec
