                         Program Version 5.0.4 -  RELEASE  -
|  1> ! nofrozencore ReducedPop printbasis
|  2> ! B3LYP TZVP
|  3>
|  4> %basis
|  5> newgto V "CP(PPP)" end
|  6> end
|  7>
|  8> %pal
|  9> nprocs 8
| 10> end
| 11>
| 12> % sym SymThresh 1e-2 end
| 13> * xyz -2 2
| 14> V -0.8157640445469714 -0.6088864918820716 -0.4505863215333005
| 15> S -2.068446731290739 1.3708740939985762 0.8468551227041382
| 16> S 0.034227707159986576 1.2658520545253897 -2.1284836827524467
| 17> S -0.618372900497152 -1.6009179262662883 1.579364874973477
| 18> S 1.2045066948384504 -1.5992102457490167 -0.8504629060427744
| 19> O -1.9922817244837976 -1.257186686900208 -1.3148873951931186
| 20> C 1.2567059440929818 0.31688840773023 -2.832749794727478
| 21> C 1.7616795820253899 -0.8530429084315724 -2.4001327350416375
| 22> C -2.177722911975154 0.571381236507236 2.3376419334857332
| 23> C -1.6538893110730888 -0.6080042706701713 2.7193145472817255
| 24> S 1.8154629254028116 1.0865092437868356 -4.333305403466807
| 25> S 3.1102720377971953 -1.4283731770739325 -3.4628255373981234
| 26> S -2.062451157149629 -0.9103051511786249 4.4780460164083635
| 27> S -3.1705336383600535 1.6038667638064137 3.4020735675998397
| 28> C 3.096102769791833 -0.1510938659547282 -4.634547732876661
| 29> C -2.969903053259312 0.5079007553877329 4.840002285956545
| 30> C 4.017160618121725 -0.2426203474481645 -5.645456852408848
| 31> C -3.3898302274313195 0.6011191959282446 6.147129744739777
| 32> S 3.9647771017731244 0.9672619694591992 -6.873435881354712
| 33> S 5.279751683539144 -1.5342618616048849 -5.889292561992256
| 34> S -4.249830505255443 2.0438614769926593 6.5173092721929855
| 35> S -3.0926834314640836 -0.5720377293523405 7.547540375618666
| 36> C -2.0799661649129413 0.6026086609836879 8.576432103211381
| 37> C -3.147752123044247 2.8136544599267155 7.787493945826407
| 38> C -2.8140440829168285 1.8914669180999877 8.961630466566177
| 39> H -1.168355346738785 0.8241290876582622 8.016093434029287
| 40> H -1.8012033931838953 0.042124979756913136 9.474240466707414
| 41> H -2.175138017558858 2.4499612896173586 9.660320248043776
| 42> H -3.7335129174659927 1.6341326952664785 9.49708408068833
| 43> H -3.7007179940407187 3.6900735430886256 8.144128682160025
| 44> H -2.2308817705490367 3.1613204023884753 7.29833412925877
| 45> C 4.632335690140012 -2.209839393440013 -7.496305370820664
| 46> C 3.5780680896356083 -0.05302703037607772 -8.36978225725227
| 47> C 4.576820201537446 -1.181180394061016 -8.627508848309493
| 48> H 2.565927888443098 -0.45541973572435224 -8.266607486259142
| 49> H 3.581024082980691 0.6592931705995168 -9.200710655880835
| 50> H 5.574628457194986 -0.761951014946911 -8.790907265420117
| 51> H 4.282481806285882 -1.6988799539327626 -9.551362765575279
| 52> H 5.304356164537476 -3.0333093953073393 -7.754119060837763
| 53> H 3.641035878055148 -2.626817545851594 -7.302231847636953
| 54> *
| 55>
| 56> % eprnmr
| 57> gtensor true
| 58> Nuclei = all H {aiso,adip,aorb,fgrad,rho}
| 59> Nuclei = all V {aiso,adip,aorb,fgrad,rho}
| 60> end
| 61>
| 62>                          ****END OF INPUT****

CARTESIAN COORDINATES (ANGSTROEM)
---------------------------------
  V     -0.812242   -0.607468   -0.451117
  S     -2.064925    1.372293    0.846324
  S      0.037750    1.267271   -2.129015
  S     -0.614851   -1.599499    1.578834
  S      1.208029   -1.597791   -0.850994
  O     -1.988760   -1.255768   -1.315418
  C      1.260228    0.318307   -2.833281
  C      1.765201   -0.851624   -2.400664
  C     -2.174201    0.572800    2.337111
  C     -1.650367   -0.606585    2.718784
  S      1.818985    1.087928   -4.333836
  S      3.113794   -1.426954   -3.463356
  S     -2.058929   -0.908886    4.477515
  S     -3.167012    1.605286    3.401543
  C      3.099625   -0.149675   -4.635079
  C     -2.966381    0.509320    4.839471
  C      4.020682   -0.241201   -5.645988
  C     -3.386308    0.602538    6.146599
  S      3.968299    0.968681   -6.873967
  S      5.283274   -1.532843   -5.889824
  S     -4.246309    2.045280    6.516778
  S     -3.089162   -0.570619    7.547009
  C     -2.076444    0.604028    8.575901
  C     -3.144230    2.815073    7.786963
  C     -2.810522    1.892886    8.961100
  H     -1.164833    0.825548    8.015562
  H     -1.797682    0.043544    9.473710
  H     -2.171616    2.451380    9.659789
  H     -3.729991    1.635552    9.496553
  H     -3.697196    3.691493    8.143598
  H     -2.227360    3.162739    7.297803
  C      4.635858   -2.208420   -7.496836
  C      3.581590   -0.051608   -8.370313
  C      4.580342   -1.179761   -8.628040
  H      2.569450   -0.454001   -8.267138
  H      3.584546    0.660712   -9.201242
  H      5.578150   -0.760532   -8.791438
  H      4.286004   -1.697461   -9.551894
  H      5.307878   -3.031890   -7.754650
  H      3.644558   -2.625399   -7.302763

 Total Charge           Charge          ....   -2
 Multiplicity           Mult            ....    2
 Number of Electrons    NEL             ....  321
 Basis Dimension        Dim             ....  681

ORBITAL ENERGIES
----------------
                 SPIN UP ORBITALS
  NO   OCC          E(Eh)            E(eV)
   0   1.0000    -196.672774     -5351.7382
   1   1.0000     -88.739343     -2414.7203
   2   1.0000     -88.736763     -2414.6501
   3   1.0000     -88.736114     -2414.6324
   4   1.0000     -88.734784     -2414.5962
   5   1.0000     -88.726179     -2414.3621
   6   1.0000     -88.726133     -2414.3608
   7   1.0000     -88.725556     -2414.3451
   8   1.0000     -88.724077     -2414.3049
   9   1.0000     -88.649880     -2412.2859
  10   1.0000     -88.648093     -2412.2372
  11   1.0000     -88.632172     -2411.8040
  12   1.0000     -88.631502     -2411.7858
  13   1.0000     -22.048378      -599.9669
  14   1.0000     -18.887032      -513.9423
  15   1.0000     -18.554537      -504.8946
  16   1.0000     -18.549841      -504.7668
  17   1.0000     -18.549624      -504.7609
  18   1.0000     -10.074823      -274.1499
  19   1.0000     -10.074783      -274.1488
  20   1.0000     -10.066081      -273.9120
  21   1.0000     -10.065250      -273.8894
  22   1.0000     -10.060404      -273.7575
  23   1.0000     -10.059805      -273.7412
  24   1.0000     -10.050789      -273.4959
  25   1.0000     -10.050773      -273.4954
  26   1.0000     -10.048018      -273.4205
  27   1.0000     -10.046589      -273.3816
  28   1.0000     -10.019402      -272.6418
  29   1.0000     -10.017323      -272.5852
  30   1.0000     -10.017173      -272.5811
  31   1.0000     -10.016377      -272.5595
  32   1.0000      -7.791307      -212.0122
  33   1.0000      -7.789307      -211.9578
  34   1.0000      -7.787968      -211.9214
  35   1.0000      -7.787171      -211.8997
  36   1.0000      -7.780977      -211.7311
  37   1.0000      -7.780452      -211.7169
  38   1.0000      -7.780190      -211.7097
  39   1.0000      -7.778248      -211.6569
  40   1.0000      -7.704047      -209.6378
  41   1.0000      -7.702535      -209.5966
  42   1.0000      -7.687818      -209.1962
  43   1.0000      -7.686994      -209.1737
  44   1.0000      -5.756386      -156.6392
  45   1.0000      -5.754353      -156.5839
  46   1.0000      -5.753715      -156.5665
  47   1.0000      -5.753226      -156.5532
  48   1.0000      -5.752699      -156.5389
  49   1.0000      -5.751102      -156.4954
  50   1.0000      -5.748345      -156.4204
  51   1.0000      -5.747553      -156.3989
  52   1.0000      -5.745948      -156.3552
  53   1.0000      -5.745944      -156.3551
  54   1.0000      -5.745443      -156.3414
  55   1.0000      -5.744901      -156.3267
  56   1.0000      -5.743989      -156.3019
  57   1.0000      -5.743350      -156.2845
  58   1.0000      -5.742947      -156.2735
  59   1.0000      -5.742679      -156.2662
  60   1.0000      -5.742243      -156.2544
  61   1.0000      -5.741654      -156.2384
  62   1.0000      -5.740700      -156.2124
  63   1.0000      -5.738739      -156.1590
  64   1.0000      -5.736107      -156.0874
  65   1.0000      -5.735827      -156.0798
  66   1.0000      -5.735329      -156.0662
  67   1.0000      -5.734169      -156.0347
  68   1.0000      -5.669869      -154.2850
  69   1.0000      -5.668149      -154.2382
  70   1.0000      -5.662290      -154.0787
  71   1.0000      -5.661206      -154.0493
  72   1.0000      -5.660848      -154.0395
  73   1.0000      -5.659819      -154.0115
  74   1.0000      -5.652573      -153.8143
  75   1.0000      -5.651835      -153.7942
  76   1.0000      -5.646737      -153.6555
  77   1.0000      -5.645805      -153.6302
  78   1.0000      -5.645189      -153.6134
  79   1.0000      -5.644393      -153.5917
  80   1.0000      -2.443153       -66.4816
  81   1.0000      -1.483349       -40.3640
  82   1.0000      -1.473971       -40.1088
  83   1.0000      -1.472802       -40.0770
  84   1.0000      -0.710580       -19.3359
  85   1.0000      -0.708982       -19.2924
  86   1.0000      -0.686063       -18.6687
  87   1.0000      -0.684203       -18.6181
  88   1.0000      -0.646811       -17.6006
  89   1.0000      -0.634809       -17.2740
  90   1.0000      -0.633933       -17.2502
  91   1.0000      -0.614779       -16.7290
  92   1.0000      -0.614684       -16.7264
  93   1.0000      -0.582415       -15.8483
  94   1.0000      -0.582117       -15.8402
  95   1.0000      -0.568512       -15.4700
  96   1.0000      -0.564401       -15.3581
  97   1.0000      -0.500818       -13.6280
  98   1.0000      -0.499071       -13.5804
  99   1.0000      -0.492728       -13.4078
 100   1.0000      -0.491265       -13.3680
 101   1.0000      -0.480624       -13.0785
 102   1.0000      -0.476120       -12.9559
 103   1.0000      -0.447973       -12.1900
 104   1.0000      -0.444556       -12.0970
 105   1.0000      -0.416857       -11.3433
 106   1.0000      -0.411122       -11.1872
 107   1.0000      -0.355489        -9.6733
 108   1.0000      -0.353555        -9.6207
 109   1.0000      -0.326795        -8.8925
 110   1.0000      -0.325078        -8.8458
 111   1.0000      -0.316038        -8.5998
 112   1.0000      -0.311266        -8.4700
 113   1.0000      -0.303022        -8.2456
 114   1.0000      -0.301970        -8.2170
 115   1.0000      -0.290727        -7.9111
 116   1.0000      -0.290416        -7.9026
 117   1.0000      -0.260017        -7.0754
 118   1.0000      -0.256291        -6.9740
 119   1.0000      -0.255831        -6.9615
 120   1.0000      -0.254223        -6.9178
 121   1.0000      -0.235239        -6.4012
 122   1.0000      -0.233474        -6.3532
 123   1.0000      -0.231191        -6.2910
 124   1.0000      -0.229638        -6.2488
 125   1.0000      -0.217773        -5.9259
 126   1.0000      -0.216833        -5.9003
 127   1.0000      -0.214088        -5.8256
 128   1.0000      -0.209924        -5.7123
 129   1.0000      -0.199660        -5.4330
 130   1.0000      -0.188169        -5.1203
 131   1.0000      -0.186896        -5.0857
 132   1.0000      -0.180746        -4.9184
 133   1.0000      -0.177637        -4.8337
 134   1.0000      -0.161229        -4.3873
 135   1.0000      -0.150449        -4.0939
 136   1.0000      -0.147253        -4.0070
 137   1.0000      -0.136114        -3.7038
 138   1.0000      -0.135491        -3.6869
 139   1.0000      -0.130931        -3.5628
 140   1.0000      -0.124235        -3.3806
 141   1.0000      -0.119716        -3.2576
 142   1.0000      -0.110417        -3.0046
 143   1.0000      -0.107645        -2.9292
 144   1.0000      -0.100322        -2.7299
 145   1.0000      -0.097771        -2.6605
 146   1.0000      -0.095153        -2.5892
 147   1.0000      -0.092154        -2.5076
 148   1.0000      -0.077090        -2.0977
 149   1.0000      -0.067448        -1.8354
 150   1.0000      -0.065518        -1.7828
 151   1.0000      -0.059565        -1.6208
 152   1.0000      -0.039077        -1.0634
 153   1.0000      -0.037913        -1.0317
 154   1.0000      -0.036428        -0.9913
 155   1.0000      -0.028490        -0.7753
 156   1.0000      -0.026801        -0.7293
 157   1.0000      -0.017896        -0.4870
 158   1.0000      -0.012852        -0.3497
 159   1.0000       0.020542         0.5590
 160   1.0000       0.040130         1.0920
 161   0.0000       0.136177         3.7056
 162   0.0000       0.136703         3.7199
 163   0.0000       0.155954         4.2437
 164   0.0000       0.161443         4.3931
 165   0.0000       0.163038         4.4365

                 SPIN DOWN ORBITALS
  NO   OCC          E(Eh)            E(eV)
   0   1.0000    -196.672912     -5351.7420
   1   1.0000     -88.739344     -2414.7203
   2   1.0000     -88.736764     -2414.6501
   3   1.0000     -88.736121     -2414.6326
   4   1.0000     -88.734793     -2414.5965
   5   1.0000     -88.726179     -2414.3621
   6   1.0000     -88.726139     -2414.3610
   7   1.0000     -88.725556     -2414.3451
   8   1.0000     -88.724076     -2414.3049
   9   1.0000     -88.650010     -2412.2894
  10   1.0000     -88.648214     -2412.2406
  11   1.0000     -88.632309     -2411.8078
  12   1.0000     -88.631645     -2411.7897
  13   1.0000     -22.033834      -599.5711
  14   1.0000     -18.890722      -514.0427
  15   1.0000     -18.549362      -504.7538
  16   1.0000     -18.534195      -504.3411
  17   1.0000     -18.533997      -504.3357
  18   1.0000     -10.074817      -274.1497
  19   1.0000     -10.074785      -274.1488
  20   1.0000     -10.066082      -273.9120
  21   1.0000     -10.065250      -273.8894
  22   1.0000     -10.060402      -273.7575
  23   1.0000     -10.059804      -273.7412
  24   1.0000     -10.050790      -273.4959
  25   1.0000     -10.050773      -273.4954
  26   1.0000     -10.048013      -273.4203
  27   1.0000     -10.046578      -273.3813
  28   1.0000     -10.018811      -272.6257
  29   1.0000     -10.017259      -272.5835
  30   1.0000     -10.016919      -272.5742
  31   1.0000     -10.016048      -272.5505
  32   1.0000      -7.791308      -212.0123
  33   1.0000      -7.789308      -211.9578
  34   1.0000      -7.787978      -211.9216
  35   1.0000      -7.787182      -211.9000
  36   1.0000      -7.780977      -211.7312
  37   1.0000      -7.780452      -211.7169
  38   1.0000      -7.780196      -211.7099
  39   1.0000      -7.778247      -211.6569
  40   1.0000      -7.704157      -209.6408
  41   1.0000      -7.702642      -209.5996
  42   1.0000      -7.687950      -209.1997
  43   1.0000      -7.687129      -209.1774
  44   1.0000      -5.756387      -156.6393
  45   1.0000      -5.754355      -156.5840
  46   1.0000      -5.753719      -156.5667
  47   1.0000      -5.753228      -156.5533
  48   1.0000      -5.752707      -156.5391
  49   1.0000      -5.751103      -156.4955
  50   1.0000      -5.748353      -156.4206
  51   1.0000      -5.747566      -156.3992
  52   1.0000      -5.745949      -156.3552
  53   1.0000      -5.745945      -156.3551
  54   1.0000      -5.745442      -156.3414
  55   1.0000      -5.744910      -156.3270
  56   1.0000      -5.743990      -156.3019
  57   1.0000      -5.743359      -156.2847
  58   1.0000      -5.742948      -156.2736
  59   1.0000      -5.742691      -156.2666
  60   1.0000      -5.742244      -156.2544
  61   1.0000      -5.741654      -156.2383
  62   1.0000      -5.740708      -156.2126
  63   1.0000      -5.738739      -156.1590
  64   1.0000      -5.736111      -156.0875
  65   1.0000      -5.735827      -156.0798
  66   1.0000      -5.735328      -156.0662
  67   1.0000      -5.734164      -156.0345
  68   1.0000      -5.670084      -154.2908
  69   1.0000      -5.668326      -154.2430
  70   1.0000      -5.662549      -154.0858
  71   1.0000      -5.661325      -154.0525
  72   1.0000      -5.661171      -154.0483
  73   1.0000      -5.659858      -154.0126
  74   1.0000      -5.652688      -153.8175
  75   1.0000      -5.651951      -153.7974
  76   1.0000      -5.647113      -153.6658
  77   1.0000      -5.646200      -153.6409
  78   1.0000      -5.645295      -153.6163
  79   1.0000      -5.644503      -153.5947
  80   1.0000      -2.399289       -65.2880
  81   1.0000      -1.464315       -39.8460
  82   1.0000      -1.413083       -38.4519
  83   1.0000      -1.412691       -38.4413
  84   1.0000      -0.710546       -19.3349
  85   1.0000      -0.708950       -19.2915
  86   1.0000      -0.685995       -18.6669
  87   1.0000      -0.684138       -18.6163
  88   1.0000      -0.654780       -17.8175
  89   1.0000      -0.634748       -17.2724
  90   1.0000      -0.633877       -17.2487
  91   1.0000      -0.614781       -16.7290
  92   1.0000      -0.614684       -16.7264
  93   1.0000      -0.582443       -15.8491
  94   1.0000      -0.582148       -15.8411
  95   1.0000      -0.568257       -15.4631
  96   1.0000      -0.564083       -15.3495
  97   1.0000      -0.500737       -13.6257
  98   1.0000      -0.499024       -13.5791
  99   1.0000      -0.492857       -13.4113
 100   1.0000      -0.491408       -13.3719
 101   1.0000      -0.480613       -13.0781
 102   1.0000      -0.476164       -12.9571
 103   1.0000      -0.447944       -12.1892
 104   1.0000      -0.444564       -12.0972
 105   1.0000      -0.416737       -11.3400
 106   1.0000      -0.411118       -11.1871
 107   1.0000      -0.355476        -9.6730
 108   1.0000      -0.353543        -9.6204
 109   1.0000      -0.326765        -8.8917
 110   1.0000      -0.325040        -8.8448
 111   1.0000      -0.315924        -8.5967
 112   1.0000      -0.311285        -8.4705
 113   1.0000      -0.302928        -8.2431
 114   1.0000      -0.301890        -8.2148
 115   1.0000      -0.290718        -7.9108
 116   1.0000      -0.290416        -7.9026
 117   1.0000      -0.259549        -7.0627
 118   1.0000      -0.256240        -6.9726
 119   1.0000      -0.255738        -6.9590
 120   1.0000      -0.254204        -6.9173
 121   1.0000      -0.235178        -6.3995
 122   1.0000      -0.233351        -6.3498
 123   1.0000      -0.231047        -6.2871
 124   1.0000      -0.229580        -6.2472
 125   1.0000      -0.217431        -5.9166
 126   1.0000      -0.216770        -5.8986
 127   1.0000      -0.213833        -5.8187
 128   1.0000      -0.209648        -5.7048
 129   1.0000      -0.197432        -5.3724
 130   1.0000      -0.188086        -5.1181
 131   1.0000      -0.186598        -5.0776
 132   1.0000      -0.180587        -4.9140
 133   1.0000      -0.177489        -4.8297
 134   1.0000      -0.160037        -4.3548
 135   1.0000      -0.150356        -4.0914
 136   1.0000      -0.147114        -4.0032
 137   1.0000      -0.135483        -3.6867
 138   1.0000      -0.135173        -3.6782
 139   1.0000      -0.130713        -3.5569
 140   1.0000      -0.123221        -3.3530
 141   1.0000      -0.119316        -3.2468
 142   1.0000      -0.111970        -3.0469
 143   1.0000      -0.108710        -2.9582
 144   1.0000      -0.100322        -2.7299
 145   1.0000      -0.097988        -2.6664
 146   1.0000      -0.095105        -2.5879
 147   1.0000      -0.092176        -2.5082
 148   1.0000      -0.072083        -1.9615
 149   1.0000      -0.067356        -1.8328
 150   1.0000      -0.065454        -1.7811
 151   1.0000      -0.057377        -1.5613
 152   1.0000      -0.038632        -1.0512
 153   1.0000      -0.037497        -1.0203
 154   1.0000      -0.034846        -0.9482
 155   1.0000      -0.028547        -0.7768
 156   1.0000      -0.026822        -0.7299
 157   1.0000      -0.015463        -0.4208
 158   1.0000       0.020896         0.5686
 159   1.0000       0.039121         1.0645
 160   0.0000       0.136159         3.7051
 161   0.0000       0.136702         3.7198
 162   0.0000       0.146835         3.9956
 163   0.0000       0.161502         4.3947
 164   0.0000       0.162813         4.4304

MULLIKEN ATOMIC CHARGES AND SPIN POPULATIONS
--------------------------------------------
   0 V :    0.480098    1.188089
   1 S :   -0.332277   -0.023345
   2 S :   -0.323266   -0.025507
   3 S :   -0.237578   -0.020892
   4 S :   -0.244908   -0.022132
   5 O :   -0.477485   -0.142765
   6 C :   -0.167911    0.002435
   7 C :   -0.001696    0.019573
   8 C :   -0.194765   -0.001541
   9 C :    0.018299    0.025731
  10 S :    0.111564   -0.000847
  11 S :    0.091409   -0.000169
  12 S :    0.085500    0.000441
  13 S :    0.109981   -0.000586
  14 C :   -0.193986    0.001322
  15 C :   -0.202133    0.000755
  16 C :   -0.203942   -0.000038
  17 C :   -0.189868   -0.000346
  18 S :    0.005982   -0.000073
  19 S :    0.008785   -0.000167
  20 S :    0.002244    0.000051
  21 S :    0.005838   -0.000147
  22 C :   -0.303543   -0.000030
  23 C :   -0.290876    0.000016
  24 C :   -0.158112    0.000016
  25 H :    0.149082    0.000002
  26 H :    0.117290   -0.000019
  27 H :    0.083114   -0.000004
  28 H :    0.090432   -0.000004
  29 H :    0.106634    0.000006
  30 H :    0.133330    0.000000
  31 C :   -0.307786    0.000146
  32 C :   -0.297780    0.000200
  33 C :   -0.155664   -0.000192
  34 H :    0.135070   -0.000016
  35 H :    0.109757    0.000023
  36 H :    0.092001    0.000016
  37 H :    0.082859    0.000010
  38 H :    0.117758    0.000006
  39 H :    0.146550   -0.000016
Sum of atomic charges         :   -2.0000000

LOEWDIN ATOMIC CHARGES AND SPIN POPULATIONS
-------------------------------------------
   0 V :   -0.179078    1.139621
   1 S :    0.039463   -0.017479
   2 S :    0.043527   -0.018872
   3 S :    0.145751   -0.008752
   4 S :    0.142885   -0.009021
   5 O :   -0.329302   -0.128292
   6 C :   -0.562027    0.003066
   7 C :   -0.546866    0.017907
   8 C :   -0.561449    0.000989
   9 C :   -0.533651    0.022835
  10 S :    0.469525   -0.000992
  11 S :    0.479160   -0.000586
  12 S :    0.475030    0.000232
  13 S :    0.460596   -0.000870
  14 C :   -0.463901    0.000097
  15 C :   -0.469052   -0.000196
  16 C :   -0.631901    0.000412
  17 C :   -0.625365    0.000084
  18 S :    0.377453   -0.000046
  19 S :    0.342966   -0.000136
  20 S :    0.382296    0.000042
  21 S :    0.333881   -0.000131
  22 C :   -0.280138   -0.000027
  23 C :   -0.288300    0.000025
  24 C :   -0.175680   -0.000002
  25 H :    0.065159   -0.000002
  26 H :    0.054227   -0.000010
  27 H :    0.058169   -0.000002
  28 H :    0.059903   -0.000002
  29 H :    0.053622    0.000004
  30 H :    0.058919    0.000001
  31 C :   -0.281552    0.000011
  32 C :   -0.287270    0.000074
  33 C :   -0.176295    0.000004
  34 H :    0.059634   -0.000001
  35 H :    0.053510    0.000011
  36 H :    0.059954    0.000003
  37 H :    0.057764    0.000002
  38 H :    0.054095    0.000002
  39 H :    0.064338   -0.000002

  Mayer bond orders larger than 0.100000
B(  0-V ,  1-S ) :   0.6209 B(  0-V ,  2-S ) :   0.6325 B(  0-V ,  3-S ) :   0.9187
B(  0-V ,  4-S ) :   0.9176 B(  0-V ,  5-O ) :   2.1251 B(  1-S ,  8-C ) :   1.2105
B(  2-S ,  6-C ) :   1.2183 B(  3-S ,  9-C ) :   0.9715 B(  4-S ,  7-C ) :   0.9881
B(  6-C ,  7-C ) :   1.6517 B(  6-C , 10-S ) :   0.9721 B(  7-C , 11-S ) :   0.9163
B(  8-C ,  9-C ) :   1.6664 B(  8-C , 13-S ) :   0.9764 B(  9-C , 12-S ) :   0.8970
B( 10-S , 14-C ) :   1.2044 B( 11-S , 14-C ) :   1.2535 B( 12-S , 15-C ) :   1.2485
B( 13-S , 15-C ) :   1.1833 B( 14-C , 16-C ) :   1.4286 B( 15-C , 17-C ) :   1.4202
B( 16-C , 18-S ) :   1.1099 B( 16-C , 19-S ) :   1.0800 B( 17-C , 20-S ) :   1.0939
B( 17-C , 21-S ) :   1.0611 B( 18-S , 32-C ) :   0.9832 B( 19-S , 31-C ) :   0.9915
B( 20-S , 23-C ) :   0.9837 B( 21-S , 22-C ) :   0.9944 B( 22-C , 24-C ) :   0.9103
B( 22-C , 25-H ) :   0.9688 B( 22-C , 26-H ) :   0.9654 B( 23-C , 24-C ) :   0.9212
B( 23-C , 29-H ) :   0.9655 B( 23-C , 30-H ) :   0.9608 B( 24-C , 27-H ) :   0.9633
B( 24-C , 28-H ) :   0.9713 B( 31-C , 33-C ) :   0.9086 B( 31-C , 38-H ) :   0.9658
B( 31-C , 39-H ) :   0.9682 B( 32-C , 33-C ) :   0.9156 B( 32-C , 34-H ) :   0.9625
B( 32-C , 35-H ) :   0.9658 B( 33-C , 36-H ) :   0.9717 B( 33-C , 37-H ) :   0.9633

FINAL SINGLE POINT ENERGY     -6337.645457442437

DIPOLE MOMENT
-------------
                                X             Y             Z
Electronic contribution:    -11.80710      -6.00484      -2.76917
Nuclear contribution   :     13.27298       6.42999       3.18496
                        -----------------------------------------
Total Dipole Moment    :      1.46589       0.42515       0.41579
                        -----------------------------------------
Magnitude (a.u.)       :      1.58192
Magnitude (Debye)      :      4.02091

Rotational constants in cm-1:     0.010762     0.000804     0.000783
Rotational constants in MHz :   322.636010    24.115376    23.488303

                             ****ORCA TERMINATED NORMALLY****
TOTAL RUN TIME: 0 days 1 hours 2 minutes 28 seconds 368 msec
