                         Program Version 5.0.4 -  RELEASE  -
|  1> ! nofrozencore ReducedPop printbasis
|  2> ! B3LYP TZVP
|  3>
|  4> %basis
|  5> newgto V "CP(PPP)" end
|  6> end
|  7>
|  8> %pal
|  9> nprocs 6
| 10> end
| 11>
| 12> % sym SymThresh 1e-2 end
| 13> * xyz -2 2
| 14> V -0.22992827736047816 -1.089022368883695 -0.012042917710778374
| 15> S 1.0439427294585775 -0.8485840131272756 -2.1187433854066384
| 16> S 1.9497998106457686 -0.7919942912963549 1.1226703093097767
| 17> S -2.1096005979540045 -0.03877475912074827 -1.2347770732436831
| 18> S -1.1878888675411956 0.09319215907210623 1.9295431336832498
| 19> O -0.5820196866557943 -2.629647912352075 0.15128260552180692
| 20> C 1.38070442005587 -0.47906059578512095 2.7571060084206396
| 21> C 0.12353188127108763 -0.12090561341983928 3.079489608473976
| 22> C -0.22338300459961716 -0.3457182810260793 -3.228577041972426
| 23> C -1.4801717076128467 -0.020354933575917684 -2.874516426991954
| 24> S 2.5569532810648434 -0.5624704423755054 4.112607211294271
| 25> S -0.19019156932778938 0.23608574458532364 4.810076367307512
| 26> S -2.572030531074967 0.5169795539807952 -4.196395029067454
| 27> S 0.1762090092732177 -0.2016760594251991 -4.973502056118975
| 28> C 1.4504803741316785 -0.05973727660381272 5.39663795056068
| 29> C -1.3840216162209475 0.42041294943518404 -5.50823294338115
| 30> C 1.8187151435273672 0.07555620881305537 6.706998170765744
| 31> C -1.6690857153216496 0.7851035953431901 -6.795005643326679
| 32> S 3.4711288470617796 -0.28773215459946616 7.266924469094137
| 33> S 0.6601996704239766 0.5915979104985545 7.958918047317978
| 34> S -0.4335947633947483 0.6632122229838394 -8.086793946158112
| 35> S -3.246408283632854 1.433793643046585 -7.279184433023949
| 36> C -2.7867206571288636 3.107162759663292 -7.732171069879331
| 37> C -0.4069101469408264 2.526808111840344 -8.528336860375793
| 38> C -1.4991327280079523 3.059542672615549 -8.957189667451502
| 39> H -2.4675949475783465 3.5499496287912127 -6.7778285983667335
| 40> H -3.695584021576166 3.6177187190356594 -8.059631170386082
| 41> H -1.0685369527893442 4.0341261532378345 -9.329433990594294
| 42> H -1.817423191800963 2.51207787931736 -9.853589777129876
| 43> H 0.2926894148617252 2.5808697131122056 -9.367328105254188
| 44> H -0.01091826650782779 3.1561182821711773 -7.7187702657047215
| 45> C 0.6793347754774803 -0.9380957708638572 9.001211720504429
| 46> C 3.066793483858775 -1.6895538150417675 8.407347713641215
| 47> C 2.0714681861775808 -1.3189103142814502 9.50923682236767
| 48> H 2.6886904273968093 -2.518570760447295 7.804894892575857
| 49> H 4.02143505852746 -1.9925256938425875 8.844754658623797
| 50> H 2.479083408418226 -0.49477032911769075 10.1031661143604
| 51> H 1.965794823862701 -2.1835589432929328 10.179400979501303
| 52> H 0.013635093455622265 -0.7250036217352399 9.841388886465124
| 53> H 0.24255579013960316 -1.75113184452734 8.416914032760346
| 54> *
| 55>
| 56> % eprnmr
| 57> gtensor true
| 58> Nuclei = all H {aiso,adip,aorb,fgrad,rho}
| 59> Nuclei = all V {aiso,adip,aorb,fgrad,rho}
| 60> end
| 61>
| 62>                          ****END OF INPUT****

CARTESIAN COORDINATES (ANGSTROEM)
---------------------------------
  V     -0.228587   -1.086116   -0.009933
  S      1.045284   -0.845678   -2.116633
  S      1.951141   -0.789088    1.124780
  S     -2.108259   -0.035868   -1.232667
  S     -1.186547    0.096099    1.931653
  O     -0.580678   -2.626742    0.153392
  C      1.382046   -0.476154    2.759216
  C      0.124874   -0.117999    3.081599
  C     -0.222041   -0.342812   -3.226467
  C     -1.478830   -0.017449   -2.872407
  S      2.558295   -0.559564    4.114717
  S     -0.188850    0.238992    4.812186
  S     -2.570689    0.519886   -4.194285
  S      0.177551   -0.198770   -4.971392
  C      1.451822   -0.056831    5.398748
  C     -1.382680    0.423319   -5.506123
  C      1.820057    0.078463    6.709108
  C     -1.667744    0.788010   -6.792896
  S      3.472470   -0.284826    7.269034
  S      0.661541    0.594504    7.961028
  S     -0.432253    0.666119   -8.084684
  S     -3.245067    1.436700   -7.277075
  C     -2.785379    3.110069   -7.730061
  C     -0.405568    2.529714   -8.526227
  C     -1.497791    3.062449   -8.955080
  H     -2.466253    3.552856   -6.775719
  H     -3.694242    3.620625   -8.057521
  H     -1.067195    4.037033   -9.327324
  H     -1.816082    2.514984   -9.851480
  H      0.294031    2.583776   -9.365218
  H     -0.009577    3.159025   -7.716660
  C      0.680676   -0.935189    9.003322
  C      3.068135   -1.686647    8.409458
  C      2.072810   -1.316004    9.511347
  H      2.690032   -2.515664    7.807005
  H      4.022777   -1.989619    8.846865
  H      2.480425   -0.491864   10.105276
  H      1.967136   -2.180653   10.181511
  H      0.014977   -0.722097    9.843499
  H      0.243897   -1.748225    8.419024

 Total Charge           Charge          ....   -2
 Multiplicity           Mult            ....    2
 Number of Electrons    NEL             ....  321
 Basis Dimension        Dim             ....  681

ORBITAL ENERGIES
----------------
                 SPIN UP ORBITALS
  NO   OCC          E(Eh)            E(eV)
   0   1.0000    -196.674493     -5351.7850
   1   1.0000     -88.733021     -2414.5482
   2   1.0000     -88.733012     -2414.5480
   3   1.0000     -88.732807     -2414.5424
   4   1.0000     -88.731924     -2414.5184
   5   1.0000     -88.730177     -2414.4709
   6   1.0000     -88.729985     -2414.4656
   7   1.0000     -88.729807     -2414.4608
   8   1.0000     -88.729444     -2414.4509
   9   1.0000     -88.639480     -2412.0029
  10   1.0000     -88.639369     -2411.9998
  11   1.0000     -88.639151     -2411.9939
  12   1.0000     -88.638974     -2411.9891
  13   1.0000     -22.049892      -600.0081
  14   1.0000     -18.889804      -514.0177
  15   1.0000     -18.556341      -504.9437
  16   1.0000     -18.551166      -504.8029
  17   1.0000     -18.551067      -504.8002
  18   1.0000     -10.075547      -274.1696
  19   1.0000     -10.075522      -274.1689
  20   1.0000     -10.073807      -274.1222
  21   1.0000     -10.063318      -273.8368
  22   1.0000     -10.063267      -273.8354
  23   1.0000     -10.051659      -273.5196
  24   1.0000     -10.051152      -273.5057
  25   1.0000     -10.050366      -273.4844
  26   1.0000     -10.048269      -273.4273
  27   1.0000     -10.048048      -273.4213
  28   1.0000     -10.017894      -272.6008
  29   1.0000     -10.017627      -272.5935
  30   1.0000     -10.016957      -272.5753
  31   1.0000     -10.016829      -272.5718
  32   1.0000      -7.787227      -211.9012
  33   1.0000      -7.786470      -211.8806
  34   1.0000      -7.786443      -211.8799
  35   1.0000      -7.784753      -211.8339
  36   1.0000      -7.783502      -211.7998
  37   1.0000      -7.783240      -211.7927
  38   1.0000      -7.783105      -211.7891
  39   1.0000      -7.782689      -211.7777
  40   1.0000      -7.693771      -209.3581
  41   1.0000      -7.693692      -209.3560
  42   1.0000      -7.693403      -209.3481
  43   1.0000      -7.693327      -209.3461
  44   1.0000      -5.752213      -156.5257
  45   1.0000      -5.751462      -156.5052
  46   1.0000      -5.751436      -156.5045
  47   1.0000      -5.749531      -156.4527
  48   1.0000      -5.748551      -156.4260
  49   1.0000      -5.748440      -156.4230
  50   1.0000      -5.748181      -156.4159
  51   1.0000      -5.748046      -156.4123
  52   1.0000      -5.748041      -156.4122
  53   1.0000      -5.748025      -156.4117
  54   1.0000      -5.747644      -156.4014
  55   1.0000      -5.746586      -156.3726
  56   1.0000      -5.743994      -156.3020
  57   1.0000      -5.743757      -156.2956
  58   1.0000      -5.743612      -156.2916
  59   1.0000      -5.743231      -156.2813
  60   1.0000      -5.742063      -156.2495
  61   1.0000      -5.741266      -156.2278
  62   1.0000      -5.741235      -156.2270
  63   1.0000      -5.739639      -156.1835
  64   1.0000      -5.739335      -156.1753
  65   1.0000      -5.739067      -156.1680
  66   1.0000      -5.738933      -156.1643
  67   1.0000      -5.738485      -156.1521
  68   1.0000      -5.659089      -153.9916
  69   1.0000      -5.659002      -153.9893
  70   1.0000      -5.658740      -153.9821
  71   1.0000      -5.658615      -153.9787
  72   1.0000      -5.652430      -153.8104
  73   1.0000      -5.652331      -153.8077
  74   1.0000      -5.652071      -153.8007
  75   1.0000      -5.652002      -153.7988
  76   1.0000      -5.651092      -153.7740
  77   1.0000      -5.651010      -153.7718
  78   1.0000      -5.650691      -153.7631
  79   1.0000      -5.650640      -153.7617
  80   1.0000      -2.443531       -66.4919
  81   1.0000      -1.484839       -40.4045
  82   1.0000      -1.473169       -40.0870
  83   1.0000      -1.472354       -40.0648
  84   1.0000      -0.721991       -19.6464
  85   1.0000      -0.709301       -19.3011
  86   1.0000      -0.697418       -18.9777
  87   1.0000      -0.685427       -18.6514
  88   1.0000      -0.651920       -17.7396
  89   1.0000      -0.649328       -17.6691
  90   1.0000      -0.631127       -17.1738
  91   1.0000      -0.617101       -16.7922
  92   1.0000      -0.611843       -16.6491
  93   1.0000      -0.575614       -15.6633
  94   1.0000      -0.574160       -15.6237
  95   1.0000      -0.572966       -15.5912
  96   1.0000      -0.569840       -15.5061
  97   1.0000      -0.505945       -13.7675
  98   1.0000      -0.495989       -13.4966
  99   1.0000      -0.495698       -13.4886
 100   1.0000      -0.483658       -13.1610
 101   1.0000      -0.477969       -13.0062
 102   1.0000      -0.472274       -12.8512
 103   1.0000      -0.446238       -12.1428
 104   1.0000      -0.437977       -11.9180
 105   1.0000      -0.416268       -11.3272
 106   1.0000      -0.411047       -11.1852
 107   1.0000      -0.364509        -9.9188
 108   1.0000      -0.355190        -9.6652
 109   1.0000      -0.338444        -9.2095
 110   1.0000      -0.326522        -8.8851
 111   1.0000      -0.320343        -8.7170
 112   1.0000      -0.315964        -8.5978
 113   1.0000      -0.306907        -8.3514
 114   1.0000      -0.303714        -8.2645
 115   1.0000      -0.292305        -7.9540
 116   1.0000      -0.291084        -7.9208
 117   1.0000      -0.268314        -7.3012
 118   1.0000      -0.259951        -7.0736
 119   1.0000      -0.256803        -6.9880
 120   1.0000      -0.256275        -6.9736
 121   1.0000      -0.239786        -6.5249
 122   1.0000      -0.234220        -6.3735
 123   1.0000      -0.230476        -6.2716
 124   1.0000      -0.218710        -5.9514
 125   1.0000      -0.216944        -5.9033
 126   1.0000      -0.214335        -5.8324
 127   1.0000      -0.213567        -5.8115
 128   1.0000      -0.206242        -5.6121
 129   1.0000      -0.192540        -5.2393
 130   1.0000      -0.185757        -5.0547
 131   1.0000      -0.183825        -5.0021
 132   1.0000      -0.180356        -4.9077
 133   1.0000      -0.174919        -4.7598
 134   1.0000      -0.158960        -4.3255
 135   1.0000      -0.150488        -4.0950
 136   1.0000      -0.145756        -3.9662
 137   1.0000      -0.135483        -3.6867
 138   1.0000      -0.132628        -3.6090
 139   1.0000      -0.131831        -3.5873
 140   1.0000      -0.124457        -3.3866
 141   1.0000      -0.120629        -3.2825
 142   1.0000      -0.113105        -3.0778
 143   1.0000      -0.109195        -2.9713
 144   1.0000      -0.099323        -2.7027
 145   1.0000      -0.097779        -2.6607
 146   1.0000      -0.096784        -2.6336
 147   1.0000      -0.094303        -2.5661
 148   1.0000      -0.074107        -2.0166
 149   1.0000      -0.067363        -1.8330
 150   1.0000      -0.066289        -1.8038
 151   1.0000      -0.051938        -1.4133
 152   1.0000      -0.045190        -1.2297
 153   1.0000      -0.037038        -1.0079
 154   1.0000      -0.036695        -0.9985
 155   1.0000      -0.030832        -0.8390
 156   1.0000      -0.024562        -0.6684
 157   1.0000      -0.018709        -0.5091
 158   1.0000      -0.015030        -0.4090
 159   1.0000       0.020809         0.5662
 160   1.0000       0.041652         1.1334
 161   0.0000       0.137074         3.7300
 162   0.0000       0.137419         3.7394
 163   0.0000       0.155071         4.2197
 164   0.0000       0.162172         4.4129
 165   0.0000       0.166294         4.5251

                 SPIN DOWN ORBITALS
  NO   OCC          E(Eh)            E(eV)
   0   1.0000    -196.674640     -5351.7890
   1   1.0000     -88.733021     -2414.5483
   2   1.0000     -88.733013     -2414.5480
   3   1.0000     -88.732808     -2414.5425
   4   1.0000     -88.731924     -2414.5184
   5   1.0000     -88.730185     -2414.4711
   6   1.0000     -88.729993     -2414.4659
   7   1.0000     -88.729815     -2414.4610
   8   1.0000     -88.729452     -2414.4511
   9   1.0000     -88.639617     -2412.0066
  10   1.0000     -88.639508     -2412.0036
  11   1.0000     -88.639292     -2411.9978
  12   1.0000     -88.639113     -2411.9929
  13   1.0000     -22.034966      -599.6019
  14   1.0000     -18.893577      -514.1204
  15   1.0000     -18.551080      -504.8005
  16   1.0000     -18.535136      -504.3667
  17   1.0000     -18.534955      -504.3618
  18   1.0000     -10.075542      -274.1694
  19   1.0000     -10.075521      -274.1689
  20   1.0000     -10.073807      -274.1222
  21   1.0000     -10.063317      -273.8368
  22   1.0000     -10.063266      -273.8354
  23   1.0000     -10.051659      -273.5196
  24   1.0000     -10.051152      -273.5057
  25   1.0000     -10.050367      -273.4844
  26   1.0000     -10.048265      -273.4272
  27   1.0000     -10.048036      -273.4210
  28   1.0000     -10.017656      -272.5943
  29   1.0000     -10.017415      -272.5877
  30   1.0000     -10.016733      -272.5692
  31   1.0000     -10.016616      -272.5660
  32   1.0000      -7.787227      -211.9012
  33   1.0000      -7.786471      -211.8806
  34   1.0000      -7.786444      -211.8799
  35   1.0000      -7.784753      -211.8339
  36   1.0000      -7.783511      -211.8001
  37   1.0000      -7.783249      -211.7930
  38   1.0000      -7.783114      -211.7893
  39   1.0000      -7.782698      -211.7780
  40   1.0000      -7.693898      -209.3616
  41   1.0000      -7.693823      -209.3596
  42   1.0000      -7.693534      -209.3517
  43   1.0000      -7.693457      -209.3496
  44   1.0000      -5.752213      -156.5257
  45   1.0000      -5.751463      -156.5053
  46   1.0000      -5.751437      -156.5046
  47   1.0000      -5.749531      -156.4527
  48   1.0000      -5.748552      -156.4261
  49   1.0000      -5.748451      -156.4233
  50   1.0000      -5.748191      -156.4162
  51   1.0000      -5.748056      -156.4126
  52   1.0000      -5.748042      -156.4122
  53   1.0000      -5.748026      -156.4117
  54   1.0000      -5.747655      -156.4016
  55   1.0000      -5.746587      -156.3726
  56   1.0000      -5.744008      -156.3024
  57   1.0000      -5.743771      -156.2960
  58   1.0000      -5.743626      -156.2920
  59   1.0000      -5.743245      -156.2816
  60   1.0000      -5.742063      -156.2495
  61   1.0000      -5.741267      -156.2278
  62   1.0000      -5.741236      -156.2270
  63   1.0000      -5.739640      -156.1836
  64   1.0000      -5.739341      -156.1754
  65   1.0000      -5.739075      -156.1682
  66   1.0000      -5.738942      -156.1646
  67   1.0000      -5.738492      -156.1523
  68   1.0000      -5.659231      -153.9955
  69   1.0000      -5.659140      -153.9930
  70   1.0000      -5.658882      -153.9860
  71   1.0000      -5.658757      -153.9826
  72   1.0000      -5.652779      -153.8199
  73   1.0000      -5.652717      -153.8183
  74   1.0000      -5.652452      -153.8110
  75   1.0000      -5.652363      -153.8086
  76   1.0000      -5.651197      -153.7769
  77   1.0000      -5.651096      -153.7741
  78   1.0000      -5.650784      -153.7657
  79   1.0000      -5.650745      -153.7646
  80   1.0000      -2.398667       -65.2710
  81   1.0000      -1.465570       -39.8802
  82   1.0000      -1.410810       -38.3901
  83   1.0000      -1.410646       -38.3856
  84   1.0000      -0.721990       -19.6463
  85   1.0000      -0.709275       -19.3003
  86   1.0000      -0.697375       -18.9765
  87   1.0000      -0.685371       -18.6499
  88   1.0000      -0.657537       -17.8925
  89   1.0000      -0.651759       -17.7353
  90   1.0000      -0.631052       -17.1718
  91   1.0000      -0.617101       -16.7922
  92   1.0000      -0.611806       -16.6481
  93   1.0000      -0.575579       -15.6623
  94   1.0000      -0.574130       -15.6229
  95   1.0000      -0.572882       -15.5889
  96   1.0000      -0.569795       -15.5049
  97   1.0000      -0.505960       -13.7679
  98   1.0000      -0.496008       -13.4971
  99   1.0000      -0.495741       -13.4898
 100   1.0000      -0.483851       -13.1662
 101   1.0000      -0.478194       -13.0123
 102   1.0000      -0.472361       -12.8536
 103   1.0000      -0.446266       -12.1435
 104   1.0000      -0.438005       -11.9187
 105   1.0000      -0.416265       -11.3272
 106   1.0000      -0.411156       -11.1881
 107   1.0000      -0.364506        -9.9187
 108   1.0000      -0.355180        -9.6649
 109   1.0000      -0.338440        -9.2094
 110   1.0000      -0.326507        -8.8847
 111   1.0000      -0.320287        -8.7155
 112   1.0000      -0.315961        -8.5977
 113   1.0000      -0.306872        -8.3504
 114   1.0000      -0.303675        -8.2634
 115   1.0000      -0.292299        -7.9539
 116   1.0000      -0.291074        -7.9205
 117   1.0000      -0.268297        -7.3007
 118   1.0000      -0.259831        -7.0704
 119   1.0000      -0.256745        -6.9864
 120   1.0000      -0.256211        -6.9719
 121   1.0000      -0.239681        -6.5221
 122   1.0000      -0.234198        -6.3729
 123   1.0000      -0.230437        -6.2705
 124   1.0000      -0.218271        -5.9394
 125   1.0000      -0.216859        -5.9010
 126   1.0000      -0.214144        -5.8272
 127   1.0000      -0.213487        -5.8093
 128   1.0000      -0.206135        -5.6092
 129   1.0000      -0.190884        -5.1942
 130   1.0000      -0.185364        -5.0440
 131   1.0000      -0.183624        -4.9967
 132   1.0000      -0.180256        -4.9050
 133   1.0000      -0.174811        -4.7569
 134   1.0000      -0.158336        -4.3086
 135   1.0000      -0.150325        -4.0906
 136   1.0000      -0.145680        -3.9642
 137   1.0000      -0.134893        -3.6706
 138   1.0000      -0.132411        -3.6031
 139   1.0000      -0.131372        -3.5748
 140   1.0000      -0.123946        -3.3727
 141   1.0000      -0.120305        -3.2737
 142   1.0000      -0.114887        -3.1262
 143   1.0000      -0.110755        -3.0138
 144   1.0000      -0.099304        -2.7022
 145   1.0000      -0.098105        -2.6696
 146   1.0000      -0.096787        -2.6337
 147   1.0000      -0.094609        -2.5744
 148   1.0000      -0.070277        -1.9123
 149   1.0000      -0.067360        -1.8330
 150   1.0000      -0.066278        -1.8035
 151   1.0000      -0.049348        -1.3428
 152   1.0000      -0.044250        -1.2041
 153   1.0000      -0.037075        -1.0089
 154   1.0000      -0.036132        -0.9832
 155   1.0000      -0.030872        -0.8401
 156   1.0000      -0.025599        -0.6966
 157   1.0000      -0.015242        -0.4147
 158   1.0000       0.021101         0.5742
 159   1.0000       0.040553         1.1035
 160   0.0000       0.137079         3.7301
 161   0.0000       0.137413         3.7392
 162   0.0000       0.154215         4.1964
 163   0.0000       0.157486         4.2854
 164   0.0000       0.162916         4.4332

MULLIKEN ATOMIC CHARGES AND SPIN POPULATIONS
--------------------------------------------
   0 V :    0.471268    1.210280
   1 S :   -0.291141   -0.022377
   2 S :   -0.289740   -0.025169
   3 S :   -0.288994   -0.023413
   4 S :   -0.285615   -0.025656
   5 O :   -0.467930   -0.146414
   6 C :   -0.077545    0.009714
   7 C :   -0.084375    0.008041
   8 C :   -0.085046    0.007712
   9 C :   -0.083947    0.007397
  10 S :    0.099582   -0.000584
  11 S :    0.100863   -0.000627
  12 S :    0.093503   -0.000384
  13 S :    0.104779   -0.000351
  14 C :   -0.214033    0.001507
  15 C :   -0.208822    0.000984
  16 C :   -0.191269   -0.000061
  17 C :   -0.193929   -0.000396
  18 S :    0.008921   -0.000115
  19 S :    0.009178   -0.000114
  20 S :   -0.012420   -0.000069
  21 S :    0.020243   -0.000067
  22 C :   -0.310961    0.000002
  23 C :   -0.300757   -0.000009
  24 C :   -0.109333   -0.000009
  25 H :    0.151253   -0.000001
  26 H :    0.120452   -0.000005
  27 H :    0.069092   -0.000002
  28 H :    0.086770   -0.000002
  29 H :    0.101092   -0.000003
  30 H :    0.131662   -0.000001
  31 C :   -0.300511    0.000197
  32 C :   -0.300963    0.000192
  33 C :   -0.157248   -0.000240
  34 H :    0.142194   -0.000018
  35 H :    0.113397    0.000019
  36 H :    0.092228    0.000024
  37 H :    0.082568    0.000015
  38 H :    0.113271    0.000021
  39 H :    0.142263   -0.000018
Sum of atomic charges         :   -2.0000000

LOEWDIN ATOMIC CHARGES AND SPIN POPULATIONS
-------------------------------------------
   0 V :   -0.155929    1.163694
   1 S :    0.080098   -0.014417
   2 S :    0.079281   -0.016041
   3 S :    0.081089   -0.015294
   4 S :    0.083154   -0.016284
   5 O :   -0.319115   -0.131349
   6 C :   -0.549993    0.009065
   7 C :   -0.552179    0.007942
   8 C :   -0.552993    0.008120
   9 C :   -0.551754    0.007667
  10 S :    0.471215   -0.000900
  11 S :    0.472135   -0.000950
  12 S :    0.466236   -0.000821
  13 S :    0.475266   -0.000833
  14 C :   -0.465078    0.000158
  15 C :   -0.465292   -0.000081
  16 C :   -0.622737    0.000481
  17 C :   -0.621824    0.000086
  18 S :    0.358710   -0.000090
  19 S :    0.360072   -0.000088
  20 S :    0.329722   -0.000074
  21 S :    0.379107   -0.000072
  22 C :   -0.301133   -0.000006
  23 C :   -0.277335   -0.000011
  24 C :   -0.168222   -0.000002
  25 H :    0.063083   -0.000001
  26 H :    0.052901   -0.000002
  27 H :    0.068848   -0.000003
  28 H :    0.057908   -0.000001
  29 H :    0.055372   -0.000002
  30 H :    0.064470   -0.000001
  31 C :   -0.284130    0.000044
  32 C :   -0.283829    0.000037
  33 C :   -0.176349    0.000006
  34 H :    0.062117   -0.000001
  35 H :    0.053496    0.000008
  36 H :    0.060225    0.000005
  37 H :    0.057784    0.000002
  38 H :    0.053581    0.000009
  39 H :    0.062024   -0.000000

  Mayer bond orders larger than 0.100000
B(  0-V ,  1-S ) :   0.7716 B(  0-V ,  2-S ) :   0.7711 B(  0-V ,  3-S ) :   0.7652
B(  0-V ,  4-S ) :   0.7783 B(  0-V ,  5-O ) :   2.1485 B(  1-S ,  8-C ) :   1.1034
B(  2-S ,  6-C ) :   1.1043 B(  3-S ,  9-C ) :   1.1062 B(  4-S ,  7-C ) :   1.1048
B(  6-C ,  7-C ) :   1.6845 B(  6-C , 10-S ) :   0.9350 B(  7-C , 11-S ) :   0.9388
B(  8-C ,  9-C ) :   1.6987 B(  8-C , 13-S ) :   0.9328 B(  9-C , 12-S ) :   0.9366
B( 10-S , 14-C ) :   1.2488 B( 11-S , 14-C ) :   1.2487 B( 12-S , 15-C ) :   1.2371
B( 13-S , 15-C ) :   1.2532 B( 14-C , 16-C ) :   1.4508 B( 15-C , 17-C ) :   1.4551
B( 16-C , 18-S ) :   1.0880 B( 16-C , 19-S ) :   1.0894 B( 17-C , 20-S ) :   1.0802
B( 17-C , 21-S ) :   1.0904 B( 18-S , 32-C ) :   0.9918 B( 19-S , 31-C ) :   0.9920
B( 20-S , 23-C ) :   0.9907 B( 21-S , 22-C ) :   0.9746 B( 22-C , 24-C ) :   0.8469
B( 22-C , 25-H ) :   0.9655 B( 22-C , 26-H ) :   0.9544 B( 23-C , 24-C ) :   0.9145
B( 23-C , 29-H ) :   0.9788 B( 23-C , 30-H ) :   0.9629 B( 24-C , 27-H ) :   0.9576
B( 24-C , 28-H ) :   0.9771 B( 31-C , 33-C ) :   0.9136 B( 31-C , 38-H ) :   0.9655
B( 31-C , 39-H ) :   0.9658 B( 32-C , 33-C ) :   0.9132 B( 32-C , 34-H ) :   0.9658
B( 32-C , 35-H ) :   0.9655 B( 33-C , 36-H ) :   0.9717 B( 33-C , 37-H ) :   0.9624

FINAL SINGLE POINT ENERGY     -6337.628840838210

DIPOLE MOMENT
-------------
                                X             Y             Z
Electronic contribution:     -3.19458     -12.72980      -3.54637
Nuclear contribution   :      3.53988      14.17164       3.92260
                        -----------------------------------------
Total Dipole Moment    :      0.34529       1.44184       0.37623
                        -----------------------------------------
Magnitude (a.u.)       :      1.52961
Magnitude (Debye)      :      3.88795

Rotational constants in cm-1:     0.010757     0.000804     0.000783
Rotational constants in MHz :   322.481244    24.115599    23.485935

                             ****ORCA TERMINATED NORMALLY****
TOTAL RUN TIME: 0 days 1 hours 6 minutes 22 seconds 140 msec
