                         Program Version 5.0.4 -  RELEASE  -
|  1> ! nofrozencore ReducedPop printbasis
|  2> ! B3LYP TZVP
|  3>
|  4> %basis
|  5> newgto V "CP(PPP)" end
|  6> end
|  7>
|  8> %pal
|  9> nprocs 6
| 10> end
| 11>
| 12> % sym SymThresh 1e-2 end
| 13> * xyz -2 2
| 14> V 0.5252672367055093 -0.94259926485249 -0.2956757727787384
| 15> S 1.838533247146491 0.6402018059024288 -1.535818876103315
| 16> S 1.6205677914325023 0.026079189870875902 1.8044788608964808
| 17> S -1.3186542497973937 -0.8305137712362562 -1.841366907711824
| 18> S -1.2961463009811873 -1.235076105806764 1.4750448666189733
| 19> O 1.1987818873875002 -2.3776729131288366 -0.4202771729776608
| 20> C 0.6974731521504428 -0.5425587533819666 3.0014595333097414
| 21> C -0.49404026052131356 -1.0545368935536577 2.8645095362683355
| 22> C 0.7757526375898617 0.7204619956569681 -3.0714619507401277
| 23> C -0.46920513608995046 0.14139019913418158 -3.1895870810387987
| 24> S 1.3555181108232326 -0.4228946368674623 4.471366685853102
| 25> S -1.3163850163139672 -1.5522395888072065 4.161326688793577
| 26> S -1.3480518399763008 0.47640007600728657 -4.88414488211363
| 27> S 1.3470950660850887 1.7194337706221203 -4.633622413558577
| 28> C -0.059960203340663536 -1.1092397226152686 5.438660719918531
| 29> C -0.09198611103998412 1.4528455889217182 -5.538031819378745
| 30> C -0.15567281900058963 -1.268636706723489 6.830767303387534
| 31> C -0.24394042857286655 2.0222325032637625 -6.740919901496179
| 32> S 1.260042132715666 -0.7821389426676796 8.016395745818693
| 33> S -1.7225254655463464 -1.9686676811473767 7.6637705215119905
| 34> S 0.9535773060696437 3.00240715204016 -7.417260140721037
| 35> S -1.6528846648259599 1.8166728320287033 -7.650004100066874
| 36> C -2.2379760534727726 3.5754843985360636 -7.750540109741362
| 37> C 0.030195438227280273 4.606847345614476 -7.553789717520943
| 38> C -1.2547217978130951 4.561881640865709 -8.381713709090704
| 39> H -2.4706350094607994 3.897673323397297 -6.731904223642052
| 40> H -3.17552651782285 3.521591687231015 -8.312346299589024
| 41> H -1.7114439648687854 5.56430335630453 -8.367698647383902
| 42> H -1.0473142851298922 4.303707445722025 -9.426845430602627
| 43> H 0.7585886699744104 5.307086701069794 -7.973978312922452
| 44> H -0.2061270885555224 4.932075207251685 -6.5370296473249905
| 45> C -0.9096723097214157 -3.476213942078554 8.349969121676606
| 46> C 1.5667204535235024 -2.4938038357170584 8.634533334261384
| 47> C 0.2862284625717129 -3.094963521049955 9.237983209048656
| 48> H 1.9861963986567523 -3.0973907953197752 7.826050027330982
| 49> H 2.3174842675011185 -2.408661269152694 9.433681676797747
| 50> H -0.08600449582165705 -2.369452170091076 9.977103421517198
| 51> H 0.5802166074684995 -3.9995302808262903 9.802360655066733
| 52> H -1.660058819190984 -3.9781775346462327 8.977973081513348
| 53> H -0.6406812500233886 -4.144100470967178 7.5280237247823605
| 54> *
| 55>
| 56> % eprnmr
| 57> gtensor true
| 58> Nuclei = all H {aiso,adip,aorb,fgrad,rho}
| 59> Nuclei = all V {aiso,adip,aorb,fgrad,rho}
| 60> end
| 61>
| 62>                          ****END OF INPUT****

CARTESIAN COORDINATES (ANGSTROEM)
---------------------------------
  V      0.523961   -0.940375   -0.292840
  S      1.837227    0.642426   -1.532983
  S      1.619261    0.028304    1.807315
  S     -1.319961   -0.828289   -1.838531
  S     -1.297453   -1.232852    1.477881
  O      1.197475   -2.375448   -0.417441
  C      0.696167   -0.540334    3.004296
  C     -0.495347   -1.052312    2.867346
  C      0.774446    0.722686   -3.068626
  C     -0.470512    0.143615   -3.186751
  S      1.354212   -0.420670    4.474203
  S     -1.317692   -1.550015    4.164163
  S     -1.349358    0.478625   -4.881309
  S      1.345788    1.721658   -4.630786
  C     -0.061267   -1.107015    5.441497
  C     -0.093293    1.455070   -5.535196
  C     -0.156979   -1.266412    6.833603
  C     -0.245247    2.024457   -6.738084
  S      1.258736   -0.779914    8.019232
  S     -1.723832   -1.966443    7.666607
  S      0.952271    3.004632   -7.414424
  S     -1.654191    1.818897   -7.647168
  C     -2.239283    3.577709   -7.747704
  C      0.028889    4.609072   -7.550954
  C     -1.256028    4.564106   -8.378878
  H     -2.471942    3.899898   -6.729068
  H     -3.176833    3.523816   -8.309510
  H     -1.712751    5.566528   -8.364863
  H     -1.048621    4.305932   -9.424009
  H      0.757282    5.309311   -7.971142
  H     -0.207434    4.934300   -6.534194
  C     -0.910979   -3.473989    8.352805
  C      1.565414   -2.491579    8.637369
  C      0.284922   -3.092739    9.240819
  H      1.984890   -3.095166    7.828886
  H      2.316178   -2.406437    9.436518
  H     -0.087311   -2.367228    9.979940
  H      0.578910   -3.997306    9.805197
  H     -1.661365   -3.975953    8.980809
  H     -0.641988   -4.141876    7.530860

 Total Charge           Charge          ....   -2
 Multiplicity           Mult            ....    2
 Number of Electrons    NEL             ....  321
 Basis Dimension        Dim             ....  681

ORBITAL ENERGIES
----------------
                 SPIN UP ORBITALS
  NO   OCC          E(Eh)            E(eV)
   0   1.0000    -196.678182     -5351.8854
   1   1.0000     -88.736129     -2414.6328
   2   1.0000     -88.735882     -2414.6261
   3   1.0000     -88.734374     -2414.5851
   4   1.0000     -88.734276     -2414.5824
   5   1.0000     -88.730633     -2414.4833
   6   1.0000     -88.730514     -2414.4800
   7   1.0000     -88.719769     -2414.1877
   8   1.0000     -88.719654     -2414.1845
   9   1.0000     -88.653599     -2412.3871
  10   1.0000     -88.653144     -2412.3747
  11   1.0000     -88.626005     -2411.6362
  12   1.0000     -88.625673     -2411.6272
  13   1.0000     -22.053478      -600.1057
  14   1.0000     -18.892774      -514.0985
  15   1.0000     -18.559814      -505.0382
  16   1.0000     -18.554819      -504.9023
  17   1.0000     -18.554723      -504.8997
  18   1.0000     -10.074031      -274.1283
  19   1.0000     -10.073217      -274.1062
  20   1.0000     -10.064762      -273.8761
  21   1.0000     -10.064731      -273.8753
  22   1.0000     -10.062142      -273.8048
  23   1.0000     -10.062056      -273.8025
  24   1.0000     -10.059616      -273.7361
  25   1.0000     -10.055249      -273.6172
  26   1.0000     -10.047105      -273.3956
  27   1.0000     -10.042188      -273.2618
  28   1.0000     -10.041564      -273.2448
  29   1.0000     -10.036499      -273.1070
  30   1.0000      -9.984518      -271.6925
  31   1.0000      -9.983335      -271.6603
  32   1.0000      -7.788583      -211.9381
  33   1.0000      -7.788379      -211.9326
  34   1.0000      -7.786451      -211.8801
  35   1.0000      -7.786344      -211.8772
  36   1.0000      -7.785717      -211.8601
  37   1.0000      -7.785632      -211.8578
  38   1.0000      -7.775851      -211.5917
  39   1.0000      -7.775747      -211.5888
  40   1.0000      -7.705758      -209.6843
  41   1.0000      -7.705275      -209.6712
  42   1.0000      -7.684971      -209.1187
  43   1.0000      -7.684636      -209.1096
  44   1.0000      -5.753373      -156.5572
  45   1.0000      -5.753163      -156.5515
  46   1.0000      -5.751302      -156.5009
  47   1.0000      -5.751202      -156.4982
  48   1.0000      -5.750802      -156.4873
  49   1.0000      -5.750718      -156.4850
  50   1.0000      -5.749530      -156.4527
  51   1.0000      -5.749316      -156.4469
  52   1.0000      -5.747770      -156.4048
  53   1.0000      -5.747672      -156.4021
  54   1.0000      -5.747578      -156.3995
  55   1.0000      -5.747468      -156.3966
  56   1.0000      -5.744259      -156.3092
  57   1.0000      -5.744063      -156.3039
  58   1.0000      -5.741323      -156.2294
  59   1.0000      -5.741211      -156.2263
  60   1.0000      -5.741169      -156.2251
  61   1.0000      -5.741091      -156.2230
  62   1.0000      -5.740365      -156.2033
  63   1.0000      -5.740294      -156.2013
  64   1.0000      -5.735548      -156.0722
  65   1.0000      -5.735419      -156.0687
  66   1.0000      -5.731487      -155.9617
  67   1.0000      -5.731376      -155.9587
  68   1.0000      -5.671913      -154.3406
  69   1.0000      -5.671452      -154.3280
  70   1.0000      -5.664244      -154.1319
  71   1.0000      -5.663784      -154.1194
  72   1.0000      -5.662751      -154.0913
  73   1.0000      -5.662241      -154.0774
  74   1.0000      -5.649312      -153.7256
  75   1.0000      -5.648997      -153.7170
  76   1.0000      -5.643657      -153.5717
  77   1.0000      -5.643304      -153.5621
  78   1.0000      -5.642276      -153.5341
  79   1.0000      -5.641934      -153.5248
  80   1.0000      -2.447052       -66.5877
  81   1.0000      -1.488091       -40.4930
  82   1.0000      -1.476844       -40.1870
  83   1.0000      -1.475879       -40.1607
  84   1.0000      -0.730488       -19.8776
  85   1.0000      -0.720230       -19.5985
  86   1.0000      -0.685251       -18.6466
  87   1.0000      -0.683816       -18.6076
  88   1.0000      -0.652140       -17.7456
  89   1.0000      -0.634686       -17.2707
  90   1.0000      -0.621116       -16.9014
  91   1.0000      -0.616779       -16.7834
  92   1.0000      -0.615325       -16.7439
  93   1.0000      -0.612465       -16.6660
  94   1.0000      -0.574244       -15.6260
  95   1.0000      -0.566689       -15.4204
  96   1.0000      -0.565544       -15.3892
  97   1.0000      -0.501176       -13.6377
  98   1.0000      -0.498618       -13.5681
  99   1.0000      -0.495442       -13.4817
 100   1.0000      -0.488936       -13.3046
 101   1.0000      -0.477602       -12.9962
 102   1.0000      -0.475627       -12.9425
 103   1.0000      -0.450071       -12.2471
 104   1.0000      -0.439180       -11.9507
 105   1.0000      -0.420116       -11.4319
 106   1.0000      -0.415696       -11.3117
 107   1.0000      -0.359742        -9.7891
 108   1.0000      -0.352950        -9.6043
 109   1.0000      -0.329215        -8.9584
 110   1.0000      -0.322831        -8.7847
 111   1.0000      -0.320580        -8.7234
 112   1.0000      -0.306238        -8.3332
 113   1.0000      -0.303285        -8.2528
 114   1.0000      -0.298985        -8.1358
 115   1.0000      -0.293405        -7.9839
 116   1.0000      -0.289952        -7.8900
 117   1.0000      -0.268329        -7.3016
 118   1.0000      -0.263658        -7.1745
 119   1.0000      -0.249100        -6.7783
 120   1.0000      -0.248641        -6.7659
 121   1.0000      -0.242143        -6.5891
 122   1.0000      -0.229530        -6.2458
 123   1.0000      -0.226008        -6.1500
 124   1.0000      -0.224265        -6.1026
 125   1.0000      -0.223493        -6.0816
 126   1.0000      -0.221979        -6.0404
 127   1.0000      -0.216541        -5.8924
 128   1.0000      -0.207388        -5.6433
 129   1.0000      -0.191521        -5.2116
 130   1.0000      -0.189721        -5.1626
 131   1.0000      -0.186775        -5.0824
 132   1.0000      -0.184654        -5.0247
 133   1.0000      -0.172128        -4.6838
 134   1.0000      -0.161129        -4.3845
 135   1.0000      -0.155714        -4.2372
 136   1.0000      -0.142412        -3.8752
 137   1.0000      -0.134939        -3.6719
 138   1.0000      -0.131395        -3.5754
 139   1.0000      -0.130518        -3.5516
 140   1.0000      -0.125858        -3.4248
 141   1.0000      -0.121875        -3.3164
 142   1.0000      -0.119355        -3.2478
 143   1.0000      -0.111564        -3.0358
 144   1.0000      -0.111010        -3.0207
 145   1.0000      -0.101321        -2.7571
 146   1.0000      -0.095853        -2.6083
 147   1.0000      -0.088719        -2.4142
 148   1.0000      -0.075478        -2.0539
 149   1.0000      -0.068225        -1.8565
 150   1.0000      -0.063745        -1.7346
 151   1.0000      -0.058912        -1.6031
 152   1.0000      -0.048646        -1.3237
 153   1.0000      -0.037738        -1.0269
 154   1.0000      -0.034062        -0.9269
 155   1.0000      -0.029064        -0.7909
 156   1.0000      -0.024640        -0.6705
 157   1.0000      -0.018094        -0.4924
 158   1.0000      -0.012589        -0.3426
 159   1.0000       0.012618         0.3434
 160   1.0000       0.051605         1.4043
 161   0.0000       0.133868         3.6427
 162   0.0000       0.135830         3.6961
 163   0.0000       0.148834         4.0500
 164   0.0000       0.155658         4.2357
 165   0.0000       0.158631         4.3166

                 SPIN DOWN ORBITALS
  NO   OCC          E(Eh)            E(eV)
   0   1.0000    -196.678319     -5351.8891
   1   1.0000     -88.736124     -2414.6327
   2   1.0000     -88.735877     -2414.6260
   3   1.0000     -88.734376     -2414.5851
   4   1.0000     -88.734278     -2414.5825
   5   1.0000     -88.730633     -2414.4833
   6   1.0000     -88.730514     -2414.4800
   7   1.0000     -88.719778     -2414.1879
   8   1.0000     -88.719664     -2414.1848
   9   1.0000     -88.653754     -2412.3913
  10   1.0000     -88.653299     -2412.3789
  11   1.0000     -88.626145     -2411.6400
  12   1.0000     -88.625811     -2411.6309
  13   1.0000     -22.038620      -599.7013
  14   1.0000     -18.896505      -514.2001
  15   1.0000     -18.554554      -504.8951
  16   1.0000     -18.538833      -504.4673
  17   1.0000     -18.538721      -504.4642
  18   1.0000     -10.074082      -274.1297
  19   1.0000     -10.073199      -274.1057
  20   1.0000     -10.064763      -273.8761
  21   1.0000     -10.064732      -273.8753
  22   1.0000     -10.062141      -273.8048
  23   1.0000     -10.062055      -273.8024
  24   1.0000     -10.059600      -273.7356
  25   1.0000     -10.055249      -273.6172
  26   1.0000     -10.047104      -273.3956
  27   1.0000     -10.041767      -273.2504
  28   1.0000     -10.041146      -273.2335
  29   1.0000     -10.036482      -273.1066
  30   1.0000      -9.984423      -271.6899
  31   1.0000      -9.983247      -271.6580
  32   1.0000      -7.788578      -211.9380
  33   1.0000      -7.788374      -211.9324
  34   1.0000      -7.786451      -211.8801
  35   1.0000      -7.786345      -211.8772
  36   1.0000      -7.785719      -211.8602
  37   1.0000      -7.785634      -211.8579
  38   1.0000      -7.775863      -211.5920
  39   1.0000      -7.775760      -211.5892
  40   1.0000      -7.705895      -209.6881
  41   1.0000      -7.705412      -209.6749
  42   1.0000      -7.685107      -209.1224
  43   1.0000      -7.684770      -209.1132
  44   1.0000      -5.753359      -156.5568
  45   1.0000      -5.753149      -156.5512
  46   1.0000      -5.751302      -156.5009
  47   1.0000      -5.751202      -156.4982
  48   1.0000      -5.750806      -156.4874
  49   1.0000      -5.750722      -156.4851
  50   1.0000      -5.749526      -156.4526
  51   1.0000      -5.749314      -156.4468
  52   1.0000      -5.747773      -156.4049
  53   1.0000      -5.747676      -156.4022
  54   1.0000      -5.747577      -156.3995
  55   1.0000      -5.747468      -156.3965
  56   1.0000      -5.744255      -156.3091
  57   1.0000      -5.744060      -156.3038
  58   1.0000      -5.741324      -156.2294
  59   1.0000      -5.741212      -156.2263
  60   1.0000      -5.741172      -156.2252
  61   1.0000      -5.741094      -156.2231
  62   1.0000      -5.740366      -156.2033
  63   1.0000      -5.740295      -156.2014
  64   1.0000      -5.735565      -156.0726
  65   1.0000      -5.735435      -156.0691
  66   1.0000      -5.731497      -155.9620
  67   1.0000      -5.731388      -155.9590
  68   1.0000      -5.672111      -154.3460
  69   1.0000      -5.671644      -154.3333
  70   1.0000      -5.664619      -154.1421
  71   1.0000      -5.664168      -154.1299
  72   1.0000      -5.662870      -154.0945
  73   1.0000      -5.662360      -154.0806
  74   1.0000      -5.649447      -153.7293
  75   1.0000      -5.649132      -153.7207
  76   1.0000      -5.644016      -153.5815
  77   1.0000      -5.643652      -153.5716
  78   1.0000      -5.642384      -153.5371
  79   1.0000      -5.642044      -153.5278
  80   1.0000      -2.402387       -65.3723
  81   1.0000      -1.468733       -39.9663
  82   1.0000      -1.414939       -38.5024
  83   1.0000      -1.414492       -38.4903
  84   1.0000      -0.730453       -19.8766
  85   1.0000      -0.720259       -19.5992
  86   1.0000      -0.685183       -18.6448
  87   1.0000      -0.683817       -18.6076
  88   1.0000      -0.660150       -17.9636
  89   1.0000      -0.634543       -17.2668
  90   1.0000      -0.621114       -16.9014
  91   1.0000      -0.616862       -16.7857
  92   1.0000      -0.615386       -16.7455
  93   1.0000      -0.612485       -16.6666
  94   1.0000      -0.573881       -15.6161
  95   1.0000      -0.566567       -15.4171
  96   1.0000      -0.565644       -15.3920
  97   1.0000      -0.501144       -13.6368
  98   1.0000      -0.498723       -13.5709
  99   1.0000      -0.495389       -13.4802
 100   1.0000      -0.489225       -13.3125
 101   1.0000      -0.477688       -12.9986
 102   1.0000      -0.475755       -12.9459
 103   1.0000      -0.450067       -12.2470
 104   1.0000      -0.439235       -11.9522
 105   1.0000      -0.420105       -11.4316
 106   1.0000      -0.415818       -11.3150
 107   1.0000      -0.359729        -9.7887
 108   1.0000      -0.352987        -9.6053
 109   1.0000      -0.329199        -8.9580
 110   1.0000      -0.322845        -8.7851
 111   1.0000      -0.320321        -8.7164
 112   1.0000      -0.306383        -8.3371
 113   1.0000      -0.303292        -8.2530
 114   1.0000      -0.298884        -8.1331
 115   1.0000      -0.293417        -7.9843
 116   1.0000      -0.289933        -7.8895
 117   1.0000      -0.268223        -7.2987
 118   1.0000      -0.263410        -7.1678
 119   1.0000      -0.249062        -6.7773
 120   1.0000      -0.248640        -6.7658
 121   1.0000      -0.242062        -6.5869
 122   1.0000      -0.229444        -6.2435
 123   1.0000      -0.225994        -6.1496
 124   1.0000      -0.224259        -6.1024
 125   1.0000      -0.223452        -6.0804
 126   1.0000      -0.221591        -6.0298
 127   1.0000      -0.216519        -5.8918
 128   1.0000      -0.206891        -5.6298
 129   1.0000      -0.191207        -5.2030
 130   1.0000      -0.187813        -5.1106
 131   1.0000      -0.186759        -5.0820
 132   1.0000      -0.184373        -5.0171
 133   1.0000      -0.172064        -4.6821
 134   1.0000      -0.160123        -4.3572
 135   1.0000      -0.155598        -4.2340
 136   1.0000      -0.142169        -3.8686
 137   1.0000      -0.133866        -3.6427
 138   1.0000      -0.131388        -3.5753
 139   1.0000      -0.130084        -3.5398
 140   1.0000      -0.125623        -3.4184
 141   1.0000      -0.121475        -3.3055
 142   1.0000      -0.120228        -3.2716
 143   1.0000      -0.112970        -3.0741
 144   1.0000      -0.112085        -3.0500
 145   1.0000      -0.101363        -2.7582
 146   1.0000      -0.095887        -2.6092
 147   1.0000      -0.088802        -2.4164
 148   1.0000      -0.072559        -1.9744
 149   1.0000      -0.068229        -1.8566
 150   1.0000      -0.063722        -1.7340
 151   1.0000      -0.056641        -1.5413
 152   1.0000      -0.044401        -1.2082
 153   1.0000      -0.037728        -1.0266
 154   1.0000      -0.034019        -0.9257
 155   1.0000      -0.029284        -0.7969
 156   1.0000      -0.025076        -0.6824
 157   1.0000      -0.012745        -0.3468
 158   1.0000       0.012735         0.3465
 159   1.0000       0.051173         1.3925
 160   0.0000       0.133822         3.6415
 161   0.0000       0.135823         3.6959
 162   0.0000       0.144163         3.9229
 163   0.0000       0.156245         4.2516
 164   0.0000       0.159423         4.3381

MULLIKEN ATOMIC CHARGES AND SPIN POPULATIONS
--------------------------------------------
   0 V :    0.469492    1.207495
   1 S :   -0.266713   -0.028993
   2 S :   -0.309957   -0.021436
   3 S :   -0.263933   -0.029659
   4 S :   -0.308073   -0.022660
   5 O :   -0.463733   -0.145343
   6 C :   -0.073626    0.002825
   7 C :   -0.079201    0.001885
   8 C :   -0.083451    0.017791
   9 C :   -0.083661    0.016486
  10 S :    0.120292   -0.000038
  11 S :    0.122023   -0.000187
  12 S :    0.077676    0.000626
  13 S :    0.076706    0.000783
  14 C :   -0.230913   -0.002178
  15 C :   -0.151713    0.002906
  16 C :   -0.184112    0.001062
  17 C :   -0.249733   -0.000774
  18 S :   -0.015529   -0.000341
  19 S :   -0.014940   -0.000331
  20 S :    0.025720   -0.000007
  21 S :    0.026017   -0.000008
  22 C :   -0.314581   -0.000014
  23 C :   -0.313866   -0.000015
  24 C :   -0.148065   -0.000023
  25 H :    0.140779   -0.000002
  26 H :    0.119530   -0.000004
  27 H :    0.089196   -0.000005
  28 H :    0.090945   -0.000002
  29 H :    0.119108   -0.000004
  30 H :    0.140442   -0.000002
  31 C :   -0.273105    0.000164
  32 C :   -0.273356    0.000164
  33 C :   -0.183669   -0.000195
  34 H :    0.146585   -0.000018
  35 H :    0.102808    0.000014
  36 H :    0.096496    0.000029
  37 H :    0.073074    0.000011
  38 H :    0.102931    0.000014
  39 H :    0.146109   -0.000017
Sum of atomic charges         :   -2.0000000

LOEWDIN ATOMIC CHARGES AND SPIN POPULATIONS
-------------------------------------------
   0 V :   -0.152456    1.160232
   1 S :    0.076151   -0.017507
   2 S :    0.114691   -0.015109
   3 S :    0.076458   -0.018174
   4 S :    0.115747   -0.016001
   5 O :   -0.317808   -0.130299
   6 C :   -0.685809    0.003115
   7 C :   -0.686698    0.002452
   8 C :   -0.466720    0.017021
   9 C :   -0.467015    0.015703
  10 S :    0.526466   -0.000858
  11 S :    0.527079   -0.000951
  12 S :    0.438032    0.000517
  13 S :    0.436955    0.000596
  14 C :   -0.428059   -0.002086
  15 C :   -0.499035    0.000777
  16 C :   -0.538659    0.000718
  17 C :   -0.693974    0.000370
  18 S :    0.315478   -0.000282
  19 S :    0.317405   -0.000271
  20 S :    0.393517   -0.000004
  21 S :    0.393086   -0.000007
  22 C :   -0.282394   -0.000017
  23 C :   -0.282616   -0.000019
  24 C :   -0.171311   -0.000001
  25 H :    0.062720   -0.000002
  26 H :    0.054001   -0.000001
  27 H :    0.060325   -0.000002
  28 H :    0.059916   -0.000001
  29 H :    0.053941   -0.000001
  30 H :    0.062556   -0.000002
  31 C :   -0.286694    0.000041
  32 C :   -0.286539    0.000038
  33 C :   -0.186338    0.000006
  34 H :    0.062110   -0.000003
  35 H :    0.053338    0.000001
  36 H :    0.061828    0.000006
  37 H :    0.054955    0.000003
  38 H :    0.053452    0.000001
  39 H :    0.061919   -0.000003

  Mayer bond orders larger than 0.100000
B(  0-V ,  1-S ) :   0.8121 B(  0-V ,  2-S ) :   0.7306 B(  0-V ,  3-S ) :   0.8030
B(  0-V ,  4-S ) :   0.7326 B(  0-V ,  5-O ) :   2.1500 B(  1-S ,  8-C ) :   1.0188
B(  2-S ,  6-C ) :   1.2023 B(  3-S ,  9-C ) :   1.0241 B(  4-S ,  7-C ) :   1.2032
B(  6-C ,  7-C ) :   1.4138 B(  6-C , 10-S ) :   1.1134 B(  7-C , 11-S ) :   1.1162
B(  8-C ,  9-C ) :   1.8205 B(  8-C , 13-S ) :   0.8403 B(  9-C , 12-S ) :   0.8419
B( 10-S , 14-C ) :   1.1506 B( 11-S , 14-C ) :   1.1509 B( 12-S , 15-C ) :   1.3014
B( 13-S , 15-C ) :   1.3011 B( 14-C , 16-C ) :   1.4672 B( 15-C , 17-C ) :   1.4097
B( 16-C , 18-S ) :   0.9863 B( 16-C , 19-S ) :   0.9861 B( 17-C , 20-S ) :   1.1930
B( 17-C , 21-S ) :   1.1940 B( 18-S , 32-C ) :   1.0198 B( 19-S , 31-C ) :   1.0203
B( 20-S , 23-C ) :   0.9670 B( 21-S , 22-C ) :   0.9665 B( 22-C , 24-C ) :   0.9088
B( 22-C , 25-H ) :   0.9662 B( 22-C , 26-H ) :   0.9653 B( 23-C , 24-C ) :   0.9094
B( 23-C , 29-H ) :   0.9654 B( 23-C , 30-H ) :   0.9661 B( 24-C , 27-H ) :   0.9696
B( 24-C , 28-H ) :   0.9683 B( 31-C , 33-C ) :   0.9176 B( 31-C , 38-H ) :   0.9630
B( 31-C , 39-H ) :   0.9646 B( 32-C , 33-C ) :   0.9167 B( 32-C , 34-H ) :   0.9647
B( 32-C , 35-H ) :   0.9629 B( 33-C , 36-H ) :   0.9763 B( 33-C , 37-H ) :   0.9496

FINAL SINGLE POINT ENERGY     -6337.582847906006

DIPOLE MOMENT
-------------
                                X             Y             Z
Electronic contribution:      6.70090     -10.02255      -7.45846
Nuclear contribution   :     -7.43524      11.37490       7.20180
                        -----------------------------------------
Total Dipole Moment    :     -0.73433       1.35234      -0.25665
                        -----------------------------------------
Magnitude (a.u.)       :      1.56011
Magnitude (Debye)      :      3.96549

Rotational constants in cm-1:     0.010729     0.000804     0.000783
Rotational constants in MHz :   321.647208    24.115205    23.482496

                             ****ORCA TERMINATED NORMALLY****
TOTAL RUN TIME: 0 days 1 hours 6 minutes 33 seconds 974 msec
