                         Program Version 5.0.4 -  RELEASE  -
|  1> ! nofrozencore ReducedPop printbasis
|  2> ! B3LYP TZVP
|  3>
|  4> %basis
|  5> newgto V "CP(PPP)" end
|  6> end
|  7>
|  8> %pal
|  9> nprocs 8
| 10> end
| 11>
| 12> % sym SymThresh 1e-2 end
| 13> * xyz -2 2
| 14> V -0.6852048610111695 -0.724455491765544 -0.494926038538495
| 15> S 0.1689383402472122 0.5319734931773311 -2.44733646664128
| 16> S 1.5674074947307108 -1.7482412846470061 -0.41969648362094175
| 17> S -2.0917284519275197 1.2634399924209443 -0.05365235608310042
| 18> S -0.6634247444538118 -0.9186458225686057 1.9615987497950862
| 19> O -1.6432254633500125 -1.8624970455777765 -1.0503792814527484
| 20> C 1.4869731338396461 -2.472940346455329 1.228324739359874
| 21> C 0.6098829289642381 -2.146563294916768 2.182521452618524
| 22> C -0.9265558226800711 1.9083683243143104 -2.459347979063038
| 23> C -1.8280164041462614 2.2056046290332585 -1.5044824088550306
| 24> S 2.728613029085346 -3.6489205433804646 1.5908158655066627
| 25> S 0.7344022748009322 -2.8735096148415202 3.719457161352387
| 26> S -2.779206736753704 3.7063068084289665 -1.7454364901404793
| 27> S -0.820601473940429 3.0699541738325693 -3.843712228575103
| 28> C 2.363389024204238 -4.094895109465971 3.5434651039195555
| 29> C -2.007485224710147 4.201402085968923 -3.239624885541755
| 30> C 2.958947668721795 -4.972667985790604 4.432157611728184
| 31> C -2.320929417105305 5.365693567541213 -3.8827046345783343
| 32> S 4.162090868073348 -5.698004918995578 3.752809495451327
| 33> S 2.270500558447414 -4.900753804818112 5.8236332092101915
| 34> S -1.5211089938344335 5.869267228524912 -5.414257761331789
| 35> S -3.5292864994580033 6.5359581741524435 -3.2401628735182957
| 36> C -2.3967461478479093 7.971227307962595 -2.9582166045258793
| 37> C -0.6989473663928715 7.410096381799984 -4.803475810870527
| 38> C -1.6674926053882932 8.437159506106548 -4.2178743186132595
| 39> H -1.6874713889375854 7.696736876065071 -2.1742544999937707
| 40> H -3.0360241842928164 8.770654438151713 -2.5748050298404794
| 41> H -1.0965653668403912 9.34258574675946 -3.9682505579449225
| 42> H -2.4032218501159375 8.715879159663169 -4.978825555510715
| 43> H -0.18921487936915887 7.827530295246824 -5.675589032632516
| 44> H 0.05859376031176036 7.125021768336692 -4.070131600817817
| 45> C 1.7659481949837463 -6.70647809346685 5.854097067144421
| 46> C 3.4613050152361495 -7.421043507864938 3.9879897045407176
| 47> C 2.9395103476889006 -7.6505171307210835 5.442203385532109
| 48> H 2.621920056038608 -7.4960071622429165 3.2888294481758122
| 49> H 4.2253903483924 -8.147019141153265 3.7003433123834153
| 50> H 3.7649336260049813 -7.553698564773957 6.1547905860120755
| 51> H 2.5737958480918253 -8.683947674192689 5.505492237041995
| 52> H 1.3741779084717818 -6.937511460568184 6.847384176863032
| 53> H 0.9551208464085122 -6.79811490111559 5.124091604238558
| 54> *
| 55>
| 56> % eprnmr
| 57> gtensor true
| 58> Nuclei = all H {aiso,adip,aorb,fgrad,rho}
| 59> Nuclei = all V {aiso,adip,aorb,fgrad,rho}
| 60> end
| 61>
| 62>                          ****END OF INPUT****

CARTESIAN COORDINATES (ANGSTROEM)
---------------------------------
  V     -0.682368   -0.724045   -0.492380
  S      0.171775    0.532384   -2.444790
  S      1.570244   -1.747831   -0.417150
  S     -2.088892    1.263851   -0.051106
  S     -0.660588   -0.918235    1.964145
  O     -1.640389   -1.862087   -1.047833
  C      1.489810   -2.472530    1.230871
  C      0.612719   -2.146153    2.185068
  C     -0.923719    1.908779   -2.456802
  C     -1.825180    2.206015   -1.501936
  S      2.731449   -3.648510    1.593362
  S      0.737239   -2.873099    3.722003
  S     -2.776370    3.706717   -1.742890
  S     -0.817765    3.070365   -3.841166
  C      2.366225   -4.094485    3.546011
  C     -2.004649    4.201813   -3.237079
  C      2.961784   -4.972257    4.434704
  C     -2.318093    5.366104   -3.880158
  S      4.164927   -5.697594    3.755356
  S      2.273337   -4.900343    5.826180
  S     -1.518273    5.869678   -5.411711
  S     -3.526450    6.536369   -3.237617
  C     -2.393910    7.971638   -2.955670
  C     -0.696111    7.410507   -4.800929
  C     -1.664656    8.437570   -4.215328
  H     -1.684635    7.697147   -2.171708
  H     -3.033188    8.771065   -2.572259
  H     -1.093729    9.342996   -3.965704
  H     -2.400385    8.716290   -4.976279
  H     -0.186378    7.827941   -5.673043
  H      0.061430    7.125432   -4.067585
  C      1.768785   -6.706068    5.856643
  C      3.464141   -7.420633    3.990536
  C      2.942347   -7.650107    5.444750
  H      2.624757   -7.495597    3.291376
  H      4.228227   -8.146609    3.702890
  H      3.767770   -7.553288    6.157337
  H      2.576632   -8.683537    5.508039
  H      1.377014   -6.937101    6.849930
  H      0.957957   -6.797704    5.126638

 Total Charge           Charge          ....   -2
 Multiplicity           Mult            ....    2
 Number of Electrons    NEL             ....  321
 Basis Dimension        Dim             ....  681

ORBITAL ENERGIES
----------------
                 SPIN UP ORBITALS
  NO   OCC          E(Eh)            E(eV)
   0   1.0000    -196.673776     -5351.7655
   1   1.0000     -88.732905     -2414.5451
   2   1.0000     -88.732740     -2414.5406
   3   1.0000     -88.732474     -2414.5334
   4   1.0000     -88.732459     -2414.5330
   5   1.0000     -88.729207     -2414.4445
   6   1.0000     -88.728951     -2414.4375
   7   1.0000     -88.726549     -2414.3721
   8   1.0000     -88.725560     -2414.3452
   9   1.0000     -88.639836     -2412.0126
  10   1.0000     -88.639199     -2411.9952
  11   1.0000     -88.639102     -2411.9926
  12   1.0000     -88.638339     -2411.9718
  13   1.0000     -22.049130      -599.9873
  14   1.0000     -18.889017      -513.9963
  15   1.0000     -18.555624      -504.9242
  16   1.0000     -18.550396      -504.7819
  17   1.0000     -18.550299      -504.7793
  18   1.0000     -10.091956      -274.6161
  19   1.0000     -10.073616      -274.1170
  20   1.0000     -10.067988      -273.9639
  21   1.0000     -10.067747      -273.9573
  22   1.0000     -10.062260      -273.8080
  23   1.0000     -10.062218      -273.8069
  24   1.0000     -10.060570      -273.7620
  25   1.0000     -10.049908      -273.4719
  26   1.0000     -10.048177      -273.4248
  27   1.0000     -10.042176      -273.2615
  28   1.0000     -10.017411      -272.5876
  29   1.0000     -10.016390      -272.5598
  30   1.0000     -10.014597      -272.5110
  31   1.0000     -10.012248      -272.4471
  32   1.0000      -7.792357      -212.0408
  33   1.0000      -7.792299      -212.0392
  34   1.0000      -7.785630      -211.8578
  35   1.0000      -7.785604      -211.8571
  36   1.0000      -7.782902      -211.7835
  37   1.0000      -7.782504      -211.7727
  38   1.0000      -7.776938      -211.6212
  39   1.0000      -7.776911      -211.6205
  40   1.0000      -7.693414      -209.3484
  41   1.0000      -7.693215      -209.3430
  42   1.0000      -7.693012      -209.3375
  43   1.0000      -7.692837      -209.3327
  44   1.0000      -5.757053      -156.6574
  45   1.0000      -5.757000      -156.6559
  46   1.0000      -5.753126      -156.5505
  47   1.0000      -5.753122      -156.5504
  48   1.0000      -5.750638      -156.4828
  49   1.0000      -5.750615      -156.4822
  50   1.0000      -5.747821      -156.4062
  51   1.0000      -5.747396      -156.3946
  52   1.0000      -5.747238      -156.3903
  53   1.0000      -5.747225      -156.3900
  54   1.0000      -5.746841      -156.3795
  55   1.0000      -5.746778      -156.3778
  56   1.0000      -5.743398      -156.2858
  57   1.0000      -5.743029      -156.2758
  58   1.0000      -5.742416      -156.2591
  59   1.0000      -5.742281      -156.2554
  60   1.0000      -5.740434      -156.2052
  61   1.0000      -5.740394      -156.2041
  62   1.0000      -5.738681      -156.1574
  63   1.0000      -5.738313      -156.1474
  64   1.0000      -5.737414      -156.1230
  65   1.0000      -5.737294      -156.1197
  66   1.0000      -5.732758      -155.9963
  67   1.0000      -5.732729      -155.9955
  68   1.0000      -5.658906      -153.9867
  69   1.0000      -5.658721      -153.9816
  70   1.0000      -5.658635      -153.9793
  71   1.0000      -5.658103      -153.9648
  72   1.0000      -5.652088      -153.8011
  73   1.0000      -5.651905      -153.7962
  74   1.0000      -5.651628      -153.7886
  75   1.0000      -5.651500      -153.7851
  76   1.0000      -5.650747      -153.7646
  77   1.0000      -5.650264      -153.7515
  78   1.0000      -5.650167      -153.7489
  79   1.0000      -5.650102      -153.7471
  80   1.0000      -2.442668       -66.4684
  81   1.0000      -1.484112       -40.3847
  82   1.0000      -1.472285       -40.0629
  83   1.0000      -1.471421       -40.0394
  84   1.0000      -0.753539       -20.5048
  85   1.0000      -0.709011       -19.2932
  86   1.0000      -0.685995       -18.6669
  87   1.0000      -0.666242       -18.1294
  88   1.0000      -0.651798       -17.7363
  89   1.0000      -0.648618       -17.6498
  90   1.0000      -0.641717       -17.4620
  91   1.0000      -0.628507       -17.1026
  92   1.0000      -0.615705       -16.7542
  93   1.0000      -0.575333       -15.6556
  94   1.0000      -0.572816       -15.5871
  95   1.0000      -0.566573       -15.4172
  96   1.0000      -0.543070       -14.7777
  97   1.0000      -0.525963       -14.3122
  98   1.0000      -0.496788       -13.5183
  99   1.0000      -0.494847       -13.4655
 100   1.0000      -0.493936       -13.4407
 101   1.0000      -0.478632       -13.0242
 102   1.0000      -0.461752       -12.5649
 103   1.0000      -0.452727       -12.3193
 104   1.0000      -0.444752       -12.1023
 105   1.0000      -0.416653       -11.3377
 106   1.0000      -0.410870       -11.1804
 107   1.0000      -0.357003        -9.7146
 108   1.0000      -0.354242        -9.6394
 109   1.0000      -0.328689        -8.9441
 110   1.0000      -0.325671        -8.8620
 111   1.0000      -0.317087        -8.6284
 112   1.0000      -0.307411        -8.3651
 113   1.0000      -0.303810        -8.2671
 114   1.0000      -0.303096        -8.2477
 115   1.0000      -0.291703        -7.9376
 116   1.0000      -0.289994        -7.8912
 117   1.0000      -0.274217        -7.4618
 118   1.0000      -0.272111        -7.4045
 119   1.0000      -0.255014        -6.9393
 120   1.0000      -0.254553        -6.9268
 121   1.0000      -0.245126        -6.6702
 122   1.0000      -0.240512        -6.5447
 123   1.0000      -0.233542        -6.3550
 124   1.0000      -0.228792        -6.2257
 125   1.0000      -0.223133        -6.0718
 126   1.0000      -0.219261        -5.9664
 127   1.0000      -0.213096        -5.7986
 128   1.0000      -0.210007        -5.7146
 129   1.0000      -0.188401        -5.1266
 130   1.0000      -0.186215        -5.0672
 131   1.0000      -0.185073        -5.0361
 132   1.0000      -0.182820        -4.9748
 133   1.0000      -0.181181        -4.9302
 134   1.0000      -0.158188        -4.3045
 135   1.0000      -0.149672        -4.0728
 136   1.0000      -0.141450        -3.8490
 137   1.0000      -0.134223        -3.6524
 138   1.0000      -0.126661        -3.4466
 139   1.0000      -0.125192        -3.4066
 140   1.0000      -0.122941        -3.3454
 141   1.0000      -0.113137        -3.0786
 142   1.0000      -0.110449        -3.0055
 143   1.0000      -0.108987        -2.9657
 144   1.0000      -0.098435        -2.6786
 145   1.0000      -0.096197        -2.6177
 146   1.0000      -0.094024        -2.5585
 147   1.0000      -0.079540        -2.1644
 148   1.0000      -0.078646        -2.1401
 149   1.0000      -0.073670        -2.0046
 150   1.0000      -0.065663        -1.7868
 151   1.0000      -0.049374        -1.3435
 152   1.0000      -0.045185        -1.2295
 153   1.0000      -0.037127        -1.0103
 154   1.0000      -0.034526        -0.9395
 155   1.0000      -0.030529        -0.8307
 156   1.0000      -0.022591        -0.6147
 157   1.0000      -0.017742        -0.4828
 158   1.0000      -0.010432        -0.2839
 159   1.0000       0.021345         0.5808
 160   1.0000       0.041659         1.1336
 161   0.0000       0.125472         3.4143
 162   0.0000       0.138590         3.7712
 163   0.0000       0.148668         4.0455
 164   0.0000       0.152865         4.1597
 165   0.0000       0.162376         4.4185

                 SPIN DOWN ORBITALS
  NO   OCC          E(Eh)            E(eV)
   0   1.0000    -196.673923     -5351.7695
   1   1.0000     -88.732907     -2414.5452
   2   1.0000     -88.732742     -2414.5407
   3   1.0000     -88.732474     -2414.5334
   4   1.0000     -88.732459     -2414.5330
   5   1.0000     -88.729215     -2414.4447
   6   1.0000     -88.728959     -2414.4377
   7   1.0000     -88.726557     -2414.3724
   8   1.0000     -88.725569     -2414.3455
   9   1.0000     -88.639977     -2412.0164
  10   1.0000     -88.639334     -2411.9989
  11   1.0000     -88.639235     -2411.9962
  12   1.0000     -88.638474     -2411.9755
  13   1.0000     -22.034306      -599.5839
  14   1.0000     -18.892701      -514.0965
  15   1.0000     -18.550423      -504.7827
  16   1.0000     -18.534503      -504.3495
  17   1.0000     -18.534246      -504.3425
  18   1.0000     -10.091910      -274.6148
  19   1.0000     -10.073614      -274.1170
  20   1.0000     -10.067985      -273.9638
  21   1.0000     -10.067743      -273.9572
  22   1.0000     -10.062260      -273.8080
  23   1.0000     -10.062218      -273.8069
  24   1.0000     -10.060570      -273.7620
  25   1.0000     -10.049908      -273.4719
  26   1.0000     -10.048172      -273.4247
  27   1.0000     -10.042156      -273.2609
  28   1.0000     -10.017188      -272.5816
  29   1.0000     -10.016176      -272.5540
  30   1.0000     -10.014362      -272.5046
  31   1.0000     -10.012035      -272.4413
  32   1.0000      -7.792358      -212.0409
  33   1.0000      -7.792301      -212.0393
  34   1.0000      -7.785630      -211.8578
  35   1.0000      -7.785605      -211.8571
  36   1.0000      -7.782911      -211.7838
  37   1.0000      -7.782514      -211.7730
  38   1.0000      -7.776946      -211.6215
  39   1.0000      -7.776920      -211.6207
  40   1.0000      -7.693540      -209.3519
  41   1.0000      -7.693344      -209.3465
  42   1.0000      -7.693133      -209.3408
  43   1.0000      -7.692961      -209.3361
  44   1.0000      -5.757054      -156.6574
  45   1.0000      -5.757002      -156.6560
  46   1.0000      -5.753128      -156.5506
  47   1.0000      -5.753124      -156.5505
  48   1.0000      -5.750639      -156.4828
  49   1.0000      -5.750616      -156.4822
  50   1.0000      -5.747832      -156.4065
  51   1.0000      -5.747407      -156.3949
  52   1.0000      -5.747239      -156.3903
  53   1.0000      -5.747226      -156.3900
  54   1.0000      -5.746843      -156.3796
  55   1.0000      -5.746781      -156.3778
  56   1.0000      -5.743412      -156.2862
  57   1.0000      -5.743043      -156.2761
  58   1.0000      -5.742421      -156.2592
  59   1.0000      -5.742287      -156.2556
  60   1.0000      -5.740435      -156.2052
  61   1.0000      -5.740395      -156.2041
  62   1.0000      -5.738687      -156.1576
  63   1.0000      -5.738318      -156.1476
  64   1.0000      -5.737425      -156.1233
  65   1.0000      -5.737307      -156.1201
  66   1.0000      -5.732771      -155.9966
  67   1.0000      -5.732743      -155.9959
  68   1.0000      -5.659055      -153.9907
  69   1.0000      -5.658861      -153.9854
  70   1.0000      -5.658777      -153.9831
  71   1.0000      -5.658242      -153.9686
  72   1.0000      -5.652438      -153.8106
  73   1.0000      -5.652280      -153.8064
  74   1.0000      -5.651994      -153.7986
  75   1.0000      -5.651850      -153.7946
  76   1.0000      -5.650850      -153.7675
  77   1.0000      -5.650357      -153.7540
  78   1.0000      -5.650268      -153.7516
  79   1.0000      -5.650179      -153.7492
  80   1.0000      -2.398095       -65.2555
  81   1.0000      -1.465071       -39.8666
  82   1.0000      -1.410199       -38.3735
  83   1.0000      -1.410133       -38.3717
  84   1.0000      -0.753517       -20.5042
  85   1.0000      -0.708990       -19.2926
  86   1.0000      -0.685959       -18.6659
  87   1.0000      -0.666105       -18.1256
  88   1.0000      -0.656590       -17.8667
  89   1.0000      -0.651633       -17.7318
  90   1.0000      -0.641716       -17.4620
  91   1.0000      -0.628440       -17.1007
  92   1.0000      -0.615707       -16.7542
  93   1.0000      -0.575303       -15.6548
  94   1.0000      -0.572747       -15.5852
  95   1.0000      -0.566488       -15.4149
  96   1.0000      -0.543004       -14.7759
  97   1.0000      -0.525958       -14.3121
  98   1.0000      -0.496792       -13.5184
  99   1.0000      -0.494872       -13.4662
 100   1.0000      -0.493992       -13.4422
 101   1.0000      -0.478806       -13.0290
 102   1.0000      -0.462085       -12.5740
 103   1.0000      -0.452742       -12.3197
 104   1.0000      -0.444784       -12.1032
 105   1.0000      -0.416657       -11.3378
 106   1.0000      -0.410981       -11.1834
 107   1.0000      -0.356982        -9.7140
 108   1.0000      -0.354237        -9.6393
 109   1.0000      -0.328654        -8.9431
 110   1.0000      -0.325660        -8.8617
 111   1.0000      -0.317045        -8.6272
 112   1.0000      -0.307396        -8.3647
 113   1.0000      -0.303759        -8.2657
 114   1.0000      -0.303062        -8.2467
 115   1.0000      -0.291697        -7.9375
 116   1.0000      -0.289987        -7.8909
 117   1.0000      -0.274070        -7.4578
 118   1.0000      -0.271958        -7.4003
 119   1.0000      -0.254912        -6.9365
 120   1.0000      -0.254500        -6.9253
 121   1.0000      -0.245071        -6.6687
 122   1.0000      -0.240485        -6.5439
 123   1.0000      -0.233503        -6.3539
 124   1.0000      -0.228749        -6.2246
 125   1.0000      -0.223122        -6.0715
 126   1.0000      -0.218992        -5.9591
 127   1.0000      -0.212336        -5.7780
 128   1.0000      -0.209703        -5.7063
 129   1.0000      -0.187284        -5.0963
 130   1.0000      -0.186136        -5.0650
 131   1.0000      -0.185066        -5.0359
 132   1.0000      -0.182613        -4.9692
 133   1.0000      -0.180620        -4.9149
 134   1.0000      -0.157559        -4.2874
 135   1.0000      -0.149451        -4.0668
 136   1.0000      -0.141193        -3.8421
 137   1.0000      -0.133739        -3.6392
 138   1.0000      -0.125682        -3.4200
 139   1.0000      -0.124892        -3.3985
 140   1.0000      -0.122824        -3.3422
 141   1.0000      -0.114388        -3.1127
 142   1.0000      -0.110899        -3.0177
 143   1.0000      -0.110341        -3.0025
 144   1.0000      -0.098537        -2.6813
 145   1.0000      -0.096243        -2.6189
 146   1.0000      -0.094228        -2.5641
 147   1.0000      -0.079407        -2.1608
 148   1.0000      -0.078574        -2.1381
 149   1.0000      -0.070156        -1.9090
 150   1.0000      -0.065654        -1.7865
 151   1.0000      -0.046726        -1.2715
 152   1.0000      -0.044252        -1.2042
 153   1.0000      -0.037187        -1.0119
 154   1.0000      -0.033998        -0.9251
 155   1.0000      -0.030462        -0.8289
 156   1.0000      -0.023444        -0.6379
 157   1.0000      -0.010763        -0.2929
 158   1.0000       0.021618         0.5882
 159   1.0000       0.040628         1.1056
 160   0.0000       0.125208         3.4071
 161   0.0000       0.138575         3.7708
 162   0.0000       0.144907         3.9431
 163   0.0000       0.153910         4.1881
 164   0.0000       0.159975         4.3531

MULLIKEN ATOMIC CHARGES AND SPIN POPULATIONS
--------------------------------------------
   0 V :    0.474306    1.204966
   1 S :   -0.291002   -0.022624
   2 S :   -0.286560   -0.025304
   3 S :   -0.288032   -0.022735
   4 S :   -0.280736   -0.024333
   5 O :   -0.466228   -0.144366
   6 C :   -0.071724    0.009668
   7 C :   -0.078401    0.007910
   8 C :   -0.085746    0.008033
   9 C :   -0.085533    0.007542
  10 S :    0.055566   -0.000740
  11 S :    0.065387   -0.000825
  12 S :    0.104716   -0.000386
  13 S :    0.100853   -0.000354
  14 C :   -0.321381    0.003657
  15 C :   -0.203456    0.001102
  16 C :   -0.086403   -0.000645
  17 C :   -0.197880   -0.000400
  18 S :    0.050392   -0.000159
  19 S :    0.053605   -0.000160
  20 S :    0.003810   -0.000072
  21 S :    0.004155   -0.000075
  22 C :   -0.299362    0.000003
  23 C :   -0.298810    0.000002
  24 C :   -0.156782   -0.000015
  25 H :    0.143390   -0.000001
  26 H :    0.112939   -0.000004
  27 H :    0.082635   -0.000000
  28 H :    0.092163   -0.000001
  29 H :    0.112618   -0.000004
  30 H :    0.142968   -0.000001
  31 C :   -0.315283    0.000219
  32 C :   -0.317077    0.000218
  33 C :   -0.175949   -0.000182
  34 H :    0.140307   -0.000029
  35 H :    0.122439    0.000046
  36 H :    0.086646    0.000019
  37 H :    0.095403    0.000015
  38 H :    0.122031    0.000043
  39 H :    0.140019   -0.000028
Sum of atomic charges         :   -2.0000000

LOEWDIN ATOMIC CHARGES AND SPIN POPULATIONS
-------------------------------------------
   0 V :   -0.160229    1.158562
   1 S :    0.079736   -0.014517
   2 S :    0.064287   -0.016385
   3 S :    0.084795   -0.014611
   4 S :    0.076799   -0.015377
   5 O :   -0.317036   -0.129461
   6 C :   -0.566372    0.008862
   7 C :   -0.588905    0.007790
   8 C :   -0.546391    0.008350
   9 C :   -0.554705    0.007849
  10 S :    0.390966   -0.000752
  11 S :    0.408661   -0.000854
  12 S :    0.479039   -0.000830
  13 S :    0.473512   -0.000827
  14 C :   -0.373421    0.001548
  15 C :   -0.474234   -0.000043
  16 C :   -0.759790    0.000751
  17 C :   -0.612530    0.000109
  18 S :    0.469095   -0.000125
  19 S :    0.473055   -0.000124
  20 S :    0.351631   -0.000074
  21 S :    0.351112   -0.000077
  22 C :   -0.284635   -0.000007
  23 C :   -0.284630   -0.000008
  24 C :   -0.176870   -0.000001
  25 H :    0.062522   -0.000001
  26 H :    0.053564   -0.000002
  27 H :    0.057856   -0.000002
  28 H :    0.060163   -0.000001
  29 H :    0.053502   -0.000002
  30 H :    0.062339   -0.000002
  31 C :   -0.268973    0.000108
  32 C :   -0.268718    0.000108
  33 C :   -0.166641   -0.000002
  34 H :    0.063087   -0.000005
  35 H :    0.053019    0.000024
  36 H :    0.059713    0.000006
  37 H :    0.059590    0.000006
  38 H :    0.053025    0.000022
  39 H :    0.063011   -0.000005

  Mayer bond orders larger than 0.100000
B(  0-V ,  1-S ) :   0.7697 B(  0-V ,  2-S ) :   0.7689 B(  0-V ,  3-S ) :   0.7644
B(  0-V ,  4-S ) :   0.7778 B(  0-V ,  5-O ) :   2.1495 B(  1-S ,  8-C ) :   1.1073
B(  2-S ,  6-C ) :   1.0572 B(  3-S ,  9-C ) :   1.1105 B(  4-S ,  7-C ) :   1.0572
B(  6-C ,  7-C ) :   1.6590 B(  6-C , 10-S ) :   0.9949 B(  7-C , 11-S ) :   1.0317
B(  8-C ,  9-C ) :   1.6969 B(  8-C , 13-S ) :   0.9241 B(  9-C , 12-S ) :   0.9367
B( 10-S , 14-C ) :   1.0817 B( 11-S , 14-C ) :   1.0699 B( 12-S , 15-C ) :   1.2522
B( 13-S , 15-C ) :   1.2608 B( 14-C , 16-C ) :   1.2541 B( 15-C , 17-C ) :   1.4574
B( 16-C , 18-S ) :   1.2058 B( 16-C , 19-S ) :   1.2161 B( 17-C , 20-S ) :   1.0787
B( 17-C , 21-S ) :   1.0790 B( 18-S , 32-C ) :   0.9547 B( 19-S , 31-C ) :   0.9522
B( 20-S , 23-C ) :   0.9937 B( 21-S , 22-C ) :   0.9931 B( 22-C , 24-C ) :   0.9121
B( 22-C , 25-H ) :   0.9657 B( 22-C , 26-H ) :   0.9659 B( 23-C , 24-C ) :   0.9126
B( 23-C , 29-H ) :   0.9659 B( 23-C , 30-H ) :   0.9656 B( 24-C , 27-H ) :   0.9621
B( 24-C , 28-H ) :   0.9723 B( 31-C , 33-C ) :   0.9310 B( 31-C , 38-H ) :   0.9601
B( 31-C , 39-H ) :   0.9654 B( 32-C , 33-C ) :   0.9300 B( 32-C , 34-H ) :   0.9657
B( 32-C , 35-H ) :   0.9598 B( 33-C , 36-H ) :   0.9622 B( 33-C , 37-H ) :   0.9665

FINAL SINGLE POINT ENERGY     -6337.575014750742

DIPOLE MOMENT
-------------
                                X             Y             Z
Electronic contribution:     -8.70647      -6.40454      -7.88981
Nuclear contribution   :      9.87378       6.91352       9.03321
                        -----------------------------------------
Total Dipole Moment    :      1.16731       0.50898       1.14340
                        -----------------------------------------
Magnitude (a.u.)       :      1.71145
Magnitude (Debye)      :      4.35015

Rotational constants in cm-1:     0.010764     0.000804     0.000783
Rotational constants in MHz :   322.693685    24.107946    23.480696

                             ****ORCA TERMINATED NORMALLY****
TOTAL RUN TIME: 0 days 1 hours 1 minutes 46 seconds 836 msec
