                         Program Version 5.0.4 -  RELEASE  -
|  1> ! nofrozencore ReducedPop printbasis
|  2> ! B3LYP TZVP
|  3>
|  4> %basis
|  5> newgto V "CP(PPP)" end
|  6> end
|  7>
|  8> %pal
|  9> nprocs 8
| 10> end
| 11>
| 12> % sym SymThresh 1e-2 end
| 13> * xyz -2 2
| 14> V 0.1464093803895206 -0.4902808114303094 -0.987861381076411
| 15> S 2.485323545591621 -0.3124281402181031 -0.16029438622968303
| 16> S -0.10600164938848604 -2.2624653137240593 0.756384699320005
| 17> S 0.3242417476454348 1.9139586335353436 -1.4852345779079328
| 18> S -2.2002501346941044 0.020706994172818613 -0.5407534908559561
| 19> O 0.2015056818810439 -1.2646489269741654 -2.3741014125341713
| 20> C -1.8595212475955312 -2.554245582891812 0.4592010536828376
| 21> C -2.6936330811381617 -1.3110716972984504 0.5450058558145003
| 22> C 2.9291962218224956 1.2658151595872602 -0.8216511439929334
| 23> C 2.001906534920626 2.2535075063738845 -1.06859514735921
| 24> S -2.6159290270692397 -3.7930974161357507 1.5626722528741825
| 25> S -4.4640164317957085 -1.784536340293584 0.4587862694605214
| 26> S 2.702157541427314 3.8281323017228446 -1.6071423522387978
| 27> S 4.586636416418287 1.8740838597993 -0.46560353434694796
| 28> C -4.2989571926523675 -3.3094569929136335 1.3408998074545058
| 29> C 4.346968425044565 3.5307460774258894 -1.0347322717670822
| 30> C -5.3679342598662805 -4.0316132313590956 1.7964006400761832
| 31> C 5.329790472294198 4.481476310601851 -1.0416408477582013
| 32> S -5.171516699745826 -5.599000955927822 2.6108822577395863
| 33> S -7.048085371524432 -3.4702537699387466 1.5625143991218837
| 34> S 6.978911653639332 4.134334059758281 -0.4597640851966708
| 35> S 5.02610105242952 6.1463086589520355 -1.598039979727388
| 36> C 5.355169653849629 7.025113622585922 -0.0011346747409405058
| 37> C 7.019794964777118 5.3170102217438115 0.9633571440658216
| 38> C 6.754610297345708 6.770434882874053 0.5639441888268403
| 39> H 4.585918387331688 6.723199697992535 0.7131417087088854
| 40> H 5.220832347004574 8.087615353193154 -0.21902421048842063
| 41> H 6.882627450612933 7.398833182751253 1.4564667730351044
| 42> H 7.50403706608313 7.088066494428826 -0.1678175632017173
| 43> H 8.019901439643386 5.218086476563488 1.392741313186046
| 44> H 6.2941008471888145 4.979816316089098 1.7068263054141948
| 45> C -7.657085390730458 -4.848746025990648 0.4896573631511065
| 46> C -6.057699341864372 -6.658908441310121 1.375808408011009
| 47> C -7.50587471221322 -6.232487227107059 1.1247027741543412
| 48> H -5.481530376475386 -6.646827992759544 0.4479164188983732
| 49> H -6.026295561861425 -7.672012874182944 1.7845224431064057
| 50> H -8.060019097198104 -6.260156495331927 2.068252125918002
| 51> H -7.967763064326746 -6.9694885132291 0.4528488773841378
| 52> H -8.712075326999608 -4.627486393835045 0.30907493434314387
| 53> H -7.129203038071828 -4.798967216152564 -0.4654476515424049
| 54> *
| 55>
| 56> % eprnmr
| 57> gtensor true
| 58> Nuclei = all H {aiso,adip,aorb,fgrad,rho}
| 59> Nuclei = all V {aiso,adip,aorb,fgrad,rho}
| 60> end
| 61>
| 62>                          ****END OF INPUT****

CARTESIAN COORDINATES (ANGSTROEM)
---------------------------------
  V      0.144403   -0.490325   -0.984595
  S      2.483317   -0.312472   -0.157028
  S     -0.108008   -2.262509    0.759651
  S      0.322235    1.913914   -1.481968
  S     -2.202256    0.020663   -0.537487
  O      0.199499   -1.264693   -2.370835
  C     -1.861528   -2.554290    0.462468
  C     -2.695639   -1.311116    0.548272
  C      2.927190    1.265771   -0.818385
  C      1.999900    2.253463   -1.065329
  S     -2.617935   -3.793142    1.565939
  S     -4.466023   -1.784580    0.462053
  S      2.700151    3.828088   -1.603876
  S      4.584630    1.874040   -0.462337
  C     -4.300963   -3.309501    1.344166
  C      4.344962    3.530702   -1.031466
  C     -5.369941   -4.031657    1.799667
  C      5.327784    4.481432   -1.038374
  S     -5.173523   -5.599045    2.614149
  S     -7.050092   -3.470298    1.565781
  S      6.976905    4.134290   -0.456497
  S      5.024095    6.146265   -1.594773
  C      5.353163    7.025069    0.002132
  C      7.017789    5.316966    0.966624
  C      6.752604    6.770391    0.567211
  H      4.583912    6.723156    0.716408
  H      5.218826    8.087571   -0.215758
  H      6.880621    7.398789    1.459733
  H      7.502031    7.088022   -0.164551
  H      8.017895    5.218042    1.396008
  H      6.292095    4.979772    1.710093
  C     -7.659092   -4.848790    0.492924
  C     -6.059706   -6.658953    1.379075
  C     -7.507881   -6.232531    1.127969
  H     -5.483537   -6.646872    0.451183
  H     -6.028302   -7.672057    1.787789
  H     -8.062025   -6.260201    2.071519
  H     -7.969769   -6.969533    0.456115
  H     -8.714082   -4.627531    0.312342
  H     -7.131209   -4.799011   -0.462181

 Total Charge           Charge          ....   -2
 Multiplicity           Mult            ....    2
 Number of Electrons    NEL             ....  321
 Basis Dimension        Dim             ....  681

ORBITAL ENERGIES
----------------
                 SPIN UP ORBITALS
  NO   OCC          E(Eh)            E(eV)
   0   1.0000    -196.677040     -5351.8543
   1   1.0000     -88.733257     -2414.5547
   2   1.0000     -88.733209     -2414.5534
   3   1.0000     -88.730600     -2414.4824
   4   1.0000     -88.730366     -2414.4760
   5   1.0000     -88.730184     -2414.4710
   6   1.0000     -88.729351     -2414.4484
   7   1.0000     -88.724746     -2414.3231
   8   1.0000     -88.723301     -2414.2838
   9   1.0000     -88.646954     -2412.2063
  10   1.0000     -88.644044     -2412.1271
  11   1.0000     -88.642739     -2412.0915
  12   1.0000     -88.642271     -2412.0788
  13   1.0000     -22.052327      -600.0743
  14   1.0000     -18.893485      -514.1179
  15   1.0000     -18.558883      -505.0129
  16   1.0000     -18.553559      -504.8680
  17   1.0000     -18.553444      -504.8649
  18   1.0000     -10.075831      -274.1773
  19   1.0000     -10.071681      -274.0644
  20   1.0000     -10.063559      -273.8434
  21   1.0000     -10.063292      -273.8361
  22   1.0000     -10.061797      -273.7954
  23   1.0000     -10.061217      -273.7796
  24   1.0000     -10.051286      -273.5094
  25   1.0000     -10.049369      -273.4572
  26   1.0000     -10.048713      -273.4394
  27   1.0000     -10.046344      -273.3749
  28   1.0000     -10.038290      -273.1558
  29   1.0000     -10.035064      -273.0680
  30   1.0000     -10.023921      -272.7648
  31   1.0000     -10.022387      -272.7230
  32   1.0000      -7.786729      -211.8877
  33   1.0000      -7.786695      -211.8867
  34   1.0000      -7.784055      -211.8149
  35   1.0000      -7.783901      -211.8107
  36   1.0000      -7.783379      -211.7965
  37   1.0000      -7.782609      -211.7756
  38   1.0000      -7.777659      -211.6409
  39   1.0000      -7.776563      -211.6110
  40   1.0000      -7.700937      -209.5532
  41   1.0000      -7.697512      -209.4599
  42   1.0000      -7.697124      -209.4494
  43   1.0000      -7.696281      -209.4265
  44   1.0000      -5.751714      -156.5121
  45   1.0000      -5.751698      -156.5117
  46   1.0000      -5.749045      -156.4395
  47   1.0000      -5.748923      -156.4362
  48   1.0000      -5.748306      -156.4193
  49   1.0000      -5.748275      -156.4185
  50   1.0000      -5.748259      -156.4181
  51   1.0000      -5.747512      -156.3978
  52   1.0000      -5.745649      -156.3471
  53   1.0000      -5.745455      -156.3418
  54   1.0000      -5.743987      -156.3018
  55   1.0000      -5.743186      -156.2800
  56   1.0000      -5.742376      -156.2580
  57   1.0000      -5.741517      -156.2346
  58   1.0000      -5.741479      -156.2336
  59   1.0000      -5.741301      -156.2288
  60   1.0000      -5.739168      -156.1707
  61   1.0000      -5.738818      -156.1612
  62   1.0000      -5.738666      -156.1570
  63   1.0000      -5.738531      -156.1534
  64   1.0000      -5.738403      -156.1499
  65   1.0000      -5.737232      -156.1180
  66   1.0000      -5.733389      -156.0134
  67   1.0000      -5.732426      -155.9872
  68   1.0000      -5.666133      -154.1833
  69   1.0000      -5.662864      -154.0944
  70   1.0000      -5.662410      -154.0820
  71   1.0000      -5.661621      -154.0605
  72   1.0000      -5.659396      -154.0000
  73   1.0000      -5.658570      -153.9775
  74   1.0000      -5.656335      -153.9167
  75   1.0000      -5.655757      -153.9010
  76   1.0000      -5.655009      -153.8806
  77   1.0000      -5.654820      -153.8755
  78   1.0000      -5.654496      -153.8667
  79   1.0000      -5.653557      -153.8411
  80   1.0000      -2.446128       -66.5625
  81   1.0000      -1.487671       -40.4816
  82   1.0000      -1.475749       -40.1572
  83   1.0000      -1.474858       -40.1329
  84   1.0000      -0.709232       -19.2992
  85   1.0000      -0.704977       -19.1834
  86   1.0000      -0.684706       -18.6318
  87   1.0000      -0.678089       -18.4517
  88   1.0000      -0.652820       -17.7641
  89   1.0000      -0.630516       -17.1572
  90   1.0000      -0.623772       -16.9737
  91   1.0000      -0.617309       -16.7978
  92   1.0000      -0.614954       -16.7337
  93   1.0000      -0.573833       -15.6148
  94   1.0000      -0.572271       -15.5723
  95   1.0000      -0.566549       -15.4166
  96   1.0000      -0.564240       -15.3537
  97   1.0000      -0.496560       -13.5121
  98   1.0000      -0.495804       -13.4915
  99   1.0000      -0.493715       -13.4347
 100   1.0000      -0.491118       -13.3640
 101   1.0000      -0.479722       -13.0539
 102   1.0000      -0.475318       -12.9341
 103   1.0000      -0.446127       -12.1397
 104   1.0000      -0.441857       -12.0235
 105   1.0000      -0.410644       -11.1742
 106   1.0000      -0.391652       -10.6574
 107   1.0000      -0.354637        -9.6502
 108   1.0000      -0.349551        -9.5118
 109   1.0000      -0.326219        -8.8769
 110   1.0000      -0.322519        -8.7762
 111   1.0000      -0.318927        -8.6784
 112   1.0000      -0.313561        -8.5324
 113   1.0000      -0.303214        -8.2509
 114   1.0000      -0.296884        -8.0786
 115   1.0000      -0.292431        -7.9574
 116   1.0000      -0.290676        -7.9097
 117   1.0000      -0.258140        -7.0243
 118   1.0000      -0.257194        -6.9986
 119   1.0000      -0.256042        -6.9673
 120   1.0000      -0.253457        -6.8969
 121   1.0000      -0.234503        -6.3811
 122   1.0000      -0.231984        -6.3126
 123   1.0000      -0.231100        -6.2885
 124   1.0000      -0.229247        -6.2381
 125   1.0000      -0.218542        -5.9468
 126   1.0000      -0.211799        -5.7633
 127   1.0000      -0.210862        -5.7379
 128   1.0000      -0.201994        -5.4965
 129   1.0000      -0.189272        -5.1503
 130   1.0000      -0.188011        -5.1160
 131   1.0000      -0.183529        -4.9941
 132   1.0000      -0.182094        -4.9550
 133   1.0000      -0.174461        -4.7473
 134   1.0000      -0.154806        -4.2125
 135   1.0000      -0.152013        -4.1365
 136   1.0000      -0.147861        -4.0235
 137   1.0000      -0.135134        -3.6772
 138   1.0000      -0.131492        -3.5781
 139   1.0000      -0.130223        -3.5435
 140   1.0000      -0.125308        -3.4098
 141   1.0000      -0.119009        -3.2384
 142   1.0000      -0.115432        -3.1411
 143   1.0000      -0.110596        -3.0095
 144   1.0000      -0.099194        -2.6992
 145   1.0000      -0.098478        -2.6797
 146   1.0000      -0.094859        -2.5813
 147   1.0000      -0.089070        -2.4237
 148   1.0000      -0.069724        -1.8973
 149   1.0000      -0.067399        -1.8340
 150   1.0000      -0.064653        -1.7593
 151   1.0000      -0.054230        -1.4757
 152   1.0000      -0.043864        -1.1936
 153   1.0000      -0.040008        -1.0887
 154   1.0000      -0.036808        -1.0016
 155   1.0000      -0.030163        -0.8208
 156   1.0000      -0.028593        -0.7780
 157   1.0000      -0.018966        -0.5161
 158   1.0000      -0.013624        -0.3707
 159   1.0000       0.018838         0.5126
 160   1.0000       0.037982         1.0336
 161   0.0000       0.132423         3.6034
 162   0.0000       0.137004         3.7281
 163   0.0000       0.138865         3.7787
 164   0.0000       0.160719         4.3734
 165   0.0000       0.166450         4.5293

                 SPIN DOWN ORBITALS
  NO   OCC          E(Eh)            E(eV)
   0   1.0000    -196.677186     -5351.8583
   1   1.0000     -88.733258     -2414.5547
   2   1.0000     -88.733210     -2414.5534
   3   1.0000     -88.730601     -2414.4824
   4   1.0000     -88.730366     -2414.4760
   5   1.0000     -88.730192     -2414.4713
   6   1.0000     -88.729359     -2414.4486
   7   1.0000     -88.724772     -2414.3238
   8   1.0000     -88.723294     -2414.2836
   9   1.0000     -88.647143     -2412.2114
  10   1.0000     -88.644129     -2412.1294
  11   1.0000     -88.642869     -2412.0951
  12   1.0000     -88.642422     -2412.0829
  13   1.0000     -22.037420      -599.6687
  14   1.0000     -18.897263      -514.2207
  15   1.0000     -18.553630      -504.8700
  16   1.0000     -18.537562      -504.4327
  17   1.0000     -18.537336      -504.4266
  18   1.0000     -10.075829      -274.1772
  19   1.0000     -10.071668      -274.0640
  20   1.0000     -10.063560      -273.8434
  21   1.0000     -10.063292      -273.8361
  22   1.0000     -10.061795      -273.7954
  23   1.0000     -10.061218      -273.7797
  24   1.0000     -10.051286      -273.5094
  25   1.0000     -10.049368      -273.4572
  26   1.0000     -10.048709      -273.4393
  27   1.0000     -10.046331      -273.3746
  28   1.0000     -10.038356      -273.1575
  29   1.0000     -10.034510      -273.0529
  30   1.0000     -10.023692      -272.7585
  31   1.0000     -10.022202      -272.7180
  32   1.0000      -7.786729      -211.8877
  33   1.0000      -7.786696      -211.8868
  34   1.0000      -7.784056      -211.8149
  35   1.0000      -7.783902      -211.8107
  36   1.0000      -7.783389      -211.7968
  37   1.0000      -7.782619      -211.7758
  38   1.0000      -7.777687      -211.6416
  39   1.0000      -7.776557      -211.6109
  40   1.0000      -7.701114      -209.5580
  41   1.0000      -7.697591      -209.4621
  42   1.0000      -7.697247      -209.4527
  43   1.0000      -7.696422      -209.4303
  44   1.0000      -5.751714      -156.5121
  45   1.0000      -5.751699      -156.5117
  46   1.0000      -5.749046      -156.4395
  47   1.0000      -5.748924      -156.4362
  48   1.0000      -5.748306      -156.4194
  49   1.0000      -5.748287      -156.4188
  50   1.0000      -5.748259      -156.4181
  51   1.0000      -5.747523      -156.3980
  52   1.0000      -5.745651      -156.3471
  53   1.0000      -5.745456      -156.3418
  54   1.0000      -5.744002      -156.3022
  55   1.0000      -5.743199      -156.2804
  56   1.0000      -5.742410      -156.2589
  57   1.0000      -5.741518      -156.2346
  58   1.0000      -5.741480      -156.2336
  59   1.0000      -5.741295      -156.2286
  60   1.0000      -5.739173      -156.1708
  61   1.0000      -5.738818      -156.1612
  62   1.0000      -5.738666      -156.1571
  63   1.0000      -5.738570      -156.1544
  64   1.0000      -5.738410      -156.1501
  65   1.0000      -5.737225      -156.1178
  66   1.0000      -5.733425      -156.0144
  67   1.0000      -5.732404      -155.9866
  68   1.0000      -5.666321      -154.1884
  69   1.0000      -5.662950      -154.0967
  70   1.0000      -5.662548      -154.0858
  71   1.0000      -5.661766      -154.0645
  72   1.0000      -5.659781      -154.0105
  73   1.0000      -5.658819      -153.9843
  74   1.0000      -5.656712      -153.9270
  75   1.0000      -5.656102      -153.9104
  76   1.0000      -5.655395      -153.8911
  77   1.0000      -5.654731      -153.8731
  78   1.0000      -5.654581      -153.8690
  79   1.0000      -5.653683      -153.8445
  80   1.0000      -2.401331       -65.3435
  81   1.0000      -1.468437       -39.9582
  82   1.0000      -1.413499       -38.4633
  83   1.0000      -1.413228       -38.4559
  84   1.0000      -0.709219       -19.2988
  85   1.0000      -0.704958       -19.1829
  86   1.0000      -0.684665       -18.6307
  87   1.0000      -0.678028       -18.4501
  88   1.0000      -0.660923       -17.9846
  89   1.0000      -0.630457       -17.1556
  90   1.0000      -0.623683       -16.9713
  91   1.0000      -0.617311       -16.7979
  92   1.0000      -0.614953       -16.7337
  93   1.0000      -0.573811       -15.6142
  94   1.0000      -0.572209       -15.5706
  95   1.0000      -0.566515       -15.4157
  96   1.0000      -0.564119       -15.3505
  97   1.0000      -0.496597       -13.5131
  98   1.0000      -0.495850       -13.4928
  99   1.0000      -0.493779       -13.4364
 100   1.0000      -0.491121       -13.3641
 101   1.0000      -0.479922       -13.0593
 102   1.0000      -0.475525       -12.9397
 103   1.0000      -0.446158       -12.1406
 104   1.0000      -0.441881       -12.0242
 105   1.0000      -0.410682       -11.1752
 106   1.0000      -0.391689       -10.6584
 107   1.0000      -0.354633        -9.6501
 108   1.0000      -0.349546        -9.5116
 109   1.0000      -0.326210        -8.8766
 110   1.0000      -0.322509        -8.7759
 111   1.0000      -0.318831        -8.6758
 112   1.0000      -0.313545        -8.5320
 113   1.0000      -0.303178        -8.2499
 114   1.0000      -0.296843        -8.0775
 115   1.0000      -0.292426        -7.9573
 116   1.0000      -0.290669        -7.9095
 117   1.0000      -0.258053        -7.0220
 118   1.0000      -0.257080        -6.9955
 119   1.0000      -0.255992        -6.9659
 120   1.0000      -0.253399        -6.8953
 121   1.0000      -0.234473        -6.3803
 122   1.0000      -0.231971        -6.3122
 123   1.0000      -0.231055        -6.2873
 124   1.0000      -0.229209        -6.2371
 125   1.0000      -0.218353        -5.9417
 126   1.0000      -0.211680        -5.7601
 127   1.0000      -0.210597        -5.7306
 128   1.0000      -0.201381        -5.4799
 129   1.0000      -0.188699        -5.1348
 130   1.0000      -0.187871        -5.1122
 131   1.0000      -0.182468        -4.9652
 132   1.0000      -0.181729        -4.9451
 133   1.0000      -0.174271        -4.7422
 134   1.0000      -0.154230        -4.1968
 135   1.0000      -0.151774        -4.1300
 136   1.0000      -0.147687        -4.0188
 137   1.0000      -0.134419        -3.6577
 138   1.0000      -0.130829        -3.5601
 139   1.0000      -0.129987        -3.5371
 140   1.0000      -0.125418        -3.4128
 141   1.0000      -0.119275        -3.2456
 142   1.0000      -0.116743        -3.1767
 143   1.0000      -0.112275        -3.0552
 144   1.0000      -0.099380        -2.7043
 145   1.0000      -0.098116        -2.6699
 146   1.0000      -0.094718        -2.5774
 147   1.0000      -0.089308        -2.4302
 148   1.0000      -0.067735        -1.8432
 149   1.0000      -0.066554        -1.8110
 150   1.0000      -0.063877        -1.7382
 151   1.0000      -0.051562        -1.4031
 152   1.0000      -0.042933        -1.1683
 153   1.0000      -0.039764        -1.0820
 154   1.0000      -0.036215        -0.9855
 155   1.0000      -0.029881        -0.8131
 156   1.0000      -0.026318        -0.7161
 157   1.0000      -0.016316        -0.4440
 158   1.0000       0.019047         0.5183
 159   1.0000       0.037103         1.0096
 160   0.0000       0.132556         3.6070
 161   0.0000       0.136997         3.7279
 162   0.0000       0.138790         3.7767
 163   0.0000       0.154734         4.2105
 164   0.0000       0.162141         4.4121

MULLIKEN ATOMIC CHARGES AND SPIN POPULATIONS
--------------------------------------------
   0 V :    0.471752    1.207419
   1 S :   -0.295694   -0.026466
   2 S :   -0.291839   -0.018244
   3 S :   -0.275239   -0.021048
   4 S :   -0.250079   -0.033452
   5 O :   -0.466086   -0.146296
   6 C :   -0.053252    0.028386
   7 C :   -0.097610   -0.005932
   8 C :   -0.068767    0.008758
   9 C :   -0.099614    0.007212
  10 S :    0.075723    0.001405
  11 S :    0.070136   -0.003223
  12 S :    0.092330   -0.000615
  13 S :    0.093958   -0.000572
  14 C :   -0.187281    0.002173
  15 C :   -0.198962    0.001135
  16 C :   -0.212195    0.000079
  17 C :   -0.197729   -0.000446
  18 S :    0.009857   -0.000157
  19 S :    0.008848   -0.000091
  20 S :    0.009310   -0.000063
  21 S :    0.007885   -0.000064
  22 C :   -0.299909    0.000002
  23 C :   -0.299404   -0.000011
  24 C :   -0.159634   -0.000007
  25 H :    0.143391   -0.000003
  26 H :    0.113601   -0.000004
  27 H :    0.083609   -0.000001
  28 H :    0.092280   -0.000001
  29 H :    0.113781   -0.000006
  30 H :    0.142704    0.000002
  31 C :   -0.295652    0.000158
  32 C :   -0.297745    0.000139
  33 C :   -0.163210   -0.000226
  34 H :    0.141836   -0.000011
  35 H :    0.112275   -0.000002
  36 H :    0.091860    0.000026
  37 H :    0.081352    0.000009
  38 H :    0.112938    0.000032
  39 H :    0.140473    0.000005
Sum of atomic charges         :   -2.0000000

LOEWDIN ATOMIC CHARGES AND SPIN POPULATIONS
-------------------------------------------
   0 V :   -0.167616    1.160747
   1 S :    0.074971   -0.017480
   2 S :    0.067517   -0.008712
   3 S :    0.090001   -0.013183
   4 S :    0.104692   -0.023040
   5 O :   -0.316338   -0.131223
   6 C :   -0.531569    0.025299
   7 C :   -0.523113   -0.005224
   8 C :   -0.548219    0.007079
   9 C :   -0.544632    0.008600
  10 S :    0.451142    0.001530
  11 S :    0.442007   -0.003337
  12 S :    0.465535   -0.000876
  13 S :    0.466286   -0.000842
  14 C :   -0.469393    0.000427
  15 C :   -0.465922   -0.000028
  16 C :   -0.619706    0.000463
  17 C :   -0.621351    0.000084
  18 S :    0.359787   -0.000116
  19 S :    0.358427   -0.000077
  20 S :    0.359220   -0.000067
  21 S :    0.358575   -0.000076
  22 C :   -0.283060   -0.000008
  23 C :   -0.283606   -0.000010
  24 C :   -0.176114   -0.000002
  25 H :    0.062639   -0.000002
  26 H :    0.053542   -0.000002
  27 H :    0.058006   -0.000002
  28 H :    0.060199   -0.000001
  29 H :    0.053713   -0.000003
  30 H :    0.062192   -0.000001
  31 C :   -0.284891    0.000080
  32 C :   -0.283500   -0.000035
  33 C :   -0.176751    0.000013
  34 H :    0.062111   -0.000003
  35 H :    0.053188    0.000005
  36 H :    0.060025    0.000005
  37 H :    0.057154   -0.000003
  38 H :    0.053561    0.000013
  39 H :    0.061291    0.000007

  Mayer bond orders larger than 0.100000
B(  0-V ,  1-S ) :   0.7641 B(  0-V ,  2-S ) :   0.7652 B(  0-V ,  3-S ) :   0.7807
B(  0-V ,  4-S ) :   0.7847 B(  0-V ,  5-O ) :   2.1445 B(  1-S ,  8-C ) :   1.0778
B(  2-S ,  6-C ) :   1.0368 B(  3-S ,  9-C ) :   1.1177 B(  4-S ,  7-C ) :   1.1205
B(  6-C ,  7-C ) :   1.5315 B(  6-C , 10-S ) :   0.9051 B(  7-C , 11-S ) :   0.9003
B(  8-C ,  9-C ) :   1.6429 B(  8-C , 13-S ) :   0.9276 B(  9-C , 12-S ) :   0.9243
B( 10-S , 14-C ) :   1.2377 B( 11-S , 14-C ) :   1.2268 B( 12-S , 15-C ) :   1.2386
B( 13-S , 15-C ) :   1.2449 B( 14-C , 16-C ) :   1.4937 B( 15-C , 17-C ) :   1.4666
B( 16-C , 18-S ) :   1.0826 B( 16-C , 19-S ) :   1.0877 B( 17-C , 20-S ) :   1.0898
B( 17-C , 21-S ) :   1.0860 B( 18-S , 32-C ) :   0.9906 B( 19-S , 31-C ) :   0.9954
B( 20-S , 23-C ) :   0.9917 B( 21-S , 22-C ) :   0.9896 B( 22-C , 24-C ) :   0.9131
B( 22-C , 25-H ) :   0.9660 B( 22-C , 26-H ) :   0.9653 B( 23-C , 24-C ) :   0.9137
B( 23-C , 29-H ) :   0.9659 B( 23-C , 30-H ) :   0.9657 B( 24-C , 27-H ) :   0.9626
B( 24-C , 28-H ) :   0.9718 B( 31-C , 33-C ) :   0.9137 B( 31-C , 38-H ) :   0.9663
B( 31-C , 39-H ) :   0.9660 B( 32-C , 33-C ) :   0.9140 B( 32-C , 34-H ) :   0.9661
B( 32-C , 35-H ) :   0.9652 B( 33-C , 36-H ) :   0.9713 B( 33-C , 37-H ) :   0.9621

FINAL SINGLE POINT ENERGY     -6337.641770421169

DIPOLE MOMENT
-------------
                                X             Y             Z
Electronic contribution:      4.89546      -3.89742     -12.17310
Nuclear contribution   :     -5.26942       4.59255      13.42797
                        -----------------------------------------
Total Dipole Moment    :     -0.37396       0.69513       1.25487
                        -----------------------------------------
Magnitude (a.u.)       :      1.48248
Magnitude (Debye)      :      3.76818

Rotational constants in cm-1:     0.010741     0.000804     0.000783
Rotational constants in MHz :   322.000577    24.112421    23.486971

                             ****ORCA TERMINATED NORMALLY****
TOTAL RUN TIME: 0 days 1 hours 2 minutes 28 seconds 668 msec
