                         Program Version 5.0.4 -  RELEASE  -
|  1> ! nofrozencore ReducedPop printbasis
|  2> ! B3LYP TZVP
|  3>
|  4> %basis
|  5> newgto V "CP(PPP)" end
|  6> end
|  7>
|  8> %pal
|  9> nprocs 6
| 10> end
| 11>
| 12> % sym SymThresh 1e-2 end
| 13> * xyz -2 2
| 14> V -0.9298548479085496 0.5985827121760854 0.12610634898723488
| 15> S -1.852096629297686 -1.5330004977799638 -0.7443099686330502
| 16> S -0.5569593896614461 -0.6623435548861412 2.217775264110802
| 17> S -0.173393138727129 1.094019980530708 -2.1859303198786884
| 18> S 1.1142780719817733 1.825714188960471 0.7407852047051091
| 19> O -2.1634985333492462 1.554021069834398 0.42529365057853125
| 20> C 0.5167033992583283 0.447364978839136 3.0379118374431386
| 21> C 1.1889792605526595 1.4444974721588373 2.444120911965155
| 22> C -1.6678122656965824 -1.2680560182464662 -2.5140972027365907
| 23> C -0.9961467692323137 -0.22556283573818567 -3.086052855326164
| 24> S 0.8529959115196608 0.27157670267324413 4.776174257758491
| 25> S 2.2735078943556166 2.348806773246884 3.523184837325066
| 26> S -0.7810938024849415 -0.09112415033177156 -4.940634927466503
| 27> S -2.4246636137122164 -2.6356665831243142 -3.5457081706457196
| 28> C 2.02411368943995 1.5055793961357415 4.995596887966375
| 29> C -1.8776610752295688 -1.660726872514978 -5.111339677694719
| 30> C 2.6309851768103765 1.8118869781267628 6.183308319694056
| 31> C -1.8513183705826335 -2.340274687998485 -6.319047163715021
| 32> S 2.263764892357402 0.9573961485790057 7.663926227760167
| 33> S 3.8001446606071037 3.1051412954577247 6.3167134505249205
| 34> S -2.800004481822391 -3.888811785151521 -6.622788718309771
| 35> S -1.2815056282994541 -1.5721172192647537 -7.8930594306625546
| 36> C -0.07769148893485522 -2.8556604828854883 -8.355495137594557
| 37> C -1.4169138345992611 -4.8948129189065455 -7.243083254116358
| 38> C -0.8256117548925327 -4.18708077382471 -8.46503369424982
| 39> H 0.791395633391186 -2.8517336738422556 -7.6817773001122935
| 40> H 0.2596606164596012 -2.5771195904326216 -9.36943231724549
| 41> H -0.17249852765370255 -4.911516507098639 -9.005912534063823
| 42> H -1.6908668846939043 -3.980421758503627 -9.128946303785087
| 43> H -1.8833926796477174 -5.832226159807953 -7.593827328318584
| 44> H -0.7036869607548354 -5.134939541316312 -6.44135006611602
| 45> C 2.9146265399533093 4.227326776116859 7.482193486002835
| 46> C 1.5575421421881404 2.3390681258866386 8.662450657168971
| 47> C 2.545062880431914 3.5018959095012776 8.777078142521908
| 48> H 0.5925366154741271 2.6450620670155947 8.245279643643608
| 49> H 1.386426371155286 1.9091293319322047 9.656260629687782
| 50> H 3.472797780097773 3.104331064060256 9.208833013592791
| 51> H 2.144103409555508 4.237421239173852 9.492579758505103
| 52> H 3.6330652751893 5.024870152634744 7.7048723798162415
| 53> H 2.0461195861374994 4.670816565439041 6.984226847866752
| 54> *
| 55>
| 56> % eprnmr
| 57> gtensor true
| 58> Nuclei = all H {aiso,adip,aorb,fgrad,rho}
| 59> Nuclei = all V {aiso,adip,aorb,fgrad,rho}
| 60> end
| 61>
| 62>                          ****END OF INPUT****

CARTESIAN COORDINATES (ANGSTROEM)
---------------------------------
  V     -0.926609    0.597427    0.127788
  S     -1.848851   -1.534156   -0.742629
  S     -0.553714   -0.663499    2.219457
  S     -0.170147    1.092864   -2.184249
  S      1.117524    1.824558    0.742467
  O     -2.160253    1.552865    0.426975
  C      0.519949    0.446209    3.039593
  C      1.192225    1.443342    2.445802
  C     -1.664566   -1.269212   -2.512416
  C     -0.992901   -0.226719   -3.084371
  S      0.856242    0.270421    4.777856
  S      2.276754    2.347651    3.524866
  S     -0.777848   -0.092280   -4.938953
  S     -2.421418   -2.636822   -3.544027
  C      2.027360    1.504423    4.997278
  C     -1.874415   -1.661883   -5.109658
  C      2.634231    1.810731    6.184990
  C     -1.848073   -2.341431   -6.317366
  S      2.267011    0.956240    7.665608
  S      3.803390    3.103985    6.318395
  S     -2.796759   -3.889968   -6.621107
  S     -1.278260   -1.573273   -7.891378
  C     -0.074446   -2.856816   -8.353814
  C     -1.413668   -4.895969   -7.241402
  C     -0.822366   -4.188237   -8.463352
  H      0.794641   -2.852890   -7.680096
  H      0.262906   -2.578275   -9.367751
  H     -0.169253   -4.912672   -9.004231
  H     -1.687621   -3.981578   -9.127265
  H     -1.880147   -5.833382   -7.592146
  H     -0.700441   -5.136095   -6.439669
  C      2.917872    4.226171    7.483875
  C      1.560788    2.337912    8.664132
  C      2.548309    3.500740    8.778760
  H      0.595782    2.643906    8.246961
  H      1.389672    1.907973    9.657942
  H      3.476044    3.103175    9.210514
  H      2.147349    4.236265    9.494261
  H      3.636311    5.023714    7.706554
  H      2.049365    4.669661    6.985908

 Total Charge           Charge          ....   -2
 Multiplicity           Mult            ....    2
 Number of Electrons    NEL             ....  321
 Basis Dimension        Dim             ....  681

ORBITAL ENERGIES
----------------
                 SPIN UP ORBITALS
  NO   OCC          E(Eh)            E(eV)
   0   1.0000    -196.673561     -5351.7597
   1   1.0000     -88.739959     -2414.7371
   2   1.0000     -88.739883     -2414.7350
   3   1.0000     -88.737889     -2414.6807
   4   1.0000     -88.737867     -2414.6801
   5   1.0000     -88.726785     -2414.3786
   6   1.0000     -88.726597     -2414.3734
   7   1.0000     -88.725000     -2414.3300
   8   1.0000     -88.724954     -2414.3287
   9   1.0000     -88.639527     -2412.0042
  10   1.0000     -88.639326     -2411.9987
  11   1.0000     -88.639102     -2411.9926
  12   1.0000     -88.638754     -2411.9831
  13   1.0000     -22.048919      -599.9816
  14   1.0000     -18.888909      -513.9933
  15   1.0000     -18.555402      -504.9182
  16   1.0000     -18.550165      -504.7757
  17   1.0000     -18.550090      -504.7736
  18   1.0000     -10.092910      -274.6420
  19   1.0000     -10.072724      -274.0927
  20   1.0000     -10.072691      -274.0919
  21   1.0000     -10.069496      -274.0049
  22   1.0000     -10.068700      -273.9833
  23   1.0000     -10.058596      -273.7083
  24   1.0000     -10.058519      -273.7062
  25   1.0000     -10.056876      -273.6615
  26   1.0000     -10.045986      -273.3652
  27   1.0000     -10.037663      -273.1387
  28   1.0000     -10.025377      -272.8044
  29   1.0000     -10.024694      -272.7858
  30   1.0000     -10.016839      -272.5721
  31   1.0000     -10.015868      -272.5456
  32   1.0000      -7.793478      -212.0713
  33   1.0000      -7.793378      -212.0686
  34   1.0000      -7.786962      -211.8940
  35   1.0000      -7.786949      -211.8936
  36   1.0000      -7.781771      -211.7528
  37   1.0000      -7.781627      -211.7488
  38   1.0000      -7.779281      -211.6850
  39   1.0000      -7.779249      -211.6841
  40   1.0000      -7.694060      -209.3660
  41   1.0000      -7.693799      -209.3589
  42   1.0000      -7.692566      -209.3254
  43   1.0000      -7.692251      -209.3168
  44   1.0000      -5.758353      -156.6927
  45   1.0000      -5.758258      -156.6902
  46   1.0000      -5.755313      -156.6100
  47   1.0000      -5.755217      -156.6074
  48   1.0000      -5.752608      -156.5364
  49   1.0000      -5.752594      -156.5360
  50   1.0000      -5.748516      -156.4251
  51   1.0000      -5.748503      -156.4247
  52   1.0000      -5.748069      -156.4129
  53   1.0000      -5.747973      -156.4103
  54   1.0000      -5.746421      -156.3681
  55   1.0000      -5.746275      -156.3641
  56   1.0000      -5.744221      -156.3082
  57   1.0000      -5.744192      -156.3074
  58   1.0000      -5.741939      -156.2461
  59   1.0000      -5.741883      -156.2446
  60   1.0000      -5.741874      -156.2443
  61   1.0000      -5.741791      -156.2421
  62   1.0000      -5.740700      -156.2124
  63   1.0000      -5.740661      -156.2113
  64   1.0000      -5.737868      -156.1353
  65   1.0000      -5.737718      -156.1312
  66   1.0000      -5.734119      -156.0333
  67   1.0000      -5.734094      -156.0326
  68   1.0000      -5.659371      -153.9993
  69   1.0000      -5.659129      -153.9927
  70   1.0000      -5.658019      -153.9625
  71   1.0000      -5.657708      -153.9541
  72   1.0000      -5.652646      -153.8163
  73   1.0000      -5.652403      -153.8097
  74   1.0000      -5.651399      -153.7824
  75   1.0000      -5.651346      -153.7809
  76   1.0000      -5.651115      -153.7747
  77   1.0000      -5.651036      -153.7725
  78   1.0000      -5.649785      -153.7385
  79   1.0000      -5.649463      -153.7297
  80   1.0000      -2.442581       -66.4660
  81   1.0000      -1.483944       -40.3802
  82   1.0000      -1.472124       -40.0585
  83   1.0000      -1.471441       -40.0400
  84   1.0000      -0.718725       -19.5575
  85   1.0000      -0.707304       -19.2467
  86   1.0000      -0.690042       -18.7770
  87   1.0000      -0.658344       -17.9144
  88   1.0000      -0.648478       -17.6460
  89   1.0000      -0.632788       -17.2190
  90   1.0000      -0.630620       -17.1600
  91   1.0000      -0.616589       -16.7782
  92   1.0000      -0.614515       -16.7218
  93   1.0000      -0.579555       -15.7705
  94   1.0000      -0.576955       -15.6997
  95   1.0000      -0.559151       -15.2153
  96   1.0000      -0.554112       -15.0782
  97   1.0000      -0.495310       -13.4781
  98   1.0000      -0.494368       -13.4524
  99   1.0000      -0.492960       -13.4141
 100   1.0000      -0.490296       -13.3416
 101   1.0000      -0.479577       -13.0500
 102   1.0000      -0.469129       -12.7657
 103   1.0000      -0.446483       -12.1494
 104   1.0000      -0.444362       -12.0917
 105   1.0000      -0.415893       -11.3170
 106   1.0000      -0.410143       -11.1606
 107   1.0000      -0.357075        -9.7165
 108   1.0000      -0.351331        -9.5602
 109   1.0000      -0.327145        -8.9021
 110   1.0000      -0.324995        -8.8436
 111   1.0000      -0.323221        -8.7953
 112   1.0000      -0.310537        -8.4502
 113   1.0000      -0.303344        -8.2544
 114   1.0000      -0.292795        -7.9674
 115   1.0000      -0.292027        -7.9465
 116   1.0000      -0.290887        -7.9154
 117   1.0000      -0.260568        -7.0904
 118   1.0000      -0.258211        -7.0263
 119   1.0000      -0.255186        -6.9440
 120   1.0000      -0.244780        -6.6608
 121   1.0000      -0.240238        -6.5372
 122   1.0000      -0.231442        -6.2979
 123   1.0000      -0.228648        -6.2218
 124   1.0000      -0.226481        -6.1629
 125   1.0000      -0.216395        -5.8884
 126   1.0000      -0.215843        -5.8734
 127   1.0000      -0.214807        -5.8452
 128   1.0000      -0.208367        -5.6700
 129   1.0000      -0.190090        -5.1726
 130   1.0000      -0.188910        -5.1405
 131   1.0000      -0.184637        -5.0242
 132   1.0000      -0.177259        -4.8235
 133   1.0000      -0.173855        -4.7308
 134   1.0000      -0.153442        -4.1754
 135   1.0000      -0.150160        -4.0861
 136   1.0000      -0.147994        -4.0271
 137   1.0000      -0.135822        -3.6959
 138   1.0000      -0.128872        -3.5068
 139   1.0000      -0.128307        -3.4914
 140   1.0000      -0.123453        -3.3593
 141   1.0000      -0.116152        -3.1607
 142   1.0000      -0.111995        -3.0475
 143   1.0000      -0.108582        -2.9547
 144   1.0000      -0.098352        -2.6763
 145   1.0000      -0.098013        -2.6671
 146   1.0000      -0.094539        -2.5725
 147   1.0000      -0.093403        -2.5416
 148   1.0000      -0.073175        -1.9912
 149   1.0000      -0.070348        -1.9143
 150   1.0000      -0.060464        -1.6453
 151   1.0000      -0.051581        -1.4036
 152   1.0000      -0.043775        -1.1912
 153   1.0000      -0.039479        -1.0743
 154   1.0000      -0.036474        -0.9925
 155   1.0000      -0.030139        -0.8201
 156   1.0000      -0.023617        -0.6426
 157   1.0000      -0.017481        -0.4757
 158   1.0000      -0.013532        -0.3682
 159   1.0000       0.019662         0.5350
 160   1.0000       0.040825         1.1109
 161   0.0000       0.111908         3.0452
 162   0.0000       0.137692         3.7468
 163   0.0000       0.141452         3.8491
 164   0.0000       0.161918         4.4060
 165   0.0000       0.162511         4.4221

                 SPIN DOWN ORBITALS
  NO   OCC          E(Eh)            E(eV)
   0   1.0000    -196.673709     -5351.7637
   1   1.0000     -88.739960     -2414.7371
   2   1.0000     -88.739884     -2414.7350
   3   1.0000     -88.737894     -2414.6809
   4   1.0000     -88.737872     -2414.6803
   5   1.0000     -88.726794     -2414.3788
   6   1.0000     -88.726606     -2414.3737
   7   1.0000     -88.725000     -2414.3300
   8   1.0000     -88.724954     -2414.3288
   9   1.0000     -88.639666     -2412.0079
  10   1.0000     -88.639465     -2412.0025
  11   1.0000     -88.639250     -2411.9966
  12   1.0000     -88.638904     -2411.9872
  13   1.0000     -22.033966      -599.5747
  14   1.0000     -18.892708      -514.0967
  15   1.0000     -18.550127      -504.7746
  16   1.0000     -18.534056      -504.3373
  17   1.0000     -18.534003      -504.3358
  18   1.0000     -10.092917      -274.6422
  19   1.0000     -10.072724      -274.0927
  20   1.0000     -10.072691      -274.0918
  21   1.0000     -10.069488      -274.0047
  22   1.0000     -10.068692      -273.9830
  23   1.0000     -10.058594      -273.7083
  24   1.0000     -10.058518      -273.7062
  25   1.0000     -10.056876      -273.6615
  26   1.0000     -10.045986      -273.3652
  27   1.0000     -10.037653      -273.1384
  28   1.0000     -10.025135      -272.7978
  29   1.0000     -10.024455      -272.7793
  30   1.0000     -10.016614      -272.5659
  31   1.0000     -10.015656      -272.5398
  32   1.0000      -7.793479      -212.0713
  33   1.0000      -7.793378      -212.0686
  34   1.0000      -7.786968      -211.8942
  35   1.0000      -7.786955      -211.8938
  36   1.0000      -7.781782      -211.7530
  37   1.0000      -7.781638      -211.7491
  38   1.0000      -7.779282      -211.6850
  39   1.0000      -7.779250      -211.6842
  40   1.0000      -7.694190      -209.3696
  41   1.0000      -7.693929      -209.3625
  42   1.0000      -7.692704      -209.3291
  43   1.0000      -7.692390      -209.3206
  44   1.0000      -5.758354      -156.6928
  45   1.0000      -5.758260      -156.6902
  46   1.0000      -5.755314      -156.6101
  47   1.0000      -5.755218      -156.6074
  48   1.0000      -5.752609      -156.5364
  49   1.0000      -5.752595      -156.5361
  50   1.0000      -5.748531      -156.4255
  51   1.0000      -5.748517      -156.4251
  52   1.0000      -5.748070      -156.4129
  53   1.0000      -5.747974      -156.4103
  54   1.0000      -5.746435      -156.3684
  55   1.0000      -5.746288      -156.3644
  56   1.0000      -5.744223      -156.3082
  57   1.0000      -5.744193      -156.3074
  58   1.0000      -5.741954      -156.2465
  59   1.0000      -5.741887      -156.2447
  60   1.0000      -5.741878      -156.2444
  61   1.0000      -5.741805      -156.2425
  62   1.0000      -5.740701      -156.2124
  63   1.0000      -5.740662      -156.2113
  64   1.0000      -5.737877      -156.1356
  65   1.0000      -5.737728      -156.1315
  66   1.0000      -5.734119      -156.0333
  67   1.0000      -5.734095      -156.0327
  68   1.0000      -5.659508      -154.0030
  69   1.0000      -5.659269      -153.9965
  70   1.0000      -5.658174      -153.9667
  71   1.0000      -5.657861      -153.9582
  72   1.0000      -5.653022      -153.8266
  73   1.0000      -5.652773      -153.8198
  74   1.0000      -5.651729      -153.7914
  75   1.0000      -5.651489      -153.7848
  76   1.0000      -5.651427      -153.7831
  77   1.0000      -5.651212      -153.7773
  78   1.0000      -5.649898      -153.7415
  79   1.0000      -5.649576      -153.7328
  80   1.0000      -2.397632       -65.2429
  81   1.0000      -1.464616       -39.8542
  82   1.0000      -1.409842       -38.3638
  83   1.0000      -1.409451       -38.3531
  84   1.0000      -0.718686       -19.5564
  85   1.0000      -0.707304       -19.2467
  86   1.0000      -0.690008       -18.7761
  87   1.0000      -0.658357       -17.9148
  88   1.0000      -0.656552       -17.8657
  89   1.0000      -0.632728       -17.2174
  90   1.0000      -0.630622       -17.1601
  91   1.0000      -0.616477       -16.7752
  92   1.0000      -0.614514       -16.7218
  93   1.0000      -0.579481       -15.7685
  94   1.0000      -0.576931       -15.6991
  95   1.0000      -0.559117       -15.2143
  96   1.0000      -0.554044       -15.0763
  97   1.0000      -0.495392       -13.4803
  98   1.0000      -0.494393       -13.4531
  99   1.0000      -0.492975       -13.4145
 100   1.0000      -0.490313       -13.3421
 101   1.0000      -0.479753       -13.0547
 102   1.0000      -0.469421       -12.7736
 103   1.0000      -0.446509       -12.1501
 104   1.0000      -0.444397       -12.0927
 105   1.0000      -0.415904       -11.3173
 106   1.0000      -0.410267       -11.1639
 107   1.0000      -0.357075        -9.7165
 108   1.0000      -0.351315        -9.5598
 109   1.0000      -0.327143        -8.9020
 110   1.0000      -0.324976        -8.8430
 111   1.0000      -0.323194        -8.7946
 112   1.0000      -0.310538        -8.4502
 113   1.0000      -0.303307        -8.2534
 114   1.0000      -0.292730        -7.9656
 115   1.0000      -0.291995        -7.9456
 116   1.0000      -0.290883        -7.9153
 117   1.0000      -0.260500        -7.0886
 118   1.0000      -0.258125        -7.0239
 119   1.0000      -0.255142        -6.9428
 120   1.0000      -0.244583        -6.6554
 121   1.0000      -0.240149        -6.5348
 122   1.0000      -0.231410        -6.2970
 123   1.0000      -0.228618        -6.2210
 124   1.0000      -0.226438        -6.1617
 125   1.0000      -0.216062        -5.8794
 126   1.0000      -0.215667        -5.8686
 127   1.0000      -0.214625        -5.8402
 128   1.0000      -0.208290        -5.6679
 129   1.0000      -0.189163        -5.1474
 130   1.0000      -0.188804        -5.1376
 131   1.0000      -0.183629        -4.9968
 132   1.0000      -0.177014        -4.8168
 133   1.0000      -0.173676        -4.7260
 134   1.0000      -0.152693        -4.1550
 135   1.0000      -0.150168        -4.0863
 136   1.0000      -0.147829        -4.0226
 137   1.0000      -0.135270        -3.6809
 138   1.0000      -0.128329        -3.4920
 139   1.0000      -0.128053        -3.4845
 140   1.0000      -0.122997        -3.3469
 141   1.0000      -0.116035        -3.1575
 142   1.0000      -0.113602        -3.0913
 143   1.0000      -0.110142        -2.9971
 144   1.0000      -0.098467        -2.6794
 145   1.0000      -0.098074        -2.6687
 146   1.0000      -0.094721        -2.5775
 147   1.0000      -0.093703        -2.5498
 148   1.0000      -0.070344        -1.9142
 149   1.0000      -0.069623        -1.8945
 150   1.0000      -0.060459        -1.6452
 151   1.0000      -0.048983        -1.3329
 152   1.0000      -0.042754        -1.1634
 153   1.0000      -0.039458        -1.0737
 154   1.0000      -0.035860        -0.9758
 155   1.0000      -0.030188        -0.8215
 156   1.0000      -0.024716        -0.6726
 157   1.0000      -0.013759        -0.3744
 158   1.0000       0.019925         0.5422
 159   1.0000       0.039836         1.0840
 160   0.0000       0.111929         3.0457
 161   0.0000       0.137418         3.7393
 162   0.0000       0.141405         3.8478
 163   0.0000       0.158253         4.3063
 164   0.0000       0.162981         4.4349

MULLIKEN ATOMIC CHARGES AND SPIN POPULATIONS
--------------------------------------------
   0 V :    0.482483    1.213068
   1 S :   -0.300111   -0.025535
   2 S :   -0.282335   -0.024137
   3 S :   -0.297633   -0.026291
   4 S :   -0.278415   -0.024788
   5 O :   -0.468072   -0.147054
   6 C :   -0.086117    0.008869
   7 C :   -0.092516    0.007406
   8 C :   -0.071189    0.009417
   9 C :   -0.072362    0.008914
  10 S :    0.122308   -0.000682
  11 S :    0.123527   -0.000694
  12 S :    0.045444   -0.000024
  13 S :    0.044242    0.000064
  14 C :   -0.240869    0.001435
  15 C :   -0.085055    0.000036
  16 C :   -0.200477    0.000155
  17 C :   -0.264344    0.000042
  18 S :    0.009337   -0.000106
  19 S :    0.009271   -0.000105
  20 S :    0.013234   -0.000073
  21 S :    0.013020   -0.000079
  22 C :   -0.259771   -0.000016
  23 C :   -0.259438   -0.000017
  24 C :   -0.234008    0.000007
  25 H :    0.152881   -0.000002
  26 H :    0.110648   -0.000002
  27 H :    0.082569   -0.000004
  28 H :    0.108927    0.000001
  29 H :    0.110454   -0.000002
  30 H :    0.152563   -0.000002
  31 C :   -0.277181    0.000185
  32 C :   -0.278198    0.000181
  33 C :   -0.189665   -0.000214
  34 H :    0.136883   -0.000015
  35 H :    0.106362    0.000019
  36 H :    0.091955    0.000026
  37 H :    0.078475    0.000010
  38 H :    0.106287    0.000021
  39 H :    0.136885   -0.000015
Sum of atomic charges         :   -2.0000000

LOEWDIN ATOMIC CHARGES AND SPIN POPULATIONS
-------------------------------------------
   0 V :   -0.154485    1.165634
   1 S :    0.054363   -0.016791
   2 S :    0.089034   -0.015393
   3 S :    0.055903   -0.017442
   4 S :    0.092730   -0.015765
   5 O :   -0.318833   -0.131936
   6 C :   -0.558327    0.008366
   7 C :   -0.560456    0.007394
   8 C :   -0.513213    0.009667
   9 C :   -0.513337    0.009094
  10 S :    0.503207   -0.000970
  11 S :    0.504053   -0.000993
  12 S :    0.386209   -0.000620
  13 S :    0.384997   -0.000597
  14 C :   -0.502201    0.000302
  15 C :   -0.364094   -0.000457
  16 C :   -0.659088    0.000442
  17 C :   -0.549452    0.000242
  18 S :    0.367239   -0.000075
  19 S :    0.368497   -0.000073
  20 S :    0.349936   -0.000078
  21 S :    0.349399   -0.000083
  22 C :   -0.286734    0.000000
  23 C :   -0.286959    0.000000
  24 C :   -0.194460    0.000001
  25 H :    0.065573   -0.000002
  26 H :    0.059073   -0.000002
  27 H :    0.055487   -0.000000
  28 H :    0.064619   -0.000000
  29 H :    0.059054   -0.000002
  30 H :    0.065368   -0.000002
  31 C :   -0.286042    0.000058
  32 C :   -0.285741    0.000051
  33 C :   -0.183362    0.000005
  34 H :    0.059932   -0.000000
  35 H :    0.053668    0.000008
  36 H :    0.060250    0.000005
  37 H :    0.054602    0.000003
  38 H :    0.053756    0.000009
  39 H :    0.059836    0.000000

  Mayer bond orders larger than 0.100000
B(  0-V ,  1-S ) :   0.7648 B(  0-V ,  2-S ) :   0.7685 B(  0-V ,  3-S ) :   0.7581
B(  0-V ,  4-S ) :   0.7758 B(  0-V ,  5-O ) :   2.1492 B(  1-S ,  8-C ) :   1.0696
B(  2-S ,  6-C ) :   1.1195 B(  3-S ,  9-C ) :   1.0725 B(  4-S ,  7-C ) :   1.1189
B(  6-C ,  7-C ) :   1.6542 B(  6-C , 10-S ) :   0.9566 B(  7-C , 11-S ) :   0.9611
B(  8-C ,  9-C ) :   1.7506 B(  8-C , 13-S ) :   0.8918 B(  9-C , 12-S ) :   0.8933
B( 10-S , 14-C ) :   1.3125 B( 11-S , 14-C ) :   1.3125 B( 12-S , 15-C ) :   1.0744
B( 13-S , 15-C ) :   1.0732 B( 14-C , 16-C ) :   1.3415 B( 15-C , 17-C ) :   1.6327
B( 16-C , 18-S ) :   1.1184 B( 16-C , 19-S ) :   1.1191 B( 17-C , 20-S ) :   1.0193
B( 17-C , 21-S ) :   1.0197 B( 18-S , 32-C ) :   0.9908 B( 19-S , 31-C ) :   0.9909
B( 20-S , 23-C ) :   1.0095 B( 21-S , 22-C ) :   1.0088 B( 22-C , 24-C ) :   0.9024
B( 22-C , 25-H ) :   0.9552 B( 22-C , 26-H ) :   0.9705 B( 23-C , 24-C ) :   0.9032
B( 23-C , 29-H ) :   0.9705 B( 23-C , 30-H ) :   0.9549 B( 24-C , 27-H ) :   0.9416
B( 24-C , 28-H ) :   0.9897 B( 31-C , 33-C ) :   0.9156 B( 31-C , 38-H ) :   0.9683
B( 31-C , 39-H ) :   0.9609 B( 32-C , 33-C ) :   0.9151 B( 32-C , 34-H ) :   0.9608
B( 32-C , 35-H ) :   0.9683 B( 33-C , 36-H ) :   0.9784 B( 33-C , 37-H ) :   0.9524

FINAL SINGLE POINT ENERGY     -6337.651369714271

DIPOLE MOMENT
-------------
                                X             Y             Z
Electronic contribution:    -12.33627       5.20186      -2.10416
Nuclear contribution   :     13.54020      -6.19709       1.39670
                        -----------------------------------------
Total Dipole Moment    :      1.20393      -0.99523      -0.70746
                        -----------------------------------------
Magnitude (a.u.)       :      1.71477
Magnitude (Debye)      :      4.35860

Rotational constants in cm-1:     0.010559     0.000804     0.000782
Rotational constants in MHz :   316.547467    24.113593    23.443509

                             ****ORCA TERMINATED NORMALLY****
TOTAL RUN TIME: 0 days 1 hours 6 minutes 25 seconds 493 msec
