                         Program Version 5.0.4 -  RELEASE  -
|  1> ! nofrozencore ReducedPop printbasis
|  2> ! B3LYP TZVP
|  3>
|  4> %basis
|  5> newgto V "CP(PPP)" end
|  6> end
|  7>
|  8> %pal
|  9> nprocs 6
| 10> end
| 11>
| 12> % sym SymThresh 1e-2 end
| 13> * xyz -2 2
| 14> V -1.0262676182664845 0.3073761352639277 0.30000171011987303
| 15> S 0.3066004666422989 1.7393628447585328 1.836663368251033
| 16> S -0.13138141631222366 1.7419259480046518 -1.4859143348840436
| 17> S -0.41605002955887604 -1.5571447718970868 1.7919487754128542
| 18> S -1.1712311334807177 -1.4663031432459719 -1.4461479616171562
| 19> O -2.5331171872718476 0.7396965160296772 0.5629325668101998
| 20> C -0.7087348549249796 0.8455338403406123 -2.8905840200996273
| 21> C -1.0936854747978377 -0.4483171501169566 -2.879251375683137
| 22> C 0.6307915692746401 0.6129334461773431 3.1459958831933017
| 23> C 0.33317045761240915 -0.6996845787458895 3.131512004411371
| 24> S -0.7171003687780332 1.668542578930829 -4.486226302477202
| 25> S -1.4782854391407811 -1.1797861426384437 -4.474712458227304
| 26> S 0.798963890624899 -1.6462766297818983 4.583115730963105
| 27> S 1.4593058375127321 1.2242486401117247 4.6204604221323935
| 28> C -1.1973426034550032 0.2685081244078706 -5.45349958022402
| 29> C 1.5781190290493528 -0.32582284597512595 5.462892363850765
| 30> C -1.3473766848691013 0.30332543244309074 -6.813110055300395
| 31> C 2.1954860696833296 -0.49161954016533227 6.671731647875091
| 32> S -1.301289040537752 1.8344136723455662 -7.737732048924994
| 33> S -1.6390205297915144 -1.1824548066012506 -7.756429627847374
| 34> S 3.0183639714368797 0.8474429867477293 7.512345930885963
| 35> S 2.244774527105832 -2.078873308413002 7.4820114916731955
| 36> C 4.078389210874817 -2.333049311859938 7.475149674019629
| 37> C 4.736371299701266 0.15414154850651585 7.503156228576822
| 38> C 4.854118824777435 -1.2156603491187838 8.176586265463033
| 39> H 4.401477169971478 -2.4391177273389895 6.437090955526537
| 40> H 4.242455865076672 -3.2870033264604914 7.983063834036353
| 41> H 5.916727247151785 -1.4963541701834266 8.196214524688596
| 42> H 4.518500027689692 -1.139175782893425 9.215598024656208
| 43> H 5.348027213482329 0.8901417279631433 8.031266150398467
| 44> H 5.077107742620805 0.10783751800501153 6.466414477436811
| 45> C -3.317197394449119 -0.778186086448149 -8.435499823232023
| 46> C -3.04653762157865 1.7905368212606445 -8.372541556389717
| 47> C -3.3614601967030073 0.5443613112623489 -9.212742013706023
| 48> H -3.7272706508713114 1.8645889577409493 -7.515542591675791
| 49> H -3.1566456309850945 2.70026301919268 -8.976221119692694
| 50> H -2.661938723151579 0.49343128291867877 -10.058475261591756
| 51> H -4.375082756715147 0.6602356373549558 -9.62735154936098
| 52> H -3.5742801135840865 -1.62029774083322 -9.090463656191531
| 53> H -4.03190607019322 -0.7626820666656617 -7.603349429832069
| 54> *
| 55>
| 56> % eprnmr
| 57> gtensor true
| 58> Nuclei = all H {aiso,adip,aorb,fgrad,rho}
| 59> Nuclei = all V {aiso,adip,aorb,fgrad,rho}
| 60> end
| 61>
| 62>                          ****END OF INPUT****

CARTESIAN COORDINATES (ANGSTROEM)
---------------------------------
  V     -1.023906    0.306781    0.297041
  S      0.308962    1.738768    1.833702
  S     -0.129020    1.741331   -1.488875
  S     -0.413689   -1.557740    1.788988
  S     -1.168870   -1.466898   -1.449109
  O     -2.530756    0.739101    0.559971
  C     -0.706373    0.844939   -2.893545
  C     -1.091324   -0.448912   -2.882212
  C      0.633153    0.612338    3.143035
  C      0.335532   -0.700280    3.128551
  S     -0.714739    1.667947   -4.489187
  S     -1.475924   -1.180381   -4.477674
  S      0.801325   -1.646872    4.580155
  S      1.461667    1.223653    4.617499
  C     -1.194981    0.267913   -5.456461
  C      1.580480   -0.326418    5.459931
  C     -1.345015    0.302730   -6.816071
  C      2.197847   -0.492215    6.668771
  S     -1.298928    1.833818   -7.740693
  S     -1.636659   -1.183050   -7.759391
  S      3.020725    0.846848    7.509385
  S      2.247136   -2.079469    7.479050
  C      4.080751   -2.333645    7.472189
  C      4.738733    0.153546    7.500195
  C      4.856480   -1.216256    8.173625
  H      4.403839   -2.439713    6.434130
  H      4.244817   -3.287599    7.980103
  H      5.919089   -1.496949    8.193253
  H      4.520861   -1.139771    9.212637
  H      5.350389    0.889547    8.028305
  H      5.079469    0.107242    6.463453
  C     -3.314836   -0.778781   -8.438461
  C     -3.044176    1.789942   -8.375503
  C     -3.359099    0.543766   -9.215703
  H     -3.724909    1.863994   -7.518504
  H     -3.154284    2.699668   -8.979182
  H     -2.659577    0.492836  -10.061436
  H     -4.372721    0.659640   -9.630313
  H     -3.571919   -1.620893   -9.093425
  H     -4.029545   -0.763277   -7.606311

 Total Charge           Charge          ....   -2
 Multiplicity           Mult            ....    2
 Number of Electrons    NEL             ....  321
 Basis Dimension        Dim             ....  681

ORBITAL ENERGIES
----------------
                 SPIN UP ORBITALS
  NO   OCC          E(Eh)            E(eV)
   0   1.0000    -196.675199     -5351.8042
   1   1.0000     -88.733728     -2414.5675
   2   1.0000     -88.733312     -2414.5562
   3   1.0000     -88.733099     -2414.5504
   4   1.0000     -88.733076     -2414.5498
   5   1.0000     -88.730351     -2414.4756
   6   1.0000     -88.730163     -2414.4705
   7   1.0000     -88.730090     -2414.4685
   8   1.0000     -88.729671     -2414.4571
   9   1.0000     -88.640632     -2412.0342
  10   1.0000     -88.640012     -2412.0173
  11   1.0000     -88.639019     -2411.9903
  12   1.0000     -88.639001     -2411.9898
  13   1.0000     -22.050546      -600.0259
  14   1.0000     -18.890197      -514.0284
  15   1.0000     -18.557003      -504.9617
  16   1.0000     -18.551838      -504.8212
  17   1.0000     -18.551699      -504.8174
  18   1.0000     -10.075820      -274.1770
  19   1.0000     -10.075746      -274.1750
  20   1.0000     -10.064814      -273.8775
  21   1.0000     -10.064641      -273.8728
  22   1.0000     -10.063411      -273.8393
  23   1.0000     -10.063184      -273.8331
  24   1.0000     -10.052460      -273.5413
  25   1.0000     -10.051187      -273.5067
  26   1.0000     -10.048436      -273.4318
  27   1.0000     -10.048392      -273.4306
  28   1.0000     -10.019013      -272.6312
  29   1.0000     -10.017991      -272.6034
  30   1.0000     -10.017769      -272.5974
  31   1.0000     -10.016827      -272.5717
  32   1.0000      -7.787011      -211.8953
  33   1.0000      -7.786707      -211.8871
  34   1.0000      -7.786535      -211.8824
  35   1.0000      -7.786308      -211.8762
  36   1.0000      -7.783533      -211.8007
  37   1.0000      -7.783390      -211.7968
  38   1.0000      -7.783352      -211.7958
  39   1.0000      -7.782982      -211.7857
  40   1.0000      -7.694750      -209.3848
  41   1.0000      -7.694344      -209.3737
  42   1.0000      -7.693269      -209.3445
  43   1.0000      -7.693170      -209.3418
  44   1.0000      -5.752006      -156.5200
  45   1.0000      -5.751700      -156.5117
  46   1.0000      -5.751517      -156.5067
  47   1.0000      -5.751322      -156.5014
  48   1.0000      -5.748597      -156.4273
  49   1.0000      -5.748481      -156.4241
  50   1.0000      -5.748339      -156.4203
  51   1.0000      -5.748300      -156.4192
  52   1.0000      -5.748291      -156.4189
  53   1.0000      -5.748105      -156.4139
  54   1.0000      -5.747940      -156.4094
  55   1.0000      -5.747925      -156.4090
  56   1.0000      -5.744065      -156.3040
  57   1.0000      -5.743918      -156.3000
  58   1.0000      -5.743850      -156.2981
  59   1.0000      -5.743502      -156.2886
  60   1.0000      -5.741818      -156.2428
  61   1.0000      -5.741502      -156.2342
  62   1.0000      -5.741340      -156.2298
  63   1.0000      -5.741073      -156.2225
  64   1.0000      -5.739343      -156.1755
  65   1.0000      -5.739211      -156.1719
  66   1.0000      -5.739198      -156.1715
  67   1.0000      -5.738788      -156.1604
  68   1.0000      -5.660105      -154.0193
  69   1.0000      -5.659643      -154.0067
  70   1.0000      -5.658579      -153.9778
  71   1.0000      -5.658517      -153.9761
  72   1.0000      -5.653408      -153.8370
  73   1.0000      -5.652979      -153.8254
  74   1.0000      -5.652064      -153.8005
  75   1.0000      -5.651964      -153.7978
  76   1.0000      -5.651861      -153.7949
  77   1.0000      -5.651693      -153.7904
  78   1.0000      -5.650551      -153.7593
  79   1.0000      -5.650455      -153.7567
  80   1.0000      -2.444129       -66.5081
  81   1.0000      -1.485358       -40.4186
  82   1.0000      -1.473739       -40.1025
  83   1.0000      -1.472952       -40.0811
  84   1.0000      -0.709293       -19.3008
  85   1.0000      -0.707832       -19.2611
  86   1.0000      -0.685286       -18.6476
  87   1.0000      -0.683901       -18.6099
  88   1.0000      -0.649729       -17.6800
  89   1.0000      -0.631085       -17.1727
  90   1.0000      -0.629718       -17.1355
  91   1.0000      -0.617039       -16.7905
  92   1.0000      -0.615570       -16.7505
  93   1.0000      -0.574339       -15.6286
  94   1.0000      -0.574047       -15.6206
  95   1.0000      -0.572893       -15.5892
  96   1.0000      -0.571499       -15.5513
  97   1.0000      -0.496476       -13.5098
  98   1.0000      -0.495870       -13.4933
  99   1.0000      -0.494939       -13.4680
 100   1.0000      -0.494464       -13.4551
 101   1.0000      -0.479468       -13.0470
 102   1.0000      -0.476826       -12.9751
 103   1.0000      -0.446801       -12.1581
 104   1.0000      -0.444492       -12.0952
 105   1.0000      -0.415991       -11.3197
 106   1.0000      -0.410770       -11.1776
 107   1.0000      -0.355081        -9.6623
 108   1.0000      -0.353853        -9.6288
 109   1.0000      -0.326359        -8.8807
 110   1.0000      -0.325127        -8.8472
 111   1.0000      -0.318721        -8.6728
 112   1.0000      -0.314175        -8.5491
 113   1.0000      -0.304003        -8.2723
 114   1.0000      -0.303168        -8.2496
 115   1.0000      -0.292154        -7.9499
 116   1.0000      -0.290637        -7.9086
 117   1.0000      -0.257891        -7.0176
 118   1.0000      -0.257287        -7.0011
 119   1.0000      -0.255968        -6.9652
 120   1.0000      -0.254604        -6.9281
 121   1.0000      -0.234362        -6.3773
 122   1.0000      -0.232856        -6.3363
 123   1.0000      -0.230973        -6.2851
 124   1.0000      -0.229698        -6.2504
 125   1.0000      -0.219816        -5.9815
 126   1.0000      -0.217638        -5.9222
 127   1.0000      -0.213376        -5.8063
 128   1.0000      -0.211663        -5.7597
 129   1.0000      -0.192386        -5.2351
 130   1.0000      -0.187136        -5.0922
 131   1.0000      -0.185541        -5.0488
 132   1.0000      -0.184245        -5.0136
 133   1.0000      -0.179164        -4.8753
 134   1.0000      -0.159303        -4.3348
 135   1.0000      -0.151361        -4.1188
 136   1.0000      -0.146805        -3.9948
 137   1.0000      -0.135180        -3.6784
 138   1.0000      -0.134295        -3.6543
 139   1.0000      -0.132221        -3.5979
 140   1.0000      -0.125122        -3.4047
 141   1.0000      -0.120786        -3.2868
 142   1.0000      -0.113102        -3.0777
 143   1.0000      -0.109545        -2.9809
 144   1.0000      -0.099604        -2.7104
 145   1.0000      -0.098195        -2.6720
 146   1.0000      -0.096952        -2.6382
 147   1.0000      -0.094112        -2.5609
 148   1.0000      -0.074119        -2.0169
 149   1.0000      -0.067745        -1.8434
 150   1.0000      -0.067231        -1.8295
 151   1.0000      -0.052157        -1.4193
 152   1.0000      -0.045302        -1.2327
 153   1.0000      -0.037044        -1.0080
 154   1.0000      -0.036802        -1.0014
 155   1.0000      -0.030768        -0.8372
 156   1.0000      -0.024555        -0.6682
 157   1.0000      -0.020056        -0.5458
 158   1.0000      -0.014714        -0.4004
 159   1.0000       0.020944         0.5699
 160   1.0000       0.041248         1.1224
 161   0.0000       0.135956         3.6995
 162   0.0000       0.137387         3.7385
 163   0.0000       0.161867         4.4046
 164   0.0000       0.162276         4.4157
 165   0.0000       0.169455         4.6111

                 SPIN DOWN ORBITALS
  NO   OCC          E(Eh)            E(eV)
   0   1.0000    -196.675346     -5351.8082
   1   1.0000     -88.733729     -2414.5675
   2   1.0000     -88.733312     -2414.5562
   3   1.0000     -88.733100     -2414.5504
   4   1.0000     -88.733077     -2414.5498
   5   1.0000     -88.730360     -2414.4758
   6   1.0000     -88.730171     -2414.4707
   7   1.0000     -88.730098     -2414.4687
   8   1.0000     -88.729679     -2414.4573
   9   1.0000     -88.640772     -2412.0380
  10   1.0000     -88.640153     -2412.0212
  11   1.0000     -88.639162     -2411.9942
  12   1.0000     -88.639136     -2411.9935
  13   1.0000     -22.035580      -599.6186
  14   1.0000     -18.894011      -514.1322
  15   1.0000     -18.551714      -504.8178
  16   1.0000     -18.535751      -504.3834
  17   1.0000     -18.535570      -504.3785
  18   1.0000     -10.075814      -274.1768
  19   1.0000     -10.075746      -274.1750
  20   1.0000     -10.064813      -273.8775
  21   1.0000     -10.064640      -273.8728
  22   1.0000     -10.063411      -273.8393
  23   1.0000     -10.063184      -273.8332
  24   1.0000     -10.052460      -273.5413
  25   1.0000     -10.051187      -273.5067
  26   1.0000     -10.048432      -273.4317
  27   1.0000     -10.048380      -273.4303
  28   1.0000     -10.018786      -272.6250
  29   1.0000     -10.017792      -272.5980
  30   1.0000     -10.017537      -272.5910
  31   1.0000     -10.016606      -272.5657
  32   1.0000      -7.787012      -211.8954
  33   1.0000      -7.786707      -211.8871
  34   1.0000      -7.786535      -211.8824
  35   1.0000      -7.786309      -211.8762
  36   1.0000      -7.783542      -211.8009
  37   1.0000      -7.783400      -211.7971
  38   1.0000      -7.783361      -211.7960
  39   1.0000      -7.782991      -211.7860
  40   1.0000      -7.694880      -209.3883
  41   1.0000      -7.694475      -209.3773
  42   1.0000      -7.693395      -209.3479
  43   1.0000      -7.693303      -209.3454
  44   1.0000      -5.752007      -156.5201
  45   1.0000      -5.751701      -156.5117
  46   1.0000      -5.751518      -156.5068
  47   1.0000      -5.751323      -156.5015
  48   1.0000      -5.748598      -156.4273
  49   1.0000      -5.748492      -156.4244
  50   1.0000      -5.748350      -156.4206
  51   1.0000      -5.748309      -156.4195
  52   1.0000      -5.748291      -156.4190
  53   1.0000      -5.748106      -156.4139
  54   1.0000      -5.747941      -156.4094
  55   1.0000      -5.747936      -156.4093
  56   1.0000      -5.744079      -156.3043
  57   1.0000      -5.743933      -156.3004
  58   1.0000      -5.743863      -156.2985
  59   1.0000      -5.743515      -156.2890
  60   1.0000      -5.741818      -156.2428
  61   1.0000      -5.741503      -156.2342
  62   1.0000      -5.741341      -156.2298
  63   1.0000      -5.741074      -156.2226
  64   1.0000      -5.739352      -156.1757
  65   1.0000      -5.739218      -156.1721
  66   1.0000      -5.739206      -156.1717
  67   1.0000      -5.738794      -156.1605
  68   1.0000      -5.660245      -154.0231
  69   1.0000      -5.659788      -154.0107
  70   1.0000      -5.658718      -153.9815
  71   1.0000      -5.658656      -153.9799
  72   1.0000      -5.653799      -153.8477
  73   1.0000      -5.653334      -153.8350
  74   1.0000      -5.652324      -153.8076
  75   1.0000      -5.652248      -153.8055
  76   1.0000      -5.652141      -153.8026
  77   1.0000      -5.651809      -153.7936
  78   1.0000      -5.650643      -153.7618
  79   1.0000      -5.650554      -153.7594
  80   1.0000      -2.399148       -65.2841
  81   1.0000      -1.465984       -39.8915
  82   1.0000      -1.411275       -38.4028
  83   1.0000      -1.411088       -38.3977
  84   1.0000      -0.709278       -19.3004
  85   1.0000      -0.707803       -19.2603
  86   1.0000      -0.685245       -18.6465
  87   1.0000      -0.683847       -18.6084
  88   1.0000      -0.657928       -17.9031
  89   1.0000      -0.631030       -17.1712
  90   1.0000      -0.629641       -17.1334
  91   1.0000      -0.617041       -16.7905
  92   1.0000      -0.615569       -16.7505
  93   1.0000      -0.574315       -15.6279
  94   1.0000      -0.574018       -15.6198
  95   1.0000      -0.572830       -15.5875
  96   1.0000      -0.571419       -15.5491
  97   1.0000      -0.496496       -13.5103
  98   1.0000      -0.495917       -13.4946
  99   1.0000      -0.494975       -13.4690
 100   1.0000      -0.494503       -13.4561
 101   1.0000      -0.479662       -13.0523
 102   1.0000      -0.477082       -12.9821
 103   1.0000      -0.446825       -12.1587
 104   1.0000      -0.444539       -12.0965
 105   1.0000      -0.415995       -11.3198
 106   1.0000      -0.410886       -11.1808
 107   1.0000      -0.355077        -9.6621
 108   1.0000      -0.353843        -9.6285
 109   1.0000      -0.326348        -8.8804
 110   1.0000      -0.325112        -8.8467
 111   1.0000      -0.318646        -8.6708
 112   1.0000      -0.314204        -8.5499
 113   1.0000      -0.303953        -8.2710
 114   1.0000      -0.303143        -8.2489
 115   1.0000      -0.292149        -7.9498
 116   1.0000      -0.290632        -7.9085
 117   1.0000      -0.257790        -7.0148
 118   1.0000      -0.257162        -6.9977
 119   1.0000      -0.255937        -6.9644
 120   1.0000      -0.254567        -6.9271
 121   1.0000      -0.234323        -6.3763
 122   1.0000      -0.232839        -6.3359
 123   1.0000      -0.230923        -6.2837
 124   1.0000      -0.229669        -6.2496
 125   1.0000      -0.219499        -5.9729
 126   1.0000      -0.217479        -5.9179
 127   1.0000      -0.213162        -5.8004
 128   1.0000      -0.211546        -5.7565
 129   1.0000      -0.190673        -5.1885
 130   1.0000      -0.187070        -5.0904
 131   1.0000      -0.185173        -5.0388
 132   1.0000      -0.184028        -5.0077
 133   1.0000      -0.179054        -4.8723
 134   1.0000      -0.158689        -4.3182
 135   1.0000      -0.151200        -4.1144
 136   1.0000      -0.146726        -3.9926
 137   1.0000      -0.134592        -3.6624
 138   1.0000      -0.133908        -3.6438
 139   1.0000      -0.131985        -3.5915
 140   1.0000      -0.124570        -3.3897
 141   1.0000      -0.120482        -3.2785
 142   1.0000      -0.114961        -3.1283
 143   1.0000      -0.111162        -3.0249
 144   1.0000      -0.099611        -2.7105
 145   1.0000      -0.098479        -2.6797
 146   1.0000      -0.096963        -2.6385
 147   1.0000      -0.094451        -2.5702
 148   1.0000      -0.070330        -1.9138
 149   1.0000      -0.067728        -1.8430
 150   1.0000      -0.067231        -1.8295
 151   1.0000      -0.049583        -1.3492
 152   1.0000      -0.044384        -1.2077
 153   1.0000      -0.037035        -1.0078
 154   1.0000      -0.036336        -0.9887
 155   1.0000      -0.030770        -0.8373
 156   1.0000      -0.025565        -0.6957
 157   1.0000      -0.015771        -0.4292
 158   1.0000       0.021249         0.5782
 159   1.0000       0.040116         1.0916
 160   0.0000       0.135983         3.7003
 161   0.0000       0.137379         3.7383
 162   0.0000       0.156022         4.2456
 163   0.0000       0.162106         4.4111
 164   0.0000       0.163533         4.4500

MULLIKEN ATOMIC CHARGES AND SPIN POPULATIONS
--------------------------------------------
   0 V :    0.473831    1.212340
   1 S :   -0.291737   -0.022678
   2 S :   -0.285202   -0.025570
   3 S :   -0.288422   -0.023318
   4 S :   -0.292149   -0.025818
   5 O :   -0.467660   -0.147689
   6 C :   -0.082991    0.008424
   7 C :   -0.080712    0.009378
   8 C :   -0.073648    0.007001
   9 C :   -0.094993    0.007963
  10 S :    0.101441   -0.000490
  11 S :    0.101001   -0.000678
  12 S :    0.100276   -0.000291
  13 S :    0.098575   -0.000443
  14 C :   -0.209342    0.001544
  15 C :   -0.211620    0.000949
  16 C :   -0.195665   -0.000034
  17 C :   -0.191064   -0.000392
  18 S :    0.007758   -0.000118
  19 S :    0.008021   -0.000109
  20 S :    0.008265   -0.000073
  21 S :    0.008605   -0.000071
  22 C :   -0.300071   -0.000005
  23 C :   -0.300349    0.000004
  24 C :   -0.157860   -0.000013
  25 H :    0.143182   -0.000000
  26 H :    0.113750   -0.000006
  27 H :    0.083511   -0.000000
  28 H :    0.092084   -0.000001
  29 H :    0.113345   -0.000002
  30 H :    0.142556   -0.000002
  31 C :   -0.294448    0.000191
  32 C :   -0.300250    0.000204
  33 C :   -0.159959   -0.000243
  34 H :    0.142179   -0.000021
  35 H :    0.113432    0.000027
  36 H :    0.091954    0.000024
  37 H :    0.082400    0.000016
  38 H :    0.111702    0.000015
  39 H :    0.140274   -0.000015
Sum of atomic charges         :   -2.0000000

LOEWDIN ATOMIC CHARGES AND SPIN POPULATIONS
-------------------------------------------
   0 V :   -0.151439    1.165830
   1 S :    0.078358   -0.014850
   2 S :    0.083060   -0.015987
   3 S :    0.082391   -0.015079
   4 S :    0.073377   -0.016874
   5 O :   -0.319181   -0.132588
   6 C :   -0.551691    0.008551
   7 C :   -0.547835    0.008398
   8 C :   -0.550288    0.007140
   9 C :   -0.554351    0.008453
  10 S :    0.473173   -0.000869
  11 S :    0.470595   -0.000923
  12 S :    0.471316   -0.000769
  13 S :    0.470040   -0.000883
  14 C :   -0.464379    0.000187
  15 C :   -0.465068   -0.000101
  16 C :   -0.621072    0.000517
  17 C :   -0.621748    0.000079
  18 S :    0.352004   -0.000089
  19 S :    0.360901   -0.000082
  20 S :    0.357676   -0.000075
  21 S :    0.359780   -0.000075
  22 C :   -0.283401   -0.000011
  23 C :   -0.283253   -0.000005
  24 C :   -0.176121   -0.000002
  25 H :    0.062535   -0.000001
  26 H :    0.053709   -0.000003
  27 H :    0.058039   -0.000002
  28 H :    0.060188   -0.000001
  29 H :    0.053547   -0.000002
  30 H :    0.062314   -0.000001
  31 C :   -0.285324    0.000041
  32 C :   -0.283155    0.000044
  33 C :   -0.176970    0.000007
  34 H :    0.063346   -0.000001
  35 H :    0.054046    0.000011
  36 H :    0.060835    0.000005
  37 H :    0.057902    0.000002
  38 H :    0.054004    0.000007
  39 H :    0.062139   -0.000000

  Mayer bond orders larger than 0.100000
B(  0-V ,  1-S ) :   0.7577 B(  0-V ,  2-S ) :   0.7899 B(  0-V ,  3-S ) :   0.7807
B(  0-V ,  4-S ) :   0.7534 B(  0-V ,  5-O ) :   2.1489 B(  1-S ,  8-C ) :   1.1040
B(  2-S ,  6-C ) :   1.0920 B(  3-S ,  9-C ) :   1.1039 B(  4-S ,  7-C ) :   1.1114
B(  6-C ,  7-C ) :   1.6851 B(  6-C , 10-S ) :   0.9349 B(  7-C , 11-S ) :   0.9403
B(  8-C ,  9-C ) :   1.6992 B(  8-C , 13-S ) :   0.9316 B(  9-C , 12-S ) :   0.9372
B( 10-S , 14-C ) :   1.2446 B( 11-S , 14-C ) :   1.2446 B( 12-S , 15-C ) :   1.2452
B( 13-S , 15-C ) :   1.2465 B( 14-C , 16-C ) :   1.4463 B( 15-C , 17-C ) :   1.4547
B( 16-C , 18-S ) :   1.0815 B( 16-C , 19-S ) :   1.0870 B( 17-C , 20-S ) :   1.0868
B( 17-C , 21-S ) :   1.0897 B( 18-S , 32-C ) :   0.9905 B( 19-S , 31-C ) :   0.9926
B( 20-S , 23-C ) :   0.9914 B( 21-S , 22-C ) :   0.9904 B( 22-C , 24-C ) :   0.9132
B( 22-C , 25-H ) :   0.9658 B( 22-C , 26-H ) :   0.9655 B( 23-C , 24-C ) :   0.9139
B( 23-C , 29-H ) :   0.9656 B( 23-C , 30-H ) :   0.9653 B( 24-C , 27-H ) :   0.9625
B( 24-C , 28-H ) :   0.9719 B( 31-C , 33-C ) :   0.9165 B( 31-C , 38-H ) :   0.9651
B( 31-C , 39-H ) :   0.9651 B( 32-C , 33-C ) :   0.9132 B( 32-C , 34-H ) :   0.9648
B( 32-C , 35-H ) :   0.9651 B( 33-C , 36-H ) :   0.9710 B( 33-C , 37-H ) :   0.9623

FINAL SINGLE POINT ENERGY     -6337.705645953933

DIPOLE MOMENT
-------------
                                X             Y             Z
Electronic contribution:    -10.92013       4.65547       6.84158
Nuclear contribution   :     12.17822      -5.19149      -7.54745
                        -----------------------------------------
Total Dipole Moment    :      1.25809      -0.53601      -0.70587
                        -----------------------------------------
Magnitude (a.u.)       :      1.53894
Magnitude (Debye)      :      3.91168

Rotational constants in cm-1:     0.010728     0.000804     0.000783
Rotational constants in MHz :   321.603877    24.100931    23.475842

                             ****ORCA TERMINATED NORMALLY****
TOTAL RUN TIME: 0 days 1 hours 6 minutes 33 seconds 348 msec
