                         Program Version 5.0.4 -  RELEASE  -
|  1> ! nofrozencore ReducedPop printbasis
|  2> ! B3LYP TZVP
|  3>
|  4> %basis
|  5> newgto V "CP(PPP)" end
|  6> end
|  7>
|  8> %pal
|  9> nprocs 6
| 10> end
| 11>
| 12> % sym SymThresh 1e-2 end
| 13> * xyz -2 2
| 14> V -0.7143056773816273 -0.7890983781551919 0.3256709507696692
| 15> S -0.7487074996682033 -1.0998268523666845 -2.128130960665433
| 16> S 1.5410248925522954 -1.8052180673566058 0.23621522520249827
| 17> S -2.1264077305600013 1.203264004853178 -0.08368954353654727
| 18> S 0.17372200905448265 0.55891331954378 2.190967540097668
| 19> O -1.6535173611766343 -1.905809703757222 0.9542185293952697
| 20> C 2.1140258840176087 -1.370541535806777 1.8411625483204808
| 21> C 1.567516406159935 -0.4203077637005785 2.622876617122212
| 22> C -1.9465718520422686 0.09463913947218222 -2.606314129714547
| 23> C -2.4935382844594125 1.0150139736022326 -1.7911854145811978
| 24> S 3.5807902025018623 -2.184269210165527 2.484934071034185
| 25> S 2.3909829012335515 -0.09390545964821181 4.183666201302757
| 26> S -3.6560225711013725 2.1609324325087913 -2.540883573234898
| 27> S -2.4652496034718014 0.14338454462930655 -4.325459217922367
| 28> C 3.69426417474415 -1.2725366955071984 3.9955264026446558
| 29> C -3.5232431218506206 1.550059575574638 -4.197239482840914
| 30> C 4.677798837819646 -1.4646505529010851 4.926488592478492
| 31> C -4.183763267734351 2.111690228664125 -5.254605712563621
| 32> S 5.942184116961344 -2.7039338408416107 4.724267723216463
| 33> S 4.745094057464147 -0.5110747876970295 6.430653159759113
| 34> S -4.013898773764728 1.4594527726156175 -6.9115103692043744
| 35> S -5.222403777844022 3.5411164838597657 -5.077492697094712
| 36> C -4.292697346710329 4.6826074537322455 -6.111827551743938
| 37> C -3.211174628536211 2.9860296523064536 -7.718657057745273
| 38> C -4.081150932825911 4.238074111496411 -7.560165829889717
| 39> H -3.211742001270634 4.935436372487775 -5.88460862935793
| 40> H -4.730915175277305 5.697830556334734 -6.2709540914198305
| 41> H -3.400593107514155 4.723005519132083 -8.403051201590056
| 42> H -5.138701939774234 4.212613077412849 -7.90188116389887
| 43> H -3.1321904683006956 2.502366451655921 -8.719750845105565
| 44> H -2.2185879762461314 2.8421327108274594 -7.204662055062794
| 45> C 4.513004555902038 -1.8914175964262683 7.644019113658896
| 46> C 5.525122438494878 -3.755558181616871 6.188719065522766
| 47> C 5.559533464035085 -3.000777551946833 7.519511461965266
| 48> H 4.540253982562439 -4.199312956743676 6.025836067344895
| 49> H 6.2644186237296005 -4.560523465694438 6.1947363130920365
| 50> H 6.559516960428195 -2.5806733814258664 7.666743940482417
| 51> H 5.3824749190613765 -3.716418160814754 8.334703044328544
| 52> H 4.56998876327663 -1.4184321240077329 8.62760817762103
| 53> H 3.502705559470799 -2.2845510048624655 7.510555798098517
| 54> *
| 55>
| 56> % eprnmr
| 57> gtensor true
| 58> Nuclei = all H {aiso,adip,aorb,fgrad,rho}
| 59> Nuclei = all V {aiso,adip,aorb,fgrad,rho}
| 60> end
| 61>
| 62>                          ****END OF INPUT****

CARTESIAN COORDINATES (ANGSTROEM)
---------------------------------
  V     -0.710846   -0.787554    0.326257
  S     -0.745248   -1.098283   -2.127545
  S      1.544485   -1.803674    0.236801
  S     -2.122948    1.204808   -0.083104
  S      0.177182    0.560457    2.191554
  O     -1.650058   -1.904266    0.954805
  C      2.117486   -1.368997    1.841749
  C      1.570976   -0.418764    2.623463
  C     -1.943112    0.096183   -2.605728
  C     -2.490078    1.016558   -1.790599
  S      3.584250   -2.182725    2.485520
  S      2.394443   -0.092361    4.184252
  S     -3.652563    2.162477   -2.540298
  S     -2.461790    0.144929   -4.324873
  C      3.697724   -1.270993    3.996112
  C     -3.519783    1.551604   -4.196653
  C      4.681259   -1.463106    4.927075
  C     -4.180303    2.113234   -5.254020
  S      5.945644   -2.702390    4.724854
  S      4.748554   -0.509531    6.431239
  S     -4.010439    1.460997   -6.910924
  S     -5.218944    3.542661   -5.076907
  C     -4.289238    4.684152   -6.111242
  C     -3.207715    2.987574   -7.718071
  C     -4.077691    4.239618   -7.559580
  H     -3.208282    4.936980   -5.884023
  H     -4.727455    5.699375   -6.270368
  H     -3.397133    4.724550   -8.402465
  H     -5.135242    4.214157   -7.901295
  H     -3.128731    2.503911   -8.719165
  H     -2.215128    2.843677   -7.204076
  C      4.516464   -1.889873    7.644605
  C      5.528582   -3.754014    6.189305
  C      5.562993   -2.999233    7.520097
  H      4.543714   -4.197769    6.026422
  H      6.267878   -4.558979    6.195322
  H      6.562977   -2.579129    7.667330
  H      5.385935   -3.714874    8.335289
  H      4.573449   -1.416888    8.628194
  H      3.506165   -2.283007    7.511142

 Total Charge           Charge          ....   -2
 Multiplicity           Mult            ....    2
 Number of Electrons    NEL             ....  321
 Basis Dimension        Dim             ....  681

ORBITAL ENERGIES
----------------
                 SPIN UP ORBITALS
  NO   OCC          E(Eh)            E(eV)
   0   1.0000    -196.674926     -5351.7968
   1   1.0000     -88.744979     -2414.8736
   2   1.0000     -88.733459     -2414.5602
   3   1.0000     -88.732939     -2414.5460
   4   1.0000     -88.731458     -2414.5057
   5   1.0000     -88.730297     -2414.4741
   6   1.0000     -88.730268     -2414.4733
   7   1.0000     -88.730084     -2414.4683
   8   1.0000     -88.724657     -2414.3206
   9   1.0000     -88.640194     -2412.0223
  10   1.0000     -88.639786     -2412.0112
  11   1.0000     -88.639609     -2412.0064
  12   1.0000     -88.639541     -2412.0045
  13   1.0000     -22.050324      -600.0198
  14   1.0000     -18.890243      -514.0297
  15   1.0000     -18.556772      -504.9554
  16   1.0000     -18.551598      -504.8147
  17   1.0000     -18.551500      -504.8120
  18   1.0000     -10.076724      -274.2016
  19   1.0000     -10.075816      -274.1769
  20   1.0000     -10.073180      -274.1052
  21   1.0000     -10.069873      -274.0152
  22   1.0000     -10.064467      -273.8681
  23   1.0000     -10.063462      -273.8407
  24   1.0000     -10.063459      -273.8406
  25   1.0000     -10.051310      -273.5101
  26   1.0000     -10.049424      -273.4587
  27   1.0000     -10.048292      -273.4279
  28   1.0000     -10.018475      -272.6166
  29   1.0000     -10.018237      -272.6101
  30   1.0000     -10.017631      -272.5936
  31   1.0000     -10.017299      -272.5846
  32   1.0000      -7.798336      -212.2035
  33   1.0000      -7.786883      -211.8919
  34   1.0000      -7.786390      -211.8784
  35   1.0000      -7.784664      -211.8315
  36   1.0000      -7.783616      -211.8030
  37   1.0000      -7.783504      -211.7999
  38   1.0000      -7.783380      -211.7965
  39   1.0000      -7.778384      -211.6606
  40   1.0000      -7.694454      -209.3767
  41   1.0000      -7.694090      -209.3668
  42   1.0000      -7.693935      -209.3626
  43   1.0000      -7.693797      -209.3589
  44   1.0000      -5.763554      -156.8343
  45   1.0000      -5.759783      -156.7317
  46   1.0000      -5.753023      -156.5477
  47   1.0000      -5.751883      -156.5167
  48   1.0000      -5.751378      -156.5029
  49   1.0000      -5.749608      -156.4548
  50   1.0000      -5.748561      -156.4263
  51   1.0000      -5.748465      -156.4237
  52   1.0000      -5.748452      -156.4233
  53   1.0000      -5.748317      -156.4197
  54   1.0000      -5.747961      -156.4100
  55   1.0000      -5.745155      -156.3336
  56   1.0000      -5.744148      -156.3062
  57   1.0000      -5.744018      -156.3027
  58   1.0000      -5.743891      -156.2992
  59   1.0000      -5.743129      -156.2785
  60   1.0000      -5.741669      -156.2388
  61   1.0000      -5.741191      -156.2258
  62   1.0000      -5.740511      -156.2072
  63   1.0000      -5.740011      -156.1936
  64   1.0000      -5.739421      -156.1776
  65   1.0000      -5.739335      -156.1752
  66   1.0000      -5.739207      -156.1718
  67   1.0000      -5.733293      -156.0108
  68   1.0000      -5.659769      -154.0101
  69   1.0000      -5.659405      -154.0002
  70   1.0000      -5.659245      -153.9959
  71   1.0000      -5.659128      -153.9927
  72   1.0000      -5.653130      -153.8295
  73   1.0000      -5.652734      -153.8187
  74   1.0000      -5.652606      -153.8152
  75   1.0000      -5.652458      -153.8112
  76   1.0000      -5.651783      -153.7928
  77   1.0000      -5.651416      -153.7828
  78   1.0000      -5.651251      -153.7783
  79   1.0000      -5.651085      -153.7738
  80   1.0000      -2.443982       -66.5041
  81   1.0000      -1.485285       -40.4167
  82   1.0000      -1.473616       -40.0991
  83   1.0000      -1.472807       -40.0771
  84   1.0000      -0.711504       -19.3610
  85   1.0000      -0.709521       -19.3071
  86   1.0000      -0.687285       -18.7020
  87   1.0000      -0.685651       -18.6575
  88   1.0000      -0.649854       -17.6834
  89   1.0000      -0.632595       -17.2138
  90   1.0000      -0.631358       -17.1801
  91   1.0000      -0.619222       -16.8499
  92   1.0000      -0.617272       -16.7968
  93   1.0000      -0.575241       -15.6531
  94   1.0000      -0.574433       -15.6311
  95   1.0000      -0.574031       -15.6202
  96   1.0000      -0.572953       -15.5908
  97   1.0000      -0.499577       -13.5942
  98   1.0000      -0.496393       -13.5075
  99   1.0000      -0.495863       -13.4931
 100   1.0000      -0.494038       -13.4434
 101   1.0000      -0.480354       -13.0711
 102   1.0000      -0.477532       -12.9943
 103   1.0000      -0.446610       -12.1529
 104   1.0000      -0.441199       -12.0056
 105   1.0000      -0.416071       -11.3219
 106   1.0000      -0.411066       -11.1857
 107   1.0000      -0.356672        -9.7055
 108   1.0000      -0.355377        -9.6703
 109   1.0000      -0.326689        -8.8897
 110   1.0000      -0.324139        -8.8203
 111   1.0000      -0.320924        -8.7328
 112   1.0000      -0.316415        -8.6101
 113   1.0000      -0.310484        -8.4487
 114   1.0000      -0.303950        -8.2709
 115   1.0000      -0.292466        -7.9584
 116   1.0000      -0.281477        -7.6594
 117   1.0000      -0.272210        -7.4072
 118   1.0000      -0.257276        -7.0008
 119   1.0000      -0.256570        -6.9816
 120   1.0000      -0.246949        -6.7198
 121   1.0000      -0.234457        -6.3799
 122   1.0000      -0.233783        -6.3616
 123   1.0000      -0.230720        -6.2782
 124   1.0000      -0.223137        -6.0719
 125   1.0000      -0.218701        -5.9512
 126   1.0000      -0.215471        -5.8633
 127   1.0000      -0.213805        -5.8179
 128   1.0000      -0.202467        -5.5094
 129   1.0000      -0.193377        -5.2621
 130   1.0000      -0.191036        -5.1984
 131   1.0000      -0.186037        -5.0623
 132   1.0000      -0.181464        -4.9379
 133   1.0000      -0.168304        -4.5798
 134   1.0000      -0.159589        -4.3426
 135   1.0000      -0.150938        -4.1072
 136   1.0000      -0.146385        -3.9833
 137   1.0000      -0.135744        -3.6938
 138   1.0000      -0.133327        -3.6280
 139   1.0000      -0.130752        -3.5579
 140   1.0000      -0.124623        -3.3912
 141   1.0000      -0.121247        -3.2993
 142   1.0000      -0.113547        -3.0898
 143   1.0000      -0.109686        -2.9847
 144   1.0000      -0.100062        -2.7228
 145   1.0000      -0.098480        -2.6798
 146   1.0000      -0.097813        -2.6616
 147   1.0000      -0.095039        -2.5861
 148   1.0000      -0.074671        -2.0319
 149   1.0000      -0.067583        -1.8390
 150   1.0000      -0.066928        -1.8212
 151   1.0000      -0.052405        -1.4260
 152   1.0000      -0.045677        -1.2429
 153   1.0000      -0.037580        -1.0226
 154   1.0000      -0.037202        -1.0123
 155   1.0000      -0.031382        -0.8540
 156   1.0000      -0.025074        -0.6823
 157   1.0000      -0.019190        -0.5222
 158   1.0000      -0.015493        -0.4216
 159   1.0000       0.020268         0.5515
 160   1.0000       0.041127         1.1191
 161   0.0000       0.135353         3.6831
 162   0.0000       0.136862         3.7242
 163   0.0000       0.154060         4.1922
 164   0.0000       0.162001         4.4083
 165   0.0000       0.165563         4.5052

                 SPIN DOWN ORBITALS
  NO   OCC          E(Eh)            E(eV)
   0   1.0000    -196.675073     -5351.8008
   1   1.0000     -88.744979     -2414.8736
   2   1.0000     -88.733460     -2414.5602
   3   1.0000     -88.732939     -2414.5460
   4   1.0000     -88.731466     -2414.5059
   5   1.0000     -88.730305     -2414.4743
   6   1.0000     -88.730276     -2414.4736
   7   1.0000     -88.730093     -2414.4686
   8   1.0000     -88.724657     -2414.3207
   9   1.0000     -88.640331     -2412.0260
  10   1.0000     -88.639926     -2412.0150
  11   1.0000     -88.639748     -2412.0102
  12   1.0000     -88.639683     -2412.0084
  13   1.0000     -22.035396      -599.6136
  14   1.0000     -18.894022      -514.1325
  15   1.0000     -18.551508      -504.8122
  16   1.0000     -18.535566      -504.3784
  17   1.0000     -18.535386      -504.3735
  18   1.0000     -10.076723      -274.2016
  19   1.0000     -10.075810      -274.1767
  20   1.0000     -10.073180      -274.1052
  21   1.0000     -10.069873      -274.0152
  22   1.0000     -10.064467      -273.8681
  23   1.0000     -10.063461      -273.8407
  24   1.0000     -10.063458      -273.8406
  25   1.0000     -10.051310      -273.5100
  26   1.0000     -10.049420      -273.4586
  27   1.0000     -10.048280      -273.4276
  28   1.0000     -10.018264      -272.6108
  29   1.0000     -10.017998      -272.6036
  30   1.0000     -10.017417      -272.5878
  31   1.0000     -10.017076      -272.5785
  32   1.0000      -7.798337      -212.2035
  33   1.0000      -7.786884      -211.8919
  34   1.0000      -7.786391      -211.8785
  35   1.0000      -7.784673      -211.8317
  36   1.0000      -7.783626      -211.8032
  37   1.0000      -7.783514      -211.8002
  38   1.0000      -7.783389      -211.7968
  39   1.0000      -7.778385      -211.6606
  40   1.0000      -7.694581      -209.3802
  41   1.0000      -7.694221      -209.3704
  42   1.0000      -7.694065      -209.3661
  43   1.0000      -7.693929      -209.3624
  44   1.0000      -5.763555      -156.8343
  45   1.0000      -5.759784      -156.7317
  46   1.0000      -5.753024      -156.5477
  47   1.0000      -5.751884      -156.5167
  48   1.0000      -5.751379      -156.5030
  49   1.0000      -5.749619      -156.4551
  50   1.0000      -5.748571      -156.4266
  51   1.0000      -5.748467      -156.4237
  52   1.0000      -5.748462      -156.4236
  53   1.0000      -5.748328      -156.4199
  54   1.0000      -5.747962      -156.4100
  55   1.0000      -5.745169      -156.3340
  56   1.0000      -5.744162      -156.3066
  57   1.0000      -5.744032      -156.3031
  58   1.0000      -5.743904      -156.2996
  59   1.0000      -5.743130      -156.2785
  60   1.0000      -5.741670      -156.2388
  61   1.0000      -5.741192      -156.2258
  62   1.0000      -5.740517      -156.2074
  63   1.0000      -5.740011      -156.1936
  64   1.0000      -5.739427      -156.1778
  65   1.0000      -5.739342      -156.1754
  66   1.0000      -5.739216      -156.1720
  67   1.0000      -5.733294      -156.0109
  68   1.0000      -5.659911      -154.0140
  69   1.0000      -5.659543      -154.0040
  70   1.0000      -5.659386      -153.9997
  71   1.0000      -5.659270      -153.9966
  72   1.0000      -5.653479      -153.8390
  73   1.0000      -5.653121      -153.8292
  74   1.0000      -5.652967      -153.8251
  75   1.0000      -5.652841      -153.8216
  76   1.0000      -5.651888      -153.7957
  77   1.0000      -5.651502      -153.7852
  78   1.0000      -5.651357      -153.7812
  79   1.0000      -5.651179      -153.7764
  80   1.0000      -2.399105       -65.2830
  81   1.0000      -1.466002       -39.8919
  82   1.0000      -1.411255       -38.4022
  83   1.0000      -1.411087       -38.3976
  84   1.0000      -0.711491       -19.3607
  85   1.0000      -0.709495       -19.3063
  86   1.0000      -0.687240       -18.7008
  87   1.0000      -0.685595       -18.6560
  88   1.0000      -0.657959       -17.9040
  89   1.0000      -0.632541       -17.2123
  90   1.0000      -0.631282       -17.1781
  91   1.0000      -0.619221       -16.8499
  92   1.0000      -0.617272       -16.7968
  93   1.0000      -0.575217       -15.6525
  94   1.0000      -0.574404       -15.6303
  95   1.0000      -0.573960       -15.6183
  96   1.0000      -0.572874       -15.5887
  97   1.0000      -0.499605       -13.5949
  98   1.0000      -0.496413       -13.5081
  99   1.0000      -0.495906       -13.4943
 100   1.0000      -0.494077       -13.4445
 101   1.0000      -0.480547       -13.0764
 102   1.0000      -0.477784       -13.0012
 103   1.0000      -0.446635       -12.1536
 104   1.0000      -0.441243       -12.0068
 105   1.0000      -0.416067       -11.3218
 106   1.0000      -0.411172       -11.1886
 107   1.0000      -0.356667        -9.7054
 108   1.0000      -0.355367        -9.6700
 109   1.0000      -0.326674        -8.8892
 110   1.0000      -0.324120        -8.8197
 111   1.0000      -0.320890        -8.7319
 112   1.0000      -0.316408        -8.6099
 113   1.0000      -0.310463        -8.4481
 114   1.0000      -0.303909        -8.2698
 115   1.0000      -0.292461        -7.9583
 116   1.0000      -0.281457        -7.6588
 117   1.0000      -0.272131        -7.4051
 118   1.0000      -0.257195        -6.9986
 119   1.0000      -0.256490        -6.9794
 120   1.0000      -0.246863        -6.7175
 121   1.0000      -0.234425        -6.3790
 122   1.0000      -0.233768        -6.3612
 123   1.0000      -0.230679        -6.2771
 124   1.0000      -0.223073        -6.0701
 125   1.0000      -0.218344        -5.9414
 126   1.0000      -0.215160        -5.8548
 127   1.0000      -0.213715        -5.8155
 128   1.0000      -0.202413        -5.5079
 129   1.0000      -0.191902        -5.2219
 130   1.0000      -0.190646        -5.1877
 131   1.0000      -0.185671        -5.0524
 132   1.0000      -0.181314        -4.9338
 133   1.0000      -0.168186        -4.5766
 134   1.0000      -0.158964        -4.3256
 135   1.0000      -0.150768        -4.1026
 136   1.0000      -0.146298        -3.9810
 137   1.0000      -0.135171        -3.6782
 138   1.0000      -0.133091        -3.6216
 139   1.0000      -0.130249        -3.5442
 140   1.0000      -0.124196        -3.3796
 141   1.0000      -0.120917        -3.2903
 142   1.0000      -0.115332        -3.1383
 143   1.0000      -0.111238        -3.0269
 144   1.0000      -0.100067        -2.7230
 145   1.0000      -0.098728        -2.6865
 146   1.0000      -0.097869        -2.6631
 147   1.0000      -0.095373        -2.5952
 148   1.0000      -0.070859        -1.9282
 149   1.0000      -0.067576        -1.8388
 150   1.0000      -0.066899        -1.8204
 151   1.0000      -0.049811        -1.3554
 152   1.0000      -0.044741        -1.2175
 153   1.0000      -0.037624        -1.0238
 154   1.0000      -0.036635        -0.9969
 155   1.0000      -0.031429        -0.8552
 156   1.0000      -0.026117        -0.7107
 157   1.0000      -0.015710        -0.4275
 158   1.0000       0.020565         0.5596
 159   1.0000       0.040022         1.0890
 160   0.0000       0.135343         3.6829
 161   0.0000       0.136871         3.7245
 162   0.0000       0.153370         4.1734
 163   0.0000       0.156852         4.2682
 164   0.0000       0.162680         4.4267

MULLIKEN ATOMIC CHARGES AND SPIN POPULATIONS
--------------------------------------------
   0 V :    0.471451    1.210444
   1 S :   -0.290727   -0.022341
   2 S :   -0.289776   -0.025223
   3 S :   -0.288222   -0.023373
   4 S :   -0.285231   -0.025681
   5 O :   -0.467774   -0.146574
   6 C :   -0.077386    0.009726
   7 C :   -0.084607    0.008033
   8 C :   -0.085184    0.007717
   9 C :   -0.083731    0.007389
  10 S :    0.099615   -0.000584
  11 S :    0.101182   -0.000627
  12 S :    0.097750   -0.000383
  13 S :    0.103207   -0.000349
  14 C :   -0.214045    0.001506
  15 C :   -0.206400    0.000983
  16 C :   -0.191438   -0.000056
  17 C :   -0.201140   -0.000396
  18 S :    0.010091   -0.000114
  19 S :    0.008214   -0.000113
  20 S :   -0.041443   -0.000070
  21 S :    0.049704   -0.000070
  22 C :   -0.257599    0.000002
  23 C :   -0.288897   -0.000006
  24 C :   -0.175903   -0.000011
  25 H :    0.115059   -0.000003
  26 H :    0.110321   -0.000003
  27 H :    0.070240   -0.000002
  28 H :    0.092462   -0.000001
  29 H :    0.106283   -0.000005
  30 H :    0.166472   -0.000000
  31 C :   -0.300428    0.000194
  32 C :   -0.299895    0.000189
  33 C :   -0.158018   -0.000238
  34 H :    0.141325   -0.000018
  35 H :    0.113383    0.000020
  36 H :    0.092356    0.000023
  37 H :    0.082663    0.000015
  38 H :    0.113315    0.000020
  39 H :    0.142748   -0.000018
Sum of atomic charges         :   -2.0000000

LOEWDIN ATOMIC CHARGES AND SPIN POPULATIONS
-------------------------------------------
   0 V :   -0.155619    1.163825
   1 S :    0.080261   -0.014379
   2 S :    0.079298   -0.016083
   3 S :    0.081591   -0.015258
   4 S :    0.083353   -0.016312
   5 O :   -0.319011   -0.131490
   6 C :   -0.549980    0.009058
   7 C :   -0.552172    0.007955
   8 C :   -0.553298    0.008120
   9 C :   -0.551119    0.007673
  10 S :    0.471185   -0.000899
  11 S :    0.472364   -0.000948
  12 S :    0.468953   -0.000821
  13 S :    0.474681   -0.000832
  14 C :   -0.465119    0.000163
  15 C :   -0.464711   -0.000082
  16 C :   -0.622732    0.000476
  17 C :   -0.622178    0.000084
  18 S :    0.359915   -0.000089
  19 S :    0.359015   -0.000087
  20 S :    0.312753   -0.000076
  21 S :    0.405404   -0.000072
  22 C :   -0.320279   -0.000006
  23 C :   -0.284909   -0.000011
  24 C :   -0.198027   -0.000002
  25 H :    0.064094   -0.000002
  26 H :    0.062214   -0.000002
  27 H :    0.080003   -0.000003
  28 H :    0.063190   -0.000001
  29 H :    0.054838   -0.000003
  30 H :    0.080920   -0.000001
  31 C :   -0.283536    0.000043
  32 C :   -0.284281    0.000037
  33 C :   -0.176344    0.000006
  34 H :    0.061917   -0.000001
  35 H :    0.053590    0.000008
  36 H :    0.060251    0.000005
  37 H :    0.057818    0.000002
  38 H :    0.053515    0.000008
  39 H :    0.062192   -0.000000

  Mayer bond orders larger than 0.100000
B(  0-V ,  1-S ) :   0.7706 B(  0-V ,  2-S ) :   0.7714 B(  0-V ,  3-S ) :   0.7648
B(  0-V ,  4-S ) :   0.7790 B(  0-V ,  5-O ) :   2.1486 B(  1-S ,  8-C ) :   1.1037
B(  2-S ,  6-C ) :   1.1041 B(  3-S ,  9-C ) :   1.1071 B(  4-S ,  7-C ) :   1.1048
B(  6-C ,  7-C ) :   1.6844 B(  6-C , 10-S ) :   0.9351 B(  7-C , 11-S ) :   0.9389
B(  8-C ,  9-C ) :   1.6971 B(  8-C , 13-S ) :   0.9318 B(  9-C , 12-S ) :   0.9384
B( 10-S , 14-C ) :   1.2486 B( 11-S , 14-C ) :   1.2486 B( 12-S , 15-C ) :   1.2446
B( 13-S , 15-C ) :   1.2497 B( 14-C , 16-C ) :   1.4510 B( 15-C , 17-C ) :   1.4516
B( 16-C , 18-S ) :   1.0874 B( 16-C , 19-S ) :   1.0902 B( 17-C , 20-S ) :   1.1030
B( 17-C , 21-S ) :   1.0605 B( 18-S , 32-C ) :   0.9922 B( 19-S , 31-C ) :   0.9915
B( 20-S , 23-C ) :   0.9355 B( 21-S , 22-C ) :   0.9895 B( 22-C , 24-C ) :   0.8919
B( 22-C , 25-H ) :   0.9596 B( 22-C , 26-H ) :   0.9604 B( 23-C , 24-C ) :   0.9277
B( 23-C , 29-H ) :   0.9696 B( 23-C , 30-H ) :   0.9578 B( 24-C , 27-H ) :   0.9604
B( 24-C , 28-H ) :   0.9627 B( 31-C , 33-C ) :   0.9140 B( 31-C , 38-H ) :   0.9657
B( 31-C , 39-H ) :   0.9657 B( 32-C , 33-C ) :   0.9129 B( 32-C , 34-H ) :   0.9658
B( 32-C , 35-H ) :   0.9655 B( 33-C , 36-H ) :   0.9718 B( 33-C , 37-H ) :   0.9624

FINAL SINGLE POINT ENERGY     -6337.647165979157

DIPOLE MOMENT
-------------
                                X             Y             Z
Electronic contribution:    -10.57861      -8.48893       1.43385
Nuclear contribution   :     11.72693       9.38366      -1.48751
                        -----------------------------------------
Total Dipole Moment    :      1.14832       0.89473      -0.05366
                        -----------------------------------------
Magnitude (a.u.)       :      1.45672
Magnitude (Debye)      :      3.70270

Rotational constants in cm-1:     0.010758     0.000804     0.000783
Rotational constants in MHz :   322.531299    24.115763    23.486627

                             ****ORCA TERMINATED NORMALLY****
TOTAL RUN TIME: 0 days 1 hours 6 minutes 30 seconds 781 msec
