                         Program Version 5.0.4 -  RELEASE  -
|  1> ! nofrozencore ReducedPop printbasis
|  2> ! B3LYP TZVP
|  3>
|  4> %basis
|  5> newgto V "CP(PPP)" end
|  6> end
|  7>
|  8> %pal
|  9> nprocs 8
| 10> end
| 11>
| 12> % sym SymThresh 1e-2 end
| 13> * xyz -2 2
| 14> V -0.6636526833437014 0.8780252410874708 -0.13365829339772953
| 15> S -0.10240492345294407 1.120566807968452 2.2158925760704173
| 16> S 1.6869080411393316 1.609167151205507 -0.48830048152507016
| 17> S -2.192516081776597 -0.911086749385404 0.42986147873045805
| 18> S -0.38121234745600163 -0.48179788404803736 -2.171329994803857
| 19> O -1.5274933746002548 2.1421314321860776 -0.5563249102195129
| 20> C 1.8477761332365574 1.176187222361975 -2.200946942814337
| 21> C 1.0272514962783252 0.34268546210360606 -2.8729789628660316
| 22> C -1.3516264301570018 0.041954752126949615 2.919739598841993
| 23> C -2.176542591382502 -0.7626538765408715 2.215709453243616
| 24> S 3.2660413998410207 1.8110404688130992 -3.1418076325255395
| 25> S 1.5045924955410286 -0.006803004664498021 -4.5899658741018055
| 26> S -3.320930806354757 -1.7668557109126268 3.2419920309009673
| 27> S -1.5717056141871664 -0.04841845183815693 4.737899166660698
| 28> C 2.9264712442942606 1.0361310162289445 -4.698443025654475
| 29> C -2.707909270575703 -1.410139654724665 4.871080720115523
| 30> C 3.717867060102138 1.137890693705412 -5.8147852928313775
| 31> C -3.2218860219206986 -1.9165431555412058 6.045444474314619
| 32> S 5.203078835608635 2.1671613308519277 -5.794359843464383
| 33> S 3.348736789907855 0.17430254655464722 -7.30457778048288
| 34> S -2.6423830176558565 -1.2094279130409913 7.654171168100387
| 35> S -4.596011452418924 -3.1562710679595183 5.961106719975307
| 36> C -3.5399910866837927 -4.433426519191794 6.738716092680728
| 37> C -1.9237609232608386 -2.8184685150678632 8.149148587276573
| 38> C -2.991095609313528 -3.928176097301262 8.087066422104023
| 39> H -2.7441467761746807 -4.690210799796235 6.035837366436479
| 40> H -4.149844143734101 -5.331447000442127 6.92210212525223
| 41> H -2.5708572864593253 -4.805606480153822 8.610980404358646
| 42> H -3.8512280949309483 -3.5878849745312764 8.682000109709238
| 43> H -1.562140981248088 -2.7379261661134557 9.185721685556477
| 44> H -1.0715160008621143 -3.0255714485486807 7.498001505588239
| 45> C 3.050778277036382 1.6433158424347374 -8.37228233714869
| 46> C 4.609681813939025 3.32200866319071 -7.0985343848159745
| 47> C 4.25935856397646 2.5872434706771896 -8.398606365818654
| 48> H 3.7512119585071755 3.8692505892897904 -6.7028579964906285
| 49> H 5.417569828683401 4.036366845041237 -7.287512581215976
| 50> H 5.137724038633055 2.014077785390052 -8.717406268543892
| 51> H 4.07262814887986 3.3475357623625244 -9.172317853968282
| 52> H 2.8525896323752753 1.271846748171951 -9.383112025082804
| 53> H 2.153598808987384 2.1492399782870963 -8.008731878010812
| 54> *
| 55>
| 56> % eprnmr
| 57> gtensor true
| 58> Nuclei = all H {aiso,adip,aorb,fgrad,rho}
| 59> Nuclei = all V {aiso,adip,aorb,fgrad,rho}
| 60> end
| 61>
| 62>                          ****END OF INPUT****

CARTESIAN COORDINATES (ANGSTROEM)
---------------------------------
  V     -0.660627    0.876080   -0.134984
  S     -0.099379    1.118622    2.214567
  S      1.689934    1.607222   -0.489626
  S     -2.189490   -0.913032    0.428536
  S     -0.378186   -0.483743   -2.172656
  O     -1.524467    2.140186   -0.557651
  C      1.850802    1.174242   -2.202273
  C      1.030278    0.340740   -2.874305
  C     -1.348600    0.040010    2.918414
  C     -2.173517   -0.764599    2.214384
  S      3.269067    1.809095   -3.143133
  S      1.507619   -0.008748   -4.591291
  S     -3.317905   -1.768801    3.240666
  S     -1.568680   -0.050364    4.736574
  C      2.929497    1.034186   -4.699769
  C     -2.704883   -1.412085    4.869755
  C      3.720893    1.135945   -5.816111
  C     -3.218860   -1.918488    6.044119
  S      5.206105    2.165216   -5.795685
  S      3.351763    0.172357   -7.305903
  S     -2.639357   -1.211373    7.652846
  S     -4.592985   -3.158216    5.959781
  C     -3.536965   -4.435372    6.737390
  C     -1.920735   -2.820414    8.147823
  C     -2.988070   -3.930121    8.085741
  H     -2.741121   -4.692156    6.034512
  H     -4.146818   -5.333392    6.920777
  H     -2.567831   -4.807552    8.609655
  H     -3.848202   -3.589830    8.680675
  H     -1.559115   -2.739871    9.184396
  H     -1.068490   -3.027517    7.496676
  C      3.053804    1.641371   -8.373608
  C      4.612708    3.320063   -7.099860
  C      4.262385    2.585298   -8.399932
  H      3.754238    3.867305   -6.704184
  H      5.420596    4.034422   -7.288838
  H      5.140750    2.012133   -8.718732
  H      4.075654    3.345591   -9.173643
  H      2.855616    1.269902   -9.384438
  H      2.156625    2.147295   -8.010057

 Total Charge           Charge          ....   -2
 Multiplicity           Mult            ....    2
 Number of Electrons    NEL             ....  321
 Basis Dimension        Dim             ....  681

ORBITAL ENERGIES
----------------
                 SPIN UP ORBITALS
  NO   OCC          E(Eh)            E(eV)
   0   1.0000    -196.671945     -5351.7157
   1   1.0000     -88.739795     -2414.7326
   2   1.0000     -88.739745     -2414.7312
   3   1.0000     -88.734931     -2414.6002
   4   1.0000     -88.734404     -2414.5859
   5   1.0000     -88.729462     -2414.4514
   6   1.0000     -88.729376     -2414.4491
   7   1.0000     -88.728465     -2414.4243
   8   1.0000     -88.727858     -2414.4078
   9   1.0000     -88.645029     -2412.1539
  10   1.0000     -88.644667     -2412.1440
  11   1.0000     -88.640102     -2412.0198
  12   1.0000     -88.639256     -2411.9968
  13   1.0000     -22.047621      -599.9463
  14   1.0000     -18.888487      -513.9819
  15   1.0000     -18.554090      -504.8825
  16   1.0000     -18.548846      -504.7397
  17   1.0000     -18.548802      -504.7386
  18   1.0000     -10.079824      -274.2859
  19   1.0000     -10.075916      -274.1796
  20   1.0000     -10.065686      -273.9012
  21   1.0000     -10.065675      -273.9009
  22   1.0000     -10.062940      -273.8265
  23   1.0000     -10.062699      -273.8200
  24   1.0000     -10.058618      -273.7089
  25   1.0000     -10.051003      -273.5017
  26   1.0000     -10.050615      -273.4912
  27   1.0000     -10.049616      -273.4639
  28   1.0000     -10.025697      -272.8131
  29   1.0000     -10.024931      -272.7922
  30   1.0000     -10.019996      -272.6580
  31   1.0000     -10.019068      -272.6327
  32   1.0000      -7.792331      -212.0401
  33   1.0000      -7.792273      -212.0385
  34   1.0000      -7.787976      -211.9216
  35   1.0000      -7.787534      -211.9096
  36   1.0000      -7.782061      -211.7607
  37   1.0000      -7.781982      -211.7585
  38   1.0000      -7.781386      -211.7423
  39   1.0000      -7.780913      -211.7294
  40   1.0000      -7.698651      -209.4909
  41   1.0000      -7.698454      -209.4856
  42   1.0000      -7.693916      -209.3621
  43   1.0000      -7.693052      -209.3386
  44   1.0000      -5.757217      -156.6618
  45   1.0000      -5.757155      -156.6602
  46   1.0000      -5.754293      -156.5823
  47   1.0000      -5.754251      -156.5811
  48   1.0000      -5.752895      -156.5442
  49   1.0000      -5.752453      -156.5322
  50   1.0000      -5.749750      -156.4586
  51   1.0000      -5.749290      -156.4461
  52   1.0000      -5.747043      -156.3850
  53   1.0000      -5.747043      -156.3850
  54   1.0000      -5.746980      -156.3833
  55   1.0000      -5.746972      -156.3831
  56   1.0000      -5.746364      -156.3665
  57   1.0000      -5.745851      -156.3526
  58   1.0000      -5.742735      -156.2678
  59   1.0000      -5.742663      -156.2658
  60   1.0000      -5.742571      -156.2633
  61   1.0000      -5.742304      -156.2560
  62   1.0000      -5.741921      -156.2456
  63   1.0000      -5.741444      -156.2326
  64   1.0000      -5.737860      -156.1351
  65   1.0000      -5.737777      -156.1328
  66   1.0000      -5.737212      -156.1175
  67   1.0000      -5.736759      -156.1051
  68   1.0000      -5.664302      -154.1335
  69   1.0000      -5.664082      -154.1275
  70   1.0000      -5.659421      -154.0007
  71   1.0000      -5.658553      -153.9771
  72   1.0000      -5.657195      -153.9401
  73   1.0000      -5.656981      -153.9343
  74   1.0000      -5.655843      -153.9033
  75   1.0000      -5.655631      -153.8975
  76   1.0000      -5.652561      -153.8140
  77   1.0000      -5.651741      -153.7917
  78   1.0000      -5.651136      -153.7752
  79   1.0000      -5.650250      -153.7511
  80   1.0000      -2.441695       -66.4419
  81   1.0000      -1.483164       -40.3589
  82   1.0000      -1.471524       -40.0422
  83   1.0000      -1.470739       -40.0208
  84   1.0000      -0.706057       -19.2128
  85   1.0000      -0.704287       -19.1646
  86   1.0000      -0.682050       -18.5595
  87   1.0000      -0.680707       -18.5230
  88   1.0000      -0.648381       -17.6433
  89   1.0000      -0.624855       -17.0032
  90   1.0000      -0.624310       -16.9883
  91   1.0000      -0.619957       -16.8699
  92   1.0000      -0.619765       -16.8647
  93   1.0000      -0.569107       -15.4862
  94   1.0000      -0.567283       -15.4366
  95   1.0000      -0.566847       -15.4247
  96   1.0000      -0.561951       -15.2915
  97   1.0000      -0.495680       -13.4881
  98   1.0000      -0.493243       -13.4218
  99   1.0000      -0.492948       -13.4138
 100   1.0000      -0.492054       -13.3895
 101   1.0000      -0.478270       -13.0144
 102   1.0000      -0.474257       -12.9052
 103   1.0000      -0.445447       -12.1212
 104   1.0000      -0.442600       -12.0438
 105   1.0000      -0.419725       -11.4213
 106   1.0000      -0.411733       -11.2038
 107   1.0000      -0.351670        -9.5694
 108   1.0000      -0.349894        -9.5211
 109   1.0000      -0.324138        -8.8203
 110   1.0000      -0.322525        -8.7763
 111   1.0000      -0.317133        -8.6296
 112   1.0000      -0.311773        -8.4838
 113   1.0000      -0.302261        -8.2249
 114   1.0000      -0.301556        -8.2057
 115   1.0000      -0.297266        -8.0890
 116   1.0000      -0.293819        -7.9952
 117   1.0000      -0.256511        -6.9800
 118   1.0000      -0.254185        -6.9167
 119   1.0000      -0.253799        -6.9062
 120   1.0000      -0.251015        -6.8305
 121   1.0000      -0.234233        -6.3738
 122   1.0000      -0.231558        -6.3010
 123   1.0000      -0.229369        -6.2415
 124   1.0000      -0.225183        -6.1275
 125   1.0000      -0.217925        -5.9300
 126   1.0000      -0.215633        -5.8677
 127   1.0000      -0.209717        -5.7067
 128   1.0000      -0.205729        -5.5982
 129   1.0000      -0.191894        -5.2217
 130   1.0000      -0.188690        -5.1345
 131   1.0000      -0.185233        -5.0405
 132   1.0000      -0.184072        -5.0089
 133   1.0000      -0.181549        -4.9402
 134   1.0000      -0.156813        -4.2671
 135   1.0000      -0.154959        -4.2166
 136   1.0000      -0.146285        -3.9806
 137   1.0000      -0.133446        -3.6313
 138   1.0000      -0.131613        -3.5814
 139   1.0000      -0.125599        -3.4177
 140   1.0000      -0.122668        -3.3380
 141   1.0000      -0.114207        -3.1077
 142   1.0000      -0.112861        -3.0711
 143   1.0000      -0.107184        -2.9166
 144   1.0000      -0.095348        -2.5945
 145   1.0000      -0.094451        -2.5701
 146   1.0000      -0.093861        -2.5541
 147   1.0000      -0.091549        -2.4912
 148   1.0000      -0.076022        -2.0687
 149   1.0000      -0.074900        -2.0381
 150   1.0000      -0.069551        -1.8926
 151   1.0000      -0.055118        -1.4998
 152   1.0000      -0.045994        -1.2516
 153   1.0000      -0.041248        -1.1224
 154   1.0000      -0.040670        -1.1067
 155   1.0000      -0.032397        -0.8816
 156   1.0000      -0.025744        -0.7005
 157   1.0000      -0.017709        -0.4819
 158   1.0000      -0.014172        -0.3856
 159   1.0000       0.016377         0.4456
 160   1.0000       0.039255         1.0682
 161   0.0000       0.128103         3.4859
 162   0.0000       0.136176         3.7055
 163   0.0000       0.156435         4.2568
 164   0.0000       0.162337         4.4174
 165   0.0000       0.164280         4.4703

                 SPIN DOWN ORBITALS
  NO   OCC          E(Eh)            E(eV)
   0   1.0000    -196.672091     -5351.7197
   1   1.0000     -88.739796     -2414.7326
   2   1.0000     -88.739746     -2414.7312
   3   1.0000     -88.734932     -2414.6003
   4   1.0000     -88.734405     -2414.5859
   5   1.0000     -88.729466     -2414.4515
   6   1.0000     -88.729380     -2414.4492
   7   1.0000     -88.728474     -2414.4245
   8   1.0000     -88.727866     -2414.4080
   9   1.0000     -88.645162     -2412.1575
  10   1.0000     -88.644803     -2412.1477
  11   1.0000     -88.640233     -2412.0234
  12   1.0000     -88.639389     -2412.0004
  13   1.0000     -22.032926      -599.5464
  14   1.0000     -18.892094      -514.0800
  15   1.0000     -18.548966      -504.7430
  16   1.0000     -18.532991      -504.3083
  17   1.0000     -18.532954      -504.3073
  18   1.0000     -10.079809      -274.2856
  19   1.0000     -10.075915      -274.1796
  20   1.0000     -10.065687      -273.9013
  21   1.0000     -10.065675      -273.9009
  22   1.0000     -10.062939      -273.8265
  23   1.0000     -10.062698      -273.8199
  24   1.0000     -10.058610      -273.7087
  25   1.0000     -10.051003      -273.5017
  26   1.0000     -10.050599      -273.4907
  27   1.0000     -10.049615      -273.4639
  28   1.0000     -10.025407      -272.8052
  29   1.0000     -10.024643      -272.7844
  30   1.0000     -10.019763      -272.6516
  31   1.0000     -10.018845      -272.6266
  32   1.0000      -7.792331      -212.0401
  33   1.0000      -7.792274      -212.0385
  34   1.0000      -7.787977      -211.9216
  35   1.0000      -7.787535      -211.9096
  36   1.0000      -7.782066      -211.7608
  37   1.0000      -7.781987      -211.7586
  38   1.0000      -7.781395      -211.7425
  39   1.0000      -7.780923      -211.7297
  40   1.0000      -7.698773      -209.4943
  41   1.0000      -7.698577      -209.4889
  42   1.0000      -7.694038      -209.3654
  43   1.0000      -7.693177      -209.3420
  44   1.0000      -5.757218      -156.6619
  45   1.0000      -5.757156      -156.6602
  46   1.0000      -5.754294      -156.5823
  47   1.0000      -5.754251      -156.5811
  48   1.0000      -5.752897      -156.5443
  49   1.0000      -5.752454      -156.5322
  50   1.0000      -5.749752      -156.4587
  51   1.0000      -5.749291      -156.4462
  52   1.0000      -5.747050      -156.3852
  53   1.0000      -5.747044      -156.3850
  54   1.0000      -5.746987      -156.3835
  55   1.0000      -5.746973      -156.3831
  56   1.0000      -5.746374      -156.3668
  57   1.0000      -5.745862      -156.3528
  58   1.0000      -5.742736      -156.2678
  59   1.0000      -5.742671      -156.2660
  60   1.0000      -5.742579      -156.2635
  61   1.0000      -5.742305      -156.2561
  62   1.0000      -5.741935      -156.2460
  63   1.0000      -5.741457      -156.2330
  64   1.0000      -5.737862      -156.1352
  65   1.0000      -5.737779      -156.1329
  66   1.0000      -5.737219      -156.1177
  67   1.0000      -5.736768      -156.1054
  68   1.0000      -5.664454      -154.1376
  69   1.0000      -5.664236      -154.1317
  70   1.0000      -5.659554      -154.0043
  71   1.0000      -5.658687      -153.9807
  72   1.0000      -5.657533      -153.9493
  73   1.0000      -5.657324      -153.9436
  74   1.0000      -5.655943      -153.9060
  75   1.0000      -5.655732      -153.9003
  76   1.0000      -5.652932      -153.8241
  77   1.0000      -5.652111      -153.8018
  78   1.0000      -5.651205      -153.7771
  79   1.0000      -5.650328      -153.7532
  80   1.0000      -2.397493       -65.2391
  81   1.0000      -1.464401       -39.8484
  82   1.0000      -1.410268       -38.3753
  83   1.0000      -1.409523       -38.3551
  84   1.0000      -0.706036       -19.2122
  85   1.0000      -0.704260       -19.1639
  86   1.0000      -0.681995       -18.5580
  87   1.0000      -0.680621       -18.5206
  88   1.0000      -0.656082       -17.8529
  89   1.0000      -0.624857       -17.0032
  90   1.0000      -0.624223       -16.9860
  91   1.0000      -0.619957       -16.8699
  92   1.0000      -0.619637       -16.8612
  93   1.0000      -0.569021       -15.4838
  94   1.0000      -0.567165       -15.4333
  95   1.0000      -0.566815       -15.4238
  96   1.0000      -0.561856       -15.2889
  97   1.0000      -0.495656       -13.4875
  98   1.0000      -0.493262       -13.4223
  99   1.0000      -0.492975       -13.4145
 100   1.0000      -0.492070       -13.3899
 101   1.0000      -0.478405       -13.0181
 102   1.0000      -0.474486       -12.9114
 103   1.0000      -0.445446       -12.1212
 104   1.0000      -0.442635       -12.0447
 105   1.0000      -0.419695       -11.4205
 106   1.0000      -0.411825       -11.2063
 107   1.0000      -0.351658        -9.5691
 108   1.0000      -0.349875        -9.5206
 109   1.0000      -0.324122        -8.8198
 110   1.0000      -0.322494        -8.7755
 111   1.0000      -0.316969        -8.6252
 112   1.0000      -0.311744        -8.4830
 113   1.0000      -0.302199        -8.2233
 114   1.0000      -0.301523        -8.2049
 115   1.0000      -0.297237        -8.0882
 116   1.0000      -0.293811        -7.9950
 117   1.0000      -0.256453        -6.9784
 118   1.0000      -0.254148        -6.9157
 119   1.0000      -0.253628        -6.9016
 120   1.0000      -0.250951        -6.8287
 121   1.0000      -0.234133        -6.3711
 122   1.0000      -0.231510        -6.2997
 123   1.0000      -0.229294        -6.2394
 124   1.0000      -0.224994        -6.1224
 125   1.0000      -0.217497        -5.9184
 126   1.0000      -0.215536        -5.8650
 127   1.0000      -0.209234        -5.6935
 128   1.0000      -0.205394        -5.5891
 129   1.0000      -0.190388        -5.1807
 130   1.0000      -0.188415        -5.1270
 131   1.0000      -0.185110        -5.0371
 132   1.0000      -0.183880        -5.0036
 133   1.0000      -0.181431        -4.9370
 134   1.0000      -0.156082        -4.2472
 135   1.0000      -0.154724        -4.2103
 136   1.0000      -0.146125        -3.9763
 137   1.0000      -0.132156        -3.5961
 138   1.0000      -0.131509        -3.5786
 139   1.0000      -0.125403        -3.4124
 140   1.0000      -0.122242        -3.3264
 141   1.0000      -0.114579        -3.1179
 142   1.0000      -0.113723        -3.0946
 143   1.0000      -0.108529        -2.9532
 144   1.0000      -0.095289        -2.5930
 145   1.0000      -0.094505        -2.5716
 146   1.0000      -0.094006        -2.5580
 147   1.0000      -0.091634        -2.4935
 148   1.0000      -0.074876        -2.0375
 149   1.0000      -0.072753        -1.9797
 150   1.0000      -0.069556        -1.8927
 151   1.0000      -0.052474        -1.4279
 152   1.0000      -0.044900        -1.2218
 153   1.0000      -0.041133        -1.1193
 154   1.0000      -0.040175        -1.0932
 155   1.0000      -0.032548        -0.8857
 156   1.0000      -0.026737        -0.7276
 157   1.0000      -0.014360        -0.3907
 158   1.0000       0.016716         0.4549
 159   1.0000       0.038021         1.0346
 160   0.0000       0.128022         3.4837
 161   0.0000       0.136194         3.7060
 162   0.0000       0.152508         4.1500
 163   0.0000       0.158575         4.3150
 164   0.0000       0.163385         4.4459

MULLIKEN ATOMIC CHARGES AND SPIN POPULATIONS
--------------------------------------------
   0 V :    0.461248    1.198973
   1 S :   -0.271844   -0.023679
   2 S :   -0.292903   -0.024557
   3 S :   -0.267974   -0.024312
   4 S :   -0.286234   -0.024809
   5 O :   -0.464968   -0.142000
   6 C :   -0.080808    0.009421
   7 C :   -0.079667    0.008248
   8 C :   -0.084110    0.010836
   9 C :   -0.080577    0.010921
  10 S :    0.093238   -0.000599
  11 S :    0.093475   -0.000619
  12 S :    0.086804   -0.000104
  13 S :    0.086681   -0.000092
  14 C :   -0.233091    0.001017
  15 C :   -0.232658    0.002150
  16 C :   -0.181793    0.000280
  17 C :   -0.188431   -0.000824
  18 S :    0.009347   -0.000162
  19 S :    0.009894   -0.000161
  20 S :    0.006816   -0.000093
  21 S :    0.006306   -0.000097
  22 C :   -0.277620    0.000060
  23 C :   -0.277183    0.000061
  24 C :   -0.183696   -0.000093
  25 H :    0.151307   -0.000008
  26 H :    0.107362   -0.000001
  27 H :    0.080138    0.000006
  28 H :    0.097396    0.000000
  29 H :    0.106977   -0.000000
  30 H :    0.150570   -0.000008
  31 C :   -0.291377    0.000233
  32 C :   -0.291833    0.000233
  33 C :   -0.167456   -0.000286
  34 H :    0.145309   -0.000025
  35 H :    0.110325    0.000035
  36 H :    0.094170    0.000023
  37 H :    0.080353    0.000023
  38 H :    0.110619    0.000035
  39 H :    0.145891   -0.000025
Sum of atomic charges         :   -2.0000000

LOEWDIN ATOMIC CHARGES AND SPIN POPULATIONS
-------------------------------------------
   0 V :   -0.182663    1.150347
   1 S :    0.088772   -0.014245
   2 S :    0.069573   -0.015766
   3 S :    0.093735   -0.014644
   4 S :    0.076710   -0.015571
   5 O :   -0.318242   -0.127113
   6 C :   -0.537723    0.008805
   7 C :   -0.539236    0.008033
   8 C :   -0.527702    0.010882
   9 C :   -0.527254    0.010790
  10 S :    0.458575   -0.000891
  11 S :    0.460362   -0.000926
  12 S :    0.445331   -0.000337
  13 S :    0.445316   -0.000362
  14 C :   -0.469867    0.000037
  15 C :   -0.471524    0.000448
  16 C :   -0.601148    0.000664
  17 C :   -0.566417    0.000164
  18 S :    0.355190   -0.000121
  19 S :    0.354648   -0.000120
  20 S :    0.347417   -0.000088
  21 S :    0.346272   -0.000091
  22 C :   -0.283509   -0.000013
  23 C :   -0.283636   -0.000012
  24 C :   -0.183845    0.000004
  25 H :    0.063978   -0.000002
  26 H :    0.052043   -0.000001
  27 H :    0.056776    0.000001
  28 H :    0.062268   -0.000001
  29 H :    0.051986   -0.000001
  30 H :    0.063729   -0.000002
  31 C :   -0.283786    0.000046
  32 C :   -0.283835    0.000042
  33 C :   -0.180180    0.000010
  34 H :    0.062747   -0.000001
  35 H :    0.052284    0.000013
  36 H :    0.060872    0.000006
  37 H :    0.056674    0.000003
  38 H :    0.052430    0.000013
  39 H :    0.062880   -0.000001

  Mayer bond orders larger than 0.100000
B(  0-V ,  1-S ) :   0.7873 B(  0-V ,  2-S ) :   0.7531 B(  0-V ,  3-S ) :   0.7883
B(  0-V ,  4-S ) :   0.7699 B(  0-V ,  5-O ) :   2.1478 B(  1-S ,  8-C ) :   1.0771
B(  2-S ,  6-C ) :   1.1002 B(  3-S ,  9-C ) :   1.0745 B(  4-S ,  7-C ) :   1.0910
B(  6-C ,  7-C ) :   1.7107 B(  6-C , 10-S ) :   0.9206 B(  7-C , 11-S ) :   0.9221
B(  8-C ,  9-C ) :   1.7344 B(  8-C , 13-S ) :   0.9100 B(  9-C , 12-S ) :   0.9103
B( 10-S , 14-C ) :   1.2451 B( 11-S , 14-C ) :   1.2476 B( 12-S , 15-C ) :   1.2280
B( 13-S , 15-C ) :   1.2282 B( 14-C , 16-C ) :   1.4467 B( 15-C , 17-C ) :   1.4443
B( 16-C , 18-S ) :   1.0602 B( 16-C , 19-S ) :   1.0616 B( 17-C , 20-S ) :   1.0256
B( 17-C , 21-S ) :   1.0258 B( 18-S , 32-C ) :   0.9990 B( 19-S , 31-C ) :   0.9991
B( 20-S , 23-C ) :   1.0079 B( 21-S , 22-C ) :   1.0071 B( 22-C , 24-C ) :   0.9173
B( 22-C , 25-H ) :   0.9709 B( 22-C , 26-H ) :   0.9590 B( 23-C , 24-C ) :   0.9183
B( 23-C , 29-H ) :   0.9591 B( 23-C , 30-H ) :   0.9706 B( 24-C , 27-H ) :   0.9526
B( 24-C , 28-H ) :   0.9723 B( 31-C , 33-C ) :   0.9148 B( 31-C , 38-H ) :   0.9631
B( 31-C , 39-H ) :   0.9683 B( 32-C , 33-C ) :   0.9149 B( 32-C , 34-H ) :   0.9679
B( 32-C , 35-H ) :   0.9630 B( 33-C , 36-H ) :   0.9725 B( 33-C , 37-H ) :   0.9576

FINAL SINGLE POINT ENERGY     -6337.681699402082

DIPOLE MOMENT
-------------
                                X             Y             Z
Electronic contribution:     -9.13606       9.86555       1.63704
Nuclear contribution   :     10.03495     -11.04720      -1.61313
                        -----------------------------------------
Total Dipole Moment    :      0.89889      -1.18165       0.02390
                        -----------------------------------------
Magnitude (a.u.)       :      1.48488
Magnitude (Debye)      :      3.77426

Rotational constants in cm-1:     0.010577     0.000803     0.000781
Rotational constants in MHz :   317.079653    24.085608    23.413935

                             ****ORCA TERMINATED NORMALLY****
TOTAL RUN TIME: 0 days 1 hours 2 minutes 2 seconds 176 msec
