                         Program Version 5.0.4 -  RELEASE  -
|  1> ! nofrozencore ReducedPop printbasis
|  2> ! B3LYP TZVP
|  3>
|  4> %basis
|  5> newgto V "CP(PPP)" end
|  6> end
|  7>
|  8> %pal
|  9> nprocs 6
| 10> end
| 11>
| 12> % sym SymThresh 1e-2 end
| 13> * xyz -2 2
| 14> V -0.6020113100065485 0.8124795920423976 -0.4652112967940678
| 15> S 1.6760932960766461 1.7650660558664983 -0.611720330968171
| 16> S 0.1227041618431106 -0.7166382344966564 -2.2716997543335027
| 17> S -0.5047208727941632 1.4026963032538458 1.937467923696001
| 18> S -1.9648466627534542 -1.0819679224755958 0.3338903603302401
| 19> O -1.589074952181732 1.8454923595695638 -1.160013748346109
| 20> C -1.1733903962810526 -1.9043521873340488 -2.174762030075571
| 21> C -2.0038412532227534 -2.0518444392811226 -1.1333338373448498
| 22> C 1.832657399677952 2.4975736281819025 0.9883021265695698
| 23> C 0.9813259690055967 2.3530351052435723 1.98498441009485
| 24> S -1.3749679508566626 -3.069842802561764 -3.5287893430458226
| 25> S -3.1866271093500655 -3.399705444675469 -1.230879477347487
| 26> S 1.4014294559479799 3.1618527659508877 3.5389875066763197
| 27> S 3.300703499644319 3.491329924308207 1.3122072940922083
| 28> C -2.6913519428781623 -4.017954828843214 -2.8153913439989906
| 29> C 2.972684339089125 3.8389522233726403 3.032086360992792
| 30> C -3.2632100992575843 -5.087579163910727 -3.415315461462783
| 31> C 3.773531068327878 4.513033375162377 3.816092660862515
| 32> S -2.772364306194855 -5.644078098893104 -5.040038881747632
| 33> S -4.585064369815219 -6.009441551190977 -2.645349834482267
| 34> S 5.351459149208529 5.172603415058035 3.2598034616627247
| 35> S 3.406344514392346 4.816467567095858 5.550873752893041
| 36> C 4.808037098877083 3.8782681538572694 6.308849641400892
| 37> C 6.476552806115641 4.188664821053919 4.348381732147485
| 38> C 6.1593415035786405 4.360344239779349 5.820193990643411
| 39> H 4.72700814187735 2.834368513088689 5.988820232869799
| 40> H 4.724692506710726 4.087409781481821 7.377324128168442
| 41> H 7.082594224324942 4.201978282441218 6.581115188353744
| 42> H 6.616641022527792 5.323706763898979 6.362118722057034
| 43> H 7.468600722498439 4.599212638287473 4.150538035140697
| 44> H 6.320093858245221 3.1281055488456233 4.127184081060751
| 45> C -5.918633675225304 -5.677059884318649 -3.884583380177847
| 46> C -4.3746170994568505 -5.358905075961055 -5.922464717135473
| 47> C -5.55191549485109 -6.107986114795474 -5.302460205788259
| 48> H -4.5759531602039045 -4.285473336359176 -5.922014643651809
| 49> H -4.20500081724678 -5.707591023458088 -6.943417040417678
| 50> H -5.414265178571209 -7.198226378121295 -5.369056774711091
| 51> H -6.43720771674751 -6.044233708255906 -5.963257242276858
| 52> H -6.783786601331031 -6.2430590254105764 -3.532641838827726
| 53> H -6.139156279657575 -4.607547726341742 -3.866268767760853
| 54> *
| 55>
| 56> % eprnmr
| 57> gtensor true
| 58> Nuclei = all H {aiso,adip,aorb,fgrad,rho}
| 59> Nuclei = all V {aiso,adip,aorb,fgrad,rho}
| 60> end
| 61>
| 62>                          ****END OF INPUT****

CARTESIAN COORDINATES (ANGSTROEM)
---------------------------------
  V     -0.601325    0.808708   -0.465165
  S      1.676779    1.761294   -0.611674
  S      0.123390   -0.720410   -2.271654
  S     -0.504035    1.398925    1.937514
  S     -1.964160   -1.085739    0.333936
  O     -1.588389    1.841721   -1.159968
  C     -1.172704   -1.908124   -2.174716
  C     -2.003155   -2.055616   -1.133288
  C      1.833344    2.493802    0.988348
  C      0.982012    2.349264    1.985030
  S     -1.374282   -3.073614   -3.528743
  S     -3.185941   -3.403477   -1.230833
  S      1.402116    3.158081    3.539034
  S      3.301390    3.487558    1.312253
  C     -2.690666   -4.021726   -2.815345
  C      2.973371    3.835181    3.032132
  C     -3.262524   -5.091351   -3.415269
  C      3.774217    4.509262    3.816139
  S     -2.771678   -5.647850   -5.039993
  S     -4.584378   -6.013213   -2.645304
  S      5.352145    5.168832    3.259849
  S      3.407031    4.812696    5.550920
  C      4.808723    3.874497    6.308896
  C      6.477239    4.184893    4.348428
  C      6.160028    4.356573    5.820240
  H      4.727694    2.830597    5.988866
  H      4.725379    4.083638    7.377370
  H      7.083280    4.198207    6.581161
  H      6.617327    5.319935    6.362165
  H      7.469287    4.595441    4.150584
  H      6.320780    3.124334    4.127230
  C     -5.917947   -5.680831   -3.884537
  C     -4.373931   -5.362677   -5.922419
  C     -5.551229   -6.111758   -5.302414
  H     -4.575267   -4.289245   -5.921969
  H     -4.204315   -5.711363   -6.943371
  H     -5.413579   -7.201998   -5.369011
  H     -6.436522   -6.048005   -5.963211
  H     -6.783100   -6.246831   -3.532596
  H     -6.138470   -4.611319   -3.866223

 Total Charge           Charge          ....   -2
 Multiplicity           Mult            ....    2
 Number of Electrons    NEL             ....  321
 Basis Dimension        Dim             ....  681

ORBITAL ENERGIES
----------------
                 SPIN UP ORBITALS
  NO   OCC          E(Eh)            E(eV)
   0   1.0000    -196.673016     -5351.7448
   1   1.0000     -88.734735     -2414.5949
   2   1.0000     -88.734539     -2414.5896
   3   1.0000     -88.733032     -2414.5486
   4   1.0000     -88.733009     -2414.5479
   5   1.0000     -88.728598     -2414.4279
   6   1.0000     -88.728429     -2414.4233
   7   1.0000     -88.727119     -2414.3876
   8   1.0000     -88.727047     -2414.3857
   9   1.0000     -88.638042     -2411.9638
  10   1.0000     -88.637779     -2411.9566
  11   1.0000     -88.637754     -2411.9559
  12   1.0000     -88.637274     -2411.9429
  13   1.0000     -22.048408      -599.9677
  14   1.0000     -18.888285      -513.9764
  15   1.0000     -18.554882      -504.9040
  16   1.0000     -18.549668      -504.7621
  17   1.0000     -18.549578      -504.7597
  18   1.0000     -10.074024      -274.1281
  19   1.0000     -10.072815      -274.0952
  20   1.0000     -10.072749      -274.0934
  21   1.0000     -10.071606      -274.0623
  22   1.0000     -10.070483      -274.0318
  23   1.0000     -10.064465      -273.8680
  24   1.0000     -10.064397      -273.8662
  25   1.0000     -10.051621      -273.5185
  26   1.0000     -10.049174      -273.4519
  27   1.0000     -10.047786      -273.4142
  28   1.0000     -10.016128      -272.5527
  29   1.0000     -10.015159      -272.5263
  30   1.0000     -10.013663      -272.4856
  31   1.0000     -10.012688      -272.4591
  32   1.0000      -7.788333      -211.9313
  33   1.0000      -7.788168      -211.9268
  34   1.0000      -7.786491      -211.8812
  35   1.0000      -7.786458      -211.8803
  36   1.0000      -7.781809      -211.7538
  37   1.0000      -7.781683      -211.7504
  38   1.0000      -7.780192      -211.7098
  39   1.0000      -7.780148      -211.7086
  40   1.0000      -7.692309      -209.3184
  41   1.0000      -7.692008      -209.3102
  42   1.0000      -7.691905      -209.3074
  43   1.0000      -7.691476      -209.2957
  44   1.0000      -5.753366      -156.5571
  45   1.0000      -5.753204      -156.5526
  46   1.0000      -5.751493      -156.5061
  47   1.0000      -5.751467      -156.5054
  48   1.0000      -5.749940      -156.4638
  49   1.0000      -5.749774      -156.4593
  50   1.0000      -5.748079      -156.4132
  51   1.0000      -5.748054      -156.4125
  52   1.0000      -5.746796      -156.3783
  53   1.0000      -5.746667      -156.3748
  54   1.0000      -5.745309      -156.3378
  55   1.0000      -5.745267      -156.3367
  56   1.0000      -5.742983      -156.2745
  57   1.0000      -5.742808      -156.2697
  58   1.0000      -5.742333      -156.2568
  59   1.0000      -5.742203      -156.2533
  60   1.0000      -5.741248      -156.2273
  61   1.0000      -5.741205      -156.2261
  62   1.0000      -5.740784      -156.2147
  63   1.0000      -5.740735      -156.2133
  64   1.0000      -5.737588      -156.1277
  65   1.0000      -5.737458      -156.1242
  66   1.0000      -5.735789      -156.0787
  67   1.0000      -5.735744      -156.0775
  68   1.0000      -5.657638      -153.9522
  69   1.0000      -5.657366      -153.9448
  70   1.0000      -5.657302      -153.9430
  71   1.0000      -5.656860      -153.9310
  72   1.0000      -5.650963      -153.7705
  73   1.0000      -5.650669      -153.7625
  74   1.0000      -5.650594      -153.7605
  75   1.0000      -5.650179      -153.7492
  76   1.0000      -5.649620      -153.7340
  77   1.0000      -5.649288      -153.7249
  78   1.0000      -5.649150      -153.7212
  79   1.0000      -5.648712      -153.7093
  80   1.0000      -2.442017       -66.4506
  81   1.0000      -1.483355       -40.3641
  82   1.0000      -1.471613       -40.0446
  83   1.0000      -1.470838       -40.0235
  84   1.0000      -0.713520       -19.4159
  85   1.0000      -0.709480       -19.3059
  86   1.0000      -0.686394       -18.6777
  87   1.0000      -0.684809       -18.6346
  88   1.0000      -0.647973       -17.6322
  89   1.0000      -0.636491       -17.3198
  90   1.0000      -0.631733       -17.1903
  91   1.0000      -0.622456       -16.9379
  92   1.0000      -0.617668       -16.8076
  93   1.0000      -0.573270       -15.5995
  94   1.0000      -0.572289       -15.5728
  95   1.0000      -0.572077       -15.5670
  96   1.0000      -0.569481       -15.4964
  97   1.0000      -0.505790       -13.7632
  98   1.0000      -0.497732       -13.5440
  99   1.0000      -0.497506       -13.5378
 100   1.0000      -0.495353       -13.4792
 101   1.0000      -0.477397       -12.9906
 102   1.0000      -0.474053       -12.8996
 103   1.0000      -0.455647       -12.3988
 104   1.0000      -0.447175       -12.1683
 105   1.0000      -0.420518       -11.4429
 106   1.0000      -0.412590       -11.2272
 107   1.0000      -0.373443       -10.1619
 108   1.0000      -0.356997        -9.7144
 109   1.0000      -0.325911        -8.8685
 110   1.0000      -0.323755        -8.8098
 111   1.0000      -0.318643        -8.6707
 112   1.0000      -0.314462        -8.5570
 113   1.0000      -0.303427        -8.2567
 114   1.0000      -0.298545        -8.1238
 115   1.0000      -0.295812        -8.0494
 116   1.0000      -0.294028        -8.0009
 117   1.0000      -0.265008        -7.2112
 118   1.0000      -0.262240        -7.1359
 119   1.0000      -0.257212        -6.9991
 120   1.0000      -0.256974        -6.9926
 121   1.0000      -0.243537        -6.6270
 122   1.0000      -0.238045        -6.4775
 123   1.0000      -0.232363        -6.3229
 124   1.0000      -0.230184        -6.2636
 125   1.0000      -0.217218        -5.9108
 126   1.0000      -0.214358        -5.8330
 127   1.0000      -0.212017        -5.7693
 128   1.0000      -0.203622        -5.5408
 129   1.0000      -0.191411        -5.2086
 130   1.0000      -0.184668        -5.0251
 131   1.0000      -0.183323        -4.9885
 132   1.0000      -0.179630        -4.8880
 133   1.0000      -0.158992        -4.3264
 134   1.0000      -0.154205        -4.1961
 135   1.0000      -0.149419        -4.0659
 136   1.0000      -0.143765        -3.9120
 137   1.0000      -0.135551        -3.6885
 138   1.0000      -0.129391        -3.5209
 139   1.0000      -0.127696        -3.4748
 140   1.0000      -0.123086        -3.3493
 141   1.0000      -0.117100        -3.1864
 142   1.0000      -0.111495        -3.0339
 143   1.0000      -0.108196        -2.9442
 144   1.0000      -0.097663        -2.6575
 145   1.0000      -0.097285        -2.6472
 146   1.0000      -0.094918        -2.5829
 147   1.0000      -0.094624        -2.5748
 148   1.0000      -0.073146        -1.9904
 149   1.0000      -0.067534        -1.8377
 150   1.0000      -0.066786        -1.8173
 151   1.0000      -0.050288        -1.3684
 152   1.0000      -0.043992        -1.1971
 153   1.0000      -0.039585        -1.0772
 154   1.0000      -0.034960        -0.9513
 155   1.0000      -0.032301        -0.8790
 156   1.0000      -0.022475        -0.6116
 157   1.0000      -0.017295        -0.4706
 158   1.0000      -0.012988        -0.3534
 159   1.0000       0.020505         0.5580
 160   1.0000       0.041670         1.1339
 161   0.0000       0.134090         3.6488
 162   0.0000       0.137800         3.7497
 163   0.0000       0.140699         3.8286
 164   0.0000       0.160296         4.3619
 165   0.0000       0.169877         4.6226

                 SPIN DOWN ORBITALS
  NO   OCC          E(Eh)            E(eV)
   0   1.0000    -196.673163     -5351.7489
   1   1.0000     -88.734735     -2414.5949
   2   1.0000     -88.734540     -2414.5896
   3   1.0000     -88.733033     -2414.5486
   4   1.0000     -88.733010     -2414.5479
   5   1.0000     -88.728606     -2414.4281
   6   1.0000     -88.728437     -2414.4235
   7   1.0000     -88.727127     -2414.3879
   8   1.0000     -88.727055     -2414.3859
   9   1.0000     -88.638182     -2411.9676
  10   1.0000     -88.637921     -2411.9604
  11   1.0000     -88.637891     -2411.9596
  12   1.0000     -88.637414     -2411.9467
  13   1.0000     -22.033486      -599.5616
  14   1.0000     -18.892053      -514.0789
  15   1.0000     -18.549624      -504.7609
  16   1.0000     -18.533644      -504.3261
  17   1.0000     -18.533465      -504.3212
  18   1.0000     -10.074019      -274.1280
  19   1.0000     -10.072816      -274.0952
  20   1.0000     -10.072750      -274.0935
  21   1.0000     -10.071605      -274.0623
  22   1.0000     -10.070483      -274.0318
  23   1.0000     -10.064464      -273.8680
  24   1.0000     -10.064396      -273.8661
  25   1.0000     -10.051621      -273.5185
  26   1.0000     -10.049170      -273.4518
  27   1.0000     -10.047775      -273.4139
  28   1.0000     -10.015889      -272.5462
  29   1.0000     -10.014934      -272.5202
  30   1.0000     -10.013446      -272.4797
  31   1.0000     -10.012473      -272.4532
  32   1.0000      -7.788333      -211.9313
  33   1.0000      -7.788168      -211.9268
  34   1.0000      -7.786492      -211.8812
  35   1.0000      -7.786459      -211.8803
  36   1.0000      -7.781819      -211.7541
  37   1.0000      -7.781693      -211.7506
  38   1.0000      -7.780201      -211.7100
  39   1.0000      -7.780157      -211.7088
  40   1.0000      -7.692439      -209.3219
  41   1.0000      -7.692139      -209.3138
  42   1.0000      -7.692034      -209.3109
  43   1.0000      -7.691606      -209.2992
  44   1.0000      -5.753368      -156.5571
  45   1.0000      -5.753205      -156.5527
  46   1.0000      -5.751494      -156.5061
  47   1.0000      -5.751468      -156.5054
  48   1.0000      -5.749941      -156.4638
  49   1.0000      -5.749775      -156.4593
  50   1.0000      -5.748081      -156.4132
  51   1.0000      -5.748055      -156.4125
  52   1.0000      -5.746806      -156.3785
  53   1.0000      -5.746677      -156.3750
  54   1.0000      -5.745319      -156.3381
  55   1.0000      -5.745277      -156.3369
  56   1.0000      -5.742983      -156.2745
  57   1.0000      -5.742809      -156.2698
  58   1.0000      -5.742347      -156.2572
  59   1.0000      -5.742217      -156.2537
  60   1.0000      -5.741249      -156.2273
  61   1.0000      -5.741206      -156.2262
  62   1.0000      -5.740799      -156.2151
  63   1.0000      -5.740750      -156.2137
  64   1.0000      -5.737596      -156.1279
  65   1.0000      -5.737467      -156.1244
  66   1.0000      -5.735795      -156.0789
  67   1.0000      -5.735751      -156.0777
  68   1.0000      -5.657777      -153.9559
  69   1.0000      -5.657508      -153.9486
  70   1.0000      -5.657446      -153.9469
  71   1.0000      -5.657003      -153.9349
  72   1.0000      -5.651349      -153.7810
  73   1.0000      -5.651052      -153.7729
  74   1.0000      -5.650949      -153.7701
  75   1.0000      -5.650544      -153.7591
  76   1.0000      -5.649707      -153.7364
  77   1.0000      -5.649382      -153.7275
  78   1.0000      -5.649254      -153.7240
  79   1.0000      -5.648816      -153.7121
  80   1.0000      -2.397158       -65.2300
  81   1.0000      -1.464097       -39.8401
  82   1.0000      -1.409271       -38.3482
  83   1.0000      -1.409121       -38.3441
  84   1.0000      -0.713510       -19.4156
  85   1.0000      -0.709456       -19.3053
  86   1.0000      -0.686349       -18.6765
  87   1.0000      -0.684752       -18.6330
  88   1.0000      -0.656042       -17.8518
  89   1.0000      -0.636423       -17.3180
  90   1.0000      -0.631655       -17.1882
  91   1.0000      -0.622459       -16.9380
  92   1.0000      -0.617668       -16.8076
  93   1.0000      -0.573206       -15.5977
  94   1.0000      -0.572256       -15.5719
  95   1.0000      -0.572000       -15.5649
  96   1.0000      -0.569458       -15.4957
  97   1.0000      -0.505803       -13.7636
  98   1.0000      -0.497748       -13.5444
  99   1.0000      -0.497532       -13.5385
 100   1.0000      -0.495389       -13.4802
 101   1.0000      -0.477608       -12.9964
 102   1.0000      -0.474322       -12.9070
 103   1.0000      -0.455672       -12.3995
 104   1.0000      -0.447206       -12.1691
 105   1.0000      -0.420547       -11.4437
 106   1.0000      -0.412692       -11.2299
 107   1.0000      -0.373442       -10.1619
 108   1.0000      -0.356990        -9.7142
 109   1.0000      -0.325886        -8.8678
 110   1.0000      -0.323727        -8.8091
 111   1.0000      -0.318580        -8.6690
 112   1.0000      -0.314484        -8.5575
 113   1.0000      -0.303420        -8.2565
 114   1.0000      -0.298505        -8.1227
 115   1.0000      -0.295793        -8.0489
 116   1.0000      -0.294023        -8.0008
 117   1.0000      -0.264942        -7.2094
 118   1.0000      -0.262181        -7.1343
 119   1.0000      -0.257150        -6.9974
 120   1.0000      -0.256911        -6.9909
 121   1.0000      -0.243486        -6.6256
 122   1.0000      -0.238019        -6.4768
 123   1.0000      -0.232289        -6.3209
 124   1.0000      -0.230148        -6.2626
 125   1.0000      -0.216521        -5.8918
 126   1.0000      -0.214262        -5.8304
 127   1.0000      -0.211955        -5.7676
 128   1.0000      -0.203570        -5.5394
 129   1.0000      -0.189619        -5.1598
 130   1.0000      -0.184486        -5.0201
 131   1.0000      -0.183037        -4.9807
 132   1.0000      -0.179521        -4.8850
 133   1.0000      -0.158511        -4.3133
 134   1.0000      -0.153920        -4.1884
 135   1.0000      -0.149235        -4.0609
 136   1.0000      -0.143674        -3.9096
 137   1.0000      -0.135076        -3.6756
 138   1.0000      -0.129165        -3.5148
 139   1.0000      -0.127190        -3.4610
 140   1.0000      -0.122591        -3.3359
 141   1.0000      -0.116826        -3.1790
 142   1.0000      -0.113249        -3.0816
 143   1.0000      -0.109735        -2.9860
 144   1.0000      -0.097639        -2.6569
 145   1.0000      -0.097343        -2.6488
 146   1.0000      -0.095153        -2.5892
 147   1.0000      -0.094959        -2.5840
 148   1.0000      -0.069350        -1.8871
 149   1.0000      -0.067517        -1.8372
 150   1.0000      -0.066792        -1.8175
 151   1.0000      -0.047691        -1.2977
 152   1.0000      -0.043034        -1.1710
 153   1.0000      -0.039639        -1.0786
 154   1.0000      -0.034381        -0.9355
 155   1.0000      -0.032448        -0.8829
 156   1.0000      -0.023498        -0.6394
 157   1.0000      -0.013195        -0.3591
 158   1.0000       0.020812         0.5663
 159   1.0000       0.040528         1.1028
 160   0.0000       0.134090         3.6488
 161   0.0000       0.137810         3.7500
 162   0.0000       0.140652         3.8273
 163   0.0000       0.157636         4.2895
 164   0.0000       0.161348         4.3905

MULLIKEN ATOMIC CHARGES AND SPIN POPULATIONS
--------------------------------------------
   0 V :    0.472761    1.210265
   1 S :   -0.296486   -0.022701
   2 S :   -0.291461   -0.025177
   3 S :   -0.294576   -0.023629
   4 S :   -0.287163   -0.025618
   5 O :   -0.468780   -0.146315
   6 C :   -0.075516    0.009746
   7 C :   -0.082795    0.008099
   8 C :   -0.075484    0.007999
   9 C :   -0.076140    0.007652
  10 S :    0.094965   -0.000575
  11 S :    0.096287   -0.000617
  12 S :    0.082731   -0.000441
  13 S :    0.081832   -0.000394
  14 C :   -0.217467    0.001526
  15 C :   -0.260622    0.001170
  16 C :   -0.185177   -0.000137
  17 C :   -0.120452   -0.000584
  18 S :    0.010990   -0.000116
  19 S :    0.011261   -0.000115
  20 S :    0.017200   -0.000092
  21 S :    0.017133   -0.000095
  22 C :   -0.273572   -0.000001
  23 C :   -0.273529   -0.000001
  24 C :   -0.149954   -0.000005
  25 H :    0.153477   -0.000002
  26 H :    0.111349   -0.000004
  27 H :    0.048618   -0.000006
  28 H :    0.039640   -0.000003
  29 H :    0.110939   -0.000004
  30 H :    0.152961   -0.000002
  31 C :   -0.298623    0.000176
  32 C :   -0.299353    0.000172
  33 C :   -0.159207   -0.000212
  34 H :    0.144039   -0.000017
  35 H :    0.113079    0.000019
  36 H :    0.088967    0.000022
  37 H :    0.081161    0.000012
  38 H :    0.112940    0.000020
  39 H :    0.144026   -0.000017
Sum of atomic charges         :   -2.0000000

LOEWDIN ATOMIC CHARGES AND SPIN POPULATIONS
-------------------------------------------
   0 V :   -0.156098    1.163611
   1 S :    0.073917   -0.014680
   2 S :    0.077529   -0.016056
   3 S :    0.075197   -0.015456
   4 S :    0.081493   -0.016259
   5 O :   -0.319585   -0.131261
   6 C :   -0.548896    0.009090
   7 C :   -0.551072    0.008014
   8 C :   -0.546992    0.008342
   9 C :   -0.547039    0.007872
  10 S :    0.466897   -0.000889
  11 S :    0.467865   -0.000937
  12 S :    0.454558   -0.000837
  13 S :    0.453779   -0.000842
  14 C :   -0.462587    0.000154
  15 C :   -0.456212   -0.000066
  16 C :   -0.617255    0.000436
  17 C :   -0.598646    0.000067
  18 S :    0.358602   -0.000093
  19 S :    0.360039   -0.000090
  20 S :    0.357047   -0.000092
  21 S :    0.356468   -0.000095
  22 C :   -0.275214   -0.000008
  23 C :   -0.275538   -0.000009
  24 C :   -0.234001   -0.000000
  25 H :    0.067627   -0.000002
  26 H :    0.061432   -0.000003
  27 H :    0.073241   -0.000004
  28 H :    0.069444   -0.000002
  29 H :    0.061302   -0.000003
  30 H :    0.067277   -0.000002
  31 C :   -0.281586    0.000039
  32 C :   -0.281280    0.000033
  33 C :   -0.182301    0.000006
  34 H :    0.063179   -0.000001
  35 H :    0.054778    0.000008
  36 H :    0.058319    0.000004
  37 H :    0.056401    0.000001
  38 H :    0.054845    0.000008
  39 H :    0.063065   -0.000001

  Mayer bond orders larger than 0.100000
B(  0-V ,  1-S ) :   0.7726 B(  0-V ,  2-S ) :   0.7700 B(  0-V ,  3-S ) :   0.7659
B(  0-V ,  4-S ) :   0.7774 B(  0-V ,  5-O ) :   2.1480 B(  1-S ,  8-C ) :   1.0958
B(  2-S ,  6-C ) :   1.1029 B(  3-S ,  9-C ) :   1.0982 B(  4-S ,  7-C ) :   1.1031
B(  6-C ,  7-C ) :   1.6942 B(  6-C , 10-S ) :   0.9323 B(  7-C , 11-S ) :   0.9364
B(  8-C ,  9-C ) :   1.7397 B(  8-C , 13-S ) :   0.9239 B(  9-C , 12-S ) :   0.9258
B( 10-S , 14-C ) :   1.2474 B( 11-S , 14-C ) :   1.2472 B( 12-S , 15-C ) :   1.2423
B( 13-S , 15-C ) :   1.2425 B( 14-C , 16-C ) :   1.4710 B( 15-C , 17-C ) :   1.5412
B( 16-C , 18-S ) :   1.0860 B( 16-C , 19-S ) :   1.0876 B( 17-C , 20-S ) :   1.0457
B( 17-C , 21-S ) :   1.0472 B( 18-S , 32-C ) :   0.9968 B( 19-S , 31-C ) :   0.9968
B( 20-S , 23-C ) :   0.9939 B( 21-S , 22-C ) :   0.9932 B( 22-C , 24-C ) :   0.9768
B( 22-C , 25-H ) :   0.9625 B( 22-C , 26-H ) :   0.9575 B( 23-C , 24-C ) :   0.9774
B( 23-C , 29-H ) :   0.9576 B( 23-C , 30-H ) :   0.9625 B( 24-C , 27-H ) :   0.8938
B( 24-C , 28-H ) :   0.8932 B( 31-C , 33-C ) :   0.9184 B( 31-C , 38-H ) :   0.9640
B( 31-C , 39-H ) :   0.9665 B( 32-C , 33-C ) :   0.9180 B( 32-C , 34-H ) :   0.9664
B( 32-C , 35-H ) :   0.9640 B( 33-C , 36-H ) :   0.9678 B( 33-C , 37-H ) :   0.9587

FINAL SINGLE POINT ENERGY     -6337.634593329120

DIPOLE MOMENT
-------------
                                X             Y             Z
Electronic contribution:     -5.19052      11.84924      -4.29389
Nuclear contribution   :      5.91409     -13.04837       4.92212
                        -----------------------------------------
Total Dipole Moment    :      0.72357      -1.19913       0.62822
                        -----------------------------------------
Magnitude (a.u.)       :      1.53497
Magnitude (Debye)      :      3.90159

Rotational constants in cm-1:     0.010772     0.000804     0.000783
Rotational constants in MHz :   322.927945    24.116322    23.486484

                             ****ORCA TERMINATED NORMALLY****
TOTAL RUN TIME: 0 days 1 hours 6 minutes 18 seconds 753 msec
