                         Program Version 5.0.4 -  RELEASE  -
|  1> ! nofrozencore ReducedPop printbasis
|  2> ! B3LYP TZVP
|  3>
|  4> %basis
|  5> newgto V "CP(PPP)" end
|  6> end
|  7>
|  8> %pal
|  9> nprocs 8
| 10> end
| 11>
| 12> % sym SymThresh 1e-2 end
| 13> * xyz -2 2
| 14> V -1.0856858105442087 -0.07765816555057367 -0.20690721439158258
| 15> S -0.1267695759766857 -0.6777776343502782 -2.4119796151431783
| 16> S -0.3353567157074986 -2.3194988190206614 0.5573771612764883
| 17> S -0.49375435975238213 2.255260219013944 -0.8042627587521959
| 18> S -0.5996922310092647 0.6508771685496856 2.109794163899378
| 19> O -2.663484498660528 -0.19244225647779317 -0.3493676125885333
| 20> C -0.40495955836450714 -2.0956188601205987 2.30253014867386
| 21> C -0.5068873782778883 -0.9060549202001962 2.923861956843822
| 22> C 0.023823733881396834 0.9109826719540619 -3.1600450938753055
| 23> C -0.12031220240905866 2.083045259251031 -2.5154370252185374
| 24> S -0.2845405083569648 -3.541891631255687 3.3654515951173463
| 25> S -0.48951490027806976 -0.9356059893164684 4.721596252861516
| 26> S 0.18828051483289748 3.5708280402892383 -3.478511277984359
| 27> S 0.4985435092411313 1.0063771038628289 -4.893662433861904
| 28> C -0.387479095253653 -2.691230827735284 4.91344915212793
| 29> C 0.7591078396640425 2.759281287497703 -4.947395092018891
| 30> C -0.3924183906184428 -3.322814064346011 6.128572906756905
| 31> C 1.3137084953192681 3.4178126560455797 -6.01534301534814
| 32> S -0.30240582917061976 -5.09846599973231 6.270764679365208
| 33> S -0.46069534423465036 -2.414891391589528 7.661985809609107
| 34> S 1.7747090989989855 2.559716908297026 -7.5104549263326605
| 35> S 1.4855437091359651 5.194698632754214 -6.034445859973314
| 36> C 3.3036361511350725 5.310412022268648 -6.3706085334883875
| 37> C 3.546484687366581 3.088718925441789 -7.625268240871667
| 38> C 3.739340299613171 4.606297243801083 -7.6576848002012605
| 39> H 3.838749541885074 4.906694273967436 -5.505782946459051
| 40> H 3.5129316424044355 6.381571350754296 -6.433104403579867
| 41> H 4.807933880638312 4.814880099181505 -7.821687488573175
| 42> H 3.18967169531965 5.027203819945056 -8.508084461884385
| 43> H 3.9165615826026805 2.6389047075543495 -8.550594028400967
| 44> H 4.092403712077949 2.645802004611459 -6.786757175436411
| 45> C -2.0322166026716206 -3.1171197959284815 8.343208715724462
| 46> C -1.9020156683766298 -5.390924443218181 7.156069763633983
| 47> C -2.017207776733549 -4.640314702573278 8.484303499456214
| 48> H -2.7186498936955132 -5.117904457551852 6.48367582293881
| 49> H -1.9439728832627086 -6.47000040121376 7.324316992053734
| 50> H -1.1936084478000781 -4.936985763873434 9.141589012238427
| 51> H -2.952611076745933 -4.948325783931899 8.972477791165884
| 52> H -2.156665617416808 -2.645611784329447 9.321302606592242
| 53> H -2.85508441046326 -2.7944544560295945 7.701075038505988
| 54> *
| 55>
| 56> % eprnmr
| 57> gtensor true
| 58> Nuclei = all H {aiso,adip,aorb,fgrad,rho}
| 59> Nuclei = all V {aiso,adip,aorb,fgrad,rho}
| 60> end
| 61>
| 62>                          ****END OF INPUT****

CARTESIAN COORDINATES (ANGSTROEM)
---------------------------------
  V     -1.082856   -0.078633   -0.204511
  S     -0.123940   -0.678752   -2.409584
  S     -0.332527   -2.320473    0.559773
  S     -0.490925    2.254286   -0.801867
  S     -0.596862    0.649903    2.112190
  O     -2.660655   -0.193417   -0.346972
  C     -0.402130   -2.096593    2.304926
  C     -0.504058   -0.907029    2.926258
  C      0.026654    0.910008   -3.157649
  C     -0.117482    2.082071   -2.513041
  S     -0.281711   -3.542866    3.367848
  S     -0.486685   -0.936581    4.723992
  S      0.191110    3.569853   -3.476115
  S      0.501373    1.005403   -4.891267
  C     -0.384649   -2.692205    4.915845
  C      0.761938    2.758307   -4.944999
  C     -0.389589   -3.323789    6.130969
  C      1.316538    3.416838   -6.012947
  S     -0.299576   -5.099441    6.273161
  S     -0.457866   -2.415866    7.664382
  S      1.777539    2.558742   -7.508059
  S      1.488374    5.193724   -6.032050
  C      3.306466    5.309437   -6.368213
  C      3.549314    3.087744   -7.622872
  C      3.742170    4.605323   -7.655289
  H      3.841579    4.905720   -5.503387
  H      3.515761    6.380597   -6.430708
  H      4.810764    4.813906   -7.819292
  H      3.192502    5.026229   -8.505689
  H      3.919391    2.637930   -8.548198
  H      4.095234    2.644827   -6.784361
  C     -2.029387   -3.118094    8.345605
  C     -1.899186   -5.391899    7.158466
  C     -2.014378   -4.641289    8.486699
  H     -2.715820   -5.118879    6.486072
  H     -1.941143   -6.470975    7.326713
  H     -1.190779   -4.937960    9.143985
  H     -2.949781   -4.949300    8.974874
  H     -2.153836   -2.646586    9.323699
  H     -2.852255   -2.795429    7.703471

 Total Charge           Charge          ....   -2
 Multiplicity           Mult            ....    2
 Number of Electrons    NEL             ....  321
 Basis Dimension        Dim             ....  681

ORBITAL ENERGIES
----------------
                 SPIN UP ORBITALS
  NO   OCC          E(Eh)            E(eV)
   0   1.0000    -196.675823     -5351.8212
   1   1.0000     -88.735041     -2414.6032
   2   1.0000     -88.734856     -2414.5982
   3   1.0000     -88.733691     -2414.5665
   4   1.0000     -88.733542     -2414.5624
   5   1.0000     -88.730005     -2414.4662
   6   1.0000     -88.729935     -2414.4643
   7   1.0000     -88.729403     -2414.4498
   8   1.0000     -88.729329     -2414.4478
   9   1.0000     -88.639833     -2412.0125
  10   1.0000     -88.639470     -2412.0026
  11   1.0000     -88.639207     -2411.9954
  12   1.0000     -88.639185     -2411.9948
  13   1.0000     -22.051138      -600.0420
  14   1.0000     -18.890632      -514.0402
  15   1.0000     -18.557560      -504.9769
  16   1.0000     -18.552439      -504.8375
  17   1.0000     -18.552326      -504.8344
  18   1.0000     -10.076144      -274.1858
  19   1.0000     -10.076015      -274.1823
  20   1.0000     -10.065456      -273.8950
  21   1.0000     -10.065350      -273.8921
  22   1.0000     -10.063911      -273.8530
  23   1.0000     -10.063907      -273.8528
  24   1.0000     -10.053193      -273.5613
  25   1.0000     -10.051751      -273.5221
  26   1.0000     -10.051694      -273.5205
  27   1.0000     -10.049188      -273.4523
  28   1.0000     -10.018238      -272.6101
  29   1.0000     -10.017807      -272.5984
  30   1.0000     -10.017367      -272.5864
  31   1.0000     -10.017011      -272.5767
  32   1.0000      -7.788405      -211.9333
  33   1.0000      -7.788219      -211.9282
  34   1.0000      -7.787072      -211.8970
  35   1.0000      -7.786951      -211.8937
  36   1.0000      -7.783180      -211.7911
  37   1.0000      -7.783139      -211.7900
  38   1.0000      -7.782532      -211.7735
  39   1.0000      -7.782492      -211.7724
  40   1.0000      -7.693923      -209.3623
  41   1.0000      -7.693662      -209.3552
  42   1.0000      -7.693429      -209.3489
  43   1.0000      -7.693334      -209.3462
  44   1.0000      -5.753402      -156.5580
  45   1.0000      -5.753213      -156.5529
  46   1.0000      -5.752067      -156.5217
  47   1.0000      -5.751939      -156.5182
  48   1.0000      -5.749971      -156.4647
  49   1.0000      -5.749795      -156.4599
  50   1.0000      -5.748646      -156.4286
  51   1.0000      -5.748533      -156.4255
  52   1.0000      -5.748133      -156.4147
  53   1.0000      -5.748098      -156.4137
  54   1.0000      -5.747510      -156.3977
  55   1.0000      -5.747472      -156.3967
  56   1.0000      -5.743708      -156.2942
  57   1.0000      -5.743666      -156.2931
  58   1.0000      -5.743202      -156.2805
  59   1.0000      -5.743096      -156.2776
  60   1.0000      -5.743051      -156.2764
  61   1.0000      -5.743008      -156.2752
  62   1.0000      -5.741877      -156.2444
  63   1.0000      -5.741742      -156.2408
  64   1.0000      -5.738998      -156.1661
  65   1.0000      -5.738950      -156.1648
  66   1.0000      -5.738298      -156.1470
  67   1.0000      -5.738263      -156.1461
  68   1.0000      -5.659270      -153.9966
  69   1.0000      -5.658989      -153.9889
  70   1.0000      -5.658741      -153.9822
  71   1.0000      -5.658686      -153.9807
  72   1.0000      -5.652593      -153.8149
  73   1.0000      -5.652335      -153.8078
  74   1.0000      -5.652102      -153.8015
  75   1.0000      -5.652030      -153.7996
  76   1.0000      -5.651249      -153.7783
  77   1.0000      -5.650975      -153.7709
  78   1.0000      -5.650734      -153.7643
  79   1.0000      -5.650605      -153.7608
  80   1.0000      -2.444639       -66.5220
  81   1.0000      -1.485930       -40.4342
  82   1.0000      -1.474257       -40.1166
  83   1.0000      -1.473363       -40.0923
  84   1.0000      -0.708926       -19.2909
  85   1.0000      -0.708623       -19.2826
  86   1.0000      -0.685401       -18.6507
  87   1.0000      -0.685262       -18.6469
  88   1.0000      -0.650044       -17.6886
  89   1.0000      -0.631559       -17.1856
  90   1.0000      -0.631149       -17.1744
  91   1.0000      -0.618035       -16.8176
  92   1.0000      -0.617430       -16.8011
  93   1.0000      -0.573423       -15.6036
  94   1.0000      -0.573092       -15.5946
  95   1.0000      -0.572523       -15.5791
  96   1.0000      -0.572123       -15.5683
  97   1.0000      -0.497267       -13.5313
  98   1.0000      -0.496576       -13.5125
  99   1.0000      -0.495722       -13.4893
 100   1.0000      -0.495668       -13.4878
 101   1.0000      -0.478969       -13.0334
 102   1.0000      -0.476415       -12.9639
 103   1.0000      -0.447388       -12.1740
 104   1.0000      -0.445307       -12.1174
 105   1.0000      -0.416079       -11.3221
 106   1.0000      -0.410992       -11.1837
 107   1.0000      -0.356508        -9.7011
 108   1.0000      -0.355778        -9.6812
 109   1.0000      -0.327484        -8.9113
 110   1.0000      -0.326938        -8.8964
 111   1.0000      -0.318013        -8.6536
 112   1.0000      -0.313708        -8.5364
 113   1.0000      -0.304214        -8.2781
 114   1.0000      -0.303477        -8.2580
 115   1.0000      -0.293399        -7.9838
 116   1.0000      -0.292742        -7.9659
 117   1.0000      -0.258740        -7.0407
 118   1.0000      -0.257432        -7.0051
 119   1.0000      -0.256621        -6.9830
 120   1.0000      -0.255265        -6.9461
 121   1.0000      -0.236156        -6.4261
 122   1.0000      -0.234795        -6.3891
 123   1.0000      -0.232049        -6.3144
 124   1.0000      -0.230634        -6.2759
 125   1.0000      -0.221734        -6.0337
 126   1.0000      -0.219027        -5.9600
 127   1.0000      -0.212509        -5.7827
 128   1.0000      -0.208821        -5.6823
 129   1.0000      -0.191787        -5.2188
 130   1.0000      -0.187696        -5.1075
 131   1.0000      -0.186307        -5.0697
 132   1.0000      -0.183768        -5.0006
 133   1.0000      -0.178921        -4.8687
 134   1.0000      -0.159623        -4.3436
 135   1.0000      -0.151439        -4.1209
 136   1.0000      -0.146589        -3.9889
 137   1.0000      -0.136038        -3.7018
 138   1.0000      -0.135258        -3.6806
 139   1.0000      -0.131838        -3.5875
 140   1.0000      -0.125837        -3.4242
 141   1.0000      -0.120252        -3.2722
 142   1.0000      -0.113503        -3.0886
 143   1.0000      -0.110502        -3.0069
 144   1.0000      -0.098602        -2.6831
 145   1.0000      -0.098108        -2.6697
 146   1.0000      -0.096850        -2.6354
 147   1.0000      -0.094950        -2.5837
 148   1.0000      -0.074008        -2.0139
 149   1.0000      -0.069179        -1.8824
 150   1.0000      -0.067781        -1.8444
 151   1.0000      -0.051089        -1.3902
 152   1.0000      -0.045768        -1.2454
 153   1.0000      -0.036187        -0.9847
 154   1.0000      -0.035344        -0.9617
 155   1.0000      -0.030064        -0.8181
 156   1.0000      -0.024038        -0.6541
 157   1.0000      -0.019535        -0.5316
 158   1.0000      -0.015206        -0.4138
 159   1.0000       0.020774         0.5653
 160   1.0000       0.041277         1.1232
 161   0.0000       0.136558         3.7159
 162   0.0000       0.137106         3.7308
 163   0.0000       0.160697         4.3728
 164   0.0000       0.161661         4.3990
 165   0.0000       0.169612         4.6154

                 SPIN DOWN ORBITALS
  NO   OCC          E(Eh)            E(eV)
   0   1.0000    -196.675970     -5351.8252
   1   1.0000     -88.735042     -2414.6032
   2   1.0000     -88.734857     -2414.5982
   3   1.0000     -88.733692     -2414.5665
   4   1.0000     -88.733543     -2414.5625
   5   1.0000     -88.730014     -2414.4664
   6   1.0000     -88.729944     -2414.4645
   7   1.0000     -88.729411     -2414.4500
   8   1.0000     -88.729338     -2414.4480
   9   1.0000     -88.639978     -2412.0164
  10   1.0000     -88.639615     -2412.0066
  11   1.0000     -88.639354     -2411.9994
  12   1.0000     -88.639330     -2411.9988
  13   1.0000     -22.036156      -599.6343
  14   1.0000     -18.894471      -514.1447
  15   1.0000     -18.552257      -504.8326
  16   1.0000     -18.536396      -504.4010
  17   1.0000     -18.536129      -504.3937
  18   1.0000     -10.076141      -274.1857
  19   1.0000     -10.076012      -274.1822
  20   1.0000     -10.065456      -273.8950
  21   1.0000     -10.065350      -273.8921
  22   1.0000     -10.063911      -273.8529
  23   1.0000     -10.063906      -273.8528
  24   1.0000     -10.053193      -273.5613
  25   1.0000     -10.051747      -273.5220
  26   1.0000     -10.051694      -273.5205
  27   1.0000     -10.049179      -273.4521
  28   1.0000     -10.018011      -272.6039
  29   1.0000     -10.017587      -272.5924
  30   1.0000     -10.017149      -272.5805
  31   1.0000     -10.016793      -272.5708
  32   1.0000      -7.788406      -211.9333
  33   1.0000      -7.788219      -211.9282
  34   1.0000      -7.787073      -211.8970
  35   1.0000      -7.786951      -211.8937
  36   1.0000      -7.783190      -211.7914
  37   1.0000      -7.783149      -211.7902
  38   1.0000      -7.782542      -211.7737
  39   1.0000      -7.782501      -211.7726
  40   1.0000      -7.694058      -209.3659
  41   1.0000      -7.693797      -209.3589
  42   1.0000      -7.693566      -209.3526
  43   1.0000      -7.693469      -209.3499
  44   1.0000      -5.753402      -156.5580
  45   1.0000      -5.753213      -156.5529
  46   1.0000      -5.752068      -156.5217
  47   1.0000      -5.751940      -156.5182
  48   1.0000      -5.749972      -156.4647
  49   1.0000      -5.749795      -156.4599
  50   1.0000      -5.748647      -156.4286
  51   1.0000      -5.748534      -156.4256
  52   1.0000      -5.748144      -156.4150
  53   1.0000      -5.748109      -156.4140
  54   1.0000      -5.747521      -156.3980
  55   1.0000      -5.747483      -156.3970
  56   1.0000      -5.743722      -156.2946
  57   1.0000      -5.743680      -156.2935
  58   1.0000      -5.743203      -156.2805
  59   1.0000      -5.743111      -156.2780
  60   1.0000      -5.743065      -156.2768
  61   1.0000      -5.743009      -156.2752
  62   1.0000      -5.741878      -156.2444
  63   1.0000      -5.741743      -156.2408
  64   1.0000      -5.739006      -156.1663
  65   1.0000      -5.738959      -156.1650
  66   1.0000      -5.738305      -156.1472
  67   1.0000      -5.738270      -156.1463
  68   1.0000      -5.659417      -154.0006
  69   1.0000      -5.659133      -153.9928
  70   1.0000      -5.658887      -153.9862
  71   1.0000      -5.658832      -153.9846
  72   1.0000      -5.652960      -153.8249
  73   1.0000      -5.652717      -153.8182
  74   1.0000      -5.652477      -153.8117
  75   1.0000      -5.652407      -153.8098
  76   1.0000      -5.651369      -153.7816
  77   1.0000      -5.651086      -153.7739
  78   1.0000      -5.650855      -153.7676
  79   1.0000      -5.650718      -153.7639
  80   1.0000      -2.399591       -65.2962
  81   1.0000      -1.466496       -39.9054
  82   1.0000      -1.411595       -38.4114
  83   1.0000      -1.411544       -38.4101
  84   1.0000      -0.708906       -19.2903
  85   1.0000      -0.708608       -19.2822
  86   1.0000      -0.685353       -18.6494
  87   1.0000      -0.685214       -18.6456
  88   1.0000      -0.658293       -17.9131
  89   1.0000      -0.631502       -17.1840
  90   1.0000      -0.631080       -17.1726
  91   1.0000      -0.618037       -16.8176
  92   1.0000      -0.617431       -16.8011
  93   1.0000      -0.573401       -15.6030
  94   1.0000      -0.573024       -15.5928
  95   1.0000      -0.572500       -15.5785
  96   1.0000      -0.572060       -15.5665
  97   1.0000      -0.497290       -13.5319
  98   1.0000      -0.496616       -13.5136
  99   1.0000      -0.495765       -13.4905
 100   1.0000      -0.495704       -13.4888
 101   1.0000      -0.479193       -13.0395
 102   1.0000      -0.476702       -12.9717
 103   1.0000      -0.447416       -12.1748
 104   1.0000      -0.445362       -12.1189
 105   1.0000      -0.416091       -11.3224
 106   1.0000      -0.411123       -11.1872
 107   1.0000      -0.356503        -9.7009
 108   1.0000      -0.355771        -9.6810
 109   1.0000      -0.327472        -8.9110
 110   1.0000      -0.326927        -8.8961
 111   1.0000      -0.317942        -8.6516
 112   1.0000      -0.313740        -8.5373
 113   1.0000      -0.304162        -8.2767
 114   1.0000      -0.303454        -8.2574
 115   1.0000      -0.293394        -7.9837
 116   1.0000      -0.292739        -7.9658
 117   1.0000      -0.258661        -7.0385
 118   1.0000      -0.257277        -7.0009
 119   1.0000      -0.256584        -6.9820
 120   1.0000      -0.255240        -6.9454
 121   1.0000      -0.236111        -6.4249
 122   1.0000      -0.234776        -6.3886
 123   1.0000      -0.232000        -6.3130
 124   1.0000      -0.230604        -6.2751
 125   1.0000      -0.221520        -6.0279
 126   1.0000      -0.218886        -5.9562
 127   1.0000      -0.212232        -5.7751
 128   1.0000      -0.208624        -5.6770
 129   1.0000      -0.190128        -5.1737
 130   1.0000      -0.187631        -5.1057
 131   1.0000      -0.185945        -5.0598
 132   1.0000      -0.183539        -4.9944
 133   1.0000      -0.178812        -4.8657
 134   1.0000      -0.159022        -4.3272
 135   1.0000      -0.151260        -4.1160
 136   1.0000      -0.146506        -3.9866
 137   1.0000      -0.135334        -3.6826
 138   1.0000      -0.135073        -3.6755
 139   1.0000      -0.131605        -3.5812
 140   1.0000      -0.125167        -3.4060
 141   1.0000      -0.119906        -3.2628
 142   1.0000      -0.115466        -3.1420
 143   1.0000      -0.112146        -3.0516
 144   1.0000      -0.098631        -2.6839
 145   1.0000      -0.098095        -2.6693
 146   1.0000      -0.097102        -2.6423
 147   1.0000      -0.095352        -2.5947
 148   1.0000      -0.070006        -1.9050
 149   1.0000      -0.069157        -1.8819
 150   1.0000      -0.067788        -1.8446
 151   1.0000      -0.048488        -1.3194
 152   1.0000      -0.044929        -1.2226
 153   1.0000      -0.036220        -0.9856
 154   1.0000      -0.034752        -0.9457
 155   1.0000      -0.030319        -0.8250
 156   1.0000      -0.025118        -0.6835
 157   1.0000      -0.015512        -0.4221
 158   1.0000       0.021000         0.5714
 159   1.0000       0.040570         1.1040
 160   0.0000       0.136561         3.7160
 161   0.0000       0.137082         3.7302
 162   0.0000       0.155128         4.2213
 163   0.0000       0.161150         4.3851
 164   0.0000       0.162633         4.4255

MULLIKEN ATOMIC CHARGES AND SPIN POPULATIONS
--------------------------------------------
   0 V :    0.475470    1.215439
   1 S :   -0.289455   -0.024070
   2 S :   -0.293881   -0.024744
   3 S :   -0.287223   -0.024967
   4 S :   -0.289587   -0.025466
   5 O :   -0.464235   -0.148700
   6 C :   -0.079089    0.008932
   7 C :   -0.086207    0.007732
   8 C :   -0.083684    0.008316
   9 C :   -0.086569    0.007938
  10 S :    0.098061   -0.000534
  11 S :    0.098696   -0.000565
  12 S :    0.093444   -0.000473
  13 S :    0.092541   -0.000429
  14 C :   -0.208838    0.001111
  15 C :   -0.205935    0.001144
  16 C :   -0.195041   -0.000047
  17 C :   -0.195606   -0.000382
  18 S :    0.010223   -0.000101
  19 S :    0.010387   -0.000102
  20 S :    0.012727   -0.000050
  21 S :    0.012788   -0.000053
  22 C :   -0.300448   -0.000016
  23 C :   -0.299332   -0.000017
  24 C :   -0.155894    0.000003
  25 H :    0.140995   -0.000000
  26 H :    0.115023   -0.000004
  27 H :    0.084399   -0.000004
  28 H :    0.092849   -0.000002
  29 H :    0.114581   -0.000004
  30 H :    0.140481   -0.000000
  31 C :   -0.300355    0.000124
  32 C :   -0.301353    0.000119
  33 C :   -0.155712   -0.000146
  34 H :    0.141527   -0.000011
  35 H :    0.113838    0.000010
  36 H :    0.092512    0.000016
  37 H :    0.083055    0.000004
  38 H :    0.113683    0.000011
  39 H :    0.141163   -0.000012
Sum of atomic charges         :   -2.0000000

LOEWDIN ATOMIC CHARGES AND SPIN POPULATIONS
-------------------------------------------
   0 V :   -0.150214    1.169085
   1 S :    0.077577   -0.015738
   2 S :    0.074817   -0.016217
   3 S :    0.079349   -0.016475
   4 S :    0.078466   -0.016651
   5 O :   -0.316568   -0.133445
   6 C :   -0.548994    0.008627
   7 C :   -0.550732    0.007831
   8 C :   -0.549821    0.008386
   9 C :   -0.549948    0.007914
  10 S :    0.469487   -0.000914
  11 S :    0.469802   -0.000933
  12 S :    0.465245   -0.000861
  13 S :    0.464260   -0.000869
  14 C :   -0.465536    0.000016
  15 C :   -0.465261    0.000032
  16 C :   -0.620400    0.000393
  17 C :   -0.613831    0.000065
  18 S :    0.359121   -0.000084
  19 S :    0.360143   -0.000083
  20 S :    0.360784   -0.000058
  21 S :    0.360058   -0.000061
  22 C :   -0.283802   -0.000008
  23 C :   -0.283981   -0.000009
  24 C :   -0.176427   -0.000004
  25 H :    0.062179   -0.000001
  26 H :    0.054214   -0.000002
  27 H :    0.058305   -0.000002
  28 H :    0.060839   -0.000001
  29 H :    0.054203   -0.000002
  30 H :    0.061960   -0.000002
  31 C :   -0.284249    0.000032
  32 C :   -0.284037    0.000027
  33 C :   -0.176398    0.000002
  34 H :    0.061945   -0.000001
  35 H :    0.053726    0.000004
  36 H :    0.060349    0.000003
  37 H :    0.057826    0.000000
  38 H :    0.053771    0.000005
  39 H :    0.061774   -0.000001

  Mayer bond orders larger than 0.100000
B(  0-V ,  1-S ) :   0.7732 B(  0-V ,  2-S ) :   0.7646 B(  0-V ,  3-S ) :   0.7667
B(  0-V ,  4-S ) :   0.7713 B(  0-V ,  5-O ) :   2.1535 B(  1-S ,  8-C ) :   1.0985
B(  2-S ,  6-C ) :   1.1026 B(  3-S ,  9-C ) :   1.1029 B(  4-S ,  7-C ) :   1.1044
B(  6-C ,  7-C ) :   1.6933 B(  6-C , 10-S ) :   0.9333 B(  7-C , 11-S ) :   0.9360
B(  8-C ,  9-C ) :   1.6994 B(  8-C , 13-S ) :   0.9308 B(  9-C , 12-S ) :   0.9336
B( 10-S , 14-C ) :   1.2443 B( 11-S , 14-C ) :   1.2438 B( 12-S , 15-C ) :   1.2292
B( 13-S , 15-C ) :   1.2298 B( 14-C , 16-C ) :   1.4582 B( 15-C , 17-C ) :   1.4819
B( 16-C , 18-S ) :   1.0886 B( 16-C , 19-S ) :   1.0890 B( 17-C , 20-S ) :   1.0848
B( 17-C , 21-S ) :   1.0856 B( 18-S , 32-C ) :   0.9903 B( 19-S , 31-C ) :   0.9905
B( 20-S , 23-C ) :   0.9881 B( 21-S , 22-C ) :   0.9871 B( 22-C , 24-C ) :   0.9097
B( 22-C , 25-H ) :   0.9637 B( 22-C , 26-H ) :   0.9667 B( 23-C , 24-C ) :   0.9104
B( 23-C , 29-H ) :   0.9667 B( 23-C , 30-H ) :   0.9635 B( 24-C , 27-H ) :   0.9626
B( 24-C , 28-H ) :   0.9726 B( 31-C , 33-C ) :   0.9126 B( 31-C , 38-H ) :   0.9659
B( 31-C , 39-H ) :   0.9650 B( 32-C , 33-C ) :   0.9118 B( 32-C , 34-H ) :   0.9649
B( 32-C , 35-H ) :   0.9660 B( 33-C , 36-H ) :   0.9721 B( 33-C , 37-H ) :   0.9625

FINAL SINGLE POINT ENERGY     -6337.706047758271

DIPOLE MOMENT
-------------
                                X             Y             Z
Electronic contribution:    -12.50816       0.16657      -5.47523
Nuclear contribution   :     13.92143      -0.12458       5.98788
                        -----------------------------------------
Total Dipole Moment    :      1.41328       0.04198       0.51265
                        -----------------------------------------
Magnitude (a.u.)       :      1.50397
Magnitude (Debye)      :      3.82278

Rotational constants in cm-1:     0.010666     0.000796     0.000776
Rotational constants in MHz :   319.762296    23.859002    23.258053

                             ****ORCA TERMINATED NORMALLY****
TOTAL RUN TIME: 0 days 1 hours 1 minutes 56 seconds 629 msec
