                         Program Version 5.0.4 -  RELEASE  -
|  1> ! nofrozencore ReducedPop printbasis
|  2> ! B3LYP TZVP
|  3>
|  4> %basis
|  5> newgto V "CP(PPP)" end
|  6> end
|  7>
|  8> %pal
|  9> nprocs 8
| 10> end
| 11>
| 12> % sym SymThresh 1e-2 end
| 13> * xyz -2 2
| 14> V 0.5084283126954564 0.848728029230676 0.5100524437142361
| 15> S 2.0680305842836337 -1.0063644145951525 1.0055238268256244
| 16> S 1.3835515204656121 0.7253997116943348 -1.8000601733608987
| 17> S -0.9478249552608661 -0.14524471307117368 2.2484791449103123
| 18> S -1.6366208799815074 1.477366416541744 -0.5376561218605831
| 19> O 1.1378119745012842 2.17017471777187 1.128154136719035
| 20> C 0.179492199251029 1.6768278133836996 -2.637059897538899
| 21> C -1.0284884464669029 1.975173112788047 -2.122776274179941
| 22> C 1.3183859584065942 -1.704194147495359 2.4370093500552867
| 23> C 0.11431738209891373 -1.3628809518467717 2.931452262180179
| 24> S 0.46311680542584704 2.2694868430318205 -4.295975018260188
| 25> S -2.1847138924257075 2.891641927555897 -3.1663461918708338
| 26> S -0.4380765537071182 -2.2748868080942146 4.374679908363584
| 27> S 2.2003869085175167 -3.01520047479162 3.2961177939938846
| 28> C -0.9664678096666082 2.9820994601505673 -4.632886407953569
| 29> C 0.9212683448324821 -3.351015152347729 4.5109374307524535
| 30> C -1.2328429139067996 3.5849871548077354 -5.834044871974446
| 31> C 1.005929909779904 -4.339799944483 5.451853181244846
| 32> S -0.30339871738978663 3.7632839336371036 -7.093174888390112
| 33> S -3.0542528883424165 4.381663562082412 -5.996306037742343
| 34> S 2.467607952144294 -5.428872740836053 5.523951782961858
| 35> S -0.2519199726651683 -4.666041211217245 6.610259705054839
| 36> C -0.6983319311942604 -6.377409426989586 6.058632979419274
| 37> C 1.6199849042533205 -7.031927660871726 5.154794112373206
| 38> C 0.4758930831841137 -7.362134885897079 6.111601992309194
| 39> H -1.1534937996355143 -6.328014572174001 5.066053569276279
| 40> H -1.4621376121457654 -6.698062053094574 6.773463936532339
| 41> H 0.0929943035868612 -8.360767886874713 5.858598485038372
| 42> H 0.8456879533391831 -7.406803541190784 7.141093166169003
| 43> H 2.392996686614155 -7.805432959196158 5.16627797275882
| 44> H 1.2312588602665544 -6.957323651922417 4.135804803008241
| 45> C -2.5291300724122556 6.132053697104639 -6.260246489665588
| 46> C -0.15510231681817607 5.615236683530493 -7.110662938990998
| 47> C -1.5073261446438952 6.321920367836557 -7.362635315379695
| 48> H 0.4981320686049348 6.0254533383559 -6.3057877935518185
| 49> H 0.3633427482961373 5.727271376722177 -8.098432440741817
| 50> H -1.8452404671496476 5.9556899888681905 -8.345336316787634
| 51> H -1.2997595691101091 7.395753748398981 -7.472652670851705
| 52> H -3.4047938964216256 6.828131168405284 -6.25316591702022
| 53> H -1.9404576634968083 6.330820948695576 -5.333647045028547
| 54> *
| 55>
| 56> % eprnmr
| 57> gtensor true
| 58> Nuclei = all H {aiso,adip,aorb,fgrad,rho}
| 59> Nuclei = all V {aiso,adip,aorb,fgrad,rho}
| 60> end
| 61>
| 62>                          ****END OF INPUT****

CARTESIAN COORDINATES (ANGSTROEM)
---------------------------------
  V      0.506760    0.847556    0.506806
  S      2.066362   -1.007536    1.002277
  S      1.381883    0.724228   -1.803307
  S     -0.949493   -0.146417    2.245232
  S     -1.638289    1.476195   -0.540903
  O      1.136144    2.169003    1.124907
  C      0.177824    1.675656   -2.640307
  C     -1.030157    1.974001   -2.126023
  C      1.316718   -1.705366    2.433763
  C      0.112649   -1.364053    2.928206
  S      0.461448    2.268315   -4.299222
  S     -2.186382    2.890470   -3.169593
  S     -0.439745   -2.276059    4.371433
  S      2.198719   -3.016372    3.292871
  C     -0.968136    2.980928   -4.636133
  C      0.919600   -3.352187    4.507691
  C     -1.234511    3.583815   -5.837292
  C      1.004262   -4.340972    5.448607
  S     -0.305067    3.762112   -7.096422
  S     -3.055921    4.380492   -5.999553
  S      2.465940   -5.430045    5.520705
  S     -0.253588   -4.667213    6.607013
  C     -0.700000   -6.378581    6.055386
  C      1.618317   -7.033100    5.151547
  C      0.474225   -7.363307    6.108355
  H     -1.155162   -6.329186    5.062807
  H     -1.463806   -6.699234    6.770217
  H      0.091326   -8.361940    5.855352
  H      0.844020   -7.407975    7.137847
  H      2.391328   -7.806605    5.163031
  H      1.229591   -6.958496    4.132558
  C     -2.530798    6.130882   -6.263493
  C     -0.156771    5.614065   -7.113910
  C     -1.508995    6.320748   -7.365882
  H      0.496464    6.024281   -6.309034
  H      0.361674    5.726099   -8.101679
  H     -1.846909    5.954518   -8.348583
  H     -1.301428    7.394582   -7.475899
  H     -3.406462    6.826959   -6.256413
  H     -1.942126    6.329649   -5.336894

 Total Charge           Charge          ....   -2
 Multiplicity           Mult            ....    2
 Number of Electrons    NEL             ....  321
 Basis Dimension        Dim             ....  681

ORBITAL ENERGIES
----------------
                 SPIN UP ORBITALS
  NO   OCC          E(Eh)            E(eV)
   0   1.0000    -196.676282     -5351.8337
   1   1.0000     -88.734293     -2414.5829
   2   1.0000     -88.734094     -2414.5774
   3   1.0000     -88.732624     -2414.5374
   4   1.0000     -88.732482     -2414.5336
   5   1.0000     -88.732172     -2414.5251
   6   1.0000     -88.730983     -2414.4928
   7   1.0000     -88.730664     -2414.4841
   8   1.0000     -88.722081     -2414.2506
   9   1.0000     -88.642404     -2412.0824
  10   1.0000     -88.641069     -2412.0461
  11   1.0000     -88.640957     -2412.0431
  12   1.0000     -88.640320     -2412.0257
  13   1.0000     -22.051669      -600.0564
  14   1.0000     -18.891576      -514.0659
  15   1.0000     -18.558106      -504.9917
  16   1.0000     -18.552952      -504.8515
  17   1.0000     -18.552845      -504.8486
  18   1.0000     -10.076471      -274.1947
  19   1.0000     -10.075645      -274.1722
  20   1.0000     -10.065258      -273.8896
  21   1.0000     -10.063944      -273.8539
  22   1.0000     -10.063509      -273.8420
  23   1.0000     -10.062764      -273.8217
  24   1.0000     -10.051536      -273.5162
  25   1.0000     -10.051147      -273.5056
  26   1.0000     -10.048841      -273.4429
  27   1.0000     -10.043671      -273.3022
  28   1.0000     -10.020984      -272.6848
  29   1.0000     -10.019697      -272.6498
  30   1.0000     -10.018870      -272.6273
  31   1.0000     -10.018034      -272.6046
  32   1.0000      -7.791816      -212.0261
  33   1.0000      -7.789117      -211.9527
  34   1.0000      -7.788336      -211.9314
  35   1.0000      -7.785593      -211.8568
  36   1.0000      -7.784611      -211.8300
  37   1.0000      -7.783647      -211.8038
  38   1.0000      -7.783132      -211.7898
  39   1.0000      -7.774088      -211.5437
  40   1.0000      -7.696391      -209.4294
  41   1.0000      -7.695462      -209.4042
  42   1.0000      -7.695320      -209.4003
  43   1.0000      -7.694691      -209.3832
  44   1.0000      -5.756520      -156.6429
  45   1.0000      -5.753355      -156.5567
  46   1.0000      -5.753314      -156.5556
  47   1.0000      -5.752468      -156.5326
  48   1.0000      -5.750583      -156.4813
  49   1.0000      -5.749752      -156.4587
  50   1.0000      -5.749422      -156.4497
  51   1.0000      -5.749072      -156.4402
  52   1.0000      -5.748725      -156.4308
  53   1.0000      -5.748663      -156.4291
  54   1.0000      -5.747303      -156.3921
  55   1.0000      -5.746963      -156.3828
  56   1.0000      -5.745481      -156.3425
  57   1.0000      -5.745035      -156.3303
  58   1.0000      -5.744258      -156.3092
  59   1.0000      -5.743983      -156.3017
  60   1.0000      -5.743191      -156.2802
  61   1.0000      -5.740525      -156.2076
  62   1.0000      -5.740338      -156.2025
  63   1.0000      -5.739356      -156.1758
  64   1.0000      -5.738879      -156.1628
  65   1.0000      -5.738520      -156.1531
  66   1.0000      -5.736187      -156.0896
  67   1.0000      -5.728795      -155.8884
  68   1.0000      -5.661762      -154.0644
  69   1.0000      -5.660789      -154.0379
  70   1.0000      -5.660624      -154.0334
  71   1.0000      -5.659999      -154.0164
  72   1.0000      -5.655018      -153.8809
  73   1.0000      -5.654114      -153.8563
  74   1.0000      -5.653983      -153.8527
  75   1.0000      -5.653730      -153.8458
  76   1.0000      -5.653372      -153.8361
  77   1.0000      -5.652724      -153.8184
  78   1.0000      -5.652652      -153.8165
  79   1.0000      -5.651992      -153.7985
  80   1.0000      -2.445331       -66.5408
  81   1.0000      -1.486611       -40.4527
  82   1.0000      -1.475003       -40.1369
  83   1.0000      -1.474154       -40.1138
  84   1.0000      -0.720862       -19.6157
  85   1.0000      -0.710542       -19.3348
  86   1.0000      -0.689575       -18.7643
  87   1.0000      -0.686240       -18.6735
  88   1.0000      -0.651124       -17.7180
  89   1.0000      -0.645458       -17.5638
  90   1.0000      -0.632899       -17.2221
  91   1.0000      -0.616667       -16.7804
  92   1.0000      -0.606514       -16.5041
  93   1.0000      -0.587577       -15.9888
  94   1.0000      -0.577307       -15.7093
  95   1.0000      -0.571883       -15.5617
  96   1.0000      -0.563641       -15.3375
  97   1.0000      -0.498491       -13.5646
  98   1.0000      -0.497449       -13.5363
  99   1.0000      -0.495202       -13.4751
 100   1.0000      -0.488694       -13.2980
 101   1.0000      -0.480205       -13.0670
 102   1.0000      -0.478020       -13.0076
 103   1.0000      -0.446654       -12.1541
 104   1.0000      -0.439999       -11.9730
 105   1.0000      -0.417072       -11.3491
 106   1.0000      -0.412186       -11.2162
 107   1.0000      -0.355596        -9.6763
 108   1.0000      -0.353954        -9.6316
 109   1.0000      -0.327017        -8.8986
 110   1.0000      -0.326868        -8.8945
 111   1.0000      -0.321977        -8.7614
 112   1.0000      -0.316864        -8.6223
 113   1.0000      -0.304218        -8.2782
 114   1.0000      -0.300187        -8.1685
 115   1.0000      -0.292304        -7.9540
 116   1.0000      -0.283925        -7.7260
 117   1.0000      -0.268144        -7.2966
 118   1.0000      -0.259906        -7.0724
 119   1.0000      -0.254721        -6.9313
 120   1.0000      -0.244019        -6.6401
 121   1.0000      -0.238509        -6.4901
 122   1.0000      -0.234883        -6.3915
 123   1.0000      -0.231001        -6.2859
 124   1.0000      -0.225961        -6.1487
 125   1.0000      -0.220391        -5.9971
 126   1.0000      -0.217976        -5.9314
 127   1.0000      -0.212871        -5.7925
 128   1.0000      -0.211659        -5.7595
 129   1.0000      -0.194950        -5.3048
 130   1.0000      -0.191047        -5.1986
 131   1.0000      -0.188035        -5.1167
 132   1.0000      -0.182858        -4.9758
 133   1.0000      -0.174532        -4.7493
 134   1.0000      -0.162347        -4.4177
 135   1.0000      -0.151543        -4.1237
 136   1.0000      -0.147481        -4.0132
 137   1.0000      -0.136602        -3.7171
 138   1.0000      -0.134792        -3.6679
 139   1.0000      -0.132885        -3.6160
 140   1.0000      -0.126063        -3.4303
 141   1.0000      -0.121798        -3.3143
 142   1.0000      -0.114732        -3.1220
 143   1.0000      -0.110072        -2.9952
 144   1.0000      -0.100581        -2.7370
 145   1.0000      -0.099268        -2.7012
 146   1.0000      -0.096579        -2.6281
 147   1.0000      -0.088829        -2.4172
 148   1.0000      -0.075874        -2.0646
 149   1.0000      -0.067676        -1.8416
 150   1.0000      -0.063052        -1.7157
 151   1.0000      -0.053676        -1.4606
 152   1.0000      -0.046586        -1.2677
 153   1.0000      -0.038458        -1.0465
 154   1.0000      -0.037529        -1.0212
 155   1.0000      -0.031265        -0.8508
 156   1.0000      -0.026116        -0.7106
 157   1.0000      -0.020432        -0.5560
 158   1.0000      -0.016804        -0.4573
 159   1.0000       0.019000         0.5170
 160   1.0000       0.039783         1.0825
 161   0.0000       0.128176         3.4878
 162   0.0000       0.136607         3.7173
 163   0.0000       0.142000         3.8640
 164   0.0000       0.160512         4.3677
 165   0.0000       0.165440         4.5019

                 SPIN DOWN ORBITALS
  NO   OCC          E(Eh)            E(eV)
   0   1.0000    -196.676429     -5351.8377
   1   1.0000     -88.734293     -2414.5829
   2   1.0000     -88.734094     -2414.5775
   3   1.0000     -88.732624     -2414.5375
   4   1.0000     -88.732490     -2414.5338
   5   1.0000     -88.732182     -2414.5254
   6   1.0000     -88.730991     -2414.4930
   7   1.0000     -88.730672     -2414.4843
   8   1.0000     -88.722083     -2414.2506
   9   1.0000     -88.642548     -2412.0864
  10   1.0000     -88.641207     -2412.0499
  11   1.0000     -88.641092     -2412.0467
  12   1.0000     -88.640460     -2412.0295
  13   1.0000     -22.036736      -599.6501
  14   1.0000     -18.895362      -514.1689
  15   1.0000     -18.552837      -504.8484
  16   1.0000     -18.536916      -504.4151
  17   1.0000     -18.536730      -504.4101
  18   1.0000     -10.076470      -274.1947
  19   1.0000     -10.075639      -274.1721
  20   1.0000     -10.065255      -273.8895
  21   1.0000     -10.063945      -273.8539
  22   1.0000     -10.063510      -273.8420
  23   1.0000     -10.062764      -273.8217
  24   1.0000     -10.051536      -273.5162
  25   1.0000     -10.051147      -273.5056
  26   1.0000     -10.048837      -273.4428
  27   1.0000     -10.043659      -273.3018
  28   1.0000     -10.020762      -272.6788
  29   1.0000     -10.019460      -272.6434
  30   1.0000     -10.018654      -272.6214
  31   1.0000     -10.017824      -272.5989
  32   1.0000      -7.791817      -212.0261
  33   1.0000      -7.789129      -211.9530
  34   1.0000      -7.788336      -211.9314
  35   1.0000      -7.785594      -211.8568
  36   1.0000      -7.784621      -211.8303
  37   1.0000      -7.783656      -211.8041
  38   1.0000      -7.783141      -211.7900
  39   1.0000      -7.774090      -211.5437
  40   1.0000      -7.696525      -209.4331
  41   1.0000      -7.695587      -209.4076
  42   1.0000      -7.695449      -209.4038
  43   1.0000      -7.694821      -209.3867
  44   1.0000      -5.756521      -156.6429
  45   1.0000      -5.753370      -156.5572
  46   1.0000      -5.753315      -156.5557
  47   1.0000      -5.752469      -156.5326
  48   1.0000      -5.750584      -156.4813
  49   1.0000      -5.749752      -156.4587
  50   1.0000      -5.749434      -156.4500
  51   1.0000      -5.749086      -156.4406
  52   1.0000      -5.748735      -156.4310
  53   1.0000      -5.748670      -156.4293
  54   1.0000      -5.747304      -156.3921
  55   1.0000      -5.746963      -156.3828
  56   1.0000      -5.745491      -156.3427
  57   1.0000      -5.745049      -156.3307
  58   1.0000      -5.744273      -156.3096
  59   1.0000      -5.743996      -156.3021
  60   1.0000      -5.743191      -156.2802
  61   1.0000      -5.740531      -156.2078
  62   1.0000      -5.740339      -156.2026
  63   1.0000      -5.739361      -156.1760
  64   1.0000      -5.738881      -156.1629
  65   1.0000      -5.738528      -156.1533
  66   1.0000      -5.736190      -156.0897
  67   1.0000      -5.728796      -155.8885
  68   1.0000      -5.661903      -154.0682
  69   1.0000      -5.660927      -154.0417
  70   1.0000      -5.660767      -154.0373
  71   1.0000      -5.660141      -154.0203
  72   1.0000      -5.655413      -153.8916
  73   1.0000      -5.654480      -153.8662
  74   1.0000      -5.654336      -153.8623
  75   1.0000      -5.653823      -153.8483
  76   1.0000      -5.653734      -153.8459
  77   1.0000      -5.652811      -153.8208
  78   1.0000      -5.652757      -153.8193
  79   1.0000      -5.652100      -153.8015
  80   1.0000      -2.400442       -65.3193
  81   1.0000      -1.467310       -39.9275
  82   1.0000      -1.412612       -38.4391
  83   1.0000      -1.412436       -38.4343
  84   1.0000      -0.720838       -19.6150
  85   1.0000      -0.710526       -19.3344
  86   1.0000      -0.689522       -18.7629
  87   1.0000      -0.686198       -18.6724
  88   1.0000      -0.659230       -17.9385
  89   1.0000      -0.645432       -17.5631
  90   1.0000      -0.632845       -17.2206
  91   1.0000      -0.616665       -16.7803
  92   1.0000      -0.606459       -16.5026
  93   1.0000      -0.587529       -15.9875
  94   1.0000      -0.577262       -15.7081
  95   1.0000      -0.571842       -15.5606
  96   1.0000      -0.563590       -15.3361
  97   1.0000      -0.498506       -13.5650
  98   1.0000      -0.497481       -13.5371
  99   1.0000      -0.495251       -13.4765
 100   1.0000      -0.488791       -13.3007
 101   1.0000      -0.480373       -13.0716
 102   1.0000      -0.478241       -13.0136
 103   1.0000      -0.446687       -12.1550
 104   1.0000      -0.440034       -11.9739
 105   1.0000      -0.417069       -11.3490
 106   1.0000      -0.412291       -11.2190
 107   1.0000      -0.355592        -9.6761
 108   1.0000      -0.353943        -9.6313
 109   1.0000      -0.327004        -8.8982
 110   1.0000      -0.326854        -8.8941
 111   1.0000      -0.321926        -8.7601
 112   1.0000      -0.316872        -8.6225
 113   1.0000      -0.304179        -8.2771
 114   1.0000      -0.300141        -8.1673
 115   1.0000      -0.292300        -7.9539
 116   1.0000      -0.283921        -7.7259
 117   1.0000      -0.268065        -7.2944
 118   1.0000      -0.259825        -7.0702
 119   1.0000      -0.254655        -6.9295
 120   1.0000      -0.243914        -6.6372
 121   1.0000      -0.238480        -6.4894
 122   1.0000      -0.234842        -6.3904
 123   1.0000      -0.230965        -6.2849
 124   1.0000      -0.225868        -6.1462
 125   1.0000      -0.220064        -5.9882
 126   1.0000      -0.217750        -5.9253
 127   1.0000      -0.212712        -5.7882
 128   1.0000      -0.211614        -5.7583
 129   1.0000      -0.193619        -5.2686
 130   1.0000      -0.190304        -5.1784
 131   1.0000      -0.187935        -5.1140
 132   1.0000      -0.182676        -4.9709
 133   1.0000      -0.174405        -4.7458
 134   1.0000      -0.161773        -4.4021
 135   1.0000      -0.151343        -4.1182
 136   1.0000      -0.147385        -4.0105
 137   1.0000      -0.135770        -3.6945
 138   1.0000      -0.134617        -3.6631
 139   1.0000      -0.132584        -3.6078
 140   1.0000      -0.125572        -3.4170
 141   1.0000      -0.121480        -3.3056
 142   1.0000      -0.116537        -3.1711
 143   1.0000      -0.111783        -3.0418
 144   1.0000      -0.100567        -2.7366
 145   1.0000      -0.099555        -2.7090
 146   1.0000      -0.096642        -2.6298
 147   1.0000      -0.088964        -2.4208
 148   1.0000      -0.072145        -1.9632
 149   1.0000      -0.067662        -1.8412
 150   1.0000      -0.062971        -1.7135
 151   1.0000      -0.051121        -1.3911
 152   1.0000      -0.045654        -1.2423
 153   1.0000      -0.037866        -1.0304
 154   1.0000      -0.037549        -1.0218
 155   1.0000      -0.031259        -0.8506
 156   1.0000      -0.027149        -0.7388
 157   1.0000      -0.016993        -0.4624
 158   1.0000       0.019274         0.5245
 159   1.0000       0.038705         1.0532
 160   0.0000       0.128399         3.4939
 161   0.0000       0.136597         3.7170
 162   0.0000       0.141996         3.8639
 163   0.0000       0.155457         4.2302
 164   0.0000       0.161640         4.3984

MULLIKEN ATOMIC CHARGES AND SPIN POPULATIONS
--------------------------------------------
   0 V :    0.470749    1.210828
   1 S :   -0.290475   -0.022626
   2 S :   -0.286782   -0.023881
   3 S :   -0.288436   -0.023584
   4 S :   -0.281123   -0.026512
   5 O :   -0.466736   -0.146819
   6 C :   -0.102574    0.009470
   7 C :   -0.061896    0.008130
   8 C :   -0.079100    0.007855
   9 C :   -0.089376    0.007299
  10 S :    0.150724   -0.000766
  11 S :    0.071458   -0.000575
  12 S :    0.109146   -0.000427
  13 S :    0.091635   -0.000315
  14 C :   -0.223064    0.001464
  15 C :   -0.212488    0.000991
  16 C :   -0.197886    0.000096
  17 C :   -0.190893   -0.000401
  18 S :    0.081157   -0.000060
  19 S :   -0.066465   -0.000227
  20 S :   -0.005192   -0.000078
  21 S :    0.021862   -0.000062
  22 C :   -0.299580   -0.000001
  23 C :   -0.300710   -0.000002
  24 C :   -0.158406   -0.000010
  25 H :    0.143762   -0.000001
  26 H :    0.109222   -0.000004
  27 H :    0.083691   -0.000001
  28 H :    0.092326   -0.000001
  29 H :    0.117769   -0.000005
  30 H :    0.142278   -0.000001
  31 C :   -0.299704    0.000158
  32 C :   -0.289604    0.000247
  33 C :   -0.158874   -0.000219
  34 H :    0.142535   -0.000013
  35 H :    0.083125    0.000029
  36 H :    0.090054    0.000026
  37 H :    0.082760    0.000012
  38 H :    0.128990    0.000008
  39 H :    0.136119   -0.000021
Sum of atomic charges         :   -2.0000000

LOEWDIN ATOMIC CHARGES AND SPIN POPULATIONS
-------------------------------------------
   0 V :   -0.155173    1.164194
   1 S :    0.079857   -0.014581
   2 S :    0.085179   -0.014939
   3 S :    0.082418   -0.015461
   4 S :    0.081328   -0.017043
   5 O :   -0.318338   -0.131731
   6 C :   -0.558782    0.008856
   7 C :   -0.542088    0.008039
   8 C :   -0.550837    0.008238
   9 C :   -0.553579    0.007559
  10 S :    0.549064   -0.001059
  11 S :    0.416652   -0.000884
  12 S :    0.485182   -0.000851
  13 S :    0.458058   -0.000802
  14 C :   -0.470437    0.000171
  15 C :   -0.465538   -0.000082
  16 C :   -0.627922    0.000520
  17 C :   -0.621984    0.000084
  18 S :    0.461688   -0.000027
  19 S :    0.251871   -0.000188
  20 S :    0.339398   -0.000080
  21 S :    0.378037   -0.000068
  22 C :   -0.281786   -0.000007
  23 C :   -0.285735   -0.000009
  24 C :   -0.176174   -0.000002
  25 H :    0.062613   -0.000001
  26 H :    0.052988   -0.000002
  27 H :    0.058134   -0.000002
  28 H :    0.060200   -0.000001
  29 H :    0.054594   -0.000003
  30 H :    0.062631   -0.000002
  31 C :   -0.305620    0.000017
  32 C :   -0.289556    0.000117
  33 C :   -0.178557    0.000005
  34 H :    0.065337    0.000002
  35 H :    0.052005    0.000013
  36 H :    0.058902    0.000005
  37 H :    0.058715    0.000002
  38 H :    0.060988    0.000002
  39 H :    0.066264   -0.000003

  Mayer bond orders larger than 0.100000
B(  0-V ,  1-S ) :   0.7741 B(  0-V ,  2-S ) :   0.7673 B(  0-V ,  3-S ) :   0.7662
B(  0-V ,  4-S ) :   0.7766 B(  0-V ,  5-O ) :   2.1495 B(  1-S ,  8-C ) :   1.1011
B(  2-S ,  6-C ) :   1.1159 B(  3-S ,  9-C ) :   1.1084 B(  4-S ,  7-C ) :   1.0996
B(  6-C ,  7-C ) :   1.6751 B(  6-C , 10-S ) :   0.9429 B(  7-C , 11-S ) :   0.9359
B(  8-C ,  9-C ) :   1.6984 B(  8-C , 13-S ) :   0.9329 B(  9-C , 12-S ) :   0.9361
B( 10-S , 14-C ) :   1.3791 B( 11-S , 14-C ) :   1.1378 B( 12-S , 15-C ) :   1.2711
B( 13-S , 15-C ) :   1.2228 B( 14-C , 16-C ) :   1.4425 B( 15-C , 17-C ) :   1.4537
B( 16-C , 18-S ) :   1.3166 B( 16-C , 19-S ) :   0.9123 B( 17-C , 20-S ) :   1.0528
B( 17-C , 21-S ) :   1.1263 B( 18-S , 32-C ) :   0.9456 B( 19-S , 31-C ) :   0.9973
B( 20-S , 23-C ) :   0.9938 B( 21-S , 22-C ) :   0.9863 B( 22-C , 24-C ) :   0.9156
B( 22-C , 25-H ) :   0.9609 B( 22-C , 26-H ) :   0.9681 B( 23-C , 24-C ) :   0.9113
B( 23-C , 29-H ) :   0.9629 B( 23-C , 30-H ) :   0.9702 B( 24-C , 27-H ) :   0.9626
B( 24-C , 28-H ) :   0.9718 B( 31-C , 33-C ) :   0.9013 B( 31-C , 38-H ) :   0.9510
B( 31-C , 39-H ) :   0.9864 B( 32-C , 33-C ) :   0.9250 B( 32-C , 34-H ) :   0.9379
B( 32-C , 35-H ) :   0.9758 B( 33-C , 36-H ) :   0.9707 B( 33-C , 37-H ) :   0.9655

FINAL SINGLE POINT ENERGY     -6337.650585363114

DIPOLE MOMENT
-------------
                                X             Y             Z
Electronic contribution:      7.12071       7.69789       8.78696
Nuclear contribution   :     -7.66787      -8.83570      -9.56062
                        -----------------------------------------
Total Dipole Moment    :     -0.54716      -1.13781      -0.77365
                        -----------------------------------------
Magnitude (a.u.)       :      1.48073
Magnitude (Debye)      :      3.76370

Rotational constants in cm-1:     0.010753     0.000804     0.000783
Rotational constants in MHz :   322.371430    24.115900    23.485749

                             ****ORCA TERMINATED NORMALLY****
TOTAL RUN TIME: 0 days 1 hours 1 minutes 58 seconds 345 msec
