                         Program Version 5.0.4 -  RELEASE  -
|  1> ! nofrozencore ReducedPop printbasis
|  2> ! B3LYP TZVP
|  3>
|  4> %basis
|  5> newgto V "CP(PPP)" end
|  6> end
|  7>
|  8> %pal
|  9> nprocs 6
| 10> end
| 11>
| 12> % sym SymThresh 1e-2 end
| 13> * xyz -2 2
| 14> V -0.0347678034463708 0.7337069759183832 -0.8363169151166414
| 15> S 0.7803160376204555 2.1594076831812052 1.0135236827328156
| 16> S 2.2268617638886514 -0.2720022555228624 -0.810243629806615
| 17> S -2.2565909545600755 0.908481086561756 0.2425256422261741
| 18> S -0.8216125577834327 -1.515831278892201 -1.473134655483537
| 19> O -0.07765380675099412 1.6372266552848254 -2.142504930237021
| 20> C 1.9133204627108313 -1.7052668871896586 -1.7800593698030134
| 21> C 0.6911418408213169 -2.205319843250064 -2.042569152438819
| 22> C -0.7336521704532444 2.6263745421555775 1.776342997209526
| 23> C -1.9439472582719657 2.1248063340105823 1.470290185727435
| 24> S 3.3091259815335046 -2.637184837100232 -2.421341033997182
| 25> S 0.6343800322801213 -3.7352830772566636 -2.9789203512489664
| 26> S -3.3302417058655425 2.7297178621542573 2.4388649243553346
| 27> S -0.6826282238084327 3.8337968949879113 3.1058265463588257
| 28> C 2.379513000328568 -3.946023190477074 -3.162010790235459
| 29> C -2.403262088587919 3.7867612121729537 3.510043001468137
| 30> C 2.9466508361083514 -5.004052271390543 -3.817532310661312
| 31> C -2.9596464751024674 4.499334559095154 4.535052847627637
| 32> S 4.710175872482491 -5.149662687595651 -4.029224262027363
| 33> S 1.9586011819695017 -6.298796477660414 -4.540852933124617
| 34> S -1.9825735737253014 5.550960663644771 5.591135785136905
| 35> S -4.698613885325214 4.400513452634163 4.914903061781874
| 36> C -4.548026043107092 3.7016581563564 6.6083561295155535
| 37> C -2.2703211912245647 4.665342102110099 7.181786144662453
| 38> C -3.7181547913349844 4.498174876010261 7.575256607007962
| 39> H -4.009010088275336 2.362889458553769 6.480598318143167
| 40> H -5.876179001378819 3.567032593750284 7.073445406401236
| 41> H -3.777771905718507 4.055891858377877 8.57053338946276
| 42> H -4.308137864893289 5.816561610417586 7.684989429119149
| 43> H -1.6268412220575659 5.341637395646528 8.067024363992884
| 44> H -1.685556964256016 3.475712728167354 7.092405088456629
| 45> C 2.4298205911776587 -6.049884455535788 -6.313981530696813
| 46> C 4.763394337171099 -5.070761604534105 -5.875580602925809
| 47> C 3.934635750525506 -6.146246513462936 -6.570051419768059
| 48> H 4.41493454939224 -4.0048247555987695 -6.201147590762293
| 49> H 5.889342491114335 -5.180672813424362 -6.157009992542639
| 50> H 4.3055219543626695 -7.170474446822372 -6.243858642620077
| 51> H 4.103636791814697 -6.070172425748931 -7.652714306088011
| 52> H 1.903548006579753 -6.819748752597572 -6.861828987308782
| 53> H 2.046025980744288 -5.0824271107242796 -6.631929312570756
| 54> *
| 55>
| 56> % eprnmr
| 57> gtensor true
| 58> Nuclei = all H {aiso,adip,aorb,fgrad,rho}
| 59> Nuclei = all V {aiso,adip,aorb,fgrad,rho}
| 60> end
| 61>
| 62>                          ****END OF INPUT****

CARTESIAN COORDINATES (ANGSTROEM)
---------------------------------
  V     -0.033599    0.730217   -0.835244
  S      0.781485    2.155918    1.014597
  S      2.228031   -0.275492   -0.809170
  S     -2.255422    0.904991    0.243599
  S     -0.820443   -1.519321   -1.472061
  O     -0.076485    1.633737   -2.141432
  C      1.914490   -1.708757   -1.778986
  C      0.692311   -2.208810   -2.041496
  C     -0.732483    2.622885    1.777416
  C     -1.942778    2.121317    1.471364
  S      3.310295   -2.640675   -2.420268
  S      0.635549   -3.738773   -2.977847
  S     -3.329073    2.726228    2.439938
  S     -0.681459    3.830307    3.106900
  C      2.380682   -3.949513   -3.160937
  C     -2.402093    3.783271    3.511116
  C      2.947820   -5.007542   -3.816459
  C     -2.958477    4.495845    4.536126
  S      4.711345   -5.153152   -4.028151
  S      1.959770   -6.302286   -4.539780
  S     -1.981404    5.547471    5.592209
  S     -4.697445    4.397024    4.915976
  C     -4.546857    3.698168    6.609430
  C     -2.269152    4.661852    7.182860
  C     -3.716986    4.494685    7.576330
  H     -4.007841    2.359400    6.481672
  H     -5.875010    3.563543    7.074519
  H     -3.776603    4.052402    8.571607
  H     -4.306969    5.813072    7.686063
  H     -1.625672    5.338148    8.068098
  H     -1.684388    3.472223    7.093478
  C      2.430990   -6.053374   -6.312908
  C      4.764563   -5.074251   -5.874507
  C      3.935805   -6.149736   -6.568978
  H      4.416104   -4.008315   -6.200074
  H      5.890512   -5.184163   -6.155937
  H      4.306691   -7.173964   -6.242785
  H      4.104806   -6.073662   -7.651641
  H      1.904717   -6.823239   -6.860756
  H      2.047195   -5.085917   -6.630856

 Total Charge           Charge          ....   -2
 Multiplicity           Mult            ....    2
 Number of Electrons    NEL             ....  321
 Basis Dimension        Dim             ....  681

ORBITAL ENERGIES
----------------
                 SPIN UP ORBITALS
  NO   OCC          E(Eh)            E(eV)
   0   1.0000    -196.677254     -5351.8602
   1   1.0000     -88.741987     -2414.7922
   2   1.0000     -88.740180     -2414.7431
   3   1.0000     -88.735434     -2414.6139
   4   1.0000     -88.735239     -2414.6086
   5   1.0000     -88.735151     -2414.6062
   6   1.0000     -88.734370     -2414.5850
   7   1.0000     -88.731804     -2414.5151
   8   1.0000     -88.731669     -2414.5115
   9   1.0000     -88.643024     -2412.0993
  10   1.0000     -88.642518     -2412.0856
  11   1.0000     -88.641632     -2412.0614
  12   1.0000     -88.641409     -2412.0554
  13   1.0000     -22.052634      -600.0827
  14   1.0000     -18.892527      -514.0918
  15   1.0000     -18.559077      -505.0182
  16   1.0000     -18.553911      -504.8776
  17   1.0000     -18.553815      -504.8750
  18   1.0000     -10.118846      -275.3478
  19   1.0000     -10.104475      -274.9567
  20   1.0000     -10.086013      -274.4544
  21   1.0000     -10.081382      -274.3283
  22   1.0000     -10.078391      -274.2469
  23   1.0000     -10.077353      -274.2187
  24   1.0000     -10.063360      -273.8379
  25   1.0000     -10.056879      -273.6616
  26   1.0000     -10.053585      -273.5720
  27   1.0000     -10.049679      -273.4657
  28   1.0000     -10.022227      -272.7187
  29   1.0000     -10.021432      -272.6970
  30   1.0000     -10.019949      -272.6567
  31   1.0000     -10.018999      -272.6308
  32   1.0000      -7.794984      -212.1123
  33   1.0000      -7.793369      -212.0683
  34   1.0000      -7.788610      -211.9388
  35   1.0000      -7.788527      -211.9366
  36   1.0000      -7.788441      -211.9343
  37   1.0000      -7.787832      -211.9177
  38   1.0000      -7.785051      -211.8420
  39   1.0000      -7.784949      -211.8392
  40   1.0000      -7.697282      -209.4537
  41   1.0000      -7.696859      -209.4422
  42   1.0000      -7.695946      -209.4173
  43   1.0000      -7.695669      -209.4098
  44   1.0000      -5.760103      -156.7404
  45   1.0000      -5.758459      -156.6956
  46   1.0000      -5.756540      -156.6434
  47   1.0000      -5.754936      -156.5998
  48   1.0000      -5.753541      -156.5618
  49   1.0000      -5.753540      -156.5618
  50   1.0000      -5.753381      -156.5574
  51   1.0000      -5.752826      -156.5424
  52   1.0000      -5.750109      -156.4684
  53   1.0000      -5.749996      -156.4654
  54   1.0000      -5.749893      -156.4625
  55   1.0000      -5.749709      -156.4575
  56   1.0000      -5.749404      -156.4492
  57   1.0000      -5.749093      -156.4408
  58   1.0000      -5.748922      -156.4361
  59   1.0000      -5.748090      -156.4135
  60   1.0000      -5.745566      -156.3448
  61   1.0000      -5.745454      -156.3417
  62   1.0000      -5.744491      -156.3155
  63   1.0000      -5.744317      -156.3108
  64   1.0000      -5.743299      -156.2831
  65   1.0000      -5.742622      -156.2647
  66   1.0000      -5.740874      -156.2171
  67   1.0000      -5.740780      -156.2146
  68   1.0000      -5.662629      -154.0880
  69   1.0000      -5.662171      -154.0755
  70   1.0000      -5.661239      -154.0501
  71   1.0000      -5.660999      -154.0436
  72   1.0000      -5.655926      -153.9056
  73   1.0000      -5.655504      -153.8941
  74   1.0000      -5.654607      -153.8697
  75   1.0000      -5.654602      -153.8695
  76   1.0000      -5.654330      -153.8621
  77   1.0000      -5.654170      -153.8578
  78   1.0000      -5.653273      -153.8334
  79   1.0000      -5.652960      -153.8249
  80   1.0000      -2.446277       -66.5666
  81   1.0000      -1.487570       -40.4788
  82   1.0000      -1.475922       -40.1619
  83   1.0000      -1.475115       -40.1399
  84   1.0000      -0.713239       -19.4082
  85   1.0000      -0.710554       -19.3351
  86   1.0000      -0.686223       -18.6731
  87   1.0000      -0.686158       -18.6713
  88   1.0000      -0.652051       -17.7432
  89   1.0000      -0.632962       -17.2238
  90   1.0000      -0.632213       -17.2034
  91   1.0000      -0.616170       -16.7668
  92   1.0000      -0.610245       -16.6056
  93   1.0000      -0.578221       -15.7342
  94   1.0000      -0.577286       -15.7087
  95   1.0000      -0.575909       -15.6713
  96   1.0000      -0.574465       -15.6320
  97   1.0000      -0.498284       -13.5590
  98   1.0000      -0.496843       -13.5198
  99   1.0000      -0.494055       -13.4439
 100   1.0000      -0.488998       -13.3063
 101   1.0000      -0.479300       -13.0424
 102   1.0000      -0.470185       -12.7944
 103   1.0000      -0.442007       -12.0276
 104   1.0000      -0.428149       -11.6505
 105   1.0000      -0.413566       -11.2537
 106   1.0000      -0.398008       -10.8303
 107   1.0000      -0.353529        -9.6200
 108   1.0000      -0.337466        -9.1829
 109   1.0000      -0.326877        -8.8948
 110   1.0000      -0.322519        -8.7762
 111   1.0000      -0.321001        -8.7349
 112   1.0000      -0.316745        -8.6191
 113   1.0000      -0.304575        -8.2879
 114   1.0000      -0.293652        -7.9907
 115   1.0000      -0.287472        -7.8225
 116   1.0000      -0.269229        -7.3261
 117   1.0000      -0.259167        -7.0523
 118   1.0000      -0.256871        -6.9898
 119   1.0000      -0.250110        -6.8058
 120   1.0000      -0.247076        -6.7233
 121   1.0000      -0.234359        -6.3772
 122   1.0000      -0.233685        -6.3589
 123   1.0000      -0.229524        -6.2457
 124   1.0000      -0.220075        -5.9885
 125   1.0000      -0.217974        -5.9314
 126   1.0000      -0.214731        -5.8431
 127   1.0000      -0.212464        -5.7814
 128   1.0000      -0.197974        -5.3871
 129   1.0000      -0.195909        -5.3309
 130   1.0000      -0.187244        -5.0952
 131   1.0000      -0.186511        -5.0752
 132   1.0000      -0.180870        -4.9217
 133   1.0000      -0.170655        -4.6438
 134   1.0000      -0.161941        -4.4066
 135   1.0000      -0.152367        -4.1461
 136   1.0000      -0.147735        -4.0201
 137   1.0000      -0.139202        -3.7879
 138   1.0000      -0.137339        -3.7372
 139   1.0000      -0.135635        -3.6908
 140   1.0000      -0.127617        -3.4726
 141   1.0000      -0.123629        -3.3641
 142   1.0000      -0.115782        -3.1506
 143   1.0000      -0.112136        -3.0514
 144   1.0000      -0.103207        -2.8084
 145   1.0000      -0.101035        -2.7493
 146   1.0000      -0.100201        -2.7266
 147   1.0000      -0.096729        -2.6321
 148   1.0000      -0.077007        -2.0955
 149   1.0000      -0.071224        -1.9381
 150   1.0000      -0.068697        -1.8693
 151   1.0000      -0.054667        -1.4876
 152   1.0000      -0.048039        -1.3072
 153   1.0000      -0.041227        -1.1218
 154   1.0000      -0.039566        -1.0766
 155   1.0000      -0.034005        -0.9253
 156   1.0000      -0.027584        -0.7506
 157   1.0000      -0.021508        -0.5853
 158   1.0000      -0.017711        -0.4819
 159   1.0000       0.017652         0.4803
 160   1.0000       0.038641         1.0515
 161   0.0000       0.115051         3.1307
 162   0.0000       0.129865         3.5338
 163   0.0000       0.134522         3.6605
 164   0.0000       0.147767         4.0209
 165   0.0000       0.157003         4.2723

                 SPIN DOWN ORBITALS
  NO   OCC          E(Eh)            E(eV)
   0   1.0000    -196.677401     -5351.8642
   1   1.0000     -88.741988     -2414.7923
   2   1.0000     -88.740180     -2414.7431
   3   1.0000     -88.735442     -2414.6141
   4   1.0000     -88.735247     -2414.6088
   5   1.0000     -88.735152     -2414.6062
   6   1.0000     -88.734371     -2414.5850
   7   1.0000     -88.731813     -2414.5154
   8   1.0000     -88.731678     -2414.5117
   9   1.0000     -88.643159     -2412.1030
  10   1.0000     -88.642656     -2412.0893
  11   1.0000     -88.641773     -2412.0653
  12   1.0000     -88.641551     -2412.0592
  13   1.0000     -22.037707      -599.6765
  14   1.0000     -18.896312      -514.1948
  15   1.0000     -18.553811      -504.8749
  16   1.0000     -18.537884      -504.4415
  17   1.0000     -18.537701      -504.4365
  18   1.0000     -10.118846      -275.3478
  19   1.0000     -10.104475      -274.9567
  20   1.0000     -10.086013      -274.4544
  21   1.0000     -10.081381      -274.3283
  22   1.0000     -10.078390      -274.2469
  23   1.0000     -10.077348      -274.2186
  24   1.0000     -10.063359      -273.8379
  25   1.0000     -10.056879      -273.6616
  26   1.0000     -10.053581      -273.5718
  27   1.0000     -10.049668      -273.4654
  28   1.0000     -10.022013      -272.7128
  29   1.0000     -10.021219      -272.6912
  30   1.0000     -10.019710      -272.6502
  31   1.0000     -10.018776      -272.6248
  32   1.0000      -7.794985      -212.1123
  33   1.0000      -7.793369      -212.0684
  34   1.0000      -7.788619      -211.9391
  35   1.0000      -7.788528      -211.9366
  36   1.0000      -7.788451      -211.9345
  37   1.0000      -7.787833      -211.9177
  38   1.0000      -7.785060      -211.8423
  39   1.0000      -7.784959      -211.8395
  40   1.0000      -7.697408      -209.4571
  41   1.0000      -7.696987      -209.4457
  42   1.0000      -7.696077      -209.4209
  43   1.0000      -7.695801      -209.4134
  44   1.0000      -5.760104      -156.7404
  45   1.0000      -5.758460      -156.6957
  46   1.0000      -5.756541      -156.6434
  47   1.0000      -5.754937      -156.5998
  48   1.0000      -5.753551      -156.5621
  49   1.0000      -5.753541      -156.5618
  50   1.0000      -5.753391      -156.5577
  51   1.0000      -5.752827      -156.5424
  52   1.0000      -5.750111      -156.4685
  53   1.0000      -5.750007      -156.4656
  54   1.0000      -5.749903      -156.4628
  55   1.0000      -5.749710      -156.4576
  56   1.0000      -5.749405      -156.4493
  57   1.0000      -5.749108      -156.4412
  58   1.0000      -5.748936      -156.4365
  59   1.0000      -5.748091      -156.4135
  60   1.0000      -5.745580      -156.3452
  61   1.0000      -5.745467      -156.3421
  62   1.0000      -5.744497      -156.3157
  63   1.0000      -5.744323      -156.3110
  64   1.0000      -5.743300      -156.2831
  65   1.0000      -5.742623      -156.2647
  66   1.0000      -5.740882      -156.2173
  67   1.0000      -5.740789      -156.2148
  68   1.0000      -5.662770      -154.0918
  69   1.0000      -5.662312      -154.0793
  70   1.0000      -5.661378      -154.0539
  71   1.0000      -5.661141      -154.0475
  72   1.0000      -5.656273      -153.9150
  73   1.0000      -5.655861      -153.9038
  74   1.0000      -5.654992      -153.8801
  75   1.0000      -5.654715      -153.8726
  76   1.0000      -5.654710      -153.8725
  77   1.0000      -5.654275      -153.8606
  78   1.0000      -5.653360      -153.8357
  79   1.0000      -5.653055      -153.8274
  80   1.0000      -2.401405       -65.3456
  81   1.0000      -1.468280       -39.9539
  82   1.0000      -1.413567       -38.4651
  83   1.0000      -1.413401       -38.4606
  84   1.0000      -0.713221       -19.4077
  85   1.0000      -0.710526       -19.3344
  86   1.0000      -0.686178       -18.6719
  87   1.0000      -0.686105       -18.6699
  88   1.0000      -0.660172       -17.9642
  89   1.0000      -0.632907       -17.2223
  90   1.0000      -0.632137       -17.2013
  91   1.0000      -0.616169       -16.7668
  92   1.0000      -0.610247       -16.6057
  93   1.0000      -0.578196       -15.7335
  94   1.0000      -0.577220       -15.7070
  95   1.0000      -0.575880       -15.6705
  96   1.0000      -0.574383       -15.6298
  97   1.0000      -0.498302       -13.5595
  98   1.0000      -0.496883       -13.5209
  99   1.0000      -0.494118       -13.4456
 100   1.0000      -0.489190       -13.3115
 101   1.0000      -0.479509       -13.0481
 102   1.0000      -0.470244       -12.7960
 103   1.0000      -0.442038       -12.0285
 104   1.0000      -0.428214       -11.6523
 105   1.0000      -0.413628       -11.2554
 106   1.0000      -0.398012       -10.8305
 107   1.0000      -0.353518        -9.6197
 108   1.0000      -0.337454        -9.1826
 109   1.0000      -0.326863        -8.8944
 110   1.0000      -0.322467        -8.7748
 111   1.0000      -0.320970        -8.7340
 112   1.0000      -0.316765        -8.6196
 113   1.0000      -0.304531        -8.2867
 114   1.0000      -0.293605        -7.9894
 115   1.0000      -0.287468        -7.8224
 116   1.0000      -0.269185        -7.3249
 117   1.0000      -0.259099        -7.0505
 118   1.0000      -0.256760        -6.9868
 119   1.0000      -0.250038        -6.8039
 120   1.0000      -0.247027        -6.7220
 121   1.0000      -0.234300        -6.3756
 122   1.0000      -0.233664        -6.3583
 123   1.0000      -0.229488        -6.2447
 124   1.0000      -0.219502        -5.9729
 125   1.0000      -0.217893        -5.9292
 126   1.0000      -0.214702        -5.8423
 127   1.0000      -0.212389        -5.7794
 128   1.0000      -0.197920        -5.3857
 129   1.0000      -0.194059        -5.2806
 130   1.0000      -0.186992        -5.0883
 131   1.0000      -0.186276        -5.0688
 132   1.0000      -0.180751        -4.9185
 133   1.0000      -0.170622        -4.6429
 134   1.0000      -0.161331        -4.3900
 135   1.0000      -0.152200        -4.1416
 136   1.0000      -0.147666        -4.0182
 137   1.0000      -0.138731        -3.7751
 138   1.0000      -0.136868        -3.7244
 139   1.0000      -0.135424        -3.6851
 140   1.0000      -0.126967        -3.4550
 141   1.0000      -0.123292        -3.3549
 142   1.0000      -0.117568        -3.1992
 143   1.0000      -0.113708        -3.0941
 144   1.0000      -0.103305        -2.8111
 145   1.0000      -0.101066        -2.7501
 146   1.0000      -0.100436        -2.7330
 147   1.0000      -0.097022        -2.6401
 148   1.0000      -0.073159        -1.9908
 149   1.0000      -0.071216        -1.9379
 150   1.0000      -0.068700        -1.8694
 151   1.0000      -0.052062        -1.4167
 152   1.0000      -0.047098        -1.2816
 153   1.0000      -0.041261        -1.1228
 154   1.0000      -0.039020        -1.0618
 155   1.0000      -0.034088        -0.9276
 156   1.0000      -0.028611        -0.7785
 157   1.0000      -0.017935        -0.4880
 158   1.0000       0.017967         0.4889
 159   1.0000       0.037517         1.0209
 160   0.0000       0.115053         3.1307
 161   0.0000       0.129866         3.5338
 162   0.0000       0.134527         3.6607
 163   0.0000       0.147555         4.0152
 164   0.0000       0.153865         4.1869

MULLIKEN ATOMIC CHARGES AND SPIN POPULATIONS
--------------------------------------------
   0 V :    0.470285    1.210479
   1 S :   -0.287005   -0.022135
   2 S :   -0.288645   -0.025390
   3 S :   -0.284673   -0.023081
   4 S :   -0.284487   -0.025876
   5 O :   -0.466397   -0.146793
   6 C :   -0.077266    0.009730
   7 C :   -0.084199    0.008086
   8 C :   -0.084598    0.007724
   9 C :   -0.085411    0.007358
  10 S :    0.100540   -0.000589
  11 S :    0.102018   -0.000631
  12 S :    0.106917   -0.000390
  13 S :    0.105936   -0.000344
  14 C :   -0.214200    0.001534
  15 C :   -0.215239    0.001003
  16 C :   -0.191266   -0.000084
  17 C :   -0.191024   -0.000407
  18 S :    0.017661   -0.000115
  19 S :    0.009671   -0.000115
  20 S :    0.037676   -0.000072
  21 S :    0.051323   -0.000074
  22 C :   -0.249777    0.000003
  23 C :   -0.266151    0.000002
  24 C :   -0.121651   -0.000020
  25 H :    0.083591   -0.000003
  26 H :    0.052835    0.000004
  27 H :    0.115634    0.000002
  28 H :    0.029456   -0.000003
  29 H :    0.082248   -0.000001
  30 H :    0.107879   -0.000002
  31 C :   -0.300479    0.000200
  32 C :   -0.289893    0.000194
  33 C :   -0.152583   -0.000248
  34 H :    0.129362   -0.000016
  35 H :    0.100550    0.000026
  36 H :    0.084751    0.000024
  37 H :    0.087074    0.000016
  38 H :    0.116740    0.000020
  39 H :    0.142801   -0.000018
Sum of atomic charges         :   -2.0000000

LOEWDIN ATOMIC CHARGES AND SPIN POPULATIONS
-------------------------------------------
   0 V :   -0.155571    1.163884
   1 S :    0.082290   -0.014233
   2 S :    0.080183   -0.016223
   3 S :    0.083889   -0.015027
   4 S :    0.084064   -0.016458
   5 O :   -0.318069   -0.131709
   6 C :   -0.549602    0.009073
   7 C :   -0.551898    0.007965
   8 C :   -0.551086    0.008144
   9 C :   -0.550753    0.007679
  10 S :    0.472140   -0.000901
  11 S :    0.473089   -0.000952
  12 S :    0.478555   -0.000823
  13 S :    0.477545   -0.000831
  14 C :   -0.464707    0.000163
  15 C :   -0.462276   -0.000077
  16 C :   -0.622845    0.000478
  17 C :   -0.625555    0.000084
  18 S :    0.361033   -0.000090
  19 S :    0.360725   -0.000088
  20 S :    0.370952   -0.000076
  21 S :    0.377942   -0.000077
  22 C :   -0.336726   -0.000005
  23 C :   -0.331442   -0.000008
  24 C :   -0.211249   -0.000001
  25 H :    0.077501   -0.000002
  26 H :    0.066533    0.000002
  27 H :    0.062923   -0.000000
  28 H :    0.065235   -0.000002
  29 H :    0.071473   -0.000001
  30 H :    0.084293   -0.000002
  31 C :   -0.283454    0.000043
  32 C :   -0.302353    0.000037
  33 C :   -0.184306    0.000006
  34 H :    0.071544   -0.000001
  35 H :    0.062107    0.000012
  36 H :    0.065633    0.000005
  37 H :    0.058145    0.000002
  38 H :    0.052294    0.000008
  39 H :    0.061803   -0.000000

  Mayer bond orders larger than 0.100000
B(  0-V ,  1-S ) :   0.7685 B(  0-V ,  2-S ) :   0.7736 B(  0-V ,  3-S ) :   0.7621
B(  0-V ,  4-S ) :   0.7809 B(  0-V ,  5-O ) :   2.1498 B(  1-S ,  8-C ) :   1.1079
B(  2-S ,  6-C ) :   1.1041 B(  3-S ,  9-C ) :   1.1111 B(  4-S ,  7-C ) :   1.1042
B(  6-C ,  7-C ) :   1.6839 B(  6-C , 10-S ) :   0.9354 B(  7-C , 11-S ) :   0.9394
B(  8-C ,  9-C ) :   1.6891 B(  8-C , 13-S ) :   0.9363 B(  9-C , 12-S ) :   0.9386
B( 10-S , 14-C ) :   1.2484 B( 11-S , 14-C ) :   1.2487 B( 12-S , 15-C ) :   1.2522
B( 13-S , 15-C ) :   1.2528 B( 14-C , 16-C ) :   1.4518 B( 15-C , 17-C ) :   1.4451
B( 16-C , 18-S ) :   1.0865 B( 16-C , 19-S ) :   1.0884 B( 17-C , 20-S ) :   1.0792
B( 17-C , 21-S ) :   1.0778 B( 18-S , 32-C ) :   0.9937 B( 19-S , 31-C ) :   0.9902
B( 20-S , 23-C ) :   0.9889 B( 21-S , 22-C ) :   0.9897 B( 22-C , 24-C ) :   0.9493
B( 22-C , 25-H ) :   0.9025 B( 22-C , 26-H ) :   0.9244 B( 23-C , 24-C ) :   0.9356
B( 23-C , 29-H ) :   0.9412 B( 23-C , 30-H ) :   0.9226 B( 24-C , 27-H ) :   0.9555
B( 24-C , 28-H ) :   0.9048 B( 31-C , 33-C ) :   0.9133 B( 31-C , 38-H ) :   0.9655
B( 31-C , 39-H ) :   0.9650 B( 32-C , 33-C ) :   0.9190 B( 32-C , 34-H ) :   0.9571
B( 32-C , 35-H ) :   0.9598 B( 33-C , 36-H ) :   0.9663 B( 33-C , 37-H ) :   0.9617

FINAL SINGLE POINT ENERGY     -6337.550728625919

DIPOLE MOMENT
-------------
                                X             Y             Z
Electronic contribution:     -1.11913      11.21551      -8.32735
Nuclear contribution   :      1.46562     -12.49773       8.70910
                        -----------------------------------------
Total Dipole Moment    :      0.34649      -1.28222       0.38175
                        -----------------------------------------
Magnitude (a.u.)       :      1.38198
Magnitude (Debye)      :      3.51271

Rotational constants in cm-1:     0.010749     0.000804     0.000783
Rotational constants in MHz :   322.239805    24.112634    23.483784

                             ****ORCA TERMINATED NORMALLY****
TOTAL RUN TIME: 0 days 1 hours 6 minutes 14 seconds 275 msec
