                         Program Version 5.0.4 -  RELEASE  -
|  1> ! nofrozencore ReducedPop printbasis
|  2> ! B3LYP TZVP
|  3>
|  4> %basis
|  5> newgto V "CP(PPP)" end
|  6> end
|  7>
|  8> %pal
|  9> nprocs 6
| 10> end
| 11>
| 12> % sym SymThresh 1e-2 end
| 13> * xyz -2 2
| 14> V -0.04274658565239872 -0.16325143729052002 1.106722127343012
| 15> S 0.8665586628421917 -2.3307658766458705 0.35405223406492053
| 16> S 2.182923628887198 0.7192000681574664 0.5199102642208966
| 17> S -2.229248738609115 -0.9642759527212794 0.2785925187601755
| 18> S -0.9070874255945495 2.0164164779526046 0.37840266015379226
| 19> O -0.08831213041690772 -0.1789718271622644 2.696460555718446
| 20> C 1.8072416883595979 2.4338085792044146 0.6341469981937466
| 21> C 0.566203474855844 2.9538645335696505 0.5743416123018765
| 22> C -0.5999423933394255 -3.152623001718466 -0.16857425997705655
| 23> C -1.8303513149897923 -2.607921942118052 -0.20135100408576395
| 24> S 3.15838635413673 3.6111652163574592 0.731099381164342
| 25> S 0.4436944375154249 4.741260299924526 0.5863386675902125
| 26> S -3.1607156677496895 -3.668634012964314 -0.7721735190208127
| 27> S -0.47056015327539663 -4.863452762654638 -0.6938943486240594
| 28> C 2.178654705537989 5.075468021455335 0.5917637162774053
| 29> C -2.1946243654081066 -5.135729283583778 -0.9751052141892803
| 30> C 2.701436116763801 6.33787283015298 0.5164036864418855
| 31> C -2.7247603684028583 -6.355198675437721 -1.3272655435992236
| 32> S 4.451166936016595 6.6441599041400226 0.63520525329352
| 33> S 1.655988533237045 7.775249449822633 0.4106130531367177
| 34> S -1.6902921093838816 -7.76576449126017 -1.6509631994887901
| 35> S -4.447236559437426 -6.544753851333764 -1.7303484897034542
| 36> C -4.240379075850653 -6.729730049484179 -3.5668924894690375
| 37> C -1.878407354729744 -7.7782963317002265 -3.498845765449802
| 38> C -3.3331202401784727 -7.899483211612113 -3.9671128254696737
| 39> H -3.853003508241857 -5.782210744041158 -3.9553154978175837
| 40> H -5.2461341474566 -6.879925526266057 -3.969657919233288
| 41> H -3.3319877938627 -7.9695956557443335 -5.067195258875075
| 42> H -3.7599028812962363 -8.835077843311304 -3.5822692198034174
| 43> H -1.2976059769171717 -8.634478784257011 -3.8546574696781324
| 44> H -1.4165097813087788 -6.864716214433092 -3.8871835875750653
| 45> C 2.06108391922461 8.516435004035236 2.0582664906933363
| 46> C 4.441816155762498 7.5479114538318 2.2524578250819687
| 47> C 3.5533691194435235 8.79486774705646 2.254808430844231
| 48> H 4.129177037283079 6.845933007915554 3.0289788811496234
| 49> H 5.482322364526361 7.824846309327248 2.4406573766769983
| 50> H 3.89802285910451 9.485145978448745 1.4779920195766576
| 51> H 3.6807640747306665 9.301952267373977 3.221800352929281
| 52> H 1.4920314250458693 9.448221789185384 2.1099666185414336
| 53> H 1.684899510262195 7.842950288863525 2.8318616426802636
| 54> *
| 55>
| 56> % eprnmr
| 57> gtensor true
| 58> Nuclei = all H {aiso,adip,aorb,fgrad,rho}
| 59> Nuclei = all V {aiso,adip,aorb,fgrad,rho}
| 60> end
| 61>
| 62>                          ****END OF INPUT****

CARTESIAN COORDINATES (ANGSTROEM)
---------------------------------
  V     -0.041628   -0.160850    1.103951
  S      0.867677   -2.328365    0.351281
  S      2.184042    0.721601    0.517139
  S     -2.228130   -0.961875    0.275821
  S     -0.905969    2.018817    0.375631
  O     -0.087194   -0.176571    2.693689
  C      1.808360    2.436210    0.631375
  C      0.567322    2.956266    0.571570
  C     -0.598824   -3.150222   -0.171346
  C     -1.829233   -2.605521   -0.204123
  S      3.159505    3.613566    0.728328
  S      0.444813    4.743661    0.583567
  S     -3.159597   -3.666233   -0.774945
  S     -0.469442   -4.861052   -0.696666
  C      2.179773    5.077869    0.588992
  C     -2.193506   -5.133328   -0.977877
  C      2.702554    6.340274    0.513632
  C     -2.723642   -6.352798   -1.330037
  S      4.452285    6.646561    0.632434
  S      1.657107    7.777650    0.407841
  S     -1.689174   -7.763364   -1.653735
  S     -4.446118   -6.542353   -1.733120
  C     -4.239261   -6.727329   -3.569664
  C     -1.877289   -7.775895   -3.501617
  C     -3.332002   -7.897082   -3.969884
  H     -3.851885   -5.779810   -3.958087
  H     -5.245016   -6.877525   -3.972430
  H     -3.330869   -7.967195   -5.069967
  H     -3.758785   -8.832677   -3.585041
  H     -1.296488   -8.632078   -3.857429
  H     -1.415391   -6.862315   -3.889955
  C      2.062202    8.518836    2.055495
  C      4.442935    7.550312    2.249686
  C      3.554487    8.797269    2.252037
  H      4.130295    6.848334    3.026207
  H      5.483441    7.827247    2.437886
  H      3.899141    9.487547    1.475220
  H      3.681882    9.304353    3.219029
  H      1.493150    9.450623    2.107195
  H      1.686018    7.845351    2.829090

 Total Charge           Charge          ....   -2
 Multiplicity           Mult            ....    2
 Number of Electrons    NEL             ....  321
 Basis Dimension        Dim             ....  681

ORBITAL ENERGIES
----------------
                 SPIN UP ORBITALS
  NO   OCC          E(Eh)            E(eV)
   0   1.0000    -196.672830     -5351.7398
   1   1.0000     -88.732508     -2414.5343
   2   1.0000     -88.732338     -2414.5297
   3   1.0000     -88.731457     -2414.5057
   4   1.0000     -88.731428     -2414.5049
   5   1.0000     -88.730997     -2414.4932
   6   1.0000     -88.730920     -2414.4911
   7   1.0000     -88.729983     -2414.4656
   8   1.0000     -88.729724     -2414.4585
   9   1.0000     -88.639712     -2412.0092
  10   1.0000     -88.639472     -2412.0027
  11   1.0000     -88.639390     -2412.0004
  12   1.0000     -88.639269     -2411.9971
  13   1.0000     -22.048238      -599.9630
  14   1.0000     -18.888580      -513.9844
  15   1.0000     -18.554784      -504.9013
  16   1.0000     -18.549455      -504.7563
  17   1.0000     -18.549376      -504.7542
  18   1.0000     -10.077199      -274.2145
  19   1.0000     -10.075438      -274.1666
  20   1.0000     -10.062790      -273.8224
  21   1.0000     -10.062641      -273.8184
  22   1.0000     -10.061707      -273.7930
  23   1.0000     -10.061684      -273.7923
  24   1.0000     -10.050695      -273.4933
  25   1.0000     -10.050303      -273.4826
  26   1.0000     -10.047349      -273.4023
  27   1.0000     -10.046911      -273.3903
  28   1.0000     -10.018237      -272.6101
  29   1.0000     -10.017706      -272.5956
  30   1.0000     -10.017446      -272.5886
  31   1.0000     -10.016684      -272.5678
  32   1.0000      -7.785970      -211.8670
  33   1.0000      -7.785849      -211.8637
  34   1.0000      -7.784888      -211.8376
  35   1.0000      -7.784873      -211.8372
  36   1.0000      -7.784219      -211.8194
  37   1.0000      -7.784152      -211.8175
  38   1.0000      -7.783278      -211.7938
  39   1.0000      -7.783072      -211.7882
  40   1.0000      -7.694024      -209.3650
  41   1.0000      -7.693866      -209.3607
  42   1.0000      -7.693655      -209.3550
  43   1.0000      -7.693642      -209.3547
  44   1.0000      -5.750967      -156.4918
  45   1.0000      -5.750835      -156.4882
  46   1.0000      -5.749903      -156.4628
  47   1.0000      -5.749891      -156.4625
  48   1.0000      -5.749140      -156.4420
  49   1.0000      -5.749069      -156.4401
  50   1.0000      -5.748207      -156.4167
  51   1.0000      -5.748000      -156.4110
  52   1.0000      -5.747553      -156.3989
  53   1.0000      -5.747426      -156.3954
  54   1.0000      -5.746470      -156.3694
  55   1.0000      -5.746452      -156.3689
  56   1.0000      -5.744732      -156.3221
  57   1.0000      -5.744665      -156.3203
  58   1.0000      -5.743786      -156.2964
  59   1.0000      -5.743576      -156.2906
  60   1.0000      -5.740758      -156.2140
  61   1.0000      -5.740633      -156.2106
  62   1.0000      -5.740076      -156.1954
  63   1.0000      -5.740018      -156.1938
  64   1.0000      -5.739667      -156.1843
  65   1.0000      -5.739650      -156.1838
  66   1.0000      -5.739118      -156.1693
  67   1.0000      -5.738904      -156.1635
  68   1.0000      -5.659351      -153.9988
  69   1.0000      -5.659151      -153.9933
  70   1.0000      -5.658984      -153.9888
  71   1.0000      -5.658960      -153.9881
  72   1.0000      -5.652674      -153.8171
  73   1.0000      -5.652471      -153.8116
  74   1.0000      -5.652297      -153.8068
  75   1.0000      -5.652286      -153.8065
  76   1.0000      -5.651348      -153.7810
  77   1.0000      -5.651218      -153.7775
  78   1.0000      -5.650989      -153.7712
  79   1.0000      -5.650953      -153.7703
  80   1.0000      -2.441983       -66.4497
  81   1.0000      -1.483311       -40.3629
  82   1.0000      -1.471588       -40.0439
  83   1.0000      -1.470908       -40.0254
  84   1.0000      -0.709489       -19.3062
  85   1.0000      -0.708543       -19.2804
  86   1.0000      -0.685210       -18.6455
  87   1.0000      -0.683770       -18.6063
  88   1.0000      -0.648410       -17.6441
  89   1.0000      -0.630846       -17.1662
  90   1.0000      -0.629352       -17.1255
  91   1.0000      -0.616682       -16.7808
  92   1.0000      -0.614376       -16.7180
  93   1.0000      -0.574994       -15.6464
  94   1.0000      -0.574568       -15.6348
  95   1.0000      -0.573052       -15.5935
  96   1.0000      -0.571830       -15.5603
  97   1.0000      -0.495713       -13.4890
  98   1.0000      -0.495560       -13.4849
  99   1.0000      -0.494202       -13.4479
 100   1.0000      -0.492703       -13.4071
 101   1.0000      -0.479727       -13.0540
 102   1.0000      -0.476854       -12.9758
 103   1.0000      -0.446647       -12.1539
 104   1.0000      -0.443999       -12.0818
 105   1.0000      -0.416150       -11.3240
 106   1.0000      -0.410699       -11.1757
 107   1.0000      -0.354455        -9.6452
 108   1.0000      -0.352428        -9.5901
 109   1.0000      -0.325978        -8.8703
 110   1.0000      -0.324258        -8.8235
 111   1.0000      -0.318930        -8.6785
 112   1.0000      -0.313887        -8.5413
 113   1.0000      -0.303815        -8.2672
 114   1.0000      -0.302801        -8.2396
 115   1.0000      -0.291740        -7.9386
 116   1.0000      -0.289590        -7.8801
 117   1.0000      -0.258024        -7.0212
 118   1.0000      -0.256754        -6.9866
 119   1.0000      -0.255659        -6.9568
 120   1.0000      -0.254073        -6.9137
 121   1.0000      -0.233587        -6.3562
 122   1.0000      -0.231762        -6.3066
 123   1.0000      -0.230204        -6.2642
 124   1.0000      -0.227880        -6.2009
 125   1.0000      -0.218820        -5.9544
 126   1.0000      -0.216203        -5.8832
 127   1.0000      -0.214917        -5.8482
 128   1.0000      -0.213250        -5.8028
 129   1.0000      -0.193810        -5.2739
 130   1.0000      -0.185946        -5.0598
 131   1.0000      -0.184932        -5.0323
 132   1.0000      -0.184474        -5.0198
 133   1.0000      -0.179300        -4.8790
 134   1.0000      -0.158546        -4.3143
 135   1.0000      -0.151631        -4.1261
 136   1.0000      -0.146965        -3.9991
 137   1.0000      -0.134669        -3.6645
 138   1.0000      -0.133725        -3.6388
 139   1.0000      -0.131579        -3.5804
 140   1.0000      -0.123189        -3.3521
 141   1.0000      -0.121184        -3.2976
 142   1.0000      -0.112015        -3.0481
 143   1.0000      -0.107838        -2.9344
 144   1.0000      -0.099519        -2.7081
 145   1.0000      -0.097747        -2.6598
 146   1.0000      -0.096034        -2.6132
 147   1.0000      -0.093698        -2.5496
 148   1.0000      -0.074305        -2.0219
 149   1.0000      -0.066798        -1.8177
 150   1.0000      -0.065083        -1.7710
 151   1.0000      -0.052652        -1.4327
 152   1.0000      -0.045498        -1.2381
 153   1.0000      -0.038141        -1.0379
 154   1.0000      -0.037730        -1.0267
 155   1.0000      -0.032790        -0.8923
 156   1.0000      -0.024972        -0.6795
 157   1.0000      -0.017415        -0.4739
 158   1.0000      -0.014752        -0.4014
 159   1.0000       0.020298         0.5523
 160   1.0000       0.041344         1.1250
 161   0.0000       0.136083         3.7030
 162   0.0000       0.136515         3.7148
 163   0.0000       0.162643         4.4257
 164   0.0000       0.163717         4.4550
 165   0.0000       0.171434         4.6649

                 SPIN DOWN ORBITALS
  NO   OCC          E(Eh)            E(eV)
   0   1.0000    -196.672976     -5351.7438
   1   1.0000     -88.732509     -2414.5343
   2   1.0000     -88.732338     -2414.5297
   3   1.0000     -88.731458     -2414.5057
   4   1.0000     -88.731429     -2414.5049
   5   1.0000     -88.731004     -2414.4934
   6   1.0000     -88.730927     -2414.4913
   7   1.0000     -88.729991     -2414.4658
   8   1.0000     -88.729732     -2414.4588
   9   1.0000     -88.639831     -2412.0124
  10   1.0000     -88.639599     -2412.0061
  11   1.0000     -88.639520     -2412.0040
  12   1.0000     -88.639392     -2412.0005
  13   1.0000     -22.033385      -599.5589
  14   1.0000     -18.892291      -514.0854
  15   1.0000     -18.549567      -504.7594
  16   1.0000     -18.533446      -504.3207
  17   1.0000     -18.533379      -504.3189
  18   1.0000     -10.077201      -274.2146
  19   1.0000     -10.075428      -274.1663
  20   1.0000     -10.062789      -273.8224
  21   1.0000     -10.062640      -273.8184
  22   1.0000     -10.061708      -273.7930
  23   1.0000     -10.061685      -273.7924
  24   1.0000     -10.050695      -273.4933
  25   1.0000     -10.050303      -273.4826
  26   1.0000     -10.047337      -273.4019
  27   1.0000     -10.046909      -273.3903
  28   1.0000     -10.018031      -272.6045
  29   1.0000     -10.017457      -272.5889
  30   1.0000     -10.017241      -272.5830
  31   1.0000     -10.016455      -272.5616
  32   1.0000      -7.785971      -211.8670
  33   1.0000      -7.785850      -211.8637
  34   1.0000      -7.784888      -211.8376
  35   1.0000      -7.784874      -211.8372
  36   1.0000      -7.784228      -211.8196
  37   1.0000      -7.784160      -211.8178
  38   1.0000      -7.783287      -211.7940
  39   1.0000      -7.783082      -211.7884
  40   1.0000      -7.694135      -209.3681
  41   1.0000      -7.693985      -209.3640
  42   1.0000      -7.693776      -209.3583
  43   1.0000      -7.693757      -209.3578
  44   1.0000      -5.750968      -156.4918
  45   1.0000      -5.750836      -156.4882
  46   1.0000      -5.749904      -156.4628
  47   1.0000      -5.749892      -156.4625
  48   1.0000      -5.749150      -156.4423
  49   1.0000      -5.749079      -156.4404
  50   1.0000      -5.748217      -156.4169
  51   1.0000      -5.748010      -156.4113
  52   1.0000      -5.747554      -156.3989
  53   1.0000      -5.747428      -156.3955
  54   1.0000      -5.746470      -156.3694
  55   1.0000      -5.746452      -156.3689
  56   1.0000      -5.744746      -156.3225
  57   1.0000      -5.744679      -156.3206
  58   1.0000      -5.743799      -156.2967
  59   1.0000      -5.743589      -156.2910
  60   1.0000      -5.740758      -156.2140
  61   1.0000      -5.740634      -156.2106
  62   1.0000      -5.740081      -156.1955
  63   1.0000      -5.740022      -156.1939
  64   1.0000      -5.739668      -156.1843
  65   1.0000      -5.739651      -156.1838
  66   1.0000      -5.739126      -156.1696
  67   1.0000      -5.738913      -156.1638
  68   1.0000      -5.659482      -154.0023
  69   1.0000      -5.659279      -153.9968
  70   1.0000      -5.659116      -153.9924
  71   1.0000      -5.659091      -153.9917
  72   1.0000      -5.653003      -153.8260
  73   1.0000      -5.652860      -153.8221
  74   1.0000      -5.652673      -153.8170
  75   1.0000      -5.652638      -153.8161
  76   1.0000      -5.651410      -153.7827
  77   1.0000      -5.651257      -153.7785
  78   1.0000      -5.651038      -153.7726
  79   1.0000      -5.651017      -153.7720
  80   1.0000      -2.397366       -65.2356
  81   1.0000      -1.464206       -39.8431
  82   1.0000      -1.409689       -38.3596
  83   1.0000      -1.409378       -38.3511
  84   1.0000      -0.709456       -19.3053
  85   1.0000      -0.708527       -19.2800
  86   1.0000      -0.685144       -18.6437
  87   1.0000      -0.683727       -18.6052
  88   1.0000      -0.656362       -17.8605
  89   1.0000      -0.630763       -17.1639
  90   1.0000      -0.629297       -17.1240
  91   1.0000      -0.616682       -16.7808
  92   1.0000      -0.614379       -16.7181
  93   1.0000      -0.574965       -15.6456
  94   1.0000      -0.574530       -15.6338
  95   1.0000      -0.572953       -15.5908
  96   1.0000      -0.571751       -15.5581
  97   1.0000      -0.495713       -13.4890
  98   1.0000      -0.495596       -13.4858
  99   1.0000      -0.494240       -13.4490
 100   1.0000      -0.492722       -13.4076
 101   1.0000      -0.479875       -13.0581
 102   1.0000      -0.477059       -12.9814
 103   1.0000      -0.446652       -12.1540
 104   1.0000      -0.444032       -12.0827
 105   1.0000      -0.416117       -11.3231
 106   1.0000      -0.410765       -11.1775
 107   1.0000      -0.354442        -9.6449
 108   1.0000      -0.352424        -9.5899
 109   1.0000      -0.325960        -8.8698
 110   1.0000      -0.324249        -8.8233
 111   1.0000      -0.318835        -8.6759
 112   1.0000      -0.313897        -8.5416
 113   1.0000      -0.303761        -8.2658
 114   1.0000      -0.302777        -8.2390
 115   1.0000      -0.291733        -7.9384
 116   1.0000      -0.289584        -7.8800
 117   1.0000      -0.257856        -7.0166
 118   1.0000      -0.256685        -6.9848
 119   1.0000      -0.255630        -6.9560
 120   1.0000      -0.254033        -6.9126
 121   1.0000      -0.233562        -6.3556
 122   1.0000      -0.231746        -6.3061
 123   1.0000      -0.230160        -6.2630
 124   1.0000      -0.227848        -6.2001
 125   1.0000      -0.218136        -5.9358
 126   1.0000      -0.216122        -5.8810
 127   1.0000      -0.214853        -5.8464
 128   1.0000      -0.213228        -5.8022
 129   1.0000      -0.192179        -5.2295
 130   1.0000      -0.185847        -5.0572
 131   1.0000      -0.184723        -5.0266
 132   1.0000      -0.184029        -5.0077
 133   1.0000      -0.179188        -4.8759
 134   1.0000      -0.157902        -4.2967
 135   1.0000      -0.151478        -4.1219
 136   1.0000      -0.146898        -3.9973
 137   1.0000      -0.134011        -3.6466
 138   1.0000      -0.133506        -3.6329
 139   1.0000      -0.131130        -3.5682
 140   1.0000      -0.122688        -3.3385
 141   1.0000      -0.120874        -3.2892
 142   1.0000      -0.113615        -3.0916
 143   1.0000      -0.109280        -2.9737
 144   1.0000      -0.099489        -2.7072
 145   1.0000      -0.098117        -2.6699
 146   1.0000      -0.096037        -2.6133
 147   1.0000      -0.093958        -2.5567
 148   1.0000      -0.070681        -1.9233
 149   1.0000      -0.066796        -1.8176
 150   1.0000      -0.065081        -1.7710
 151   1.0000      -0.050075        -1.3626
 152   1.0000      -0.044565        -1.2127
 153   1.0000      -0.037727        -1.0266
 154   1.0000      -0.037528        -1.0212
 155   1.0000      -0.032375        -0.8810
 156   1.0000      -0.025847        -0.7033
 157   1.0000      -0.014765        -0.4018
 158   1.0000       0.020758         0.5648
 159   1.0000       0.039215         1.0671
 160   0.0000       0.136009         3.7010
 161   0.0000       0.136555         3.7159
 162   0.0000       0.157864         4.2957
 163   0.0000       0.163114         4.4386
 164   0.0000       0.164746         4.4830

MULLIKEN ATOMIC CHARGES AND SPIN POPULATIONS
--------------------------------------------
   0 V :    0.467077    1.201376
   1 S :   -0.289662   -0.019722
   2 S :   -0.284223   -0.024819
   3 S :   -0.287764   -0.020716
   4 S :   -0.279948   -0.025008
   5 O :   -0.473521   -0.143983
   6 C :   -0.076492    0.010363
   7 C :   -0.082784    0.008496
   8 C :   -0.085809    0.007210
   9 C :   -0.084728    0.006843
  10 S :    0.100764   -0.000647
  11 S :    0.102576   -0.000691
  12 S :    0.104469   -0.000297
  13 S :    0.104412   -0.000242
  14 C :   -0.219587    0.001916
  15 C :   -0.224409    0.000718
  16 C :   -0.186986   -0.000098
  17 C :   -0.176611   -0.000522
  18 S :    0.007487   -0.000117
  19 S :    0.007797   -0.000116
  20 S :    0.002387   -0.000068
  21 S :    0.002296   -0.000070
  22 C :   -0.298228   -0.000017
  23 C :   -0.297504   -0.000017
  24 C :   -0.169448   -0.000005
  25 H :    0.146641    0.000001
  26 H :    0.112652   -0.000009
  27 H :    0.082264    0.000001
  28 H :    0.091662   -0.000006
  29 H :    0.112506   -0.000010
  30 H :    0.146300    0.000000
  31 C :   -0.298539    0.000263
  32 C :   -0.298957    0.000259
  33 C :   -0.163033   -0.000335
  34 H :    0.143042   -0.000023
  35 H :    0.113037    0.000028
  36 H :    0.092310    0.000026
  37 H :    0.082307    0.000031
  38 H :    0.113086    0.000029
  39 H :    0.143161   -0.000024
Sum of atomic charges         :   -2.0000000

LOEWDIN ATOMIC CHARGES AND SPIN POPULATIONS
-------------------------------------------
   0 V :   -0.163928    1.154836
   1 S :    0.081227   -0.012168
   2 S :    0.083500   -0.015151
   3 S :    0.082334   -0.013025
   4 S :    0.088064   -0.015147
   5 O :   -0.322910   -0.129177
   6 C :   -0.550136    0.009450
   7 C :   -0.552809    0.008130
   8 C :   -0.552696    0.007877
   9 C :   -0.552651    0.007443
  10 S :    0.472256   -0.000875
  11 S :    0.473631   -0.000950
  12 S :    0.474108   -0.000742
  13 S :    0.474266   -0.000742
  14 C :   -0.463833    0.000349
  15 C :   -0.462132   -0.000233
  16 C :   -0.624626    0.000476
  17 C :   -0.628825   -0.000071
  18 S :    0.358179   -0.000090
  19 S :    0.359930   -0.000087
  20 S :    0.355118   -0.000077
  21 S :    0.355009   -0.000078
  22 C :   -0.282600   -0.000028
  23 C :   -0.282624   -0.000029
  24 C :   -0.176312    0.000001
  25 H :    0.063865   -0.000002
  26 H :    0.053102   -0.000005
  27 H :    0.058517   -0.000003
  28 H :    0.060316   -0.000003
  29 H :    0.053171   -0.000005
  30 H :    0.063815   -0.000002
  31 C :   -0.283898    0.000047
  32 C :   -0.283534    0.000039
  33 C :   -0.176378    0.000011
  34 H :    0.062410   -0.000001
  35 H :    0.053311    0.000011
  36 H :    0.060181    0.000006
  37 H :    0.057832    0.000004
  38 H :    0.053425    0.000012
  39 H :    0.062325   -0.000001

  Mayer bond orders larger than 0.100000
B(  0-V ,  1-S ) :   0.7698 B(  0-V ,  2-S ) :   0.7789 B(  0-V ,  3-S ) :   0.7631
B(  0-V ,  4-S ) :   0.7872 B(  0-V ,  5-O ) :   2.1414 B(  1-S ,  8-C ) :   1.1020
B(  2-S ,  6-C ) :   1.1020 B(  3-S ,  9-C ) :   1.1044 B(  4-S ,  7-C ) :   1.1006
B(  6-C ,  7-C ) :   1.6775 B(  6-C , 10-S ) :   0.9362 B(  7-C , 11-S ) :   0.9414
B(  8-C ,  9-C ) :   1.7005 B(  8-C , 13-S ) :   0.9365 B(  9-C , 12-S ) :   0.9368
B( 10-S , 14-C ) :   1.2496 B( 11-S , 14-C ) :   1.2496 B( 12-S , 15-C ) :   1.2478
B( 13-S , 15-C ) :   1.2485 B( 14-C , 16-C ) :   1.4458 B( 15-C , 17-C ) :   1.4339
B( 16-C , 18-S ) :   1.0859 B( 16-C , 19-S ) :   1.0884 B( 17-C , 20-S ) :   1.0849
B( 17-C , 21-S ) :   1.0849 B( 18-S , 32-C ) :   0.9935 B( 19-S , 31-C ) :   0.9931
B( 20-S , 23-C ) :   0.9919 B( 21-S , 22-C ) :   0.9920 B( 22-C , 24-C ) :   0.9164
B( 22-C , 25-H ) :   0.9681 B( 22-C , 26-H ) :   0.9647 B( 23-C , 24-C ) :   0.9166
B( 23-C , 29-H ) :   0.9648 B( 23-C , 30-H ) :   0.9681 B( 24-C , 27-H ) :   0.9614
B( 24-C , 28-H ) :   0.9703 B( 31-C , 33-C ) :   0.9151 B( 31-C , 38-H ) :   0.9652
B( 31-C , 39-H ) :   0.9669 B( 32-C , 33-C ) :   0.9149 B( 32-C , 34-H ) :   0.9666
B( 32-C , 35-H ) :   0.9651 B( 33-C , 36-H ) :   0.9712 B( 33-C , 37-H ) :   0.9621

FINAL SINGLE POINT ENERGY     -6337.705477856668

DIPOLE MOMENT
-------------
                                X             Y             Z
Electronic contribution:     -1.39293      -5.51268      12.29489
Nuclear contribution   :      1.57930       6.21104     -13.70291
                        -----------------------------------------
Total Dipole Moment    :      0.18637       0.69836      -1.40801
                        -----------------------------------------
Magnitude (a.u.)       :      1.58270
Magnitude (Debye)      :      4.02291

Rotational constants in cm-1:     0.010842     0.000815     0.000793
Rotational constants in MHz :   325.044723    24.434224    23.775259

                             ****ORCA TERMINATED NORMALLY****
TOTAL RUN TIME: 0 days 1 hours 6 minutes 41 seconds 155 msec
