                         Program Version 5.0.4 -  RELEASE  -
|  1> ! nofrozencore ReducedPop printbasis
|  2> ! B3LYP TZVP
|  3>
|  4> %basis
|  5> newgto V "CP(PPP)" end
|  6> end
|  7>
|  8> %pal
|  9> nprocs 6
| 10> end
| 11>
| 12> % sym SymThresh 1e-2 end
| 13> * xyz -2 2
| 14> V -0.2504003692423221 -1.0752276593699832 0.16245690827433584
| 15> S -2.3872607370735976 -0.0005670601652661805 0.8491051905032683
| 16> S -0.8734772753205993 -0.5566967695867757 -2.101450388561945
| 17> S 0.5804273097758019 -0.23568346187574007 2.398743742619184
| 18> S 2.0899385117324973 -0.6709873444167478 -0.49018146853477984
| 19> O -0.4167287457021104 -2.6712278163266308 -0.0033304914658330324
| 20> C 0.6929519164946341 -0.804909537083828 -2.8718452942729895
| 21> C 1.8813757361377264 -0.856763262771423 -2.23707433413521
| 22> C -2.0750184191173133 0.46792354977002487 2.5063353700733075
| 23> C -0.8893010120797705 0.37177164721168443 3.1321928517802675
| 24> S 0.751122742352837 -0.8013080538243782 -4.674233152222356
| 25> S 3.334316947912111 -0.9361082990786423 -3.308213538949406
| 26> S -0.8608636205899737 0.8107461980470003 4.87039512643595
| 27> S -3.4690517483799828 1.0329983245523613 3.477389283486219
| 28> C 2.5119812277031053 -0.9347326637655616 -4.888381494541412
| 29> C -2.5446786854415704 1.3097143755974712 4.944269581850355
| 30> C 3.175262511204137 -1.0349497325624495 -6.09619844089048
| 31> C -3.070988573269104 1.8866425594238574 6.050643931384344
| 32> S 2.4131315074359323 -1.047325126715551 -7.723085000366837
| 33> S 4.958896271324722 -1.1338948044769204 -6.238573810255915
| 34> S -4.76964527817176 2.4034466612372976 6.046667949360797
| 35> S -1.99847579882423 2.1857345436519857 7.437216439366901
| 36> C -2.1941079350253894 4.020864999344229 7.515733032047383
| 37> C -4.458566443452301 4.2019341956630045 6.313735384711731
| 38> C -3.657512199498764 4.468474499403768 7.593314207577212
| 39> H -1.699706381185484 4.46190719770016 6.644393866083259
| 40> H -1.6528013712334084 4.335117614870931 8.411556471298859
| 41> H -3.672786675996433 5.5543254200217 7.795642894962148
| 42> H -4.150672386800475 3.9692476319704983 8.441218321365621
| 43> H -5.4442740122528335 4.672636776202239 6.371329624528287
| 44> H -3.938364870029392 4.598814776513405 5.4363002586253755
| 45> C 5.146908612594226 -2.810506158571753 -7.021387858371208
| 46> C 2.868797894503853 -2.784158082797346 -8.21439567379521
| 47> C 4.377740564882336 -3.0179275744571137 -8.332288830747531
| 48> H 2.4179278988854347 -3.461444786072868 -7.482677039018684
| 49> H 2.382061859839962 -2.952207006903789 -9.179511553411922
| 50> H 4.787701229831062 -2.357837507352829 -9.1113837261358
| 51> H 4.544089082326302 -4.0582910371653025 -8.664007809209759
| 52> H 6.2244922006559396 -2.911421601033378 -7.192518689835961
| 53> H 4.85006494972415 -3.560703683723005 -6.28070018593713
| 54> *
| 55>
| 56> % eprnmr
| 57> gtensor true
| 58> Nuclei = all H {aiso,adip,aorb,fgrad,rho}
| 59> Nuclei = all V {aiso,adip,aorb,fgrad,rho}
| 60> end
| 61>
| 62>                          ****END OF INPUT****

CARTESIAN COORDINATES (ANGSTROEM)
---------------------------------
  V     -0.248906   -1.072651    0.160043
  S     -2.385767    0.002010    0.846692
  S     -0.871983   -0.554120   -2.103864
  S      0.581921   -0.233107    2.396330
  S      2.091433   -0.668410   -0.492595
  O     -0.415235   -2.668651   -0.005744
  C      0.694446   -0.802333   -2.874259
  C      1.882870   -0.854186   -2.239488
  C     -2.073524    0.470500    2.503922
  C     -0.887807    0.374349    3.129779
  S      0.752617   -0.798731   -4.676647
  S      3.335811   -0.933531   -3.310627
  S     -0.859370    0.813323    4.867981
  S     -3.467558    1.035575    3.474976
  C      2.513475   -0.932156   -4.890795
  C     -2.543185    1.312291    4.941856
  C      3.176757   -1.032373   -6.098612
  C     -3.069494    1.889219    6.048230
  S      2.414626   -1.044748   -7.725499
  S      4.960390   -1.131318   -6.240987
  S     -4.768151    2.406024    6.044254
  S     -1.996982    2.188311    7.434803
  C     -2.192614    4.023442    7.513319
  C     -4.457072    4.204511    6.311322
  C     -3.656018    4.471051    7.590901
  H     -1.698212    4.464484    6.641980
  H     -1.651307    4.337695    8.409143
  H     -3.671293    5.556902    7.793229
  H     -4.149178    3.971825    8.438805
  H     -5.442780    4.675214    6.368916
  H     -3.936871    4.601392    5.433887
  C      5.148403   -2.807929   -7.023801
  C      2.870292   -2.781581   -8.216809
  C      4.379235   -3.015351   -8.334702
  H      2.419422   -3.458868   -7.485091
  H      2.383556   -2.949630   -9.181925
  H      4.789195   -2.355261   -9.113797
  H      4.545583   -4.055714   -8.666421
  H      6.225986   -2.908845   -7.194932
  H      4.851559   -3.558127   -6.283114

 Total Charge           Charge          ....   -2
 Multiplicity           Mult            ....    2
 Number of Electrons    NEL             ....  321
 Basis Dimension        Dim             ....  681

ORBITAL ENERGIES
----------------
                 SPIN UP ORBITALS
  NO   OCC          E(Eh)            E(eV)
   0   1.0000    -196.676190     -5351.8312
   1   1.0000     -88.735517     -2414.6162
   2   1.0000     -88.734565     -2414.5903
   3   1.0000     -88.732796     -2414.5421
   4   1.0000     -88.731820     -2414.5156
   5   1.0000     -88.731178     -2414.4981
   6   1.0000     -88.730993     -2414.4931
   7   1.0000     -88.728026     -2414.4123
   8   1.0000     -88.727555     -2414.3995
   9   1.0000     -88.642409     -2412.0826
  10   1.0000     -88.641238     -2412.0507
  11   1.0000     -88.638394     -2411.9733
  12   1.0000     -88.636752     -2411.9286
  13   1.0000     -22.051321      -600.0470
  14   1.0000     -18.886291      -513.9221
  15   1.0000     -18.557819      -504.9839
  16   1.0000     -18.552571      -504.8411
  17   1.0000     -18.552519      -504.8397
  18   1.0000     -10.081430      -274.3297
  19   1.0000     -10.069668      -274.0096
  20   1.0000     -10.064682      -273.8739
  21   1.0000     -10.064652      -273.8731
  22   1.0000     -10.063612      -273.8448
  23   1.0000     -10.063124      -273.8315
  24   1.0000     -10.053068      -273.5579
  25   1.0000     -10.052699      -273.5478
  26   1.0000     -10.052360      -273.5386
  27   1.0000     -10.045596      -273.3546
  28   1.0000     -10.021455      -272.6977
  29   1.0000     -10.020519      -272.6722
  30   1.0000     -10.014550      -272.5098
  31   1.0000     -10.013746      -272.4879
  32   1.0000      -7.789169      -211.9541
  33   1.0000      -7.788216      -211.9281
  34   1.0000      -7.785787      -211.8620
  35   1.0000      -7.784669      -211.8316
  36   1.0000      -7.784346      -211.8228
  37   1.0000      -7.783755      -211.8067
  38   1.0000      -7.781719      -211.7513
  39   1.0000      -7.781199      -211.7372
  40   1.0000      -7.696283      -209.4265
  41   1.0000      -7.695832      -209.4142
  42   1.0000      -7.692839      -209.3328
  43   1.0000      -7.691028      -209.2835
  44   1.0000      -5.754139      -156.5781
  45   1.0000      -5.753222      -156.5531
  46   1.0000      -5.750797      -156.4871
  47   1.0000      -5.750713      -156.4849
  48   1.0000      -5.749717      -156.4577
  49   1.0000      -5.749689      -156.4570
  50   1.0000      -5.749403      -156.4492
  51   1.0000      -5.748762      -156.4318
  52   1.0000      -5.747498      -156.3974
  53   1.0000      -5.746604      -156.3730
  54   1.0000      -5.746087      -156.3590
  55   1.0000      -5.745932      -156.3548
  56   1.0000      -5.745146      -156.3334
  57   1.0000      -5.744275      -156.3097
  58   1.0000      -5.743981      -156.3017
  59   1.0000      -5.743019      -156.2755
  60   1.0000      -5.742273      -156.2552
  61   1.0000      -5.741765      -156.2414
  62   1.0000      -5.740539      -156.2080
  63   1.0000      -5.740509      -156.2072
  64   1.0000      -5.739599      -156.1824
  65   1.0000      -5.739091      -156.1686
  66   1.0000      -5.737479      -156.1247
  67   1.0000      -5.736941      -156.1101
  68   1.0000      -5.661732      -154.0636
  69   1.0000      -5.661219      -154.0496
  70   1.0000      -5.658011      -153.9623
  71   1.0000      -5.656239      -153.9141
  72   1.0000      -5.654909      -153.8779
  73   1.0000      -5.654488      -153.8664
  74   1.0000      -5.653553      -153.8410
  75   1.0000      -5.652986      -153.8256
  76   1.0000      -5.651479      -153.7846
  77   1.0000      -5.650341      -153.7536
  78   1.0000      -5.649678      -153.7356
  79   1.0000      -5.648488      -153.7032
  80   1.0000      -2.444052       -66.5060
  81   1.0000      -1.482934       -40.3527
  82   1.0000      -1.474076       -40.1117
  83   1.0000      -1.473386       -40.0929
  84   1.0000      -0.714152       -19.4331
  85   1.0000      -0.703829       -19.1522
  86   1.0000      -0.686457       -18.6794
  87   1.0000      -0.682923       -18.5833
  88   1.0000      -0.645116       -17.5545
  89   1.0000      -0.632228       -17.2038
  90   1.0000      -0.628809       -17.1108
  91   1.0000      -0.621542       -16.9130
  92   1.0000      -0.611801       -16.6480
  93   1.0000      -0.576480       -15.6868
  94   1.0000      -0.574315       -15.6279
  95   1.0000      -0.570839       -15.5333
  96   1.0000      -0.570543       -15.5253
  97   1.0000      -0.499114       -13.5816
  98   1.0000      -0.496608       -13.5134
  99   1.0000      -0.494970       -13.4688
 100   1.0000      -0.491688       -13.3795
 101   1.0000      -0.479428       -13.0459
 102   1.0000      -0.476715       -12.9721
 103   1.0000      -0.446863       -12.1597
 104   1.0000      -0.444633       -12.0991
 105   1.0000      -0.416579       -11.3357
 106   1.0000      -0.410781       -11.1779
 107   1.0000      -0.354722        -9.6525
 108   1.0000      -0.354507        -9.6466
 109   1.0000      -0.327210        -8.9038
 110   1.0000      -0.324594        -8.8326
 111   1.0000      -0.318954        -8.6792
 112   1.0000      -0.313476        -8.5301
 113   1.0000      -0.305297        -8.3075
 114   1.0000      -0.301291        -8.1985
 115   1.0000      -0.292878        -7.9696
 116   1.0000      -0.289991        -7.8911
 117   1.0000      -0.257778        -7.0145
 118   1.0000      -0.257667        -7.0115
 119   1.0000      -0.255524        -6.9532
 120   1.0000      -0.254555        -6.9268
 121   1.0000      -0.236029        -6.4227
 122   1.0000      -0.233558        -6.3554
 123   1.0000      -0.233049        -6.3416
 124   1.0000      -0.226567        -6.1652
 125   1.0000      -0.221612        -6.0304
 126   1.0000      -0.217930        -5.9302
 127   1.0000      -0.211326        -5.7505
 128   1.0000      -0.210482        -5.7275
 129   1.0000      -0.193215        -5.2576
 130   1.0000      -0.187760        -5.1092
 131   1.0000      -0.185515        -5.0481
 132   1.0000      -0.184981        -5.0336
 133   1.0000      -0.178578        -4.8594
 134   1.0000      -0.159209        -4.3323
 135   1.0000      -0.151814        -4.1311
 136   1.0000      -0.145985        -3.9725
 137   1.0000      -0.135143        -3.6774
 138   1.0000      -0.134630        -3.6635
 139   1.0000      -0.132271        -3.5993
 140   1.0000      -0.120581        -3.2812
 141   1.0000      -0.120262        -3.2725
 142   1.0000      -0.108695        -2.9577
 143   1.0000      -0.105447        -2.8694
 144   1.0000      -0.099942        -2.7195
 145   1.0000      -0.095946        -2.6108
 146   1.0000      -0.094643        -2.5754
 147   1.0000      -0.093739        -2.5508
 148   1.0000      -0.073228        -1.9926
 149   1.0000      -0.071930        -1.9573
 150   1.0000      -0.060803        -1.6545
 151   1.0000      -0.053487        -1.4555
 152   1.0000      -0.044320        -1.2060
 153   1.0000      -0.037159        -1.0112
 154   1.0000      -0.034801        -0.9470
 155   1.0000      -0.031854        -0.8668
 156   1.0000      -0.024116        -0.6562
 157   1.0000      -0.017901        -0.4871
 158   1.0000      -0.015189        -0.4133
 159   1.0000       0.020068         0.5461
 160   1.0000       0.042308         1.1513
 161   0.0000       0.135998         3.7007
 162   0.0000       0.138499         3.7688
 163   0.0000       0.159855         4.3499
 164   0.0000       0.162788         4.4297
 165   0.0000       0.166925         4.5423

                 SPIN DOWN ORBITALS
  NO   OCC          E(Eh)            E(eV)
   0   1.0000    -196.676332     -5351.8351
   1   1.0000     -88.735517     -2414.6162
   2   1.0000     -88.734565     -2414.5903
   3   1.0000     -88.732797     -2414.5422
   4   1.0000     -88.731828     -2414.5158
   5   1.0000     -88.731179     -2414.4981
   6   1.0000     -88.731003     -2414.4934
   7   1.0000     -88.728033     -2414.4125
   8   1.0000     -88.727563     -2414.3997
   9   1.0000     -88.642528     -2412.0858
  10   1.0000     -88.641376     -2412.0545
  11   1.0000     -88.638516     -2411.9766
  12   1.0000     -88.636877     -2411.9320
  13   1.0000     -22.036250      -599.6368
  14   1.0000     -18.890335      -514.0321
  15   1.0000     -18.552374      -504.8358
  16   1.0000     -18.536489      -504.4035
  17   1.0000     -18.536275      -504.3977
  18   1.0000     -10.081419      -274.3294
  19   1.0000     -10.069667      -274.0096
  20   1.0000     -10.064682      -273.8739
  21   1.0000     -10.064652      -273.8731
  22   1.0000     -10.063610      -273.8447
  23   1.0000     -10.063122      -273.8315
  24   1.0000     -10.053067      -273.5579
  25   1.0000     -10.052699      -273.5478
  26   1.0000     -10.052344      -273.5382
  27   1.0000     -10.045590      -273.3544
  28   1.0000     -10.021168      -272.6899
  29   1.0000     -10.020300      -272.6662
  30   1.0000     -10.014381      -272.5052
  31   1.0000     -10.013576      -272.4833
  32   1.0000      -7.789170      -211.9541
  33   1.0000      -7.788216      -211.9281
  34   1.0000      -7.785788      -211.8621
  35   1.0000      -7.784678      -211.8319
  36   1.0000      -7.784347      -211.8229
  37   1.0000      -7.783767      -211.8071
  38   1.0000      -7.781727      -211.7516
  39   1.0000      -7.781207      -211.7374
  40   1.0000      -7.696394      -209.4295
  41   1.0000      -7.695960      -209.4177
  42   1.0000      -7.692953      -209.3359
  43   1.0000      -7.691145      -209.2867
  44   1.0000      -5.754140      -156.5781
  45   1.0000      -5.753223      -156.5532
  46   1.0000      -5.750799      -156.4872
  47   1.0000      -5.750714      -156.4849
  48   1.0000      -5.749717      -156.4578
  49   1.0000      -5.749699      -156.4573
  50   1.0000      -5.749405      -156.4493
  51   1.0000      -5.748775      -156.4321
  52   1.0000      -5.747500      -156.3974
  53   1.0000      -5.746613      -156.3733
  54   1.0000      -5.746097      -156.3593
  55   1.0000      -5.745934      -156.3548
  56   1.0000      -5.745159      -156.3337
  57   1.0000      -5.744291      -156.3101
  58   1.0000      -5.743981      -156.3017
  59   1.0000      -5.743020      -156.2755
  60   1.0000      -5.742285      -156.2555
  61   1.0000      -5.741777      -156.2417
  62   1.0000      -5.740548      -156.2083
  63   1.0000      -5.740510      -156.2072
  64   1.0000      -5.739612      -156.1828
  65   1.0000      -5.739092      -156.1686
  66   1.0000      -5.737484      -156.1249
  67   1.0000      -5.736948      -156.1103
  68   1.0000      -5.661854      -154.0669
  69   1.0000      -5.661372      -154.0538
  70   1.0000      -5.658140      -153.9658
  71   1.0000      -5.656361      -153.9174
  72   1.0000      -5.655299      -153.8885
  73   1.0000      -5.654879      -153.8771
  74   1.0000      -5.653562      -153.8412
  75   1.0000      -5.653045      -153.8272
  76   1.0000      -5.651828      -153.7941
  77   1.0000      -5.650395      -153.7551
  78   1.0000      -5.650026      -153.7450
  79   1.0000      -5.648565      -153.7053
  80   1.0000      -2.398742       -65.2731
  81   1.0000      -1.462892       -39.8073
  82   1.0000      -1.411510       -38.4091
  83   1.0000      -1.411346       -38.4047
  84   1.0000      -0.714142       -19.4328
  85   1.0000      -0.703793       -19.1512
  86   1.0000      -0.686428       -18.6786
  87   1.0000      -0.682854       -18.5814
  88   1.0000      -0.654093       -17.7988
  89   1.0000      -0.632190       -17.2028
  90   1.0000      -0.628736       -17.1088
  91   1.0000      -0.621544       -16.9131
  92   1.0000      -0.611799       -16.6479
  93   1.0000      -0.576474       -15.6867
  94   1.0000      -0.574206       -15.6249
  95   1.0000      -0.570791       -15.5320
  96   1.0000      -0.570508       -15.5243
  97   1.0000      -0.499152       -13.5826
  98   1.0000      -0.496611       -13.5135
  99   1.0000      -0.494992       -13.4694
 100   1.0000      -0.491731       -13.3807
 101   1.0000      -0.479579       -13.0500
 102   1.0000      -0.476937       -12.9781
 103   1.0000      -0.446870       -12.1599
 104   1.0000      -0.444671       -12.1001
 105   1.0000      -0.416560       -11.3352
 106   1.0000      -0.410882       -11.1807
 107   1.0000      -0.354720        -9.6524
 108   1.0000      -0.354493        -9.6462
 109   1.0000      -0.327202        -8.9036
 110   1.0000      -0.324570        -8.8320
 111   1.0000      -0.318897        -8.6776
 112   1.0000      -0.313454        -8.5295
 113   1.0000      -0.305245        -8.3061
 114   1.0000      -0.301267        -8.1979
 115   1.0000      -0.292876        -7.9695
 116   1.0000      -0.289982        -7.8908
 117   1.0000      -0.257714        -7.0128
 118   1.0000      -0.257505        -7.0071
 119   1.0000      -0.255488        -6.9522
 120   1.0000      -0.254511        -6.9256
 121   1.0000      -0.235973        -6.4212
 122   1.0000      -0.233519        -6.3544
 123   1.0000      -0.233025        -6.3409
 124   1.0000      -0.226522        -6.1640
 125   1.0000      -0.221496        -6.0272
 126   1.0000      -0.217488        -5.9181
 127   1.0000      -0.211159        -5.7459
 128   1.0000      -0.210368        -5.7244
 129   1.0000      -0.191625        -5.2144
 130   1.0000      -0.187641        -5.1060
 131   1.0000      -0.185360        -5.0439
 132   1.0000      -0.184584        -5.0228
 133   1.0000      -0.178411        -4.8548
 134   1.0000      -0.158610        -4.3160
 135   1.0000      -0.151660        -4.1269
 136   1.0000      -0.145893        -3.9699
 137   1.0000      -0.134837        -3.6691
 138   1.0000      -0.134304        -3.6546
 139   1.0000      -0.132038        -3.5929
 140   1.0000      -0.120174        -3.2701
 141   1.0000      -0.119945        -3.2639
 142   1.0000      -0.110422        -3.0047
 143   1.0000      -0.106564        -2.8997
 144   1.0000      -0.100002        -2.7212
 145   1.0000      -0.096742        -2.6325
 146   1.0000      -0.095430        -2.5968
 147   1.0000      -0.093628        -2.5477
 148   1.0000      -0.072027        -1.9600
 149   1.0000      -0.069610        -1.8942
 150   1.0000      -0.060798        -1.6544
 151   1.0000      -0.050830        -1.3832
 152   1.0000      -0.043544        -1.1849
 153   1.0000      -0.037190        -1.0120
 154   1.0000      -0.034171        -0.9298
 155   1.0000      -0.030828        -0.8389
 156   1.0000      -0.024436        -0.6649
 157   1.0000      -0.015224        -0.4143
 158   1.0000       0.020409         0.5554
 159   1.0000       0.040020         1.0890
 160   0.0000       0.135964         3.6998
 161   0.0000       0.138497         3.7687
 162   0.0000       0.155890         4.2420
 163   0.0000       0.160885         4.3779
 164   0.0000       0.163429         4.4471

MULLIKEN ATOMIC CHARGES AND SPIN POPULATIONS
--------------------------------------------
   0 V :    0.455310    1.216938
   1 S :   -0.299912   -0.021426
   2 S :   -0.248724   -0.024981
   3 S :   -0.312635   -0.021863
   4 S :   -0.270232   -0.023545
   5 O :   -0.473306   -0.156844
   6 C :   -0.086417    0.012946
   7 C :   -0.069680    0.006342
   8 C :   -0.093300    0.006366
   9 C :   -0.086379    0.006002
  10 S :    0.098279   -0.000610
  11 S :    0.096533   -0.000971
  12 S :    0.097835   -0.000492
  13 S :    0.099029   -0.000361
  14 C :   -0.166944    0.002073
  15 C :   -0.245607    0.000863
  16 C :   -0.245149    0.000004
  17 C :   -0.136553   -0.000280
  18 S :    0.006284   -0.000166
  19 S :    0.007681   -0.000159
  20 S :    0.007618   -0.000084
  21 S :    0.006893   -0.000088
  22 C :   -0.296882    0.000026
  23 C :   -0.301155    0.000031
  24 C :   -0.165133   -0.000061
  25 H :    0.140794   -0.000002
  26 H :    0.114166   -0.000002
  27 H :    0.084491    0.000007
  28 H :    0.096838    0.000005
  29 H :    0.115775   -0.000000
  30 H :    0.145244   -0.000003
  31 C :   -0.298213    0.000288
  32 C :   -0.310242    0.000282
  33 C :   -0.151512   -0.000324
  34 H :    0.147953   -0.000025
  35 H :    0.115063    0.000037
  36 H :    0.089312    0.000035
  37 H :    0.082455    0.000023
  38 H :    0.110517    0.000037
  39 H :    0.139904   -0.000019
Sum of atomic charges         :   -2.0000000

LOEWDIN ATOMIC CHARGES AND SPIN POPULATIONS
-------------------------------------------
   0 V :   -0.157466    1.169550
   1 S :    0.073581   -0.013186
   2 S :    0.119823   -0.014656
   3 S :    0.054856   -0.014472
   4 S :    0.090768   -0.014212
   5 O :   -0.338588   -0.141403
   6 C :   -0.540229    0.011626
   7 C :   -0.542965    0.006500
   8 C :   -0.558814    0.006771
   9 C :   -0.557588    0.005963
  10 S :    0.469041   -0.000861
  11 S :    0.465322   -0.001185
  12 S :    0.470305   -0.000799
  13 S :    0.472093   -0.000764
  14 C :   -0.457511    0.000408
  15 C :   -0.473938   -0.000079
  16 C :   -0.615867    0.000767
  17 C :   -0.622085    0.000191
  18 S :    0.344179   -0.000110
  19 S :    0.349340   -0.000106
  20 S :    0.370019   -0.000079
  21 S :    0.368767   -0.000087
  22 C :   -0.282499   -0.000006
  23 C :   -0.282652   -0.000003
  24 C :   -0.178056    0.000004
  25 H :    0.061884   -0.000001
  26 H :    0.053362   -0.000001
  27 H :    0.058174   -0.000000
  28 H :    0.062195    0.000001
  29 H :    0.053270    0.000000
  30 H :    0.063705   -0.000001
  31 C :   -0.286552    0.000099
  32 C :   -0.283887    0.000074
  33 C :   -0.175543    0.000007
  34 H :    0.065018    0.000001
  35 H :    0.053632    0.000017
  36 H :    0.060084    0.000007
  37 H :    0.059077    0.000005
  38 H :    0.054464    0.000017
  39 H :    0.061280    0.000002

  Mayer bond orders larger than 0.100000
B(  0-V ,  1-S ) :   0.7666 B(  0-V ,  2-S ) :   0.8338 B(  0-V ,  3-S ) :   0.7237
B(  0-V ,  4-S ) :   0.7919 B(  0-V ,  5-O ) :   2.1414 B(  1-S ,  8-C ) :   1.0993
B(  2-S ,  6-C ) :   1.1063 B(  3-S ,  9-C ) :   1.1135 B(  4-S ,  7-C ) :   1.1044
B(  6-C ,  7-C ) :   1.6909 B(  6-C , 10-S ) :   0.9341 B(  7-C , 11-S ) :   0.9291
B(  8-C ,  9-C ) :   1.6930 B(  8-C , 13-S ) :   0.9428 B(  9-C , 12-S ) :   0.9407
B( 10-S , 14-C ) :   1.2336 B( 11-S , 14-C ) :   1.2353 B( 12-S , 15-C ) :   1.2500
B( 13-S , 15-C ) :   1.2508 B( 14-C , 16-C ) :   1.4522 B( 15-C , 17-C ) :   1.4438
B( 16-C , 18-S ) :   1.0994 B( 16-C , 19-S ) :   1.0966 B( 17-C , 20-S ) :   1.0796
B( 17-C , 21-S ) :   1.0731 B( 18-S , 32-C ) :   0.9856 B( 19-S , 31-C ) :   0.9953
B( 20-S , 23-C ) :   0.9866 B( 21-S , 22-C ) :   0.9899 B( 22-C , 24-C ) :   0.9154
B( 22-C , 25-H ) :   0.9652 B( 22-C , 26-H ) :   0.9657 B( 23-C , 24-C ) :   0.9110
B( 23-C , 29-H ) :   0.9647 B( 23-C , 30-H ) :   0.9670 B( 24-C , 27-H ) :   0.9595
B( 24-C , 28-H ) :   0.9701 B( 31-C , 33-C ) :   0.9131 B( 31-C , 38-H ) :   0.9664
B( 31-C , 39-H ) :   0.9639 B( 32-C , 33-C ) :   0.9079 B( 32-C , 34-H ) :   0.9663
B( 32-C , 35-H ) :   0.9657 B( 33-C , 36-H ) :   0.9736 B( 33-C , 37-H ) :   0.9637

FINAL SINGLE POINT ENERGY     -6337.693124618053

DIPOLE MOMENT
-------------
                                X             Y             Z
Electronic contribution:     -5.21014     -11.21702       5.10998
Nuclear contribution   :      5.52807      12.69531      -5.29509
                        -----------------------------------------
Total Dipole Moment    :      0.31793       1.47829      -0.18512
                        -----------------------------------------
Magnitude (a.u.)       :      1.52338
Magnitude (Debye)      :      3.87213

Rotational constants in cm-1:     0.010804     0.000804     0.000783
Rotational constants in MHz :   323.902778    24.110256    23.471589

                             ****ORCA TERMINATED NORMALLY****
TOTAL RUN TIME: 0 days 1 hours 6 minutes 44 seconds 220 msec
