                         Program Version 5.0.4 -  RELEASE  -
|  1> ! nofrozencore ReducedPop printbasis
|  2> ! B3LYP TZVP
|  3>
|  4> %basis
|  5> newgto V "CP(PPP)" end
|  6> end
|  7>
|  8> %pal
|  9> nprocs 8
| 10> end
| 11>
| 12> % sym SymThresh 1e-2 end
| 13> * xyz -2 2
| 14> V 0.2044002763018918 -0.492032932134874 -0.9748410439084254
| 15> S -2.184120490262755 -1.121200463034345 -0.5742333077608378
| 16> S -0.6527715453732565 1.7597435953777236 -1.466262357462706
| 17> S 0.7114754428858688 -2.2242077010024324 0.7485555051810323
| 18> S 2.170184646071001 0.6302372642963602 -0.05714270724181415
| 19> O 0.5982483039600068 -1.131692462606427 -2.375303753451498
| 20> C 0.8597211260687465 2.6529249970576196 -1.3960138361162155
| 21> C 1.992944272764473 2.20074699359736 -0.8275376090259983
| 22> C -2.0130883372133477 -2.523953826072847 0.4589907076421417
| 23> C -0.8574978464962547 -2.963346852597683 0.9895005972715174
| 24> S 0.9135091522380154 4.317122664527983 -2.065369695950144
| 25> S 3.3834799085157314 3.33258252042611 -0.8062152047026457
| 26> S -0.952451293220987 -4.4186727667427075 2.031949257325835
| 27> S -3.4912442961449837 -3.4563943469673326 0.8584957920790184
| 28> C 2.570852874333536 4.701455513953609 -1.5780339747661314
| 29> C -2.717447012407113 -4.530982399423483 2.0325577372009063
| 30> C 3.18209990359152 5.900770959113483 -1.8296906760146043
| 31> C -3.396390762460983 -5.481943865865501 2.728952759336499
| 32> S 2.354677487632939 7.202132375401767 -2.7316792918288035
| 33> S 4.883815008425269 6.191746929200957 -1.3698688908474426
| 34> S -5.131473717082611 -5.775239769211566 2.556051607021367
| 35> S -2.6160987913534592 -6.714933583497942 3.7305288287834526
| 36> C -3.3774091674271562 -6.12664892242863 5.301743081780189
| 37> C -5.532045564724669 -5.329725687708235 4.298069782916174
| 38> C -4.891021759051088 -6.333797000720553 5.255547498155269
| 39> H -3.1317741703548543 -5.05870762172713 5.406387899025373
| 40> H -2.9048288009563525 -6.675993813331145 6.130220814093874
| 41> H -5.319947185136673 -6.214848024737726 6.269550288584337
| 42> H -5.112295908154953 -7.360627410844977 4.916780827566107
| 43> H -6.628112896620058 -5.303683465748507 4.392669947567854
| 44> H -5.142303039858184 -4.316149311216075 4.4771309274945565
| 45> C 5.622281638128376 6.458608640762799 -3.050341994440063
| 46> C 3.472560209620546 7.310286625403021 -4.20876837736063
| 47> C 4.948263914384929 7.555806741160899 -3.8795065217731515
| 48> H 3.3532638440063 6.395604686270081 -4.795121809877434
| 49> H 3.07816904604769 8.144618710465053 -4.795406765000484
| 50> H 5.048859439279531 8.515705529846612 -3.361468379213282
| 51> H 5.494286228485361 7.640327221644585 -4.830447381471701
| 52> H 6.6650018054819276 6.725055280589091 -2.856633744085409
| 53> H 5.608145318828815 5.5048814222001585 -3.58408123135958
| 54> *
| 55>
| 56> % eprnmr
| 57> gtensor true
| 58> Nuclei = all H {aiso,adip,aorb,fgrad,rho}
| 59> Nuclei = all V {aiso,adip,aorb,fgrad,rho}
| 60> end
| 61>
| 62>                          ****END OF INPUT****

CARTESIAN COORDINATES (ANGSTROEM)
---------------------------------
  V      0.204756   -0.488753   -0.972888
  S     -2.183765   -1.117921   -0.572280
  S     -0.652416    1.763023   -1.464309
  S      0.711831   -2.220928    0.750509
  S      2.170540    0.633517   -0.055189
  O      0.598604   -1.128413   -2.373351
  C      0.860077    2.656205   -1.394061
  C      1.993300    2.204027   -0.825584
  C     -2.012733   -2.520674    0.460944
  C     -0.857142   -2.960067    0.991454
  S      0.913865    4.320402   -2.063416
  S      3.383836    3.335862   -0.804262
  S     -0.952096   -4.415393    2.033903
  S     -3.490889   -3.453115    0.860449
  C      2.571209    4.704735   -1.576081
  C     -2.717091   -4.527703    2.034511
  C      3.182456    5.904051   -1.827737
  C     -3.396035   -5.478664    2.730906
  S      2.355033    7.205412   -2.729726
  S      4.884171    6.195027   -1.367916
  S     -5.131118   -5.771960    2.558005
  S     -2.615743   -6.711654    3.732482
  C     -3.377053   -6.123369    5.303696
  C     -5.531690   -5.326446    4.300023
  C     -4.890666   -6.330517    5.257501
  H     -3.131418   -5.055428    5.408341
  H     -2.904473   -6.672714    6.132174
  H     -5.319591   -6.211568    6.271504
  H     -5.111940   -7.357348    4.918734
  H     -6.627757   -5.300404    4.394623
  H     -5.141947   -4.312870    4.479084
  C      5.622637    6.461888   -3.048389
  C      3.472916    7.313566   -4.206815
  C      4.948620    7.559086   -3.877553
  H      3.353620    6.398884   -4.793169
  H      3.078525    8.147898   -4.793454
  H      5.049215    8.518985   -3.359515
  H      5.494642    7.643607   -4.828494
  H      6.665358    6.728335   -2.854680
  H      5.608501    5.508161   -3.582128

 Total Charge           Charge          ....   -2
 Multiplicity           Mult            ....    2
 Number of Electrons    NEL             ....  321
 Basis Dimension        Dim             ....  681

ORBITAL ENERGIES
----------------
                 SPIN UP ORBITALS
  NO   OCC          E(Eh)            E(eV)
   0   1.0000    -196.674495     -5351.7851
   1   1.0000     -88.734572     -2414.5905
   2   1.0000     -88.734542     -2414.5896
   3   1.0000     -88.730889     -2414.4902
   4   1.0000     -88.730695     -2414.4850
   5   1.0000     -88.729120     -2414.4421
   6   1.0000     -88.729113     -2414.4419
   7   1.0000     -88.729093     -2414.4414
   8   1.0000     -88.728957     -2414.4377
   9   1.0000     -88.640782     -2412.0383
  10   1.0000     -88.640358     -2412.0268
  11   1.0000     -88.637194     -2411.9407
  12   1.0000     -88.637049     -2411.9367
  13   1.0000     -22.049869      -600.0074
  14   1.0000     -18.889666      -514.0140
  15   1.0000     -18.556321      -504.9432
  16   1.0000     -18.551146      -504.8023
  17   1.0000     -18.551040      -504.7995
  18   1.0000     -10.076495      -274.1954
  19   1.0000     -10.074462      -274.1400
  20   1.0000     -10.065208      -273.8882
  21   1.0000     -10.065152      -273.8867
  22   1.0000     -10.060880      -273.7705
  23   1.0000     -10.060846      -273.7695
  24   1.0000     -10.053485      -273.5692
  25   1.0000     -10.050022      -273.4750
  26   1.0000     -10.047642      -273.4102
  27   1.0000     -10.044331      -273.3201
  28   1.0000     -10.018932      -272.6290
  29   1.0000     -10.017993      -272.6034
  30   1.0000     -10.015120      -272.5253
  31   1.0000     -10.014325      -272.5036
  32   1.0000      -7.787787      -211.9165
  33   1.0000      -7.787780      -211.9163
  34   1.0000      -7.784134      -211.8170
  35   1.0000      -7.783983      -211.8129
  36   1.0000      -7.783442      -211.7982
  37   1.0000      -7.783417      -211.7975
  38   1.0000      -7.782381      -211.7693
  39   1.0000      -7.782270      -211.7663
  40   1.0000      -7.695248      -209.3983
  41   1.0000      -7.694693      -209.3833
  42   1.0000      -7.691545      -209.2976
  43   1.0000      -7.691483      -209.2959
  44   1.0000      -5.752836      -156.5426
  45   1.0000      -5.752830      -156.5425
  46   1.0000      -5.749341      -156.4475
  47   1.0000      -5.749328      -156.4472
  48   1.0000      -5.749077      -156.4404
  49   1.0000      -5.748924      -156.4362
  50   1.0000      -5.748230      -156.4173
  51   1.0000      -5.748202      -156.4165
  52   1.0000      -5.747341      -156.3931
  53   1.0000      -5.747230      -156.3901
  54   1.0000      -5.745149      -156.3335
  55   1.0000      -5.745139      -156.3332
  56   1.0000      -5.744647      -156.3198
  57   1.0000      -5.744489      -156.3155
  58   1.0000      -5.742953      -156.2737
  59   1.0000      -5.742833      -156.2704
  60   1.0000      -5.742581      -156.2636
  61   1.0000      -5.742569      -156.2632
  62   1.0000      -5.739961      -156.1923
  63   1.0000      -5.739807      -156.1881
  64   1.0000      -5.738146      -156.1429
  65   1.0000      -5.738130      -156.1425
  66   1.0000      -5.738110      -156.1419
  67   1.0000      -5.738030      -156.1397
  68   1.0000      -5.660545      -154.0313
  69   1.0000      -5.660018      -154.0169
  70   1.0000      -5.656773      -153.9286
  71   1.0000      -5.656712      -153.9270
  72   1.0000      -5.653815      -153.8481
  73   1.0000      -5.653324      -153.8348
  74   1.0000      -5.652596      -153.8150
  75   1.0000      -5.652027      -153.7995
  76   1.0000      -5.650254      -153.7512
  77   1.0000      -5.650178      -153.7492
  78   1.0000      -5.648900      -153.7144
  79   1.0000      -5.648811      -153.7120
  80   1.0000      -2.443495       -66.4909
  81   1.0000      -1.484777       -40.4028
  82   1.0000      -1.473143       -40.0862
  83   1.0000      -1.472295       -40.0632
  84   1.0000      -0.713549       -19.4167
  85   1.0000      -0.708852       -19.2888
  86   1.0000      -0.686562       -18.6823
  87   1.0000      -0.685661       -18.6578
  88   1.0000      -0.649283       -17.6679
  89   1.0000      -0.632211       -17.2033
  90   1.0000      -0.629751       -17.1364
  91   1.0000      -0.617584       -16.8053
  92   1.0000      -0.614829       -16.7304
  93   1.0000      -0.575110       -15.6495
  94   1.0000      -0.574493       -15.6328
  95   1.0000      -0.573992       -15.6191
  96   1.0000      -0.571860       -15.5611
  97   1.0000      -0.497837       -13.5468
  98   1.0000      -0.497533       -13.5386
  99   1.0000      -0.492300       -13.3962
 100   1.0000      -0.489786       -13.3278
 101   1.0000      -0.479889       -13.0584
 102   1.0000      -0.474981       -12.9249
 103   1.0000      -0.447592       -12.1796
 104   1.0000      -0.445723       -12.1288
 105   1.0000      -0.416368       -11.3300
 106   1.0000      -0.410987       -11.1835
 107   1.0000      -0.355847        -9.6831
 108   1.0000      -0.355608        -9.6766
 109   1.0000      -0.328971        -8.9518
 110   1.0000      -0.326042        -8.8720
 111   1.0000      -0.318886        -8.6773
 112   1.0000      -0.313036        -8.5181
 113   1.0000      -0.305911        -8.3243
 114   1.0000      -0.297587        -8.0978
 115   1.0000      -0.293236        -7.9794
 116   1.0000      -0.287276        -7.8172
 117   1.0000      -0.259995        -7.0748
 118   1.0000      -0.257747        -7.0136
 119   1.0000      -0.254490        -6.9250
 120   1.0000      -0.245575        -6.6824
 121   1.0000      -0.237662        -6.4671
 122   1.0000      -0.234165        -6.3720
 123   1.0000      -0.231552        -6.3009
 124   1.0000      -0.230000        -6.2586
 125   1.0000      -0.220511        -6.0004
 126   1.0000      -0.218563        -5.9474
 127   1.0000      -0.215314        -5.8590
 128   1.0000      -0.208906        -5.6846
 129   1.0000      -0.193158        -5.2561
 130   1.0000      -0.188232        -5.1221
 131   1.0000      -0.185694        -5.0530
 132   1.0000      -0.184388        -5.0175
 133   1.0000      -0.179562        -4.8861
 134   1.0000      -0.159058        -4.3282
 135   1.0000      -0.151373        -4.1191
 136   1.0000      -0.147197        -4.0054
 137   1.0000      -0.137406        -3.7390
 138   1.0000      -0.133612        -3.6358
 139   1.0000      -0.130614        -3.5542
 140   1.0000      -0.124145        -3.3782
 141   1.0000      -0.121167        -3.2971
 142   1.0000      -0.112732        -3.0676
 143   1.0000      -0.108984        -2.9656
 144   1.0000      -0.099726        -2.7137
 145   1.0000      -0.099339        -2.7031
 146   1.0000      -0.097071        -2.6414
 147   1.0000      -0.095143        -2.5890
 148   1.0000      -0.073808        -2.0084
 149   1.0000      -0.069643        -1.8951
 150   1.0000      -0.058797        -1.6000
 151   1.0000      -0.051922        -1.4129
 152   1.0000      -0.044932        -1.2227
 153   1.0000      -0.038318        -1.0427
 154   1.0000      -0.035188        -0.9575
 155   1.0000      -0.031873        -0.8673
 156   1.0000      -0.024329        -0.6620
 157   1.0000      -0.018610        -0.5064
 158   1.0000      -0.015694        -0.4271
 159   1.0000       0.020919         0.5692
 160   1.0000       0.042213         1.1487
 161   0.0000       0.135061         3.6752
 162   0.0000       0.136255         3.7077
 163   0.0000       0.160126         4.3572
 164   0.0000       0.166515         4.5311
 165   0.0000       0.168770         4.5925

                 SPIN DOWN ORBITALS
  NO   OCC          E(Eh)            E(eV)
   0   1.0000    -196.674642     -5351.7891
   1   1.0000     -88.734573     -2414.5905
   2   1.0000     -88.734542     -2414.5897
   3   1.0000     -88.730897     -2414.4905
   4   1.0000     -88.730703     -2414.4852
   5   1.0000     -88.729120     -2414.4421
   6   1.0000     -88.729114     -2414.4419
   7   1.0000     -88.729102     -2414.4416
   8   1.0000     -88.728966     -2414.4379
   9   1.0000     -88.640922     -2412.0421
  10   1.0000     -88.640500     -2412.0306
  11   1.0000     -88.637331     -2411.9444
  12   1.0000     -88.637188     -2411.9405
  13   1.0000     -22.034925      -599.6008
  14   1.0000     -18.893466      -514.1173
  15   1.0000     -18.551044      -504.7996
  16   1.0000     -18.535111      -504.3660
  17   1.0000     -18.534904      -504.3604
  18   1.0000     -10.076484      -274.1951
  19   1.0000     -10.074465      -274.1401
  20   1.0000     -10.065207      -273.8882
  21   1.0000     -10.065151      -273.8867
  22   1.0000     -10.060880      -273.7705
  23   1.0000     -10.060846      -273.7695
  24   1.0000     -10.053485      -273.5692
  25   1.0000     -10.050009      -273.4746
  26   1.0000     -10.047642      -273.4102
  27   1.0000     -10.044328      -273.3201
  28   1.0000     -10.018675      -272.6220
  29   1.0000     -10.017745      -272.5967
  30   1.0000     -10.014932      -272.5202
  31   1.0000     -10.014139      -272.4986
  32   1.0000      -7.787787      -211.9165
  33   1.0000      -7.787780      -211.9163
  34   1.0000      -7.784142      -211.8173
  35   1.0000      -7.783992      -211.8132
  36   1.0000      -7.783443      -211.7982
  37   1.0000      -7.783417      -211.7976
  38   1.0000      -7.782391      -211.7696
  39   1.0000      -7.782280      -211.7666
  40   1.0000      -7.695377      -209.4019
  41   1.0000      -7.694825      -209.3868
  42   1.0000      -7.691674      -209.3011
  43   1.0000      -7.691614      -209.2995
  44   1.0000      -5.752838      -156.5427
  45   1.0000      -5.752831      -156.5425
  46   1.0000      -5.749342      -156.4476
  47   1.0000      -5.749329      -156.4472
  48   1.0000      -5.749087      -156.4406
  49   1.0000      -5.748934      -156.4365
  50   1.0000      -5.748231      -156.4173
  51   1.0000      -5.748203      -156.4165
  52   1.0000      -5.747353      -156.3934
  53   1.0000      -5.747242      -156.3904
  54   1.0000      -5.745150      -156.3335
  55   1.0000      -5.745140      -156.3332
  56   1.0000      -5.744660      -156.3202
  57   1.0000      -5.744502      -156.3158
  58   1.0000      -5.742969      -156.2741
  59   1.0000      -5.742848      -156.2709
  60   1.0000      -5.742581      -156.2636
  61   1.0000      -5.742570      -156.2633
  62   1.0000      -5.739969      -156.1925
  63   1.0000      -5.739816      -156.1883
  64   1.0000      -5.738147      -156.1429
  65   1.0000      -5.738138      -156.1427
  66   1.0000      -5.738111      -156.1419
  67   1.0000      -5.738037      -156.1399
  68   1.0000      -5.660688      -154.0351
  69   1.0000      -5.660162      -154.0209
  70   1.0000      -5.656910      -153.9324
  71   1.0000      -5.656851      -153.9307
  72   1.0000      -5.654199      -153.8586
  73   1.0000      -5.653706      -153.8452
  74   1.0000      -5.652684      -153.8174
  75   1.0000      -5.652124      -153.8021
  76   1.0000      -5.650611      -153.7609
  77   1.0000      -5.650542      -153.7591
  78   1.0000      -5.649002      -153.7171
  79   1.0000      -5.648914      -153.7148
  80   1.0000      -2.398579       -65.2687
  81   1.0000      -1.465448       -39.8769
  82   1.0000      -1.410694       -38.3869
  83   1.0000      -1.410572       -38.3836
  84   1.0000      -0.713545       -19.4165
  85   1.0000      -0.708815       -19.2878
  86   1.0000      -0.686526       -18.6813
  87   1.0000      -0.685597       -18.6560
  88   1.0000      -0.657441       -17.8899
  89   1.0000      -0.632124       -17.2010
  90   1.0000      -0.629707       -17.1352
  91   1.0000      -0.617584       -16.8053
  92   1.0000      -0.614832       -16.7304
  93   1.0000      -0.575059       -15.6482
  94   1.0000      -0.574495       -15.6328
  95   1.0000      -0.573886       -15.6162
  96   1.0000      -0.571822       -15.5601
  97   1.0000      -0.497836       -13.5468
  98   1.0000      -0.497564       -13.5394
  99   1.0000      -0.492352       -13.3976
 100   1.0000      -0.489895       -13.3307
 101   1.0000      -0.480074       -13.0635
 102   1.0000      -0.475192       -12.9306
 103   1.0000      -0.447609       -12.1801
 104   1.0000      -0.445760       -12.1297
 105   1.0000      -0.416365       -11.3299
 106   1.0000      -0.411103       -11.1867
 107   1.0000      -0.355845        -9.6830
 108   1.0000      -0.355596        -9.6763
 109   1.0000      -0.328966        -8.9516
 110   1.0000      -0.326022        -8.8715
 111   1.0000      -0.318803        -8.6751
 112   1.0000      -0.313072        -8.5191
 113   1.0000      -0.305860        -8.3229
 114   1.0000      -0.297557        -8.0969
 115   1.0000      -0.293230        -7.9792
 116   1.0000      -0.287270        -7.8170
 117   1.0000      -0.259927        -7.0730
 118   1.0000      -0.257598        -7.0096
 119   1.0000      -0.254457        -6.9241
 120   1.0000      -0.245535        -6.6813
 121   1.0000      -0.237627        -6.4662
 122   1.0000      -0.234144        -6.3714
 123   1.0000      -0.231501        -6.2995
 124   1.0000      -0.229967        -6.2577
 125   1.0000      -0.220219        -5.9925
 126   1.0000      -0.218361        -5.9419
 127   1.0000      -0.215167        -5.8550
 128   1.0000      -0.208735        -5.6800
 129   1.0000      -0.191642        -5.2148
 130   1.0000      -0.188168        -5.1203
 131   1.0000      -0.185176        -5.0389
 132   1.0000      -0.184139        -5.0107
 133   1.0000      -0.179452        -4.8831
 134   1.0000      -0.158423        -4.3109
 135   1.0000      -0.151215        -4.1148
 136   1.0000      -0.147127        -4.0035
 137   1.0000      -0.136884        -3.7248
 138   1.0000      -0.133373        -3.6293
 139   1.0000      -0.130001        -3.5375
 140   1.0000      -0.123745        -3.3673
 141   1.0000      -0.120849        -3.2885
 142   1.0000      -0.114553        -3.1171
 143   1.0000      -0.110546        -3.0081
 144   1.0000      -0.099785        -2.7153
 145   1.0000      -0.099348        -2.7034
 146   1.0000      -0.097306        -2.6478
 147   1.0000      -0.095449        -2.5973
 148   1.0000      -0.070001        -1.9048
 149   1.0000      -0.069632        -1.8948
 150   1.0000      -0.058790        -1.5998
 151   1.0000      -0.049438        -1.3453
 152   1.0000      -0.043990        -1.1970
 153   1.0000      -0.038345        -1.0434
 154   1.0000      -0.034638        -0.9425
 155   1.0000      -0.031951        -0.8694
 156   1.0000      -0.025206        -0.6859
 157   1.0000      -0.015941        -0.4338
 158   1.0000       0.021193         0.5767
 159   1.0000       0.041091         1.1181
 160   0.0000       0.135052         3.6750
 161   0.0000       0.136268         3.7080
 162   0.0000       0.156375         4.2552
 163   0.0000       0.161124         4.3844
 164   0.0000       0.167072         4.5463

MULLIKEN ATOMIC CHARGES AND SPIN POPULATIONS
--------------------------------------------
   0 V :    0.469737    1.211095
   1 S :   -0.299239   -0.022144
   2 S :   -0.283589   -0.025484
   3 S :   -0.295733   -0.022970
   4 S :   -0.278173   -0.025830
   5 O :   -0.468277   -0.147163
   6 C :   -0.078809    0.010327
   7 C :   -0.083338    0.009002
   8 C :   -0.084422    0.006532
   9 C :   -0.081808    0.006654
  10 S :    0.100771   -0.000572
  11 S :    0.101814   -0.000577
  12 S :    0.098695   -0.000451
  13 S :    0.098205   -0.000443
  14 C :   -0.221089    0.001986
  15 C :   -0.158098    0.000838
  16 C :   -0.178618   -0.000207
  17 C :   -0.266121   -0.000388
  18 S :    0.005639   -0.000100
  19 S :    0.005723   -0.000100
  20 S :    0.019884   -0.000088
  21 S :    0.019598   -0.000092
  22 C :   -0.323670    0.000016
  23 C :   -0.323357    0.000017
  24 C :   -0.160765   -0.000028
  25 H :    0.153077   -0.000003
  26 H :    0.120982   -0.000001
  27 H :    0.081727   -0.000000
  28 H :    0.106691    0.000001
  29 H :    0.120447   -0.000001
  30 H :    0.152616   -0.000003
  31 C :   -0.293876    0.000189
  32 C :   -0.295021    0.000185
  33 C :   -0.158480   -0.000235
  34 H :    0.139886   -0.000016
  35 H :    0.112065    0.000017
  36 H :    0.089692    0.000023
  37 H :    0.083381    0.000016
  38 H :    0.111965    0.000018
  39 H :    0.139887   -0.000016
Sum of atomic charges         :   -2.0000000

LOEWDIN ATOMIC CHARGES AND SPIN POPULATIONS
-------------------------------------------
   0 V :   -0.155350    1.164664
   1 S :    0.072459   -0.014724
   2 S :    0.086276   -0.015991
   3 S :    0.075937   -0.015296
   4 S :    0.092303   -0.015958
   5 O :   -0.319727   -0.132052
   6 C :   -0.550412    0.009700
   7 C :   -0.552385    0.008912
   8 C :   -0.557155    0.006959
   9 C :   -0.556821    0.006919
  10 S :    0.471622   -0.000840
  11 S :    0.472353   -0.000870
  12 S :    0.472453   -0.000923
  13 S :    0.471728   -0.000950
  14 C :   -0.465288    0.000337
  15 C :   -0.458564   -0.000207
  16 C :   -0.620420    0.000502
  17 C :   -0.625871    0.000061
  18 S :    0.357675   -0.000080
  19 S :    0.359014   -0.000077
  20 S :    0.360946   -0.000088
  21 S :    0.360064   -0.000091
  22 C :   -0.283843   -0.000002
  23 C :   -0.284081   -0.000002
  24 C :   -0.187404   -0.000002
  25 H :    0.067712   -0.000002
  26 H :    0.052166   -0.000001
  27 H :    0.054822   -0.000001
  28 H :    0.061981   -0.000000
  29 H :    0.052088   -0.000001
  30 H :    0.067444   -0.000002
  31 C :   -0.284289    0.000041
  32 C :   -0.284049    0.000035
  33 C :   -0.173976    0.000008
  34 H :    0.061242   -0.000001
  35 H :    0.054388    0.000008
  36 H :    0.060264    0.000004
  37 H :    0.059092    0.000002
  38 H :    0.054450    0.000008
  39 H :    0.061155   -0.000000

  Mayer bond orders larger than 0.100000
B(  0-V ,  1-S ) :   0.7551 B(  0-V ,  2-S ) :   0.7817 B(  0-V ,  3-S ) :   0.7548
B(  0-V ,  4-S ) :   0.7948 B(  0-V ,  5-O ) :   2.1483 B(  1-S ,  8-C ) :   1.1136
B(  2-S ,  6-C ) :   1.1024 B(  3-S ,  9-C ) :   1.1111 B(  4-S ,  7-C ) :   1.0980
B(  6-C ,  7-C ) :   1.6820 B(  6-C , 10-S ) :   0.9378 B(  7-C , 11-S ) :   0.9412
B(  8-C ,  9-C ) :   1.6775 B(  8-C , 13-S ) :   0.9371 B(  9-C , 12-S ) :   0.9382
B( 10-S , 14-C ) :   1.2461 B( 11-S , 14-C ) :   1.2462 B( 12-S , 15-C ) :   1.2430
B( 13-S , 15-C ) :   1.2426 B( 14-C , 16-C ) :   1.4559 B( 15-C , 17-C ) :   1.4469
B( 16-C , 18-S ) :   1.0802 B( 16-C , 19-S ) :   1.0813 B( 17-C , 20-S ) :   1.1215
B( 17-C , 21-S ) :   1.1216 B( 18-S , 32-C ) :   0.9944 B( 19-S , 31-C ) :   0.9941
B( 20-S , 23-C ) :   0.9758 B( 21-S , 22-C ) :   0.9747 B( 22-C , 24-C ) :   0.8890
B( 22-C , 25-H ) :   0.9760 B( 22-C , 26-H ) :   0.9610 B( 23-C , 24-C ) :   0.8898
B( 23-C , 29-H ) :   0.9612 B( 23-C , 30-H ) :   0.9755 B( 24-C , 27-H ) :   0.9544
B( 24-C , 28-H ) :   0.9770 B( 31-C , 33-C ) :   0.9184 B( 31-C , 38-H ) :   0.9661
B( 31-C , 39-H ) :   0.9641 B( 32-C , 33-C ) :   0.9180 B( 32-C , 34-H ) :   0.9640
B( 32-C , 35-H ) :   0.9660 B( 33-C , 36-H ) :   0.9707 B( 33-C , 37-H ) :   0.9639

FINAL SINGLE POINT ENERGY     -6337.697671579417

DIPOLE MOMENT
-------------
                                X             Y             Z
Electronic contribution:      0.05885      -8.74480     -10.33238
Nuclear contribution   :      0.02984       9.78872      11.37362
                        -----------------------------------------
Total Dipole Moment    :      0.08869       1.04392       1.04124
                        -----------------------------------------
Magnitude (a.u.)       :      1.47710
Magnitude (Debye)      :      3.75449

Rotational constants in cm-1:     0.010856     0.000805     0.000784
Rotational constants in MHz :   325.454729    24.126763    23.503234

                             ****ORCA TERMINATED NORMALLY****
TOTAL RUN TIME: 0 days 1 hours 2 minutes 14 seconds 978 msec
