                         Program Version 5.0.4 -  RELEASE  -
|  1> ! nofrozencore ReducedPop printbasis
|  2> ! B3LYP TZVP
|  3>
|  4> %basis
|  5> newgto V "CP(PPP)" end
|  6> end
|  7>
|  8> %pal
|  9> nprocs 6
| 10> end
| 11>
| 12> % sym SymThresh 1e-2 end
| 13> * xyz -2 2
| 14> V -0.9174607699065792 0.1602415771378835 -0.6096199058797136
| 15> S -0.20241360167857972 -2.070766385341042 -1.403626577388053
| 16> S -1.5888846228767255 -1.0006286293228182 1.4708812841080765
| 17> S 0.9242907361479227 1.0521395627494317 -2.0037684909860634
| 18> S -0.36922450629007153 2.0674933894640457 0.8555556930190602
| 19> O -2.27714505508805 0.5102221467658867 -1.3529054458160226
| 20> C -1.7940379876796029 0.39378166550404653 2.5227367323631653
| 21> C -1.3017690177072958 1.6229941140134716 2.277049655485143
| 22> C 0.9637833231221732 -1.6321095514355213 -2.6451283376068018
| 23> C 1.4141164563788127 -0.3887148539985533 -2.8814402750557773
| 24> S -2.655721220747434 0.1792210236320326 4.084495567027224
| 25> S -1.5633649837171015 2.8609681356063867 3.549596147850927
| 26> S 2.649822817024035 -0.21522327049350606 -4.173771536075122
| 27> S 1.6589351712609073 -2.9407482813497063 -3.661740140463177
| 28> C -2.432610839750974 1.8257472718534096 4.687488587217881
| 29> C 2.78941025944584 -1.9331680054373883 -4.58144564654908
| 30> C -2.8929501813600758 2.2593086354124496 5.901668231293965
| 31> C 3.6603554022467533 -2.4211843975313485 -5.499209504240748
| 32> S -3.815851235576863 1.1984506565570998 6.9956459198568925
| 33> S -2.634407562775948 3.9311446288339758 6.460087492988905
| 34> S 3.759100533052773 -4.165486299696278 -5.880216423956006
| 35> S 4.790198945797655 -1.3601156844854747 -6.391839434960929
| 36> C 6.394779468706545 -2.0887498532989826 -5.784027144999728
| 37> C 5.522380991318965 -4.468085535519805 -5.355921690345618
| 38> C 6.509885999801104 -3.550441005642529 -5.957540051842343
| 39> H 6.546757111498024 -2.1370997096475945 -4.663414308423413
| 40> H 7.0115657294427605 -1.2325270564418935 -6.225191449815137
| 41> H 7.530544875664195 -3.8792550890973843 -5.706227997460475
| 42> H 6.364166754167837 -3.6903103034963394 -7.03570462445728
| 43> H 5.4057999865215915 -5.602973845975602 -5.442140653232102
| 44> H 5.801017243716713 -4.187045842123851 -4.295387147941814
| 45> C -4.402587459658913 4.466832107788231 6.5553712241006785
| 46> C -5.40815927038024 2.14164724556628 7.003852372687237
| 47> C -5.260858172530641 3.5934155861682924 7.481113424192573
| 48> H -5.82929721426242 2.0770539493803493 5.998295874972898
| 49> H -6.07680209338968 1.615729238409916 7.691013035939031
| 50> H -4.849131825215426 3.6104463123381874 8.49541273201182
| 51> H -6.265206083742152 4.037363334484527 7.529809319728245
| 52> H -4.39676170603896 5.48794957400432 6.9467087766971485
| 53> H -4.788905407830707 4.492667346181176 5.534192195424748
| 54> *
| 55>
| 56> % eprnmr
| 57> gtensor true
| 58> Nuclei = all H {aiso,adip,aorb,fgrad,rho}
| 59> Nuclei = all V {aiso,adip,aorb,fgrad,rho}
| 60> end
| 61>
| 62>                          ****END OF INPUT****

CARTESIAN COORDINATES (ANGSTROEM)
---------------------------------
  V     -0.915968    0.160377   -0.606091
  S     -0.200921   -2.070631   -1.400098
  S     -1.587392   -1.000493    1.474410
  S      0.925784    1.052275   -2.000240
  S     -0.367732    2.067629    0.859084
  O     -2.275652    0.510358   -1.349377
  C     -1.792545    0.393917    2.526265
  C     -1.300276    1.623130    2.280578
  C      0.965276   -1.631974   -2.641600
  C      1.415609   -0.388579   -2.877912
  S     -2.654228    0.179357    4.088024
  S     -1.561872    2.861104    3.553125
  S      2.651316   -0.215088   -4.170243
  S      1.660428   -2.940613   -3.658212
  C     -2.431118    1.825883    4.691017
  C      2.790903   -1.933032   -4.577917
  C     -2.891457    2.259444    5.905197
  C      3.661848   -2.421049   -5.495681
  S     -3.814358    1.198586    6.999175
  S     -2.632915    3.931280    6.463616
  S      3.760593   -4.165351   -5.876688
  S      4.791692   -1.359980   -6.388311
  C      6.396272   -2.088614   -5.780499
  C      5.523874   -4.467950   -5.352393
  C      6.511379   -3.550305   -5.954011
  H      6.548250   -2.136964   -4.659886
  H      7.013059   -1.232392   -6.221663
  H      7.532038   -3.879120   -5.702699
  H      6.365660   -3.690175   -7.032176
  H      5.407293   -5.602838   -5.438612
  H      5.802510   -4.186910   -4.291859
  C     -4.401095    4.466968    6.558900
  C     -5.406666    2.141783    7.007381
  C     -5.259365    3.593551    7.484642
  H     -5.827804    2.077189    6.001824
  H     -6.075309    1.615865    7.694542
  H     -4.847639    3.610582    8.498941
  H     -6.263713    4.037499    7.533338
  H     -4.395269    5.488085    6.950237
  H     -4.787413    4.492803    5.537721

 Total Charge           Charge          ....   -2
 Multiplicity           Mult            ....    2
 Number of Electrons    NEL             ....  321
 Basis Dimension        Dim             ....  681

ORBITAL ENERGIES
----------------
                 SPIN UP ORBITALS
  NO   OCC          E(Eh)            E(eV)
   0   1.0000    -196.674302     -5351.7798
   1   1.0000     -88.738553     -2414.6988
   2   1.0000     -88.738476     -2414.6967
   3   1.0000     -88.732572     -2414.5360
   4   1.0000     -88.732542     -2414.5352
   5   1.0000     -88.729972     -2414.4653
   6   1.0000     -88.729822     -2414.4612
   7   1.0000     -88.729005     -2414.4390
   8   1.0000     -88.728943     -2414.4373
   9   1.0000     -88.639237     -2411.9963
  10   1.0000     -88.639187     -2411.9949
  11   1.0000     -88.639047     -2411.9911
  12   1.0000     -88.638690     -2411.9814
  13   1.0000     -22.049707      -600.0030
  14   1.0000     -18.889588      -514.0118
  15   1.0000     -18.556160      -504.9388
  16   1.0000     -18.550980      -504.7978
  17   1.0000     -18.550880      -504.7951
  18   1.0000     -10.075603      -274.1711
  19   1.0000     -10.074496      -274.1410
  20   1.0000     -10.074457      -274.1399
  21   1.0000     -10.074421      -274.1389
  22   1.0000     -10.063065      -273.8299
  23   1.0000     -10.063021      -273.8287
  24   1.0000     -10.051815      -273.5238
  25   1.0000     -10.049388      -273.4577
  26   1.0000     -10.048681      -273.4385
  27   1.0000     -10.047947      -273.4185
  28   1.0000     -10.017859      -272.5998
  29   1.0000     -10.017059      -272.5780
  30   1.0000     -10.016924      -272.5744
  31   1.0000     -10.016252      -272.5561
  32   1.0000      -7.791677      -212.0223
  33   1.0000      -7.791583      -212.0198
  34   1.0000      -7.786030      -211.8686
  35   1.0000      -7.786021      -211.8684
  36   1.0000      -7.783237      -211.7926
  37   1.0000      -7.783114      -211.7893
  38   1.0000      -7.782262      -211.7661
  39   1.0000      -7.782224      -211.7651
  40   1.0000      -7.693570      -209.3527
  41   1.0000      -7.693462      -209.3498
  42   1.0000      -7.693282      -209.3448
  43   1.0000      -7.693029      -209.3380
  44   1.0000      -5.756714      -156.6482
  45   1.0000      -5.756611      -156.6453
  46   1.0000      -5.753242      -156.5537
  47   1.0000      -5.753163      -156.5515
  48   1.0000      -5.751018      -156.4932
  49   1.0000      -5.751016      -156.4931
  50   1.0000      -5.748178      -156.4159
  51   1.0000      -5.748054      -156.4125
  52   1.0000      -5.747601      -156.4002
  53   1.0000      -5.747599      -156.4001
  54   1.0000      -5.747241      -156.3904
  55   1.0000      -5.747202      -156.3893
  56   1.0000      -5.746488      -156.3699
  57   1.0000      -5.746398      -156.3674
  58   1.0000      -5.743742      -156.2952
  59   1.0000      -5.743618      -156.2918
  60   1.0000      -5.742794      -156.2694
  61   1.0000      -5.742753      -156.2682
  62   1.0000      -5.740817      -156.2156
  63   1.0000      -5.740815      -156.2155
  64   1.0000      -5.739072      -156.1681
  65   1.0000      -5.738948      -156.1647
  66   1.0000      -5.738034      -156.1398
  67   1.0000      -5.738001      -156.1390
  68   1.0000      -5.658884      -153.9861
  69   1.0000      -5.658784      -153.9833
  70   1.0000      -5.658625      -153.9790
  71   1.0000      -5.658351      -153.9715
  72   1.0000      -5.652213      -153.8045
  73   1.0000      -5.652138      -153.8025
  74   1.0000      -5.651946      -153.7973
  75   1.0000      -5.651703      -153.7907
  76   1.0000      -5.650883      -153.7683
  77   1.0000      -5.650775      -153.7654
  78   1.0000      -5.650581      -153.7601
  79   1.0000      -5.650330      -153.7533
  80   1.0000      -2.443360       -66.4872
  81   1.0000      -1.484687       -40.4004
  82   1.0000      -1.472986       -40.0820
  83   1.0000      -1.472174       -40.0599
  84   1.0000      -0.715614       -19.4728
  85   1.0000      -0.708943       -19.2913
  86   1.0000      -0.691930       -18.8284
  87   1.0000      -0.684836       -18.6353
  88   1.0000      -0.649262       -17.6673
  89   1.0000      -0.637290       -17.3415
  90   1.0000      -0.630588       -17.1592
  91   1.0000      -0.619491       -16.8572
  92   1.0000      -0.616693       -16.7811
  93   1.0000      -0.575033       -15.6474
  94   1.0000      -0.574167       -15.6239
  95   1.0000      -0.573251       -15.5990
  96   1.0000      -0.572677       -15.5833
  97   1.0000      -0.499026       -13.5792
  98   1.0000      -0.497469       -13.5368
  99   1.0000      -0.495530       -13.4841
 100   1.0000      -0.495257       -13.4766
 101   1.0000      -0.479492       -13.0476
 102   1.0000      -0.476780       -12.9738
 103   1.0000      -0.446243       -12.1429
 104   1.0000      -0.441048       -12.0015
 105   1.0000      -0.416107       -11.3229
 106   1.0000      -0.410973       -11.1831
 107   1.0000      -0.372609       -10.1392
 108   1.0000      -0.353356        -9.6153
 109   1.0000      -0.334279        -9.0962
 110   1.0000      -0.325618        -8.8605
 111   1.0000      -0.324767        -8.8374
 112   1.0000      -0.316114        -8.6019
 113   1.0000      -0.307893        -8.3782
 114   1.0000      -0.303102        -8.2478
 115   1.0000      -0.295972        -8.0538
 116   1.0000      -0.294183        -8.0051
 117   1.0000      -0.262338        -7.1386
 118   1.0000      -0.257219        -6.9993
 119   1.0000      -0.254259        -6.9188
 120   1.0000      -0.251917        -6.8550
 121   1.0000      -0.236321        -6.4306
 122   1.0000      -0.229016        -6.2318
 123   1.0000      -0.227245        -6.1837
 124   1.0000      -0.221238        -6.0202
 125   1.0000      -0.218657        -5.9500
 126   1.0000      -0.215401        -5.8614
 127   1.0000      -0.213789        -5.8175
 128   1.0000      -0.193006        -5.2520
 129   1.0000      -0.188348        -5.1252
 130   1.0000      -0.188220        -5.1217
 131   1.0000      -0.185525        -5.0484
 132   1.0000      -0.180207        -4.9037
 133   1.0000      -0.178353        -4.8532
 134   1.0000      -0.158684        -4.3180
 135   1.0000      -0.153097        -4.1660
 136   1.0000      -0.146849        -3.9960
 137   1.0000      -0.135483        -3.6867
 138   1.0000      -0.132394        -3.6026
 139   1.0000      -0.131718        -3.5842
 140   1.0000      -0.124270        -3.3816
 141   1.0000      -0.120363        -3.2752
 142   1.0000      -0.112933        -3.0731
 143   1.0000      -0.109154        -2.9702
 144   1.0000      -0.099257        -2.7009
 145   1.0000      -0.099010        -2.6942
 146   1.0000      -0.097275        -2.6470
 147   1.0000      -0.094815        -2.5800
 148   1.0000      -0.073969        -2.0128
 149   1.0000      -0.071442        -1.9440
 150   1.0000      -0.066861        -1.8194
 151   1.0000      -0.051720        -1.4074
 152   1.0000      -0.045004        -1.2246
 153   1.0000      -0.037545        -1.0216
 154   1.0000      -0.036469        -0.9924
 155   1.0000      -0.031110        -0.8465
 156   1.0000      -0.024271        -0.6605
 157   1.0000      -0.018543        -0.5046
 158   1.0000      -0.014801        -0.4028
 159   1.0000       0.020970         0.5706
 160   1.0000       0.041821         1.1380
 161   0.0000       0.133779         3.6403
 162   0.0000       0.137150         3.7320
 163   0.0000       0.162004         4.4084
 164   0.0000       0.162056         4.4098
 165   0.0000       0.163800         4.4572

                 SPIN DOWN ORBITALS
  NO   OCC          E(Eh)            E(eV)
   0   1.0000    -196.674449     -5351.7838
   1   1.0000     -88.738553     -2414.6988
   2   1.0000     -88.738476     -2414.6967
   3   1.0000     -88.732573     -2414.5361
   4   1.0000     -88.732543     -2414.5352
   5   1.0000     -88.729981     -2414.4655
   6   1.0000     -88.729831     -2414.4614
   7   1.0000     -88.729014     -2414.4392
   8   1.0000     -88.728951     -2414.4375
   9   1.0000     -88.639377     -2412.0001
  10   1.0000     -88.639324     -2411.9986
  11   1.0000     -88.639189     -2411.9949
  12   1.0000     -88.638829     -2411.9852
  13   1.0000     -22.034776      -599.5967
  14   1.0000     -18.893375      -514.1149
  15   1.0000     -18.550892      -504.7954
  16   1.0000     -18.534945      -504.3615
  17   1.0000     -18.534764      -504.3566
  18   1.0000     -10.075597      -274.1709
  19   1.0000     -10.074496      -274.1410
  20   1.0000     -10.074456      -274.1399
  21   1.0000     -10.074421      -274.1389
  22   1.0000     -10.063064      -273.8299
  23   1.0000     -10.063020      -273.8287
  24   1.0000     -10.051815      -273.5238
  25   1.0000     -10.049388      -273.4577
  26   1.0000     -10.048677      -273.4384
  27   1.0000     -10.047935      -273.4182
  28   1.0000     -10.017621      -272.5933
  29   1.0000     -10.016845      -272.5722
  30   1.0000     -10.016701      -272.5683
  31   1.0000     -10.016040      -272.5503
  32   1.0000      -7.791678      -212.0223
  33   1.0000      -7.791584      -212.0198
  34   1.0000      -7.786031      -211.8687
  35   1.0000      -7.786021      -211.8684
  36   1.0000      -7.783246      -211.7929
  37   1.0000      -7.783123      -211.7895
  38   1.0000      -7.782271      -211.7664
  39   1.0000      -7.782233      -211.7653
  40   1.0000      -7.693700      -209.3562
  41   1.0000      -7.693590      -209.3532
  42   1.0000      -7.693413      -209.3484
  43   1.0000      -7.693159      -209.3415
  44   1.0000      -5.756715      -156.6482
  45   1.0000      -5.756612      -156.6454
  46   1.0000      -5.753243      -156.5537
  47   1.0000      -5.753164      -156.5516
  48   1.0000      -5.751019      -156.4932
  49   1.0000      -5.751017      -156.4931
  50   1.0000      -5.748189      -156.4162
  51   1.0000      -5.748065      -156.4128
  52   1.0000      -5.747602      -156.4002
  53   1.0000      -5.747600      -156.4002
  54   1.0000      -5.747251      -156.3907
  55   1.0000      -5.747212      -156.3896
  56   1.0000      -5.746489      -156.3699
  57   1.0000      -5.746399      -156.3675
  58   1.0000      -5.743756      -156.2956
  59   1.0000      -5.743631      -156.2922
  60   1.0000      -5.742808      -156.2698
  61   1.0000      -5.742767      -156.2686
  62   1.0000      -5.740818      -156.2156
  63   1.0000      -5.740816      -156.2155
  64   1.0000      -5.739079      -156.1683
  65   1.0000      -5.738957      -156.1650
  66   1.0000      -5.738040      -156.1400
  67   1.0000      -5.738007      -156.1391
  68   1.0000      -5.659022      -153.9898
  69   1.0000      -5.658926      -153.9872
  70   1.0000      -5.658767      -153.9829
  71   1.0000      -5.658492      -153.9754
  72   1.0000      -5.652599      -153.8150
  73   1.0000      -5.652489      -153.8120
  74   1.0000      -5.652328      -153.8077
  75   1.0000      -5.652064      -153.8005
  76   1.0000      -5.650969      -153.7707
  77   1.0000      -5.650880      -153.7683
  78   1.0000      -5.650675      -153.7627
  79   1.0000      -5.650436      -153.7562
  80   1.0000      -2.398472       -65.2657
  81   1.0000      -1.465391       -39.8753
  82   1.0000      -1.410611       -38.3847
  83   1.0000      -1.410448       -38.3802
  84   1.0000      -0.715609       -19.4727
  85   1.0000      -0.708916       -19.2906
  86   1.0000      -0.691884       -18.8271
  87   1.0000      -0.684781       -18.6338
  88   1.0000      -0.657377       -17.8881
  89   1.0000      -0.637235       -17.3401
  90   1.0000      -0.630513       -17.1571
  91   1.0000      -0.619493       -16.8573
  92   1.0000      -0.616693       -16.7811
  93   1.0000      -0.574964       -15.6456
  94   1.0000      -0.574136       -15.6230
  95   1.0000      -0.573228       -15.5983
  96   1.0000      -0.572593       -15.5811
  97   1.0000      -0.499048       -13.5798
  98   1.0000      -0.497503       -13.5377
  99   1.0000      -0.495552       -13.4847
 100   1.0000      -0.495301       -13.4778
 101   1.0000      -0.479689       -13.0530
 102   1.0000      -0.477037       -12.9808
 103   1.0000      -0.446267       -12.1436
 104   1.0000      -0.441092       -12.0027
 105   1.0000      -0.416106       -11.3228
 106   1.0000      -0.411079       -11.1860
 107   1.0000      -0.372607       -10.1391
 108   1.0000      -0.353345        -9.6150
 109   1.0000      -0.334277        -9.0961
 110   1.0000      -0.325603        -8.8601
 111   1.0000      -0.324751        -8.8369
 112   1.0000      -0.316095        -8.6014
 113   1.0000      -0.307841        -8.3768
 114   1.0000      -0.303065        -8.2468
 115   1.0000      -0.295925        -8.0525
 116   1.0000      -0.294181        -8.0051
 117   1.0000      -0.262325        -7.1382
 118   1.0000      -0.257094        -6.9959
 119   1.0000      -0.254195        -6.9170
 120   1.0000      -0.251841        -6.8529
 121   1.0000      -0.236298        -6.4300
 122   1.0000      -0.228982        -6.2309
 123   1.0000      -0.227209        -6.1827
 124   1.0000      -0.221163        -6.0181
 125   1.0000      -0.218334        -5.9412
 126   1.0000      -0.215024        -5.8511
 127   1.0000      -0.213706        -5.8152
 128   1.0000      -0.191279        -5.2050
 129   1.0000      -0.188200        -5.1212
 130   1.0000      -0.188143        -5.1196
 131   1.0000      -0.185218        -5.0400
 132   1.0000      -0.180064        -4.8998
 133   1.0000      -0.178283        -4.8513
 134   1.0000      -0.158059        -4.3010
 135   1.0000      -0.152906        -4.1608
 136   1.0000      -0.146763        -3.9936
 137   1.0000      -0.134895        -3.6707
 138   1.0000      -0.132169        -3.5965
 139   1.0000      -0.131237        -3.5711
 140   1.0000      -0.123786        -3.3684
 141   1.0000      -0.120039        -3.2664
 142   1.0000      -0.114736        -3.1221
 143   1.0000      -0.110705        -3.0124
 144   1.0000      -0.099275        -2.7014
 145   1.0000      -0.099023        -2.6946
 146   1.0000      -0.097582        -2.6553
 147   1.0000      -0.095130        -2.5886
 148   1.0000      -0.071430        -1.9437
 149   1.0000      -0.070119        -1.9080
 150   1.0000      -0.066864        -1.8194
 151   1.0000      -0.049128        -1.3368
 152   1.0000      -0.044067        -1.1991
 153   1.0000      -0.037587        -1.0228
 154   1.0000      -0.035901        -0.9769
 155   1.0000      -0.031180        -0.8485
 156   1.0000      -0.025303        -0.6885
 157   1.0000      -0.015009        -0.4084
 158   1.0000       0.021264         0.5786
 159   1.0000       0.040718         1.1080
 160   0.0000       0.133753         3.6396
 161   0.0000       0.137157         3.7322
 162   0.0000       0.156380         4.2553
 163   0.0000       0.162073         4.4102
 164   0.0000       0.162773         4.4293

MULLIKEN ATOMIC CHARGES AND SPIN POPULATIONS
--------------------------------------------
   0 V :    0.471223    1.210628
   1 S :   -0.291814   -0.022476
   2 S :   -0.289758   -0.025157
   3 S :   -0.289884   -0.023416
   4 S :   -0.285616   -0.025651
   5 O :   -0.468011   -0.146684
   6 C :   -0.077788    0.009663
   7 C :   -0.084506    0.008100
   8 C :   -0.081967    0.007761
   9 C :   -0.082677    0.007374
  10 S :    0.099979   -0.000586
  11 S :    0.101266   -0.000629
  12 S :    0.096088   -0.000395
  13 S :    0.095292   -0.000348
  14 C :   -0.209437    0.001522
  15 C :   -0.251400    0.001061
  16 C :   -0.199160   -0.000073
  17 C :   -0.110789   -0.000471
  18 S :    0.009971   -0.000111
  19 S :    0.010185   -0.000111
  20 S :   -0.003473   -0.000079
  21 S :   -0.003271   -0.000082
  22 C :   -0.256969    0.000003
  23 C :   -0.255866    0.000002
  24 C :   -0.172912   -0.000014
  25 H :    0.097673   -0.000002
  26 H :    0.119880   -0.000008
  27 H :    0.098357   -0.000002
  28 H :    0.071532   -0.000001
  29 H :    0.119316   -0.000008
  30 H :    0.097104   -0.000002
  31 C :   -0.302239    0.000193
  32 C :   -0.302715    0.000188
  33 C :   -0.156023   -0.000235
  34 H :    0.144363   -0.000017
  35 H :    0.111868    0.000020
  36 H :    0.093822    0.000023
  37 H :    0.082023    0.000017
  38 H :    0.111917    0.000021
  39 H :    0.144416   -0.000018
Sum of atomic charges         :   -2.0000000

LOEWDIN ATOMIC CHARGES AND SPIN POPULATIONS
-------------------------------------------
   0 V :   -0.155986    1.164001
   1 S :    0.079411   -0.014498
   2 S :    0.079341   -0.016038
   3 S :    0.080711   -0.015292
   4 S :    0.083226   -0.016265
   5 O :   -0.319132   -0.131592
   6 C :   -0.550067    0.009046
   7 C :   -0.552216    0.007964
   8 C :   -0.551861    0.008141
   9 C :   -0.551844    0.007664
  10 S :    0.471730   -0.000904
  11 S :    0.472686   -0.000948
  12 S :    0.467177   -0.000825
  13 S :    0.466474   -0.000827
  14 C :   -0.465188    0.000170
  15 C :   -0.463808   -0.000083
  16 C :   -0.623532    0.000473
  17 C :   -0.614952    0.000075
  18 S :    0.358474   -0.000088
  19 S :    0.359847   -0.000086
  20 S :    0.361907   -0.000080
  21 S :    0.361521   -0.000083
  22 C :   -0.292425   -0.000009
  23 C :   -0.292565   -0.000011
  24 C :   -0.190965   -0.000002
  25 H :    0.063381   -0.000002
  26 H :    0.069658   -0.000003
  27 H :    0.063568   -0.000002
  28 H :    0.047929   -0.000001
  29 H :    0.069580   -0.000003
  30 H :    0.063199   -0.000002
  31 C :   -0.285085    0.000043
  32 C :   -0.284791    0.000037
  33 C :   -0.175657    0.000007
  34 H :    0.062463   -0.000001
  35 H :    0.053417    0.000009
  36 H :    0.061071    0.000005
  37 H :    0.057428    0.000002
  38 H :    0.053504    0.000009
  39 H :    0.062372   -0.000000

  Mayer bond orders larger than 0.100000
B(  0-V ,  1-S ) :   0.7721 B(  0-V ,  2-S ) :   0.7707 B(  0-V ,  3-S ) :   0.7654
B(  0-V ,  4-S ) :   0.7781 B(  0-V ,  5-O ) :   2.1483 B(  1-S ,  8-C ) :   1.1024
B(  2-S ,  6-C ) :   1.1045 B(  3-S ,  9-C ) :   1.1052 B(  4-S ,  7-C ) :   1.1049
B(  6-C ,  7-C ) :   1.6839 B(  6-C , 10-S ) :   0.9351 B(  7-C , 11-S ) :   0.9391
B(  8-C ,  9-C ) :   1.7027 B(  8-C , 13-S ) :   0.9329 B(  9-C , 12-S ) :   0.9350
B( 10-S , 14-C ) :   1.2488 B( 11-S , 14-C ) :   1.2485 B( 12-S , 15-C ) :   1.2471
B( 13-S , 15-C ) :   1.2474 B( 14-C , 16-C ) :   1.4474 B( 15-C , 17-C ) :   1.4736
B( 16-C , 18-S ) :   1.0916 B( 16-C , 19-S ) :   1.0929 B( 17-C , 20-S ) :   1.0512
B( 17-C , 21-S ) :   1.0522 B( 18-S , 32-C ) :   0.9913 B( 19-S , 31-C ) :   0.9913
B( 20-S , 23-C ) :   0.9961 B( 21-S , 22-C ) :   0.9956 B( 22-C , 24-C ) :   0.9133
B( 22-C , 25-H ) :   0.9570 B( 22-C , 26-H ) :   0.9626 B( 23-C , 24-C ) :   0.9140
B( 23-C , 29-H ) :   0.9628 B( 23-C , 30-H ) :   0.9566 B( 24-C , 27-H ) :   0.9690
B( 24-C , 28-H ) :   0.9705 B( 31-C , 33-C ) :   0.9112 B( 31-C , 38-H ) :   0.9655
B( 31-C , 39-H ) :   0.9661 B( 32-C , 33-C ) :   0.9110 B( 32-C , 34-H ) :   0.9659
B( 32-C , 35-H ) :   0.9655 B( 33-C , 36-H ) :   0.9712 B( 33-C , 37-H ) :   0.9630

FINAL SINGLE POINT ENERGY     -6337.647437098473

DIPOLE MOMENT
-------------
                                X             Y             Z
Electronic contribution:     -9.24855       0.14134     -10.11437
Nuclear contribution   :     10.24483      -0.16367      11.10532
                        -----------------------------------------
Total Dipole Moment    :      0.99628      -0.02232       0.99094
                        -----------------------------------------
Magnitude (a.u.)       :      1.40536
Magnitude (Debye)      :      3.57215

Rotational constants in cm-1:     0.010748     0.000804     0.000783
Rotational constants in MHz :   322.223526    24.118295    23.488546

                             ****ORCA TERMINATED NORMALLY****
TOTAL RUN TIME: 0 days 1 hours 6 minutes 36 seconds 544 msec
