                         Program Version 5.0.4 -  RELEASE  -
|  1> ! nofrozencore ReducedPop printbasis
|  2> ! B3LYP TZVP
|  3>
|  4> %basis
|  5> newgto V "CP(PPP)" end
|  6> end
|  7>
|  8> %pal
|  9> nprocs 6
| 10> end
| 11>
| 12> % sym SymThresh 1e-2 end
| 13> * xyz -2 2
| 14> V -1.102361865042817 0.1910581732146936 0.04442085003898186
| 15> S -0.35705480457965016 2.0711591312192525 1.4528338007210937
| 16> S -0.2929498189617422 1.4469409256405892 -1.9201915775415843
| 17> S -0.4883580477710159 -1.2686435664229925 1.949234847235918
| 18> S -0.40180121765714033 -1.8317187606977625 -1.1829681780039958
| 19> O -2.687314986855946 0.29471943875203926 -0.023555031205860825
| 20> C -0.2972045346650734 0.14015691985956902 -3.101250590599862
| 21> C -0.32529432995364677 -1.1735590173127555 -2.806736049777023
| 22> C -0.14546102631692456 1.256172709570841 2.998753011402953
| 23> C -0.18878645386935294 -0.07455514275129098 3.198569274831447
| 24> S -0.1903341232576684 0.5650991352068507 -4.836744236611669
| 25> S -0.18782273612888717 -2.3107201179905505 -4.19454939971337
| 26> S 0.13982602813703857 -0.6438500989381678 4.876465666906589
| 27> S 0.20684968879040352 2.2689446912192426 4.430395391607427
| 28> C -0.09541019977606362 -1.0860502030357921 -5.46420189509608
| 29> C 0.4559434329557399 0.947167076308947 5.578585516710297
| 30> C 0.02635380174401127 -1.3496840401189965 -6.800106445875293
| 31> C 0.8420659135324831 1.1801935782443427 6.868879210794328
| 32> S 0.08300313375428851 -0.009832883383303721 -7.97739343080115
| 33> S 0.1151039317636349 -2.998020989784374 -7.47019326698084
| 34> S 1.1936870652595502 2.8463694324367212 7.4095710512667265
| 35> S 1.0353904390875355 -0.10736659636700498 8.08531690156797
| 36> C 2.8367439574840785 0.11578963980422857 8.465804375532993
| 37> C 2.981958115905728 2.6088998528873244 7.812054907372096
| 38> C 3.2158885036800964 1.5416975795364432 8.891677750992704
| 39> H 3.410133179131929 -0.19122339930653534 7.581478437088324
| 40> H 3.0502564636385165 -0.594244710296198 9.276479937023604
| 41> H 4.283565460123891 1.5409800741089419 9.152876486039172
| 42> H 2.6591480723917034 1.8160723837845334 9.798216348161978
| 43> H 3.339660311789486 3.58828005438054 8.155028381473295
| 44> H 3.5085251463279685 2.3555447704786006 6.883432328474743
| 45> C -1.4068704487453527 -2.96065369519259 -8.528881085081707
| 46> C -1.4648240335752434 -0.41167221678477006 -8.904707491871132
| 47> C -1.4408492396615427 -1.8072312751281843 -9.5386822868886
| 48> H -2.309650245306558 -0.30628415308344903 -8.21704067114179
| 49> H -1.5537357902628925 0.3582533255416998 -9.678601885258246
| 50> H -0.5786018127376482 -1.8830908694479418 -10.21160580343618
| 51> H -2.344729575304789 -1.9235421889779627 -10.15324710956061
| 52> H -1.4169704345028624 -3.923439359377516 -9.05190895561318
| 53> H -2.277501304500765 -2.9219456048681707 -7.866444840529799
| 54> *
| 55>
| 56> % eprnmr
| 57> gtensor true
| 58> Nuclei = all H {aiso,adip,aorb,fgrad,rho}
| 59> Nuclei = all V {aiso,adip,aorb,fgrad,rho}
| 60> end
| 61>
| 62>                          ****END OF INPUT****

CARTESIAN COORDINATES (ANGSTROEM)
---------------------------------
  V     -1.099378    0.190482    0.042084
  S     -0.354070    2.070583    1.450497
  S     -0.289965    1.446365   -1.922528
  S     -0.485374   -1.269219    1.946898
  S     -0.398817   -1.832295   -1.185305
  O     -2.684331    0.294144   -0.025892
  C     -0.294220    0.139581   -3.103587
  C     -0.322310   -1.174135   -2.809073
  C     -0.142477    1.255597    2.996416
  C     -0.185802   -0.075131    3.196233
  S     -0.187350    0.564523   -4.839081
  S     -0.184838   -2.311296   -4.196886
  S      0.142810   -0.644426    4.874129
  S      0.209834    2.268369    4.428059
  C     -0.092426   -1.086626   -5.466539
  C      0.458928    0.946591    5.576249
  C      0.029338   -1.350260   -6.802443
  C      0.845050    1.179618    6.866542
  S      0.085987   -0.010409   -7.979730
  S      0.118088   -2.998597   -7.472530
  S      1.196671    2.845794    7.407234
  S      1.038375   -0.107942    8.082980
  C      2.839728    0.115214    8.463468
  C      2.984942    2.608324    7.809718
  C      3.218873    1.541122    8.889341
  H      3.413118   -0.191799    7.579142
  H      3.053241   -0.594821    9.274143
  H      4.286550    1.540404    9.150540
  H      2.662132    1.815497    9.795880
  H      3.342645    3.587704    8.152692
  H      3.511509    2.354969    6.881096
  C     -1.403886   -2.961230   -8.531218
  C     -1.461840   -0.412248   -8.907044
  C     -1.437865   -1.807807   -9.541019
  H     -2.306666   -0.306860   -8.219377
  H     -1.550751    0.357677   -9.680939
  H     -0.575617   -1.883667  -10.213943
  H     -2.341745   -1.924118  -10.155584
  H     -1.413986   -3.924015   -9.054246
  H     -2.274517   -2.922521   -7.868782

 Total Charge           Charge          ....   -2
 Multiplicity           Mult            ....    2
 Number of Electrons    NEL             ....  321
 Basis Dimension        Dim             ....  681

ORBITAL ENERGIES
----------------
                 SPIN UP ORBITALS
  NO   OCC          E(Eh)            E(eV)
   0   1.0000    -196.673375     -5351.7546
   1   1.0000     -88.734419     -2414.5863
   2   1.0000     -88.734050     -2414.5762
   3   1.0000     -88.732002     -2414.5205
   4   1.0000     -88.731784     -2414.5146
   5   1.0000     -88.730431     -2414.4778
   6   1.0000     -88.730319     -2414.4747
   7   1.0000     -88.728431     -2414.4234
   8   1.0000     -88.728076     -2414.4137
   9   1.0000     -88.639356     -2411.9995
  10   1.0000     -88.639097     -2411.9925
  11   1.0000     -88.638424     -2411.9741
  12   1.0000     -88.638176     -2411.9674
  13   1.0000     -22.048814      -599.9787
  14   1.0000     -18.888675      -513.9870
  15   1.0000     -18.555265      -504.9144
  16   1.0000     -18.550080      -504.7733
  17   1.0000     -18.549989      -504.7709
  18   1.0000     -10.075027      -274.1554
  19   1.0000     -10.074969      -274.1538
  20   1.0000     -10.065502      -273.8962
  21   1.0000     -10.064650      -273.8731
  22   1.0000     -10.063982      -273.8549
  23   1.0000     -10.063486      -273.8414
  24   1.0000     -10.052308      -273.5372
  25   1.0000     -10.051793      -273.5232
  26   1.0000     -10.048320      -273.4287
  27   1.0000     -10.047915      -273.4177
  28   1.0000     -10.017312      -272.5849
  29   1.0000     -10.017285      -272.5842
  30   1.0000     -10.016265      -272.5564
  31   1.0000     -10.015923      -272.5471
  32   1.0000      -7.787659      -211.9130
  33   1.0000      -7.787322      -211.9038
  34   1.0000      -7.785590      -211.8567
  35   1.0000      -7.785367      -211.8506
  36   1.0000      -7.783584      -211.8021
  37   1.0000      -7.783548      -211.8011
  38   1.0000      -7.781813      -211.7539
  39   1.0000      -7.781522      -211.7460
  40   1.0000      -7.693644      -209.3547
  41   1.0000      -7.693320      -209.3459
  42   1.0000      -7.692844      -209.3329
  43   1.0000      -7.692595      -209.3261
  44   1.0000      -5.752681      -156.5384
  45   1.0000      -5.752344      -156.5292
  46   1.0000      -5.750547      -156.4803
  47   1.0000      -5.750335      -156.4746
  48   1.0000      -5.749228      -156.4445
  49   1.0000      -5.748896      -156.4354
  50   1.0000      -5.748543      -156.4258
  51   1.0000      -5.748493      -156.4245
  52   1.0000      -5.747174      -156.3885
  53   1.0000      -5.746945      -156.3823
  54   1.0000      -5.746761      -156.3773
  55   1.0000      -5.746465      -156.3693
  56   1.0000      -5.744129      -156.3057
  57   1.0000      -5.744071      -156.3041
  58   1.0000      -5.742475      -156.2607
  59   1.0000      -5.742302      -156.2560
  60   1.0000      -5.742121      -156.2511
  61   1.0000      -5.742012      -156.2481
  62   1.0000      -5.740374      -156.2035
  63   1.0000      -5.740147      -156.1973
  64   1.0000      -5.739396      -156.1769
  65   1.0000      -5.739381      -156.1765
  66   1.0000      -5.737618      -156.1285
  67   1.0000      -5.737319      -156.1204
  68   1.0000      -5.658970      -153.9884
  69   1.0000      -5.658676      -153.9804
  70   1.0000      -5.658129      -153.9655
  71   1.0000      -5.657878      -153.9587
  72   1.0000      -5.652321      -153.8075
  73   1.0000      -5.651993      -153.7985
  74   1.0000      -5.651483      -153.7847
  75   1.0000      -5.651271      -153.7789
  76   1.0000      -5.650964      -153.7706
  77   1.0000      -5.650607      -153.7608
  78   1.0000      -5.650162      -153.7487
  79   1.0000      -5.649882      -153.7411
  80   1.0000      -2.442520       -66.4644
  81   1.0000      -1.483726       -40.3742
  82   1.0000      -1.472183       -40.0601
  83   1.0000      -1.471432       -40.0397
  84   1.0000      -0.708939       -19.2912
  85   1.0000      -0.708618       -19.2825
  86   1.0000      -0.684803       -18.6344
  87   1.0000      -0.684231       -18.6189
  88   1.0000      -0.648397       -17.6438
  89   1.0000      -0.630643       -17.1607
  90   1.0000      -0.630123       -17.1465
  91   1.0000      -0.616867       -16.7858
  92   1.0000      -0.616521       -16.7764
  93   1.0000      -0.574253       -15.6262
  94   1.0000      -0.574068       -15.6212
  95   1.0000      -0.572540       -15.5796
  96   1.0000      -0.571434       -15.5495
  97   1.0000      -0.497169       -13.5287
  98   1.0000      -0.495431       -13.4814
  99   1.0000      -0.495033       -13.4705
 100   1.0000      -0.494181       -13.4474
 101   1.0000      -0.479206       -13.0398
 102   1.0000      -0.476356       -12.9623
 103   1.0000      -0.446657       -12.1542
 104   1.0000      -0.444290       -12.0897
 105   1.0000      -0.415856       -11.3160
 106   1.0000      -0.410250       -11.1635
 107   1.0000      -0.354502        -9.6465
 108   1.0000      -0.353874        -9.6294
 109   1.0000      -0.325941        -8.8693
 110   1.0000      -0.325260        -8.8508
 111   1.0000      -0.318758        -8.6739
 112   1.0000      -0.313767        -8.5380
 113   1.0000      -0.303636        -8.2623
 114   1.0000      -0.302773        -8.2389
 115   1.0000      -0.291888        -7.9427
 116   1.0000      -0.291024        -7.9192
 117   1.0000      -0.257770        -7.0143
 118   1.0000      -0.257017        -6.9938
 119   1.0000      -0.255910        -6.9637
 120   1.0000      -0.254267        -6.9190
 121   1.0000      -0.234371        -6.3776
 122   1.0000      -0.233856        -6.3636
 123   1.0000      -0.231096        -6.2884
 124   1.0000      -0.229740        -6.2515
 125   1.0000      -0.219880        -5.9832
 126   1.0000      -0.217821        -5.9272
 127   1.0000      -0.213755        -5.8166
 128   1.0000      -0.210827        -5.7369
 129   1.0000      -0.193192        -5.2570
 130   1.0000      -0.186879        -5.0852
 131   1.0000      -0.185804        -5.0560
 132   1.0000      -0.183659        -4.9976
 133   1.0000      -0.178771        -4.8646
 134   1.0000      -0.157937        -4.2977
 135   1.0000      -0.151180        -4.1138
 136   1.0000      -0.146060        -3.9745
 137   1.0000      -0.135601        -3.6899
 138   1.0000      -0.133983        -3.6459
 139   1.0000      -0.132317        -3.6005
 140   1.0000      -0.124025        -3.3749
 141   1.0000      -0.119656        -3.2560
 142   1.0000      -0.112141        -3.0515
 143   1.0000      -0.108646        -2.9564
 144   1.0000      -0.099155        -2.6981
 145   1.0000      -0.097728        -2.6593
 146   1.0000      -0.096437        -2.6242
 147   1.0000      -0.093897        -2.5551
 148   1.0000      -0.073839        -2.0093
 149   1.0000      -0.067431        -1.8349
 150   1.0000      -0.067048        -1.8245
 151   1.0000      -0.051864        -1.4113
 152   1.0000      -0.044007        -1.1975
 153   1.0000      -0.037731        -1.0267
 154   1.0000      -0.036695        -0.9985
 155   1.0000      -0.030199        -0.8218
 156   1.0000      -0.024881        -0.6770
 157   1.0000      -0.017029        -0.4634
 158   1.0000      -0.014317        -0.3896
 159   1.0000       0.021010         0.5717
 160   1.0000       0.042510         1.1568
 161   0.0000       0.137218         3.7339
 162   0.0000       0.137589         3.7440
 163   0.0000       0.162064         4.4100
 164   0.0000       0.162316         4.4168
 165   0.0000       0.171169         4.6577

                 SPIN DOWN ORBITALS
  NO   OCC          E(Eh)            E(eV)
   0   1.0000    -196.673521     -5351.7586
   1   1.0000     -88.734420     -2414.5863
   2   1.0000     -88.734050     -2414.5763
   3   1.0000     -88.732003     -2414.5206
   4   1.0000     -88.731785     -2414.5146
   5   1.0000     -88.730439     -2414.4780
   6   1.0000     -88.730328     -2414.4750
   7   1.0000     -88.728439     -2414.4236
   8   1.0000     -88.728083     -2414.4139
   9   1.0000     -88.639490     -2412.0032
  10   1.0000     -88.639239     -2411.9963
  11   1.0000     -88.638564     -2411.9779
  12   1.0000     -88.638321     -2411.9713
  13   1.0000     -22.033895      -599.5728
  14   1.0000     -18.892436      -514.0893
  15   1.0000     -18.550009      -504.7714
  16   1.0000     -18.534026      -504.3365
  17   1.0000     -18.533911      -504.3334
  18   1.0000     -10.075026      -274.1554
  19   1.0000     -10.074963      -274.1537
  20   1.0000     -10.065502      -273.8962
  21   1.0000     -10.064649      -273.8730
  22   1.0000     -10.063982      -273.8549
  23   1.0000     -10.063485      -273.8414
  24   1.0000     -10.052308      -273.5372
  25   1.0000     -10.051793      -273.5232
  26   1.0000     -10.048315      -273.4286
  27   1.0000     -10.047902      -273.4173
  28   1.0000     -10.017116      -272.5796
  29   1.0000     -10.017082      -272.5787
  30   1.0000     -10.016002      -272.5493
  31   1.0000     -10.015686      -272.5407
  32   1.0000      -7.787660      -211.9130
  33   1.0000      -7.787322      -211.9038
  34   1.0000      -7.785591      -211.8567
  35   1.0000      -7.785367      -211.8506
  36   1.0000      -7.783592      -211.8023
  37   1.0000      -7.783557      -211.8014
  38   1.0000      -7.781822      -211.7541
  39   1.0000      -7.781531      -211.7462
  40   1.0000      -7.693770      -209.3581
  41   1.0000      -7.693453      -209.3495
  42   1.0000      -7.692974      -209.3365
  43   1.0000      -7.692730      -209.3298
  44   1.0000      -5.752682      -156.5384
  45   1.0000      -5.752345      -156.5293
  46   1.0000      -5.750548      -156.4804
  47   1.0000      -5.750336      -156.4746
  48   1.0000      -5.749229      -156.4445
  49   1.0000      -5.748897      -156.4355
  50   1.0000      -5.748553      -156.4261
  51   1.0000      -5.748503      -156.4247
  52   1.0000      -5.747175      -156.3886
  53   1.0000      -5.746945      -156.3823
  54   1.0000      -5.746771      -156.3776
  55   1.0000      -5.746474      -156.3695
  56   1.0000      -5.744142      -156.3061
  57   1.0000      -5.744085      -156.3045
  58   1.0000      -5.742475      -156.2607
  59   1.0000      -5.742315      -156.2563
  60   1.0000      -5.742122      -156.2511
  61   1.0000      -5.742025      -156.2485
  62   1.0000      -5.740375      -156.2035
  63   1.0000      -5.740148      -156.1974
  64   1.0000      -5.739402      -156.1771
  65   1.0000      -5.739391      -156.1768
  66   1.0000      -5.737624      -156.1287
  67   1.0000      -5.737324      -156.1205
  68   1.0000      -5.659114      -153.9923
  69   1.0000      -5.658821      -153.9844
  70   1.0000      -5.658264      -153.9692
  71   1.0000      -5.658020      -153.9625
  72   1.0000      -5.652662      -153.8168
  73   1.0000      -5.652369      -153.8088
  74   1.0000      -5.651875      -153.7953
  75   1.0000      -5.651646      -153.7891
  76   1.0000      -5.651067      -153.7733
  77   1.0000      -5.650705      -153.7635
  78   1.0000      -5.650248      -153.7511
  79   1.0000      -5.649999      -153.7443
  80   1.0000      -2.397671       -65.2439
  81   1.0000      -1.464465       -39.8501
  82   1.0000      -1.409940       -38.3664
  83   1.0000      -1.409662       -38.3589
  84   1.0000      -0.708911       -19.2904
  85   1.0000      -0.708601       -19.2820
  86   1.0000      -0.684747       -18.6329
  87   1.0000      -0.684187       -18.6177
  88   1.0000      -0.656466       -17.8634
  89   1.0000      -0.630569       -17.1587
  90   1.0000      -0.630061       -17.1448
  91   1.0000      -0.616866       -16.7858
  92   1.0000      -0.616523       -16.7764
  93   1.0000      -0.574209       -15.6250
  94   1.0000      -0.574028       -15.6201
  95   1.0000      -0.572471       -15.5777
  96   1.0000      -0.571371       -15.5478
  97   1.0000      -0.497205       -13.5296
  98   1.0000      -0.495474       -13.4825
  99   1.0000      -0.495060       -13.4713
 100   1.0000      -0.494208       -13.4481
 101   1.0000      -0.479388       -13.0448
 102   1.0000      -0.476602       -12.9690
 103   1.0000      -0.446677       -12.1547
 104   1.0000      -0.444336       -12.0910
 105   1.0000      -0.415857       -11.3161
 106   1.0000      -0.410364       -11.1666
 107   1.0000      -0.354491        -9.6462
 108   1.0000      -0.353868        -9.6293
 109   1.0000      -0.325924        -8.8688
 110   1.0000      -0.325250        -8.8505
 111   1.0000      -0.318674        -8.6716
 112   1.0000      -0.313793        -8.5388
 113   1.0000      -0.303581        -8.2609
 114   1.0000      -0.302749        -8.2382
 115   1.0000      -0.291881        -7.9425
 116   1.0000      -0.291021        -7.9191
 117   1.0000      -0.257646        -7.0109
 118   1.0000      -0.256893        -6.9904
 119   1.0000      -0.255870        -6.9626
 120   1.0000      -0.254242        -6.9183
 121   1.0000      -0.234318        -6.3761
 122   1.0000      -0.233844        -6.3632
 123   1.0000      -0.231045        -6.2870
 124   1.0000      -0.229711        -6.2508
 125   1.0000      -0.219547        -5.9742
 126   1.0000      -0.217691        -5.9237
 127   1.0000      -0.213524        -5.8103
 128   1.0000      -0.210682        -5.7329
 129   1.0000      -0.191538        -5.2120
 130   1.0000      -0.186806        -5.0833
 131   1.0000      -0.185620        -5.0510
 132   1.0000      -0.183240        -4.9862
 133   1.0000      -0.178655        -4.8614
 134   1.0000      -0.157322        -4.2809
 135   1.0000      -0.150991        -4.1087
 136   1.0000      -0.145987        -3.9725
 137   1.0000      -0.135051        -3.6749
 138   1.0000      -0.133572        -3.6347
 139   1.0000      -0.132122        -3.5952
 140   1.0000      -0.123324        -3.3558
 141   1.0000      -0.119335        -3.2473
 142   1.0000      -0.113838        -3.0977
 143   1.0000      -0.110151        -2.9974
 144   1.0000      -0.099144        -2.6978
 145   1.0000      -0.098002        -2.6668
 146   1.0000      -0.096499        -2.6259
 147   1.0000      -0.094230        -2.5641
 148   1.0000      -0.070338        -1.9140
 149   1.0000      -0.067274        -1.8306
 150   1.0000      -0.067031        -1.8240
 151   1.0000      -0.049299        -1.3415
 152   1.0000      -0.043042        -1.1712
 153   1.0000      -0.037110        -1.0098
 154   1.0000      -0.036446        -0.9918
 155   1.0000      -0.030301        -0.8245
 156   1.0000      -0.025487        -0.6935
 157   1.0000      -0.014516        -0.3950
 158   1.0000       0.021249         0.5782
 159   1.0000       0.041501         1.1293
 160   0.0000       0.137224         3.7341
 161   0.0000       0.137582         3.7438
 162   0.0000       0.156850         4.2681
 163   0.0000       0.162267         4.4155
 164   0.0000       0.163872         4.4592

MULLIKEN ATOMIC CHARGES AND SPIN POPULATIONS
--------------------------------------------
   0 V :    0.471742    1.209928
   1 S :   -0.293189   -0.021360
   2 S :   -0.292630   -0.024344
   3 S :   -0.285699   -0.025378
   4 S :   -0.282323   -0.026524
   5 O :   -0.471123   -0.145963
   6 C :   -0.079911    0.011219
   7 C :   -0.082562    0.006700
   8 C :   -0.086204    0.008458
   9 C :   -0.082440    0.007056
  10 S :    0.100363   -0.000410
  11 S :    0.098868   -0.000698
  12 S :    0.097091   -0.000452
  13 S :    0.100148   -0.000160
  14 C :   -0.214346    0.001574
  15 C :   -0.210709    0.001067
  16 C :   -0.189645   -0.000100
  17 C :   -0.190660   -0.000426
  18 S :    0.010399   -0.000116
  19 S :    0.008354   -0.000112
  20 S :    0.009967   -0.000069
  21 S :    0.007693   -0.000056
  22 C :   -0.296039   -0.000007
  23 C :   -0.302814   -0.000005
  24 C :   -0.157307   -0.000008
  25 H :    0.139177    0.000000
  26 H :    0.111085   -0.000004
  27 H :    0.083796   -0.000001
  28 H :    0.092006   -0.000001
  29 H :    0.114838   -0.000005
  30 H :    0.145002   -0.000002
  31 C :   -0.297419    0.000211
  32 C :   -0.303276    0.000191
  33 C :   -0.156480   -0.000252
  34 H :    0.144145   -0.000017
  35 H :    0.114507    0.000015
  36 H :    0.092267    0.000025
  37 H :    0.082577    0.000017
  38 H :    0.111476    0.000027
  39 H :    0.139273   -0.000018
Sum of atomic charges         :   -2.0000000

LOEWDIN ATOMIC CHARGES AND SPIN POPULATIONS
-------------------------------------------
   0 V :   -0.156536    1.163230
   1 S :    0.080995   -0.013440
   2 S :    0.078717   -0.015350
   3 S :    0.082314   -0.016876
   4 S :    0.084956   -0.017031
   5 O :   -0.321612   -0.130951
   6 C :   -0.552764    0.010500
   7 C :   -0.550682    0.006701
   8 C :   -0.554768    0.008906
   9 C :   -0.550731    0.007135
  10 S :    0.472214   -0.000803
  11 S :    0.470710   -0.000954
  12 S :    0.468390   -0.000777
  13 S :    0.472477   -0.000759
  14 C :   -0.465078    0.000164
  15 C :   -0.465036   -0.000061
  16 C :   -0.621737    0.000500
  17 C :   -0.620157    0.000097
  18 S :    0.360993   -0.000094
  19 S :    0.358111   -0.000082
  20 S :    0.359031   -0.000071
  21 S :    0.358075   -0.000066
  22 C :   -0.285343   -0.000008
  23 C :   -0.284073   -0.000009
  24 C :   -0.176722   -0.000002
  25 H :    0.061881   -0.000001
  26 H :    0.054221   -0.000003
  27 H :    0.057639   -0.000001
  28 H :    0.060875   -0.000001
  29 H :    0.054483   -0.000003
  30 H :    0.064381   -0.000002
  31 C :   -0.284897    0.000055
  32 C :   -0.284249    0.000027
  33 C :   -0.176566    0.000007
  34 H :    0.063271   -0.000001
  35 H :    0.054062    0.000007
  36 H :    0.060532    0.000005
  37 H :    0.057583    0.000002
  38 H :    0.053762    0.000010
  39 H :    0.061278    0.000000

  Mayer bond orders larger than 0.100000
B(  0-V ,  1-S ) :   0.7799 B(  0-V ,  2-S ) :   0.7783 B(  0-V ,  3-S ) :   0.7587
B(  0-V ,  4-S ) :   0.7703 B(  0-V ,  5-O ) :   2.1451 B(  1-S ,  8-C ) :   1.0957
B(  2-S ,  6-C ) :   1.0970 B(  3-S ,  9-C ) :   1.1129 B(  4-S ,  7-C ) :   1.1131
B(  6-C ,  7-C ) :   1.6820 B(  6-C , 10-S ) :   0.9390 B(  7-C , 11-S ) :   0.9364
B(  8-C ,  9-C ) :   1.6953 B(  8-C , 13-S ) :   0.9399 B(  9-C , 12-S ) :   0.9315
B( 10-S , 14-C ) :   1.2453 B( 11-S , 14-C ) :   1.2500 B( 12-S , 15-C ) :   1.2475
B( 13-S , 15-C ) :   1.2397 B( 14-C , 16-C ) :   1.4524 B( 15-C , 17-C ) :   1.4561
B( 16-C , 18-S ) :   1.0908 B( 16-C , 19-S ) :   1.0847 B( 17-C , 20-S ) :   1.0890
B( 17-C , 21-S ) :   1.0838 B( 18-S , 32-C ) :   0.9881 B( 19-S , 31-C ) :   0.9945
B( 20-S , 23-C ) :   0.9855 B( 21-S , 22-C ) :   0.9950 B( 22-C , 24-C ) :   0.9178
B( 22-C , 25-H ) :   0.9637 B( 22-C , 26-H ) :   0.9649 B( 23-C , 24-C ) :   0.9089
B( 23-C , 29-H ) :   0.9650 B( 23-C , 30-H ) :   0.9657 B( 24-C , 27-H ) :   0.9624
B( 24-C , 28-H ) :   0.9713 B( 31-C , 33-C ) :   0.9168 B( 31-C , 38-H ) :   0.9652
B( 31-C , 39-H ) :   0.9645 B( 32-C , 33-C ) :   0.9094 B( 32-C , 34-H ) :   0.9664
B( 32-C , 35-H ) :   0.9653 B( 33-C , 36-H ) :   0.9715 B( 33-C , 37-H ) :   0.9622

FINAL SINGLE POINT ENERGY     -6337.704824042103

DIPOLE MOMENT
-------------
                                X             Y             Z
Electronic contribution:    -12.77373       2.54094       3.89828
Nuclear contribution   :     14.21719      -2.83922      -4.30201
                        -----------------------------------------
Total Dipole Moment    :      1.44346      -0.29828      -0.40374
                        -----------------------------------------
Magnitude (a.u.)       :      1.52825
Magnitude (Debye)      :      3.88451

Rotational constants in cm-1:     0.010757     0.000808     0.000786
Rotational constants in MHz :   322.499065    24.219033    23.573397

                             ****ORCA TERMINATED NORMALLY****
TOTAL RUN TIME: 0 days 1 hours 6 minutes 14 seconds 657 msec
