                         Program Version 5.0.4 -  RELEASE  -
|  1> ! nofrozencore ReducedPop printbasis
|  2> ! B3LYP TZVP
|  3>
|  4> %basis
|  5> newgto V "CP(PPP)" end
|  6> end
|  7>
|  8> %pal
|  9> nprocs 6
| 10> end
| 11>
| 12> % sym SymThresh 1e-2 end
| 13> * xyz -2 2
| 14> V -0.4576766127967538 -0.49876457133086816 0.8882341640992117
| 15> S 1.8597983638025475 -0.30092955533611176 1.6076143514364933
| 16> S -0.6044459780728632 1.9762532703593818 1.2524894854829667
| 17> S 0.38362878244311477 -2.3500981737502737 -0.6146523405095272
| 18> S -2.056919426741022 -0.16224056106460671 -0.9068260714992852
| 19> O -1.26485803388365 -1.133832890507431 2.101390454398361
| 20> C -2.1336279796618975 2.2631197746972354 0.42419814414518936
| 21> C -2.6895668147791407 1.4084999706737833 -0.45538317915436743
| 22> C 2.610744188310776 -1.7014872154276361 0.8633282193168563
| 23> C 2.0282607308762524 -2.5414235472302615 -0.011902824155707337
| 24> S -3.023093941074871 3.809823026848179 0.6782825102903527
| 25> S -4.160449459754514 1.9573884897607408 -1.3113534682729646
| 26> S 3.0633613880417543 -3.901275342748805 -0.5971317536692266
| 27> S 4.325157991813778 -2.0117880208474994 1.277152917174724
| 28> C -4.302210480343548 3.522316164673185 -0.5175156968393502
| 29> C 4.552835591987102 -3.4207825290290783 0.24386126356163737
| 30> C -5.3002854982918395 4.417039133164173 -0.7859256353628524
| 31> C 5.743397840053827 -4.082722924500618 0.10858239081985559
| 32> S -5.37383474486053 5.97146826822184 0.07324958919617237
| 33> S -6.600928818989697 4.095963978128893 -1.965894777303912
| 34> S 7.243539046259489 -3.6062675348951707 0.9559121512441816
| 35> S 5.880688532482054 -5.478809052788276 -0.9852424256198478
| 36> C 7.032047806953287 -4.693259000607533 -2.2029055265216972
| 37> C 8.339582360824332 -3.25392330215655 -0.5045816217444412
| 38> C 8.389095834836596 -4.363035524197644 -1.5673912536490946
| 39> H 6.538061939151915 -3.793025732912156 -2.5986719031228804
| 40> H 7.15450420489997 -5.41165810571401 -3.0283485370131156
| 41> H 9.07680169917634 -4.0321311742684625 -2.358325206060212
| 42> H 8.811482551388156 -5.278494097892417 -1.1317856771747794
| 43> H 9.340157827751344 -3.0979837776533654 -0.07207115594215398
| 44> H 8.010524115454558 -2.3050921924275207 -0.9552445886471413
| 45> C -8.07208791247038 4.203512453649946 -0.8380428624058617
| 46> C -6.964964020408991 5.673599523998929 0.9657780062774972
| 47> C -8.142836091522575 5.482994304904498 0.004288104613647848
| 48> H -6.831550690558525 4.7984553116049495 1.6122253252351464
| 49> H -7.1268834062511734 6.551319501727436 1.6032909216821658
| 50> H -8.211550857053384 6.356647614039069 -0.6546055307246053
| 51> H -9.070998876779878 5.443972457825901 0.5916194783610239
| 52> H -8.942545658150818 4.139461867177771 -1.5027274767392291
| 53> H -8.069931823065913 3.317282627543583 -0.191991297312203
| 54> *
| 55>
| 56> % eprnmr
| 57> gtensor true
| 58> Nuclei = all H {aiso,adip,aorb,fgrad,rho}
| 59> Nuclei = all V {aiso,adip,aorb,fgrad,rho}
| 60> end
| 61>
| 62>                          ****END OF INPUT****

CARTESIAN COORDINATES (ANGSTROEM)
---------------------------------
  V     -0.458078   -0.495891    0.885729
  S      1.859397   -0.298056    1.605109
  S     -0.604848    1.979127    1.249984
  S      0.383227   -2.347224   -0.617158
  S     -2.057321   -0.159367   -0.909332
  O     -1.265260   -1.130959    2.098885
  C     -2.134030    2.265994    0.421693
  C     -2.689969    1.411374   -0.457889
  C      2.610342   -1.698613    0.860823
  C      2.027859   -2.538550   -0.014408
  S     -3.023496    3.812697    0.675777
  S     -4.160851    1.960262   -1.313859
  S      3.062960   -3.898402   -0.599637
  S      4.324756   -2.008914    1.274647
  C     -4.302612    3.525190   -0.520021
  C      4.552434   -3.417909    0.241356
  C     -5.300687    4.419913   -0.788431
  C      5.742996   -4.079849    0.106077
  S     -5.374236    5.974342    0.070744
  S     -6.601331    4.098838   -1.968400
  S      7.243137   -3.603394    0.953407
  S      5.880287   -5.475935   -0.987748
  C      7.031646   -4.690385   -2.205411
  C      8.339181   -3.251050   -0.507087
  C      8.388694   -4.360162   -1.569897
  H      6.537660   -3.790152   -2.601178
  H      7.154102   -5.408784   -3.030854
  H      9.076400   -4.029257   -2.360831
  H      8.811081   -5.275620   -1.134291
  H      9.339756   -3.095110   -0.074577
  H      8.010122   -2.302218   -0.957750
  C     -8.072490    4.206386   -0.840548
  C     -6.965366    5.676473    0.963272
  C     -8.143238    5.485868    0.001782
  H     -6.831952    4.801329    1.609720
  H     -7.127285    6.554193    1.600785
  H     -8.211953    6.359521   -0.657111
  H     -9.071401    5.446846    0.589114
  H     -8.942947    4.142336   -1.505233
  H     -8.070334    3.320156   -0.194497

 Total Charge           Charge          ....   -2
 Multiplicity           Mult            ....    2
 Number of Electrons    NEL             ....  321
 Basis Dimension        Dim             ....  681

ORBITAL ENERGIES
----------------
                 SPIN UP ORBITALS
  NO   OCC          E(Eh)            E(eV)
   0   1.0000    -196.674641     -5351.7891
   1   1.0000     -88.734429     -2414.5866
   2   1.0000     -88.734208     -2414.5806
   3   1.0000     -88.732218     -2414.5264
   4   1.0000     -88.731687     -2414.5120
   5   1.0000     -88.730703     -2414.4852
   6   1.0000     -88.730385     -2414.4765
   7   1.0000     -88.729484     -2414.4520
   8   1.0000     -88.729211     -2414.4446
   9   1.0000     -88.639627     -2412.0069
  10   1.0000     -88.639393     -2412.0005
  11   1.0000     -88.639372     -2411.9999
  12   1.0000     -88.639132     -2411.9934
  13   1.0000     -22.050010      -600.0113
  14   1.0000     -18.889781      -514.0171
  15   1.0000     -18.556459      -504.9469
  16   1.0000     -18.551288      -504.8062
  17   1.0000     -18.551188      -504.8035
  18   1.0000     -10.076242      -274.1885
  19   1.0000     -10.075179      -274.1596
  20   1.0000     -10.066724      -273.9295
  21   1.0000     -10.065530      -273.8970
  22   1.0000     -10.063923      -273.8533
  23   1.0000     -10.063488      -273.8414
  24   1.0000     -10.052345      -273.5382
  25   1.0000     -10.051911      -273.5264
  26   1.0000     -10.048822      -273.4424
  27   1.0000     -10.048004      -273.4201
  28   1.0000     -10.018156      -272.6079
  29   1.0000     -10.018116      -272.6068
  30   1.0000     -10.016804      -272.5711
  31   1.0000     -10.016792      -272.5708
  32   1.0000      -7.787515      -211.9091
  33   1.0000      -7.787388      -211.9056
  34   1.0000      -7.785913      -211.8655
  35   1.0000      -7.785395      -211.8514
  36   1.0000      -7.783563      -211.8015
  37   1.0000      -7.783352      -211.7958
  38   1.0000      -7.783006      -211.7864
  39   1.0000      -7.782826      -211.7815
  40   1.0000      -7.694175      -209.3692
  41   1.0000      -7.694065      -209.3662
  42   1.0000      -7.693534      -209.3517
  43   1.0000      -7.692975      -209.3365
  44   1.0000      -5.752593      -156.5360
  45   1.0000      -5.752439      -156.5318
  46   1.0000      -5.750839      -156.4883
  47   1.0000      -5.750311      -156.4739
  48   1.0000      -5.749069      -156.4401
  49   1.0000      -5.748949      -156.4369
  50   1.0000      -5.748537      -156.4256
  51   1.0000      -5.748320      -156.4197
  52   1.0000      -5.747939      -156.4094
  53   1.0000      -5.747741      -156.4040
  54   1.0000      -5.747511      -156.3977
  55   1.0000      -5.747010      -156.3841
  56   1.0000      -5.744155      -156.3064
  57   1.0000      -5.743927      -156.3002
  58   1.0000      -5.743467      -156.2877
  59   1.0000      -5.743280      -156.2826
  60   1.0000      -5.742302      -156.2560
  61   1.0000      -5.742183      -156.2527
  62   1.0000      -5.740708      -156.2126
  63   1.0000      -5.740173      -156.1980
  64   1.0000      -5.739348      -156.1756
  65   1.0000      -5.739146      -156.1701
  66   1.0000      -5.738850      -156.1621
  67   1.0000      -5.738678      -156.1574
  68   1.0000      -5.659391      -153.9999
  69   1.0000      -5.659309      -153.9976
  70   1.0000      -5.658933      -153.9874
  71   1.0000      -5.658373      -153.9721
  72   1.0000      -5.652761      -153.8194
  73   1.0000      -5.652671      -153.8170
  74   1.0000      -5.652276      -153.8062
  75   1.0000      -5.651690      -153.7903
  76   1.0000      -5.651541      -153.7862
  77   1.0000      -5.651457      -153.7840
  78   1.0000      -5.650757      -153.7649
  79   1.0000      -5.650245      -153.7510
  80   1.0000      -2.443672       -66.4957
  81   1.0000      -1.484870       -40.4054
  82   1.0000      -1.473358       -40.0921
  83   1.0000      -1.472549       -40.0701
  84   1.0000      -0.709400       -19.3037
  85   1.0000      -0.708336       -19.2748
  86   1.0000      -0.685100       -18.6425
  87   1.0000      -0.683988       -18.6123
  88   1.0000      -0.649432       -17.6719
  89   1.0000      -0.631148       -17.1744
  90   1.0000      -0.630282       -17.1509
  91   1.0000      -0.616691       -16.7810
  92   1.0000      -0.615262       -16.7421
  93   1.0000      -0.574495       -15.6328
  94   1.0000      -0.573496       -15.6056
  95   1.0000      -0.573143       -15.5960
  96   1.0000      -0.572189       -15.5700
  97   1.0000      -0.496820       -13.5192
  98   1.0000      -0.495844       -13.4926
  99   1.0000      -0.494760       -13.4631
 100   1.0000      -0.493989       -13.4421
 101   1.0000      -0.479449       -13.0465
 102   1.0000      -0.476786       -12.9740
 103   1.0000      -0.446642       -12.1537
 104   1.0000      -0.444357       -12.0916
 105   1.0000      -0.416012       -11.3203
 106   1.0000      -0.410791       -11.1782
 107   1.0000      -0.354488        -9.6461
 108   1.0000      -0.353439        -9.6176
 109   1.0000      -0.326161        -8.8753
 110   1.0000      -0.325211        -8.8494
 111   1.0000      -0.318595        -8.6694
 112   1.0000      -0.313970        -8.5436
 113   1.0000      -0.304239        -8.2788
 114   1.0000      -0.303523        -8.2593
 115   1.0000      -0.291394        -7.9292
 116   1.0000      -0.289892        -7.8884
 117   1.0000      -0.257738        -7.0134
 118   1.0000      -0.257256        -7.0003
 119   1.0000      -0.255349        -6.9484
 120   1.0000      -0.254828        -6.9342
 121   1.0000      -0.234706        -6.3867
 122   1.0000      -0.234163        -6.3719
 123   1.0000      -0.230659        -6.2765
 124   1.0000      -0.229327        -6.2403
 125   1.0000      -0.219574        -5.9749
 126   1.0000      -0.217934        -5.9303
 127   1.0000      -0.213934        -5.8215
 128   1.0000      -0.211247        -5.7483
 129   1.0000      -0.192815        -5.2468
 130   1.0000      -0.186799        -5.0830
 131   1.0000      -0.186381        -5.0717
 132   1.0000      -0.183870        -5.0034
 133   1.0000      -0.178837        -4.8664
 134   1.0000      -0.159170        -4.3312
 135   1.0000      -0.151468        -4.1216
 136   1.0000      -0.146587        -3.9888
 137   1.0000      -0.135701        -3.6926
 138   1.0000      -0.134106        -3.6492
 139   1.0000      -0.132355        -3.6016
 140   1.0000      -0.124910        -3.3990
 141   1.0000      -0.120515        -3.2794
 142   1.0000      -0.113288        -3.0827
 143   1.0000      -0.109236        -2.9725
 144   1.0000      -0.099399        -2.7048
 145   1.0000      -0.097832        -2.6621
 146   1.0000      -0.096971        -2.6387
 147   1.0000      -0.094309        -2.5663
 148   1.0000      -0.074472        -2.0265
 149   1.0000      -0.067751        -1.8436
 150   1.0000      -0.066754        -1.8165
 151   1.0000      -0.051894        -1.4121
 152   1.0000      -0.045556        -1.2396
 153   1.0000      -0.037118        -1.0100
 154   1.0000      -0.036082        -0.9818
 155   1.0000      -0.030946        -0.8421
 156   1.0000      -0.024977        -0.6797
 157   1.0000      -0.018581        -0.5056
 158   1.0000      -0.015065        -0.4099
 159   1.0000       0.020684         0.5628
 160   1.0000       0.041638         1.1330
 161   0.0000       0.136926         3.7259
 162   0.0000       0.137019         3.7285
 163   0.0000       0.161766         4.4019
 164   0.0000       0.162289         4.4161
 165   0.0000       0.170197         4.6313

                 SPIN DOWN ORBITALS
  NO   OCC          E(Eh)            E(eV)
   0   1.0000    -196.674788     -5351.7930
   1   1.0000     -88.734430     -2414.5866
   2   1.0000     -88.734209     -2414.5806
   3   1.0000     -88.732218     -2414.5264
   4   1.0000     -88.731688     -2414.5120
   5   1.0000     -88.730712     -2414.4854
   6   1.0000     -88.730394     -2414.4768
   7   1.0000     -88.729491     -2414.4522
   8   1.0000     -88.729218     -2414.4448
   9   1.0000     -88.639770     -2412.0108
  10   1.0000     -88.639523     -2412.0040
  11   1.0000     -88.639511     -2412.0037
  12   1.0000     -88.639273     -2411.9972
  13   1.0000     -22.035095      -599.6054
  14   1.0000     -18.893535      -514.1192
  15   1.0000     -18.551204      -504.8039
  16   1.0000     -18.535270      -504.3703
  17   1.0000     -18.535084      -504.3653
  18   1.0000     -10.076243      -274.1885
  19   1.0000     -10.075174      -274.1594
  20   1.0000     -10.066725      -273.9295
  21   1.0000     -10.065529      -273.8970
  22   1.0000     -10.063923      -273.8533
  23   1.0000     -10.063487      -273.8414
  24   1.0000     -10.052345      -273.5382
  25   1.0000     -10.051911      -273.5264
  26   1.0000     -10.048819      -273.4423
  27   1.0000     -10.047991      -273.4197
  28   1.0000     -10.017944      -272.6021
  29   1.0000     -10.017932      -272.6018
  30   1.0000     -10.016552      -272.5642
  31   1.0000     -10.016550      -272.5642
  32   1.0000      -7.787516      -211.9091
  33   1.0000      -7.787388      -211.9056
  34   1.0000      -7.785914      -211.8655
  35   1.0000      -7.785395      -211.8514
  36   1.0000      -7.783573      -211.8018
  37   1.0000      -7.783362      -211.7961
  38   1.0000      -7.783014      -211.7866
  39   1.0000      -7.782834      -211.7817
  40   1.0000      -7.694303      -209.3726
  41   1.0000      -7.694186      -209.3694
  42   1.0000      -7.693668      -209.3553
  43   1.0000      -7.693106      -209.3401
  44   1.0000      -5.752594      -156.5360
  45   1.0000      -5.752441      -156.5319
  46   1.0000      -5.750840      -156.4883
  47   1.0000      -5.750312      -156.4740
  48   1.0000      -5.749070      -156.4401
  49   1.0000      -5.748951      -156.4369
  50   1.0000      -5.748549      -156.4260
  51   1.0000      -5.748332      -156.4201
  52   1.0000      -5.747948      -156.4096
  53   1.0000      -5.747749      -156.4042
  54   1.0000      -5.747512      -156.3977
  55   1.0000      -5.747011      -156.3841
  56   1.0000      -5.744172      -156.3069
  57   1.0000      -5.743943      -156.3006
  58   1.0000      -5.743479      -156.2880
  59   1.0000      -5.743291      -156.2829
  60   1.0000      -5.742303      -156.2560
  61   1.0000      -5.742184      -156.2528
  62   1.0000      -5.740709      -156.2126
  63   1.0000      -5.740174      -156.1981
  64   1.0000      -5.739355      -156.1758
  65   1.0000      -5.739155      -156.1704
  66   1.0000      -5.738856      -156.1622
  67   1.0000      -5.738686      -156.1576
  68   1.0000      -5.659534      -154.0038
  69   1.0000      -5.659454      -154.0016
  70   1.0000      -5.659070      -153.9911
  71   1.0000      -5.658507      -153.9758
  72   1.0000      -5.653136      -153.8297
  73   1.0000      -5.653000      -153.8259
  74   1.0000      -5.652675      -153.8171
  75   1.0000      -5.652060      -153.8004
  76   1.0000      -5.651629      -153.7886
  77   1.0000      -5.651551      -153.7865
  78   1.0000      -5.650843      -153.7673
  79   1.0000      -5.650354      -153.7540
  80   1.0000      -2.398839       -65.2757
  81   1.0000      -1.465626       -39.8817
  82   1.0000      -1.411125       -38.3987
  83   1.0000      -1.410803       -38.3899
  84   1.0000      -0.709371       -19.3030
  85   1.0000      -0.708321       -19.2744
  86   1.0000      -0.685041       -18.6409
  87   1.0000      -0.683947       -18.6111
  88   1.0000      -0.657486       -17.8911
  89   1.0000      -0.631070       -17.1723
  90   1.0000      -0.630225       -17.1493
  91   1.0000      -0.616690       -16.7810
  92   1.0000      -0.615264       -16.7422
  93   1.0000      -0.574457       -15.6318
  94   1.0000      -0.573479       -15.6052
  95   1.0000      -0.573062       -15.5938
  96   1.0000      -0.572116       -15.5681
  97   1.0000      -0.496826       -13.5193
  98   1.0000      -0.495871       -13.4933
  99   1.0000      -0.494798       -13.4641
 100   1.0000      -0.494054       -13.4439
 101   1.0000      -0.479628       -13.0514
 102   1.0000      -0.477026       -12.9805
 103   1.0000      -0.446660       -12.1542
 104   1.0000      -0.444404       -12.0928
 105   1.0000      -0.416009       -11.3202
 106   1.0000      -0.410900       -11.1811
 107   1.0000      -0.354477        -9.6458
 108   1.0000      -0.353435        -9.6175
 109   1.0000      -0.326144        -8.8748
 110   1.0000      -0.325202        -8.8492
 111   1.0000      -0.318513        -8.6672
 112   1.0000      -0.313992        -8.5441
 113   1.0000      -0.304192        -8.2775
 114   1.0000      -0.303500        -8.2586
 115   1.0000      -0.291385        -7.9290
 116   1.0000      -0.289883        -7.8881
 117   1.0000      -0.257599        -7.0096
 118   1.0000      -0.257172        -6.9980
 119   1.0000      -0.255316        -6.9475
 120   1.0000      -0.254778        -6.9329
 121   1.0000      -0.234665        -6.3856
 122   1.0000      -0.234148        -6.3715
 123   1.0000      -0.230609        -6.2752
 124   1.0000      -0.229289        -6.2393
 125   1.0000      -0.219175        -5.9641
 126   1.0000      -0.217854        -5.9281
 127   1.0000      -0.213720        -5.8156
 128   1.0000      -0.211113        -5.7447
 129   1.0000      -0.191083        -5.1996
 130   1.0000      -0.186728        -5.0811
 131   1.0000      -0.186068        -5.0632
 132   1.0000      -0.183604        -4.9961
 133   1.0000      -0.178723        -4.8633
 134   1.0000      -0.158538        -4.3140
 135   1.0000      -0.151299        -4.1170
 136   1.0000      -0.146504        -3.9866
 137   1.0000      -0.135137        -3.6773
 138   1.0000      -0.133674        -3.6375
 139   1.0000      -0.132167        -3.5965
 140   1.0000      -0.124240        -3.3807
 141   1.0000      -0.120192        -3.2706
 142   1.0000      -0.114971        -3.1285
 143   1.0000      -0.110839        -3.0161
 144   1.0000      -0.099395        -2.7047
 145   1.0000      -0.098100        -2.6694
 146   1.0000      -0.096992        -2.6393
 147   1.0000      -0.094638        -2.5752
 148   1.0000      -0.070641        -1.9223
 149   1.0000      -0.067724        -1.8429
 150   1.0000      -0.066705        -1.8151
 151   1.0000      -0.049401        -1.3443
 152   1.0000      -0.044577        -1.2130
 153   1.0000      -0.037150        -1.0109
 154   1.0000      -0.035497        -0.9659
 155   1.0000      -0.030967        -0.8427
 156   1.0000      -0.025691        -0.6991
 157   1.0000      -0.015334        -0.4173
 158   1.0000       0.020981         0.5709
 159   1.0000       0.040439         1.1004
 160   0.0000       0.136924         3.7259
 161   0.0000       0.137024         3.7286
 162   0.0000       0.156009         4.2452
 163   0.0000       0.162072         4.4102
 164   0.0000       0.163461         4.4480

MULLIKEN ATOMIC CHARGES AND SPIN POPULATIONS
--------------------------------------------
   0 V :    0.473029    1.208980
   1 S :   -0.283800   -0.020681
   2 S :   -0.293751   -0.025842
   3 S :   -0.299423   -0.024032
   4 S :   -0.278757   -0.025250
   5 O :   -0.469005   -0.146020
   6 C :   -0.062503    0.008945
   7 C :   -0.097385    0.009324
   8 C :   -0.100952    0.008358
   9 C :   -0.070190    0.006270
  10 S :    0.095581   -0.000752
  11 S :    0.104562   -0.000378
  12 S :    0.094792   -0.000628
  13 S :    0.103537   -0.000139
  14 C :   -0.214104    0.001618
  15 C :   -0.206528    0.000867
  16 C :   -0.189957   -0.000085
  17 C :   -0.195888   -0.000352
  18 S :    0.009730   -0.000129
  19 S :    0.008800   -0.000108
  20 S :    0.007865   -0.000065
  21 S :    0.008550   -0.000085
  22 C :   -0.310255   -0.000001
  23 C :   -0.292107    0.000005
  24 C :   -0.158301   -0.000014
  25 H :    0.150869   -0.000001
  26 H :    0.116414   -0.000005
  27 H :    0.083925    0.000000
  28 H :    0.092820   -0.000001
  29 H :    0.109296   -0.000003
  30 H :    0.136067   -0.000002
  31 C :   -0.293911    0.000200
  32 C :   -0.306905    0.000215
  33 C :   -0.158204   -0.000264
  34 H :    0.147263   -0.000021
  35 H :    0.115643    0.000024
  36 H :    0.092872    0.000026
  37 H :    0.082941    0.000018
  38 H :    0.110497    0.000020
  39 H :    0.136871   -0.000015
Sum of atomic charges         :   -2.0000000

LOEWDIN ATOMIC CHARGES AND SPIN POPULATIONS
-------------------------------------------
   0 V :   -0.155356    1.162476
   1 S :    0.094539   -0.012591
   2 S :    0.069210   -0.016912
   3 S :    0.061321   -0.016450
   4 S :    0.098324   -0.015348
   5 O :   -0.320008   -0.131008
   6 C :   -0.548605    0.008256
   7 C :   -0.553126    0.009246
   8 C :   -0.554062    0.009191
   9 C :   -0.549553    0.006190
  10 S :    0.465410   -0.000991
  11 S :    0.477911   -0.000791
  12 S :    0.463231   -0.000923
  13 S :    0.476117   -0.000766
  14 C :   -0.465373    0.000174
  15 C :   -0.464569   -0.000110
  16 C :   -0.623001    0.000522
  17 C :   -0.621946    0.000077
  18 S :    0.362225   -0.000102
  19 S :    0.357119   -0.000079
  20 S :    0.354532   -0.000064
  21 S :    0.359108   -0.000090
  22 C :   -0.283503   -0.000006
  23 C :   -0.285293   -0.000007
  24 C :   -0.177125   -0.000002
  25 H :    0.067361   -0.000001
  26 H :    0.054684   -0.000002
  27 H :    0.057636   -0.000001
  28 H :    0.060670   -0.000001
  29 H :    0.054960   -0.000002
  30 H :    0.060828   -0.000001
  31 C :   -0.284664    0.000043
  32 C :   -0.284009    0.000043
  33 C :   -0.176908    0.000008
  34 H :    0.065003   -0.000001
  35 H :    0.053966    0.000010
  36 H :    0.060546    0.000005
  37 H :    0.057561    0.000002
  38 H :    0.054282    0.000009
  39 H :    0.060558    0.000001

  Mayer bond orders larger than 0.100000
B(  0-V ,  1-S ) :   0.7942 B(  0-V ,  2-S ) :   0.7579 B(  0-V ,  3-S ) :   0.7317
B(  0-V ,  4-S ) :   0.8004 B(  0-V ,  5-O ) :   2.1471 B(  1-S ,  8-C ) :   1.0950
B(  2-S ,  6-C ) :   1.1073 B(  3-S ,  9-C ) :   1.1131 B(  4-S ,  7-C ) :   1.1038
B(  6-C ,  7-C ) :   1.6799 B(  6-C , 10-S ) :   0.9264 B(  7-C , 11-S ) :   0.9483
B(  8-C ,  9-C ) :   1.7005 B(  8-C , 13-S ) :   0.9419 B(  9-C , 12-S ) :   0.9237
B( 10-S , 14-C ) :   1.2437 B( 11-S , 14-C ) :   1.2515 B( 12-S , 15-C ) :   1.2376
B( 13-S , 15-C ) :   1.2503 B( 14-C , 16-C ) :   1.4520 B( 15-C , 17-C ) :   1.4533
B( 16-C , 18-S ) :   1.0940 B( 16-C , 19-S ) :   1.0829 B( 17-C , 20-S ) :   1.0826
B( 17-C , 21-S ) :   1.0963 B( 18-S , 32-C ) :   0.9835 B( 19-S , 31-C ) :   0.9968
B( 20-S , 23-C ) :   0.9990 B( 21-S , 22-C ) :   0.9775 B( 22-C , 24-C ) :   0.9042
B( 22-C , 25-H ) :   0.9676 B( 22-C , 26-H ) :   0.9635 B( 23-C , 24-C ) :   0.9208
B( 23-C , 29-H ) :   0.9653 B( 23-C , 30-H ) :   0.9625 B( 24-C , 27-H ) :   0.9621
B( 24-C , 28-H ) :   0.9719 B( 31-C , 33-C ) :   0.9191 B( 31-C , 38-H ) :   0.9654
B( 31-C , 39-H ) :   0.9635 B( 32-C , 33-C ) :   0.9069 B( 32-C , 34-H ) :   0.9674
B( 32-C , 35-H ) :   0.9643 B( 33-C , 36-H ) :   0.9717 B( 33-C , 37-H ) :   0.9622

FINAL SINGLE POINT ENERGY     -6337.703359548525

DIPOLE MOMENT
-------------
                                X             Y             Z
Electronic contribution:     -2.44512      -7.70273      10.98832
Nuclear contribution   :      2.70389       8.58265     -12.22557
                        -----------------------------------------
Total Dipole Moment    :      0.25877       0.87991      -1.23725
                        -----------------------------------------
Magnitude (a.u.)       :      1.54013
Magnitude (Debye)      :      3.91469

Rotational constants in cm-1:     0.010754     0.000804     0.000783
Rotational constants in MHz :   322.404799    24.112212    23.482251

                             ****ORCA TERMINATED NORMALLY****
TOTAL RUN TIME: 0 days 1 hours 6 minutes 18 seconds 996 msec
