                         Program Version 5.0.4 -  RELEASE  -
|  1> ! nofrozencore ReducedPop printbasis
|  2> ! B3LYP TZVP
|  3>
|  4> %basis
|  5> newgto V "CP(PPP)" end
|  6> end
|  7>
|  8> %pal
|  9> nprocs 6
| 10> end
| 11>
| 12> % sym SymThresh 1e-2 end
| 13> * xyz -2 2
| 14> V -0.9287769590492647 0.6085090552512186 -0.06831558285976884
| 15> S 0.6478751653115712 2.4779221782173004 0.5202221360883579
| 16> S 0.18615330252676784 0.5542119321675374 -2.2385991292278087
| 17> S -0.660210452120991 -0.12386944530410833 2.2468949715479027
| 18> S -1.4053705388234867 -1.8172282964086868 -0.4604806412484292
| 19> O -2.3321435187760846 1.3285415763383253 -0.2588502170931686
| 20> C -0.5728993204116333 -0.8863239092487091 -2.920173124376186
| 21> C -1.1211695664497916 -1.8780783401391392 -2.1925258415416686
| 22> C 0.8012885230864633 2.225416725207203 2.26084168889862
| 23> C 0.17053799086664934 1.25954398232235 2.954313640814855
| 24> S -0.5644865850882103 -1.1127751252613425 -4.708874083074643
| 25> S -1.5077192361897718 -3.3994486956833208 -3.076112682697808
| 26> S 0.2247717953896926 1.3854427184271352 4.7559312668329765
| 27> S 1.9208705916899695 3.2834922645628755 3.2110100315641166
| 28> C -1.1351620347779874 -2.794112133012496 -4.703117973210438
| 29> C 1.4706347634419312 2.649463656705037 4.819712753928523
| 30> C -1.2957012848317426 -3.5651542568434804 -5.82107978199837
| 31> C 2.0336104849481833 3.1184489952744787 5.974405252041949
| 32> S -0.8094723114140561 -3.0272635026445562 -7.447817695231014
| 33> S -2.046477318252343 -5.179740149895302 -5.715978517309114
| 34> S 3.0920009548239418 4.549607347794938 5.925491118868642
| 35> S 1.8100810834346233 2.356787227562659 7.5727436262853685
| 36> C 3.5808611459999384 1.8978029357008368 7.892428443779538
| 37> C 4.666027243530771 3.7519442727156487 6.47382331793492
| 38> C 4.554929785766891 3.0793989036461227 7.844443317740312
| 39> H 3.8648099818916277 1.1315784717695088 7.167285265465832
| 40> H 3.58447215221781 1.4444098621030748 8.88768146281624
| 41> H 5.550518547828385 2.710371697031553 8.129122506129821
| 42> H 4.25926562985956 3.8245331928952395 8.58992139713086
| 43> H 5.409908707143739 4.552980378050447 6.501551894044913
| 44> H 4.9668803962131935 3.0328036368209284 5.708425802112595
| 45> C -3.5448781082790553 -4.818509686504523 -6.739870818713811
| 46> C -2.462659515224632 -3.062115432900028 -8.28592603886651
| 47> C -3.1979621694349536 -4.4034029179640495 -8.174144909422001
| 48> H -3.0736235110523196 -2.2518741203306294 -7.870044898470502
| 49> H -2.2551418990237915 -2.828685602170511 -9.3376847148188
| 50> H -2.59662163695033 -5.192745244456839 -8.642173430406629
| 51> H -4.132625025165589 -4.32220103436519 -8.74665361413613
| 52> H -4.136062107170787 -5.742499544649931 -6.739296797973085
| 53> H -4.123426632171152 -4.03947591073301 -6.229533915565064
| 54> *
| 55>
| 56> % eprnmr
| 57> gtensor true
| 58> Nuclei = all H {aiso,adip,aorb,fgrad,rho}
| 59> Nuclei = all V {aiso,adip,aorb,fgrad,rho}
| 60> end
| 61>
| 62>                          ****END OF INPUT****

CARTESIAN COORDINATES (ANGSTROEM)
---------------------------------
  V     -0.926618    0.605866   -0.070063
  S      0.650034    2.475279    0.518475
  S      0.188312    0.551569   -2.240347
  S     -0.658052   -0.126512    2.245148
  S     -1.403212   -1.819871   -0.462228
  O     -2.329985    1.325899   -0.260598
  C     -0.570740   -0.888967   -2.921921
  C     -1.119011   -1.880721   -2.194273
  C      0.803447    2.222774    2.259094
  C      0.172697    1.256901    2.952566
  S     -0.562328   -1.115418   -4.710622
  S     -1.505560   -3.402091   -3.077860
  S      0.226931    1.382800    4.754184
  S      1.923030    3.280849    3.209263
  C     -1.133003   -2.796755   -4.704865
  C      1.472794    2.646821    4.817965
  C     -1.293542   -3.567797   -5.822827
  C      2.035769    3.115806    5.972658
  S     -0.807313   -3.029906   -7.449565
  S     -2.044318   -5.182383   -5.717726
  S      3.094160    4.546965    5.923744
  S      1.812240    2.354144    7.570996
  C      3.583020    1.895160    7.890681
  C      4.668186    3.749302    6.472076
  C      4.557089    3.076756    7.842696
  H      3.866969    1.128936    7.165538
  H      3.586631    1.441767    8.885934
  H      5.552677    2.707729    8.127375
  H      4.261425    3.821890    8.588174
  H      5.412068    4.550338    6.499804
  H      4.969039    3.030161    5.706678
  C     -3.542719   -4.821152   -6.741618
  C     -2.460501   -3.064758   -8.287673
  C     -3.195803   -4.406046   -8.175892
  H     -3.071465   -2.254517   -7.871792
  H     -2.252983   -2.831328   -9.339432
  H     -2.594463   -5.195388   -8.643921
  H     -4.130466   -4.324844   -8.748401
  H     -4.133903   -5.745142   -6.741044
  H     -4.121268   -4.042119   -6.231281

 Total Charge           Charge          ....   -2
 Multiplicity           Mult            ....    2
 Number of Electrons    NEL             ....  321
 Basis Dimension        Dim             ....  681

ORBITAL ENERGIES
----------------
                 SPIN UP ORBITALS
  NO   OCC          E(Eh)            E(eV)
   0   1.0000    -196.674120     -5351.7749
   1   1.0000     -88.734346     -2414.5843
   2   1.0000     -88.733568     -2414.5631
   3   1.0000     -88.732372     -2414.5306
   4   1.0000     -88.732023     -2414.5211
   5   1.0000     -88.730570     -2414.4816
   6   1.0000     -88.730556     -2414.4812
   7   1.0000     -88.729891     -2414.4631
   8   1.0000     -88.729633     -2414.4561
   9   1.0000     -88.640235     -2412.0234
  10   1.0000     -88.640135     -2412.0207
  11   1.0000     -88.639403     -2412.0008
  12   1.0000     -88.638970     -2411.9890
  13   1.0000     -22.049422      -599.9953
  14   1.0000     -18.889673      -514.0141
  15   1.0000     -18.555935      -504.9327
  16   1.0000     -18.550731      -504.7911
  17   1.0000     -18.550506      -504.7849
  18   1.0000     -10.076526      -274.1962
  19   1.0000     -10.076144      -274.1858
  20   1.0000     -10.065401      -273.8935
  21   1.0000     -10.063933      -273.8535
  22   1.0000     -10.063693      -273.8470
  23   1.0000     -10.062749      -273.8213
  24   1.0000     -10.052090      -273.5313
  25   1.0000     -10.051097      -273.5042
  26   1.0000     -10.048810      -273.4420
  27   1.0000     -10.048643      -273.4375
  28   1.0000     -10.018542      -272.6184
  29   1.0000     -10.018351      -272.6132
  30   1.0000     -10.017209      -272.5821
  31   1.0000     -10.016897      -272.5736
  32   1.0000      -7.787636      -211.9124
  33   1.0000      -7.786812      -211.8899
  34   1.0000      -7.786037      -211.8688
  35   1.0000      -7.785622      -211.8576
  36   1.0000      -7.783471      -211.7990
  37   1.0000      -7.783453      -211.7985
  38   1.0000      -7.782730      -211.7789
  39   1.0000      -7.782507      -211.7728
  40   1.0000      -7.694478      -209.3774
  41   1.0000      -7.694461      -209.3769
  42   1.0000      -7.693265      -209.3444
  43   1.0000      -7.693189      -209.3423
  44   1.0000      -5.752650      -156.5376
  45   1.0000      -5.751868      -156.5163
  46   1.0000      -5.750973      -156.4919
  47   1.0000      -5.750608      -156.4820
  48   1.0000      -5.749210      -156.4440
  49   1.0000      -5.748445      -156.4232
  50   1.0000      -5.748437      -156.4229
  51   1.0000      -5.748410      -156.4222
  52   1.0000      -5.747672      -156.4021
  53   1.0000      -5.747606      -156.4003
  54   1.0000      -5.747500      -156.3974
  55   1.0000      -5.747206      -156.3894
  56   1.0000      -5.744085      -156.3045
  57   1.0000      -5.744049      -156.3035
  58   1.0000      -5.743311      -156.2834
  59   1.0000      -5.743202      -156.2805
  60   1.0000      -5.742439      -156.2597
  61   1.0000      -5.741559      -156.2358
  62   1.0000      -5.740841      -156.2162
  63   1.0000      -5.740379      -156.2037
  64   1.0000      -5.739273      -156.1736
  65   1.0000      -5.739230      -156.1724
  66   1.0000      -5.738516      -156.1530
  67   1.0000      -5.738228      -156.1451
  68   1.0000      -5.659816      -154.0114
  69   1.0000      -5.659790      -154.0107
  70   1.0000      -5.658641      -153.9794
  71   1.0000      -5.658482      -153.9751
  72   1.0000      -5.653162      -153.8304
  73   1.0000      -5.653112      -153.8290
  74   1.0000      -5.652020      -153.7993
  75   1.0000      -5.651869      -153.7952
  76   1.0000      -5.651760      -153.7922
  77   1.0000      -5.651727      -153.7913
  78   1.0000      -5.650514      -153.7583
  79   1.0000      -5.650496      -153.7578
  80   1.0000      -2.443180       -66.4823
  81   1.0000      -1.484607       -40.3982
  82   1.0000      -1.472748       -40.0755
  83   1.0000      -1.472016       -40.0556
  84   1.0000      -0.708099       -19.2684
  85   1.0000      -0.707324       -19.2473
  86   1.0000      -0.683502       -18.5990
  87   1.0000      -0.682240       -18.5647
  88   1.0000      -0.649316       -17.6688
  89   1.0000      -0.630430       -17.1549
  90   1.0000      -0.629939       -17.1415
  91   1.0000      -0.616755       -16.7828
  92   1.0000      -0.616663       -16.7803
  93   1.0000      -0.572711       -15.5843
  94   1.0000      -0.571814       -15.5599
  95   1.0000      -0.571256       -15.5447
  96   1.0000      -0.570102       -15.5133
  97   1.0000      -0.496463       -13.5094
  98   1.0000      -0.495647       -13.4872
  99   1.0000      -0.494771       -13.4634
 100   1.0000      -0.493876       -13.4391
 101   1.0000      -0.479005       -13.0344
 102   1.0000      -0.476242       -12.9592
 103   1.0000      -0.446541       -12.1510
 104   1.0000      -0.444403       -12.0928
 105   1.0000      -0.415849       -11.3158
 106   1.0000      -0.410490       -11.1700
 107   1.0000      -0.354403        -9.6438
 108   1.0000      -0.354349        -9.6423
 109   1.0000      -0.325753        -8.8642
 110   1.0000      -0.325366        -8.8537
 111   1.0000      -0.316823        -8.6212
 112   1.0000      -0.312183        -8.4949
 113   1.0000      -0.302976        -8.2444
 114   1.0000      -0.301658        -8.2085
 115   1.0000      -0.291841        -7.9414
 116   1.0000      -0.291395        -7.9293
 117   1.0000      -0.258514        -7.0345
 118   1.0000      -0.256481        -6.9792
 119   1.0000      -0.256106        -6.9690
 120   1.0000      -0.254340        -6.9209
 121   1.0000      -0.234096        -6.3701
 122   1.0000      -0.233688        -6.3590
 123   1.0000      -0.231233        -6.2922
 124   1.0000      -0.229778        -6.2526
 125   1.0000      -0.218927        -5.9573
 126   1.0000      -0.217459        -5.9174
 127   1.0000      -0.212640        -5.7862
 128   1.0000      -0.210072        -5.7164
 129   1.0000      -0.192278        -5.2322
 130   1.0000      -0.189505        -5.1567
 131   1.0000      -0.186572        -5.0769
 132   1.0000      -0.180768        -4.9190
 133   1.0000      -0.178127        -4.8471
 134   1.0000      -0.159002        -4.3267
 135   1.0000      -0.153062        -4.1650
 136   1.0000      -0.148190        -4.0324
 137   1.0000      -0.135289        -3.6814
 138   1.0000      -0.134229        -3.6525
 139   1.0000      -0.128424        -3.4946
 140   1.0000      -0.125956        -3.4274
 141   1.0000      -0.117448        -3.1959
 142   1.0000      -0.112542        -3.0624
 143   1.0000      -0.109153        -2.9702
 144   1.0000      -0.099458        -2.7064
 145   1.0000      -0.098733        -2.6867
 146   1.0000      -0.093905        -2.5553
 147   1.0000      -0.092487        -2.5167
 148   1.0000      -0.074027        -2.0144
 149   1.0000      -0.067424        -1.8347
 150   1.0000      -0.066833        -1.8186
 151   1.0000      -0.051546        -1.4026
 152   1.0000      -0.045258        -1.2315
 153   1.0000      -0.038072        -1.0360
 154   1.0000      -0.036148        -0.9836
 155   1.0000      -0.031210        -0.8493
 156   1.0000      -0.024625        -0.6701
 157   1.0000      -0.020552        -0.5593
 158   1.0000      -0.012705        -0.3457
 159   1.0000       0.021475         0.5844
 160   1.0000       0.041396         1.1264
 161   0.0000       0.136211         3.7065
 162   0.0000       0.136349         3.7102
 163   0.0000       0.159638         4.3440
 164   0.0000       0.160675         4.3722
 165   0.0000       0.169854         4.6220

                 SPIN DOWN ORBITALS
  NO   OCC          E(Eh)            E(eV)
   0   1.0000    -196.674268     -5351.7789
   1   1.0000     -88.734347     -2414.5843
   2   1.0000     -88.733568     -2414.5631
   3   1.0000     -88.732373     -2414.5306
   4   1.0000     -88.732024     -2414.5211
   5   1.0000     -88.730578     -2414.4818
   6   1.0000     -88.730565     -2414.4814
   7   1.0000     -88.729900     -2414.4633
   8   1.0000     -88.729641     -2414.4563
   9   1.0000     -88.640370     -2412.0271
  10   1.0000     -88.640278     -2412.0246
  11   1.0000     -88.639537     -2412.0044
  12   1.0000     -88.639117     -2411.9930
  13   1.0000     -22.034477      -599.5886
  14   1.0000     -18.893457      -514.1171
  15   1.0000     -18.550667      -504.7893
  16   1.0000     -18.534645      -504.3533
  17   1.0000     -18.534407      -504.3469
  18   1.0000     -10.076526      -274.1962
  19   1.0000     -10.076139      -274.1857
  20   1.0000     -10.065400      -273.8935
  21   1.0000     -10.063932      -273.8535
  22   1.0000     -10.063693      -273.8470
  23   1.0000     -10.062749      -273.8213
  24   1.0000     -10.052089      -273.5313
  25   1.0000     -10.051097      -273.5042
  26   1.0000     -10.048807      -273.4419
  27   1.0000     -10.048631      -273.4372
  28   1.0000     -10.018334      -272.6127
  29   1.0000     -10.018168      -272.6082
  30   1.0000     -10.016969      -272.5756
  31   1.0000     -10.016641      -272.5667
  32   1.0000      -7.787637      -211.9124
  33   1.0000      -7.786812      -211.8899
  34   1.0000      -7.786037      -211.8688
  35   1.0000      -7.785623      -211.8576
  36   1.0000      -7.783479      -211.7992
  37   1.0000      -7.783462      -211.7988
  38   1.0000      -7.782740      -211.7791
  39   1.0000      -7.782517      -211.7730
  40   1.0000      -7.694611      -209.3810
  41   1.0000      -7.694588      -209.3804
  42   1.0000      -7.693390      -209.3478
  43   1.0000      -7.693326      -209.3460
  44   1.0000      -5.752651      -156.5376
  45   1.0000      -5.751869      -156.5163
  46   1.0000      -5.750973      -156.4919
  47   1.0000      -5.750609      -156.4820
  48   1.0000      -5.749212      -156.4440
  49   1.0000      -5.748456      -156.4234
  50   1.0000      -5.748447      -156.4232
  51   1.0000      -5.748410      -156.4222
  52   1.0000      -5.747683      -156.4024
  53   1.0000      -5.747607      -156.4003
  54   1.0000      -5.747511      -156.3977
  55   1.0000      -5.747207      -156.3895
  56   1.0000      -5.744098      -156.3049
  57   1.0000      -5.744062      -156.3039
  58   1.0000      -5.743326      -156.2838
  59   1.0000      -5.743217      -156.2809
  60   1.0000      -5.742440      -156.2597
  61   1.0000      -5.741559      -156.2358
  62   1.0000      -5.740842      -156.2162
  63   1.0000      -5.740380      -156.2037
  64   1.0000      -5.739278      -156.1737
  65   1.0000      -5.739239      -156.1726
  66   1.0000      -5.738523      -156.1532
  67   1.0000      -5.738233      -156.1453
  68   1.0000      -5.659958      -154.0153
  69   1.0000      -5.659937      -154.0147
  70   1.0000      -5.658773      -153.9830
  71   1.0000      -5.658620      -153.9789
  72   1.0000      -5.653522      -153.8402
  73   1.0000      -5.653493      -153.8394
  74   1.0000      -5.652385      -153.8092
  75   1.0000      -5.652261      -153.8058
  76   1.0000      -5.651880      -153.7955
  77   1.0000      -5.651795      -153.7932
  78   1.0000      -5.650610      -153.7609
  79   1.0000      -5.650599      -153.7606
  80   1.0000      -2.398262       -65.2600
  81   1.0000      -1.465313       -39.8732
  82   1.0000      -1.410392       -38.3787
  83   1.0000      -1.410157       -38.3723
  84   1.0000      -0.708076       -19.2677
  85   1.0000      -0.707314       -19.2470
  86   1.0000      -0.683444       -18.5975
  87   1.0000      -0.682194       -18.5635
  88   1.0000      -0.657431       -17.8896
  89   1.0000      -0.630357       -17.1529
  90   1.0000      -0.629877       -17.1398
  91   1.0000      -0.616755       -16.7828
  92   1.0000      -0.616666       -16.7803
  93   1.0000      -0.572684       -15.5835
  94   1.0000      -0.571742       -15.5579
  95   1.0000      -0.571223       -15.5438
  96   1.0000      -0.570035       -15.5114
  97   1.0000      -0.496480       -13.5099
  98   1.0000      -0.495673       -13.4880
  99   1.0000      -0.494814       -13.4646
 100   1.0000      -0.493916       -13.4401
 101   1.0000      -0.479202       -13.0397
 102   1.0000      -0.476499       -12.9662
 103   1.0000      -0.446562       -12.1516
 104   1.0000      -0.444451       -12.0941
 105   1.0000      -0.415853       -11.3159
 106   1.0000      -0.410607       -11.1732
 107   1.0000      -0.354393        -9.6435
 108   1.0000      -0.354346        -9.6423
 109   1.0000      -0.325738        -8.8638
 110   1.0000      -0.325360        -8.8535
 111   1.0000      -0.316744        -8.6191
 112   1.0000      -0.312204        -8.4955
 113   1.0000      -0.302928        -8.2431
 114   1.0000      -0.301633        -8.2078
 115   1.0000      -0.291832        -7.9412
 116   1.0000      -0.291390        -7.9291
 117   1.0000      -0.258409        -7.0317
 118   1.0000      -0.256386        -6.9766
 119   1.0000      -0.256031        -6.9670
 120   1.0000      -0.254312        -6.9202
 121   1.0000      -0.234052        -6.3689
 122   1.0000      -0.233681        -6.3588
 123   1.0000      -0.231181        -6.2907
 124   1.0000      -0.229747        -6.2517
 125   1.0000      -0.218509        -5.9459
 126   1.0000      -0.217397        -5.9157
 127   1.0000      -0.212469        -5.7816
 128   1.0000      -0.209963        -5.7134
 129   1.0000      -0.190541        -5.1849
 130   1.0000      -0.189331        -5.1520
 131   1.0000      -0.186204        -5.0669
 132   1.0000      -0.180587        -4.9140
 133   1.0000      -0.178043        -4.8448
 134   1.0000      -0.158371        -4.3095
 135   1.0000      -0.152886        -4.1602
 136   1.0000      -0.148080        -4.0294
 137   1.0000      -0.135124        -3.6769
 138   1.0000      -0.133536        -3.6337
 139   1.0000      -0.128263        -3.4902
 140   1.0000      -0.125111        -3.4045
 141   1.0000      -0.117359        -3.1935
 142   1.0000      -0.114373        -3.1122
 143   1.0000      -0.110594        -3.0094
 144   1.0000      -0.099494        -2.7074
 145   1.0000      -0.098914        -2.6916
 146   1.0000      -0.094039        -2.5589
 147   1.0000      -0.092744        -2.5237
 148   1.0000      -0.070598        -1.9211
 149   1.0000      -0.067409        -1.8343
 150   1.0000      -0.066656        -1.8138
 151   1.0000      -0.048972        -1.3326
 152   1.0000      -0.044361        -1.2071
 153   1.0000      -0.038061        -1.0357
 154   1.0000      -0.035649        -0.9701
 155   1.0000      -0.031230        -0.8498
 156   1.0000      -0.025116        -0.6834
 157   1.0000      -0.015713        -0.4276
 158   1.0000       0.021776         0.5926
 159   1.0000       0.040347         1.0979
 160   0.0000       0.136197         3.7061
 161   0.0000       0.136365         3.7107
 162   0.0000       0.155708         4.2370
 163   0.0000       0.160349         4.3633
 164   0.0000       0.162975         4.4348

MULLIKEN ATOMIC CHARGES AND SPIN POPULATIONS
--------------------------------------------
   0 V :    0.472708    1.210969
   1 S :   -0.294601   -0.022229
   2 S :   -0.280643   -0.024480
   3 S :   -0.277145   -0.024569
   4 S :   -0.287451   -0.026502
   5 O :   -0.468833   -0.146718
   6 C :   -0.082480    0.009164
   7 C :   -0.082256    0.008737
   8 C :   -0.067293    0.005746
   9 C :   -0.106562    0.009870
  10 S :    0.096173   -0.000494
  11 S :    0.097774   -0.000672
  12 S :    0.095296   -0.000202
  13 S :    0.092938   -0.000376
  14 C :   -0.200881    0.001568
  15 C :   -0.192106    0.001118
  16 C :   -0.202709   -0.000133
  17 C :   -0.207671   -0.000605
  18 S :    0.010271   -0.000098
  19 S :    0.009994   -0.000124
  20 S :    0.010055   -0.000057
  21 S :    0.007513   -0.000075
  22 C :   -0.297914   -0.000005
  23 C :   -0.299338    0.000002
  24 C :   -0.161370   -0.000014
  25 H :    0.141841   -0.000001
  26 H :    0.112599   -0.000006
  27 H :    0.083388   -0.000001
  28 H :    0.092265   -0.000001
  29 H :    0.114412   -0.000001
  30 H :    0.144781   -0.000004
  31 C :   -0.303598    0.000191
  32 C :   -0.294457    0.000200
  33 C :   -0.160237   -0.000245
  34 H :    0.137907   -0.000013
  35 H :    0.111381    0.000017
  36 H :    0.092708    0.000024
  37 H :    0.083054    0.000014
  38 H :    0.115076    0.000024
  39 H :    0.145408   -0.000021
Sum of atomic charges         :   -2.0000000

LOEWDIN ATOMIC CHARGES AND SPIN POPULATIONS
-------------------------------------------
   0 V :   -0.155155    1.164494
   1 S :    0.067902   -0.014958
   2 S :    0.088125   -0.014748
   3 S :    0.089923   -0.015395
   4 S :    0.075546   -0.017827
   5 O :   -0.319409   -0.131672
   6 C :   -0.551374    0.009494
   7 C :   -0.545833    0.007608
   8 C :   -0.545234    0.006348
   9 C :   -0.549768    0.009609
  10 S :    0.465414   -0.000904
  11 S :    0.466203   -0.000899
  12 S :    0.465833   -0.000626
  13 S :    0.455866   -0.000900
  14 C :   -0.459810    0.000181
  15 C :   -0.456206   -0.000078
  16 C :   -0.621365    0.000482
  17 C :   -0.620047    0.000038
  18 S :    0.360798   -0.000071
  19 S :    0.357700   -0.000103
  20 S :    0.364938   -0.000067
  21 S :    0.352549   -0.000082
  22 C :   -0.282725   -0.000015
  23 C :   -0.284369   -0.000007
  24 C :   -0.176148   -0.000002
  25 H :    0.062077   -0.000002
  26 H :    0.053601   -0.000003
  27 H :    0.057972   -0.000002
  28 H :    0.060170   -0.000001
  29 H :    0.053936   -0.000002
  30 H :    0.062775   -0.000001
  31 C :   -0.283606    0.000035
  32 C :   -0.285695    0.000046
  33 C :   -0.176920    0.000006
  34 H :    0.061048    0.000001
  35 H :    0.054227    0.000008
  36 H :    0.060710    0.000005
  37 H :    0.057586    0.000002
  38 H :    0.054281    0.000010
  39 H :    0.064482   -0.000002

  Mayer bond orders larger than 0.100000
B(  0-V ,  1-S ) :   0.7410 B(  0-V ,  2-S ) :   0.8025 B(  0-V ,  3-S ) :   0.7902
B(  0-V ,  4-S ) :   0.7474 B(  0-V ,  5-O ) :   2.1474 B(  1-S ,  8-C ) :   1.1104
B(  2-S ,  6-C ) :   1.0811 B(  3-S ,  9-C ) :   1.0995 B(  4-S ,  7-C ) :   1.1252
B(  6-C ,  7-C ) :   1.6849 B(  6-C , 10-S ) :   0.9244 B(  7-C , 11-S ) :   0.9374
B(  8-C ,  9-C ) :   1.6934 B(  8-C , 13-S ) :   0.9261 B(  9-C , 12-S ) :   0.9258
B( 10-S , 14-C ) :   1.2435 B( 11-S , 14-C ) :   1.2351 B( 12-S , 15-C ) :   1.2319
B( 13-S , 15-C ) :   1.2316 B( 14-C , 16-C ) :   1.4607 B( 15-C , 17-C ) :   1.4653
B( 16-C , 18-S ) :   1.0852 B( 16-C , 19-S ) :   1.0882 B( 17-C , 20-S ) :   1.0933
B( 17-C , 21-S ) :   1.0777 B( 18-S , 32-C ) :   0.9986 B( 19-S , 31-C ) :   0.9843
B( 20-S , 23-C ) :   0.9912 B( 21-S , 22-C ) :   0.9925 B( 22-C , 24-C ) :   0.9163
B( 22-C , 25-H ) :   0.9645 B( 22-C , 26-H ) :   0.9651 B( 23-C , 24-C ) :   0.9121
B( 23-C , 29-H ) :   0.9656 B( 23-C , 30-H ) :   0.9671 B( 24-C , 27-H ) :   0.9623
B( 24-C , 28-H ) :   0.9717 B( 31-C , 33-C ) :   0.9087 B( 31-C , 38-H ) :   0.9647
B( 31-C , 39-H ) :   0.9662 B( 32-C , 33-C ) :   0.9186 B( 32-C , 34-H ) :   0.9642
B( 32-C , 35-H ) :   0.9656 B( 33-C , 36-H ) :   0.9714 B( 33-C , 37-H ) :   0.9624

FINAL SINGLE POINT ENERGY     -6337.699022518672

DIPOLE MOMENT
-------------
                                X             Y             Z
Electronic contribution:     -9.98037       8.99616       1.92761
Nuclear contribution   :     11.11356     -10.01489      -2.13771
                        -----------------------------------------
Total Dipole Moment    :      1.13319      -1.01873      -0.21010
                        -----------------------------------------
Magnitude (a.u.)       :      1.53820
Magnitude (Debye)      :      3.90979

Rotational constants in cm-1:     0.010716     0.000805     0.000784
Rotational constants in MHz :   321.248184    24.118821    23.495183

                             ****ORCA TERMINATED NORMALLY****
TOTAL RUN TIME: 0 days 1 hours 6 minutes 39 seconds 792 msec
