                         Program Version 5.0.4 -  RELEASE  -
|  1> ! nofrozencore ReducedPop printbasis
|  2> ! B3LYP TZVP
|  3>
|  4> %basis
|  5> newgto V "CP(PPP)" end
|  6> end
|  7>
|  8> %pal
|  9> nprocs 8
| 10> end
| 11>
| 12> % sym SymThresh 1e-2 end
| 13> * xyz -2 2
| 14> V -0.11270617606402017 -1.0626610863344346 0.3110845846334169
| 15> S -1.867235447062915 0.021683684666187045 1.6775494941300697
| 16> S -1.6266044042778627 -0.675317746075198 -1.608467684925244
| 17> S 1.4917568642286991 -0.1018800472803711 1.934647397996004
| 18> S 1.718167613274759 -0.7030845347882843 -1.302350584787852
| 19> O -0.19004288470118186 -2.623693888101253 0.5987231205395225
| 20> C -0.49721871527802247 -0.9647925774906339 -2.927230469655447
| 21> C 0.8438547796050311 -0.9723756436052622 -2.804376728815156
| 22> C -0.9341540793383524 0.5527666636369377 3.0569953731738297
| 23> C 0.4037217753568262 0.5060708346754532 3.1576696328048035
| 24> S -1.1457461935347761 -1.1970141682700446 -4.584904073403428
| 25> S 1.7861190521007086 -1.1966788609226406 -4.31340677833447
| 26> S 1.1202104440486627 1.17510946348806 4.674324532089327
| 27> S -1.8181215492917913 1.27274692014092 4.458766387257648
| 28> C 0.4100032096747955 -1.3148582811971423 -5.414544061529896
| 29> C -0.39672475493567283 1.7076071705643892 5.441967630709256
| 30> C 0.5386671721607662 -1.489327879193478 -6.765724220927378
| 31> C -0.4604025998825011 2.3775087139390907 6.6225424878128285
| 32> S -0.8755987486753236 -1.663245144899607 -7.836532118439323
| 33> S 2.134798236930877 -1.5984104378024397 -7.5513418824849285
| 34> S -2.0207216838083903 2.8465063001853337 7.334699995015323
| 35> S 1.011382329421252 2.7607282430305307 7.545325103616942
| 36> C 0.7034660527115115 4.658220967633693 7.481232308762327
| 37> C -1.60124622307703 4.723716188311872 7.32652352571845
| 38> C -0.47743229658406205 5.105355791189031 8.006213602432995
| 39> H 0.9603303844384343 5.055891556333258 6.483007494710492
| 40> H 1.4414406261448156 5.032654647813412 8.222430257644408
| 41> H -0.449093557405483 6.207038106406461 8.050326630768529
| 42> H -0.5565568162397052 4.750685259620793 9.04018906829104
| 43> H -2.4087937175358594 5.138478385796395 7.96676433472712
| 44> H -1.7015599973167694 5.135616364698405 6.306360287627349
| 45> C 2.016973563876069 -3.3238553253862726 -8.19971102183561
| 46> C -0.5601106655481052 -3.3819123356444267 -8.437049341156559
| 47> C 0.8074319560530141 -3.550843425619808 -9.125672847885793
| 48> H -0.6449054296918174 -4.056849479963622 -7.582223416108622
| 49> H -1.3746401413433076 -3.606372168828368 -9.130588093972744
| 50> H 0.8702292852017536 -2.869535767224044 -9.979999225095971
| 51> H 0.8668853719983637 -4.5752418942052655 -9.518873435553457
| 52> H 2.9542411351921705 -3.5032973631210695 -8.732789713468284
| 53> H 1.9770546431637033 -4.001079599490198 -7.3434007280083256
| 54> *
| 55>
| 56> % eprnmr
| 57> gtensor true
| 58> Nuclei = all H {aiso,adip,aorb,fgrad,rho}
| 59> Nuclei = all V {aiso,adip,aorb,fgrad,rho}
| 60> end
| 61>
| 62>                          ****END OF INPUT****

CARTESIAN COORDINATES (ANGSTROEM)
---------------------------------
  V     -0.112394   -1.060276    0.308099
  S     -1.866923    0.024069    1.674564
  S     -1.626292   -0.672932   -1.611453
  S      1.492069   -0.099495    1.931662
  S      1.718480   -0.700699   -1.305336
  O     -0.189730   -2.621308    0.595738
  C     -0.496906   -0.962407   -2.930216
  C      0.844167   -0.969990   -2.807362
  C     -0.933842    0.555152    3.054010
  C      0.404034    0.508456    3.154685
  S     -1.145434   -1.194629   -4.587889
  S      1.786431   -1.194293   -4.316392
  S      1.120523    1.177495    4.671339
  S     -1.817809    1.275132    4.455781
  C      0.410316   -1.312473   -5.417529
  C     -0.396412    1.709993    5.438983
  C      0.538980   -1.486942   -6.768709
  C     -0.460090    2.379894    6.619557
  S     -0.875286   -1.660860   -7.839517
  S      2.135111   -1.596025   -7.554327
  S     -2.020409    2.848892    7.331715
  S      1.011695    2.763114    7.542340
  C      0.703778    4.660606    7.478247
  C     -1.600934    4.726102    7.323538
  C     -0.477120    5.107741    8.003228
  H      0.960643    5.058277    6.480022
  H      1.441753    5.035040    8.219445
  H     -0.448781    6.209424    8.047342
  H     -0.556244    4.753071    9.037204
  H     -2.408481    5.140864    7.963779
  H     -1.701248    5.138002    6.303375
  C      2.017286   -3.321470   -8.202696
  C     -0.559798   -3.379527   -8.440034
  C      0.807744   -3.548458   -9.128658
  H     -0.644593   -4.054464   -7.585209
  H     -1.374328   -3.603987   -9.133573
  H      0.870542   -2.867150   -9.982984
  H      0.867198   -4.572856   -9.521859
  H      2.954554   -3.500912   -8.735775
  H      1.977367   -3.998694   -7.346386

 Total Charge           Charge          ....   -2
 Multiplicity           Mult            ....    2
 Number of Electrons    NEL             ....  321
 Basis Dimension        Dim             ....  681

ORBITAL ENERGIES
----------------
                 SPIN UP ORBITALS
  NO   OCC          E(Eh)            E(eV)
   0   1.0000    -196.673910     -5351.7692
   1   1.0000     -88.737691     -2414.6753
   2   1.0000     -88.737587     -2414.6725
   3   1.0000     -88.732442     -2414.5325
   4   1.0000     -88.732438     -2414.5324
   5   1.0000     -88.729885     -2414.4629
   6   1.0000     -88.729699     -2414.4579
   7   1.0000     -88.726670     -2414.3754
   8   1.0000     -88.726660     -2414.3752
   9   1.0000     -88.638919     -2411.9876
  10   1.0000     -88.638721     -2411.9822
  11   1.0000     -88.638269     -2411.9699
  12   1.0000     -88.637763     -2411.9562
  13   1.0000     -22.049300      -599.9919
  14   1.0000     -18.889145      -513.9998
  15   1.0000     -18.555747      -504.9276
  16   1.0000     -18.550577      -504.7869
  17   1.0000     -18.550473      -504.7840
  18   1.0000     -10.075398      -274.1655
  19   1.0000     -10.072786      -274.0944
  20   1.0000     -10.063669      -273.8464
  21   1.0000     -10.063612      -273.8448
  22   1.0000     -10.055844      -273.6334
  23   1.0000     -10.055821      -273.6328
  24   1.0000     -10.051949      -273.5274
  25   1.0000     -10.048112      -273.4230
  26   1.0000     -10.047760      -273.4135
  27   1.0000     -10.032824      -273.0070
  28   1.0000     -10.017599      -272.5927
  29   1.0000     -10.016665      -272.5673
  30   1.0000     -10.015569      -272.5375
  31   1.0000     -10.014754      -272.5153
  32   1.0000      -7.790226      -211.9828
  33   1.0000      -7.790119      -211.9799
  34   1.0000      -7.785950      -211.8665
  35   1.0000      -7.785934      -211.8660
  36   1.0000      -7.783164      -211.7907
  37   1.0000      -7.783027      -211.7869
  38   1.0000      -7.779638      -211.6947
  39   1.0000      -7.779613      -211.6940
  40   1.0000      -7.693224      -209.3433
  41   1.0000      -7.692937      -209.3355
  42   1.0000      -7.692772      -209.3310
  43   1.0000      -7.692338      -209.3192
  44   1.0000      -5.755112      -156.6046
  45   1.0000      -5.754996      -156.6014
  46   1.0000      -5.752108      -156.5228
  47   1.0000      -5.752014      -156.5203
  48   1.0000      -5.750941      -156.4911
  49   1.0000      -5.750929      -156.4907
  50   1.0000      -5.748104      -156.4139
  51   1.0000      -5.747962      -156.4100
  52   1.0000      -5.747505      -156.3976
  53   1.0000      -5.747498      -156.3974
  54   1.0000      -5.745000      -156.3294
  55   1.0000      -5.744890      -156.3264
  56   1.0000      -5.744646      -156.3198
  57   1.0000      -5.744630      -156.3193
  58   1.0000      -5.743670      -156.2932
  59   1.0000      -5.743525      -156.2893
  60   1.0000      -5.740751      -156.2138
  61   1.0000      -5.740726      -156.2131
  62   1.0000      -5.740213      -156.1991
  63   1.0000      -5.740193      -156.1986
  64   1.0000      -5.739000      -156.1661
  65   1.0000      -5.738861      -156.1623
  66   1.0000      -5.735399      -156.0681
  67   1.0000      -5.735369      -156.0673
  68   1.0000      -5.658540      -153.9767
  69   1.0000      -5.658278      -153.9696
  70   1.0000      -5.658018      -153.9625
  71   1.0000      -5.657561      -153.9501
  72   1.0000      -5.651860      -153.7949
  73   1.0000      -5.651599      -153.7878
  74   1.0000      -5.651455      -153.7839
  75   1.0000      -5.651042      -153.7727
  76   1.0000      -5.650538      -153.7589
  77   1.0000      -5.650232      -153.7506
  78   1.0000      -5.650118      -153.7475
  79   1.0000      -5.649662      -153.7351
  80   1.0000      -2.442943       -66.4758
  81   1.0000      -1.484203       -40.3872
  82   1.0000      -1.472585       -40.0711
  83   1.0000      -1.471783       -40.0492
  84   1.0000      -0.733611       -19.9626
  85   1.0000      -0.708743       -19.2859
  86   1.0000      -0.693724       -18.8772
  87   1.0000      -0.684409       -18.6237
  88   1.0000      -0.648800       -17.6547
  89   1.0000      -0.642842       -17.4926
  90   1.0000      -0.629780       -17.1372
  91   1.0000      -0.617171       -16.7941
  92   1.0000      -0.613651       -16.6983
  93   1.0000      -0.574544       -15.6341
  94   1.0000      -0.574224       -15.6254
  95   1.0000      -0.572137       -15.5686
  96   1.0000      -0.569559       -15.4985
  97   1.0000      -0.511657       -13.9229
  98   1.0000      -0.496082       -13.4991
  99   1.0000      -0.494554       -13.4575
 100   1.0000      -0.491165       -13.3653
 101   1.0000      -0.480552       -13.0765
 102   1.0000      -0.476823       -12.9750
 103   1.0000      -0.446427       -12.1479
 104   1.0000      -0.435390       -11.8476
 105   1.0000      -0.416240       -11.3265
 106   1.0000      -0.410904       -11.1813
 107   1.0000      -0.368375       -10.0240
 108   1.0000      -0.354225        -9.6390
 109   1.0000      -0.350526        -9.5383
 110   1.0000      -0.325428        -8.8553
 111   1.0000      -0.317610        -8.6426
 112   1.0000      -0.311920        -8.4878
 113   1.0000      -0.309045        -8.4095
 114   1.0000      -0.308027        -8.3818
 115   1.0000      -0.302851        -8.2410
 116   1.0000      -0.291164        -7.9230
 117   1.0000      -0.257143        -6.9972
 118   1.0000      -0.257038        -6.9944
 119   1.0000      -0.254786        -6.9331
 120   1.0000      -0.253377        -6.8947
 121   1.0000      -0.235076        -6.3968
 122   1.0000      -0.233647        -6.3579
 123   1.0000      -0.231489        -6.2991
 124   1.0000      -0.218456        -5.9445
 125   1.0000      -0.215272        -5.8578
 126   1.0000      -0.213428        -5.8077
 127   1.0000      -0.207533        -5.6473
 128   1.0000      -0.206802        -5.6274
 129   1.0000      -0.192487        -5.2378
 130   1.0000      -0.186435        -5.0731
 131   1.0000      -0.185637        -5.0515
 132   1.0000      -0.182169        -4.9571
 133   1.0000      -0.180141        -4.9019
 134   1.0000      -0.158900        -4.3239
 135   1.0000      -0.152773        -4.1572
 136   1.0000      -0.146410        -3.9840
 137   1.0000      -0.135061        -3.6752
 138   1.0000      -0.131951        -3.5906
 139   1.0000      -0.130784        -3.5588
 140   1.0000      -0.124110        -3.3772
 141   1.0000      -0.119081        -3.2404
 142   1.0000      -0.112346        -3.0571
 143   1.0000      -0.109133        -2.9697
 144   1.0000      -0.099694        -2.7128
 145   1.0000      -0.098641        -2.6842
 146   1.0000      -0.095098        -2.5877
 147   1.0000      -0.094438        -2.5698
 148   1.0000      -0.073327        -1.9953
 149   1.0000      -0.072262        -1.9664
 150   1.0000      -0.066666        -1.8141
 151   1.0000      -0.051356        -1.3975
 152   1.0000      -0.044420        -1.2087
 153   1.0000      -0.036243        -0.9862
 154   1.0000      -0.036159        -0.9839
 155   1.0000      -0.030012        -0.8167
 156   1.0000      -0.023993        -0.6529
 157   1.0000      -0.018126        -0.4932
 158   1.0000      -0.014547        -0.3958
 159   1.0000       0.021862         0.5949
 160   1.0000       0.042809         1.1649
 161   0.0000       0.133725         3.6389
 162   0.0000       0.137441         3.7400
 163   0.0000       0.149076         4.0566
 164   0.0000       0.157367         4.2822
 165   0.0000       0.162919         4.4333

                 SPIN DOWN ORBITALS
  NO   OCC          E(Eh)            E(eV)
   0   1.0000    -196.674057     -5351.7732
   1   1.0000     -88.737691     -2414.6753
   2   1.0000     -88.737587     -2414.6725
   3   1.0000     -88.732443     -2414.5325
   4   1.0000     -88.732439     -2414.5324
   5   1.0000     -88.729893     -2414.4631
   6   1.0000     -88.729708     -2414.4581
   7   1.0000     -88.726679     -2414.3757
   8   1.0000     -88.726668     -2414.3754
   9   1.0000     -88.639059     -2411.9914
  10   1.0000     -88.638862     -2411.9861
  11   1.0000     -88.638405     -2411.9736
  12   1.0000     -88.637902     -2411.9599
  13   1.0000     -22.034363      -599.5855
  14   1.0000     -18.892924      -514.1026
  15   1.0000     -18.550479      -504.7842
  16   1.0000     -18.534533      -504.3503
  17   1.0000     -18.534353      -504.3454
  18   1.0000     -10.075393      -274.1654
  19   1.0000     -10.072787      -274.0945
  20   1.0000     -10.063669      -273.8463
  21   1.0000     -10.063611      -273.8448
  22   1.0000     -10.055844      -273.6334
  23   1.0000     -10.055821      -273.6328
  24   1.0000     -10.051949      -273.5274
  25   1.0000     -10.048109      -273.4229
  26   1.0000     -10.047749      -273.4131
  27   1.0000     -10.032824      -273.0070
  28   1.0000     -10.017360      -272.5862
  29   1.0000     -10.016442      -272.5612
  30   1.0000     -10.015360      -272.5318
  31   1.0000     -10.014547      -272.5097
  32   1.0000      -7.790226      -211.9828
  33   1.0000      -7.790119      -211.9799
  34   1.0000      -7.785951      -211.8665
  35   1.0000      -7.785935      -211.8661
  36   1.0000      -7.783174      -211.7909
  37   1.0000      -7.783037      -211.7872
  38   1.0000      -7.779648      -211.6950
  39   1.0000      -7.779623      -211.6943
  40   1.0000      -7.693355      -209.3468
  41   1.0000      -7.693069      -209.3390
  42   1.0000      -7.692899      -209.3344
  43   1.0000      -7.692467      -209.3227
  44   1.0000      -5.755113      -156.6046
  45   1.0000      -5.754996      -156.6014
  46   1.0000      -5.752109      -156.5228
  47   1.0000      -5.752015      -156.5203
  48   1.0000      -5.750942      -156.4911
  49   1.0000      -5.750930      -156.4908
  50   1.0000      -5.748114      -156.4141
  51   1.0000      -5.747972      -156.4103
  52   1.0000      -5.747506      -156.3976
  53   1.0000      -5.747499      -156.3974
  54   1.0000      -5.745001      -156.3294
  55   1.0000      -5.744891      -156.3264
  56   1.0000      -5.744657      -156.3201
  57   1.0000      -5.744641      -156.3196
  58   1.0000      -5.743684      -156.2936
  59   1.0000      -5.743539      -156.2896
  60   1.0000      -5.740751      -156.2138
  61   1.0000      -5.740727      -156.2131
  62   1.0000      -5.740227      -156.1995
  63   1.0000      -5.740208      -156.1990
  64   1.0000      -5.739008      -156.1663
  65   1.0000      -5.738870      -156.1626
  66   1.0000      -5.735406      -156.0683
  67   1.0000      -5.735375      -156.0675
  68   1.0000      -5.658678      -153.9805
  69   1.0000      -5.658419      -153.9734
  70   1.0000      -5.658158      -153.9663
  71   1.0000      -5.657701      -153.9539
  72   1.0000      -5.652247      -153.8055
  73   1.0000      -5.651981      -153.7982
  74   1.0000      -5.651803      -153.7934
  75   1.0000      -5.651400      -153.7824
  76   1.0000      -5.650624      -153.7613
  77   1.0000      -5.650326      -153.7532
  78   1.0000      -5.650224      -153.7504
  79   1.0000      -5.649768      -153.7380
  80   1.0000      -2.398043       -65.2541
  81   1.0000      -1.464903       -39.8620
  82   1.0000      -1.410184       -38.3731
  83   1.0000      -1.410042       -38.3692
  84   1.0000      -0.733611       -19.9626
  85   1.0000      -0.708715       -19.2851
  86   1.0000      -0.693687       -18.8762
  87   1.0000      -0.684354       -18.6222
  88   1.0000      -0.656877       -17.8745
  89   1.0000      -0.642811       -17.4918
  90   1.0000      -0.629705       -17.1351
  91   1.0000      -0.617171       -16.7941
  92   1.0000      -0.613653       -16.6983
  93   1.0000      -0.574480       -15.6324
  94   1.0000      -0.574194       -15.6246
  95   1.0000      -0.572054       -15.5664
  96   1.0000      -0.569542       -15.4980
  97   1.0000      -0.511667       -13.9232
  98   1.0000      -0.496097       -13.4995
  99   1.0000      -0.494600       -13.4588
 100   1.0000      -0.491202       -13.3663
 101   1.0000      -0.480777       -13.0826
 102   1.0000      -0.477072       -12.9818
 103   1.0000      -0.446456       -12.1487
 104   1.0000      -0.435420       -11.8484
 105   1.0000      -0.416244       -11.3266
 106   1.0000      -0.411014       -11.1843
 107   1.0000      -0.368374       -10.0240
 108   1.0000      -0.354215        -9.6387
 109   1.0000      -0.350525        -9.5383
 110   1.0000      -0.325412        -8.8549
 111   1.0000      -0.317544        -8.6408
 112   1.0000      -0.311935        -8.4882
 113   1.0000      -0.309044        -8.4095
 114   1.0000      -0.307981        -8.3806
 115   1.0000      -0.302813        -8.2400
 116   1.0000      -0.291158        -7.9228
 117   1.0000      -0.257054        -6.9948
 118   1.0000      -0.256898        -6.9906
 119   1.0000      -0.254741        -6.9319
 120   1.0000      -0.253322        -6.8932
 121   1.0000      -0.235075        -6.3967
 122   1.0000      -0.233622        -6.3572
 123   1.0000      -0.231449        -6.2981
 124   1.0000      -0.218078        -5.9342
 125   1.0000      -0.214966        -5.8495
 126   1.0000      -0.213333        -5.8051
 127   1.0000      -0.207428        -5.6444
 128   1.0000      -0.206752        -5.6260
 129   1.0000      -0.190817        -5.1924
 130   1.0000      -0.186294        -5.0693
 131   1.0000      -0.185292        -5.0421
 132   1.0000      -0.182076        -4.9545
 133   1.0000      -0.180010        -4.8983
 134   1.0000      -0.158288        -4.3072
 135   1.0000      -0.152570        -4.1516
 136   1.0000      -0.146320        -3.9816
 137   1.0000      -0.134495        -3.6598
 138   1.0000      -0.131540        -3.5794
 139   1.0000      -0.130555        -3.5526
 140   1.0000      -0.123506        -3.3608
 141   1.0000      -0.118798        -3.2326
 142   1.0000      -0.114137        -3.1058
 143   1.0000      -0.110614        -3.0100
 144   1.0000      -0.099776        -2.7150
 145   1.0000      -0.098739        -2.6868
 146   1.0000      -0.095314        -2.5936
 147   1.0000      -0.094776        -2.5790
 148   1.0000      -0.072252        -1.9661
 149   1.0000      -0.069481        -1.8907
 150   1.0000      -0.066668        -1.8141
 151   1.0000      -0.048762        -1.3269
 152   1.0000      -0.043491        -1.1834
 153   1.0000      -0.036296        -0.9877
 154   1.0000      -0.035585        -0.9683
 155   1.0000      -0.030033        -0.8172
 156   1.0000      -0.025023        -0.6809
 157   1.0000      -0.014761        -0.4017
 158   1.0000       0.022137         0.6024
 159   1.0000       0.041729         1.1355
 160   0.0000       0.133698         3.6381
 161   0.0000       0.137449         3.7402
 162   0.0000       0.148970         4.0537
 163   0.0000       0.157389         4.2828
 164   0.0000       0.157587         4.2882

MULLIKEN ATOMIC CHARGES AND SPIN POPULATIONS
--------------------------------------------
   0 V :    0.469217    1.210993
   1 S :   -0.289526   -0.022277
   2 S :   -0.289985   -0.025182
   3 S :   -0.287738   -0.023230
   4 S :   -0.285713   -0.025664
   5 O :   -0.468215   -0.146634
   6 C :   -0.078032    0.009702
   7 C :   -0.084859    0.008062
   8 C :   -0.080760    0.007412
   9 C :   -0.081541    0.007087
  10 S :    0.100901   -0.000581
  11 S :    0.102180   -0.000624
  12 S :    0.084562   -0.000414
  13 S :    0.083487   -0.000370
  14 C :   -0.213229    0.001510
  15 C :   -0.225163    0.000946
  16 C :   -0.193389   -0.000060
  17 C :   -0.161940   -0.000444
  18 S :    0.008985   -0.000114
  19 S :    0.009109   -0.000113
  20 S :    0.008476   -0.000077
  21 S :    0.008437   -0.000080
  22 C :   -0.272576   -0.000005
  23 C :   -0.271671   -0.000006
  24 C :   -0.157039   -0.000016
  25 H :    0.138954   -0.000001
  26 H :    0.090940   -0.000003
  27 H :    0.091157   -0.000003
  28 H :    0.089590   -0.000002
  29 H :    0.090704   -0.000004
  30 H :    0.138526   -0.000001
  31 C :   -0.301305    0.000197
  32 C :   -0.302404    0.000191
  33 C :   -0.157883   -0.000239
  34 H :    0.142313   -0.000018
  35 H :    0.114469    0.000020
  36 H :    0.092363    0.000023
  37 H :    0.082139    0.000016
  38 H :    0.114387    0.000021
  39 H :    0.142074   -0.000019
Sum of atomic charges         :   -2.0000000

LOEWDIN ATOMIC CHARGES AND SPIN POPULATIONS
-------------------------------------------
   0 V :   -0.155162    1.164372
   1 S :    0.084222   -0.014362
   2 S :    0.078581   -0.016059
   3 S :    0.085390   -0.015160
   4 S :    0.082589   -0.016290
   5 O :   -0.319709   -0.131547
   6 C :   -0.550074    0.009060
   7 C :   -0.552218    0.007957
   8 C :   -0.552863    0.007867
   9 C :   -0.552991    0.007421
  10 S :    0.472789   -0.000897
  11 S :    0.473722   -0.000946
  12 S :    0.453983   -0.000864
  13 S :    0.452998   -0.000873
  14 C :   -0.465138    0.000166
  15 C :   -0.464423   -0.000125
  16 C :   -0.623096    0.000479
  17 C :   -0.619250    0.000072
  18 S :    0.359228   -0.000089
  19 S :    0.360578   -0.000086
  20 S :    0.347550   -0.000082
  21 S :    0.346983   -0.000085
  22 C :   -0.258998   -0.000012
  23 C :   -0.259139   -0.000014
  24 C :   -0.204779   -0.000001
  25 H :    0.067464   -0.000001
  26 H :    0.054203   -0.000003
  27 H :    0.069442   -0.000004
  28 H :    0.064793   -0.000002
  29 H :    0.054185   -0.000003
  30 H :    0.067283   -0.000001
  31 C :   -0.285611    0.000044
  32 C :   -0.285377    0.000037
  33 C :   -0.175470    0.000006
  34 H :    0.061953   -0.000001
  35 H :    0.053716    0.000008
  36 H :    0.059896    0.000004
  37 H :    0.057132    0.000002
  38 H :    0.053790    0.000009
  39 H :    0.061828   -0.000001

  Mayer bond orders larger than 0.100000
B(  0-V ,  1-S ) :   0.7729 B(  0-V ,  2-S ) :   0.7707 B(  0-V ,  3-S ) :   0.7663
B(  0-V ,  4-S ) :   0.7780 B(  0-V ,  5-O ) :   2.1480 B(  1-S ,  8-C ) :   1.1114
B(  2-S ,  6-C ) :   1.1031 B(  3-S ,  9-C ) :   1.1137 B(  4-S ,  7-C ) :   1.1037
B(  6-C ,  7-C ) :   1.6845 B(  6-C , 10-S ) :   0.9364 B(  7-C , 11-S ) :   0.9402
B(  8-C ,  9-C ) :   1.7019 B(  8-C , 13-S ) :   0.9237 B(  9-C , 12-S ) :   0.9260
B( 10-S , 14-C ) :   1.2496 B( 11-S , 14-C ) :   1.2495 B( 12-S , 15-C ) :   1.2338
B( 13-S , 15-C ) :   1.2341 B( 14-C , 16-C ) :   1.4491 B( 15-C , 17-C ) :   1.4713
B( 16-C , 18-S ) :   1.0883 B( 16-C , 19-S ) :   1.0898 B( 17-C , 20-S ) :   1.0804
B( 17-C , 21-S ) :   1.0814 B( 18-S , 32-C ) :   0.9913 B( 19-S , 31-C ) :   0.9913
B( 20-S , 23-C ) :   0.9964 B( 21-S , 22-C ) :   0.9961 B( 22-C , 24-C ) :   0.9200
B( 22-C , 25-H ) :   0.9556 B( 22-C , 26-H ) :   0.9838 B( 23-C , 24-C ) :   0.9206
B( 23-C , 29-H ) :   0.9838 B( 23-C , 30-H ) :   0.9555 B( 24-C , 27-H ) :   0.9486
B( 24-C , 28-H ) :   0.9815 B( 31-C , 33-C ) :   0.9127 B( 31-C , 38-H ) :   0.9643
B( 31-C , 39-H ) :   0.9664 B( 32-C , 33-C ) :   0.9125 B( 32-C , 34-H ) :   0.9662
B( 32-C , 35-H ) :   0.9643 B( 33-C , 36-H ) :   0.9715 B( 33-C , 37-H ) :   0.9628

FINAL SINGLE POINT ENERGY     -6337.657561228731

DIPOLE MOMENT
-------------
                                X             Y             Z
Electronic contribution:     -2.10906     -11.65371       6.72962
Nuclear contribution   :      2.33794      13.03187      -7.29500
                        -----------------------------------------
Total Dipole Moment    :      0.22888       1.37816      -0.56538
                        -----------------------------------------
Magnitude (a.u.)       :      1.50711
Magnitude (Debye)      :      3.83076

Rotational constants in cm-1:     0.010795     0.000804     0.000784
Rotational constants in MHz :   323.640186    24.114953    23.497000

                             ****ORCA TERMINATED NORMALLY****
TOTAL RUN TIME: 0 days 1 hours 1 minutes 42 seconds 956 msec
