                         Program Version 5.0.4 -  RELEASE  -
|  1> ! nofrozencore ReducedPop printbasis
|  2> ! B3LYP TZVP
|  3>
|  4> %basis
|  5> newgto V "CP(PPP)" end
|  6> end
|  7>
|  8> %pal
|  9> nprocs 6
| 10> end
| 11>
| 12> % sym SymThresh 1e-2 end
| 13> * xyz -2 2
| 14> V 0.6929821371598414 -0.2143043399707381 0.5614884241380981
| 15> S 2.068727830697792 0.9783767587140324 -1.0407139441780493
| 16> S -0.06302592437742568 1.9493592623389333 1.3799783809494186
| 17> S 0.7621743013017347 -2.1380142825491095 -0.9187687094760179
| 18> S -1.375840034012698 -1.1499990187061309 1.394713751658337
| 19> O 2.2662914402886973 -0.8114051554239484 2.263334362574743
| 20> C -1.3938544636086816 1.4196962009888874 2.409134162811377
| 21> C -1.9187869499957924 0.17795343284269774 2.409051065978333
| 22> C 2.365756863267557 -0.2959943843136711 -2.2165862437726664
| 23> C 1.8419255702818529 -1.5381957916903484 -2.169115585452737
| 24> S -2.1726659539916136 2.617522836175782 3.491889654901054
| 25> S -3.3306199380479864 -0.08839772374599844 3.4820952326837284
| 26> S 2.261578290756529 -2.6350810264812727 -3.525452677890625
| 27> S 3.411561971420373 0.07296819459824984 -3.628130440441386
| 28> C -3.4332538734087503 1.5531496387067851 4.1286812029944615
| 29> C 3.2328481884001286 -1.4828831455540237 -4.448857649833135
| 30> C -4.3787915508860396 1.9510265451884339 5.031430731887413
| 31> C 3.795300936312447 -1.7685716418393913 -5.660562973279016
| 32> S -4.4097686831586325 3.6007417147852863 5.7027800359931025
| 33> S -5.627581583801612 0.8331823635495652 5.635616768054131
| 34> S 4.763354189384675 -0.5708577805903898 -6.5559798623102
| 35> S 3.565043469422776 -3.346460223341794 -6.45613756893293
| 36> C 2.660074894171349 -2.7642707119334355 -7.962522642509239
| 37> C 3.684188256752715 -0.40429863230702767 -8.05101462046257
| 38> C 3.423831744562877 -1.7222023673327367 -8.775416729188537
| 39> H 1.702721282907439 -2.365591690465428 -7.619622102232233
| 40> H 2.462757442889814 -3.65478002386973 -8.564179067331999
| 41> H 2.8571866082286363 -1.5102511493101873 -9.692660363977849
| 42> H 4.383754626838802 -2.1506810570309822 -9.081249015462491
| 43> H 4.186499175968791 0.3061096080975994 -8.711946335715743
| 44> H 2.74772761824148 0.046188936947963964 -7.714805523210783
| 45> C -5.157914883052605 0.8271668179638113 7.426139579873586
| 46> C -4.115601479401696 3.1786342075944374 7.481566788331042
| 47> C -5.143156912018815 2.2125717820075095 8.06511262089961
| 48> H -3.107896978584417 2.7622760847944585 7.5431299804841245
| 49> H -4.1271799150485515 4.127237538105955 8.023601747537942
| 50> H -6.138963044818514 2.6566591608808867 7.965102901762493
| 51> H -4.945334466813593 2.0991641136606365 9.139884835723363
| 52> H -5.881685154270541 0.17948574492603317 7.926610185156001
| 53> H -4.175080020314147 0.3554903465235339 7.49099898842412
| 54> *
| 55>
| 56> % eprnmr
| 57> gtensor true
| 58> Nuclei = all H {aiso,adip,aorb,fgrad,rho}
| 59> Nuclei = all V {aiso,adip,aorb,fgrad,rho}
| 60> end
| 61>
| 62>                          ****END OF INPUT****

CARTESIAN COORDINATES (ANGSTROEM)
---------------------------------
  V      0.689454   -0.212833    0.561190
  S      2.065200    0.979848   -1.041013
  S     -0.066554    1.950831    1.379680
  S      0.758647   -2.136543   -0.919068
  S     -1.379368   -1.148528    1.394415
  O      2.262764   -0.809934    2.263036
  C     -1.397382    1.421168    2.408835
  C     -1.922315    0.179425    2.408752
  C      2.362229   -0.294523   -2.216885
  C      1.838398   -1.536724   -2.169414
  S     -2.176194    2.618994    3.491591
  S     -3.334148   -0.086926    3.481796
  S      2.258051   -2.633610   -3.525752
  S      3.408034    0.074440   -3.628429
  C     -3.436782    1.554621    4.128382
  C      3.229320   -1.481412   -4.449156
  C     -4.382319    1.952498    5.031132
  C      3.791773   -1.767100   -5.660862
  S     -4.413296    3.602213    5.702481
  S     -5.631109    0.834654    5.635318
  S      4.759826   -0.569386   -6.556279
  S      3.561516   -3.344989   -6.456436
  C      2.656547   -2.762799   -7.962821
  C      3.680661   -0.402827   -8.051313
  C      3.420304   -1.720731   -8.775716
  H      1.699194   -2.364120   -7.619921
  H      2.459230   -3.653309   -8.564478
  H      2.853659   -1.508780   -9.692959
  H      4.380227   -2.149210   -9.081548
  H      4.182971    0.307581   -8.712245
  H      2.744200    0.047660   -7.715104
  C     -5.161443    0.828638    7.425841
  C     -4.119129    3.180106    7.481268
  C     -5.146685    2.214043    8.064814
  H     -3.111425    2.763747    7.542831
  H     -4.130708    4.128709    8.023303
  H     -6.142491    2.658130    7.964804
  H     -4.948862    2.100635    9.139586
  H     -5.885213    0.180957    7.926311
  H     -4.178608    0.356962    7.490700

 Total Charge           Charge          ....   -2
 Multiplicity           Mult            ....    2
 Number of Electrons    NEL             ....  321
 Basis Dimension        Dim             ....  681

ORBITAL ENERGIES
----------------
                 SPIN UP ORBITALS
  NO   OCC          E(Eh)            E(eV)
   0   1.0000    -196.662888     -5351.4692
   1   1.0000     -88.735608     -2414.6186
   2   1.0000     -88.735496     -2414.6156
   3   1.0000     -88.735090     -2414.6046
   4   1.0000     -88.735061     -2414.6038
   5   1.0000     -88.734033     -2414.5758
   6   1.0000     -88.734022     -2414.5755
   7   1.0000     -88.733963     -2414.5739
   8   1.0000     -88.733593     -2414.5638
   9   1.0000     -88.648594     -2412.2509
  10   1.0000     -88.648584     -2412.2506
  11   1.0000     -88.647543     -2412.2223
  12   1.0000     -88.647082     -2412.2097
  13   1.0000     -22.031902      -599.5185
  14   1.0000     -18.848477      -512.8931
  15   1.0000     -18.536667      -504.4084
  16   1.0000     -18.535391      -504.3736
  17   1.0000     -18.530440      -504.2389
  18   1.0000     -10.079444      -274.2756
  19   1.0000     -10.078963      -274.2625
  20   1.0000     -10.065477      -273.8955
  21   1.0000     -10.065452      -273.8949
  22   1.0000     -10.064920      -273.8804
  23   1.0000     -10.064855      -273.8786
  24   1.0000     -10.052874      -273.5526
  25   1.0000     -10.052389      -273.5394
  26   1.0000     -10.051850      -273.5247
  27   1.0000     -10.051263      -273.5088
  28   1.0000     -10.024733      -272.7868
  29   1.0000     -10.024525      -272.7812
  30   1.0000     -10.023958      -272.7658
  31   1.0000     -10.023579      -272.7555
  32   1.0000      -7.789104      -211.9523
  33   1.0000      -7.789007      -211.9496
  34   1.0000      -7.788587      -211.9382
  35   1.0000      -7.788573      -211.9379
  36   1.0000      -7.787341      -211.9043
  37   1.0000      -7.787323      -211.9038
  38   1.0000      -7.787246      -211.9017
  39   1.0000      -7.786911      -211.8926
  40   1.0000      -7.703035      -209.6102
  41   1.0000      -7.702932      -209.6074
  42   1.0000      -7.701961      -209.5810
  43   1.0000      -7.701322      -209.5636
  44   1.0000      -5.754104      -156.5771
  45   1.0000      -5.753998      -156.5743
  46   1.0000      -5.753579      -156.5629
  47   1.0000      -5.753557      -156.5622
  48   1.0000      -5.752283      -156.5276
  49   1.0000      -5.752278      -156.5274
  50   1.0000      -5.752199      -156.5253
  51   1.0000      -5.751857      -156.5160
  52   1.0000      -5.750670      -156.4837
  53   1.0000      -5.750584      -156.4813
  54   1.0000      -5.750161      -156.4698
  55   1.0000      -5.750154      -156.4696
  56   1.0000      -5.747863      -156.4073
  57   1.0000      -5.747855      -156.4071
  58   1.0000      -5.747769      -156.4047
  59   1.0000      -5.747433      -156.3956
  60   1.0000      -5.743879      -156.2989
  61   1.0000      -5.743779      -156.2962
  62   1.0000      -5.743367      -156.2849
  63   1.0000      -5.743353      -156.2846
  64   1.0000      -5.743135      -156.2786
  65   1.0000      -5.743116      -156.2781
  66   1.0000      -5.743040      -156.2761
  67   1.0000      -5.742705      -156.2669
  68   1.0000      -5.668239      -154.2406
  69   1.0000      -5.668161      -154.2385
  70   1.0000      -5.667198      -154.2123
  71   1.0000      -5.666612      -154.1963
  72   1.0000      -5.661127      -154.0471
  73   1.0000      -5.661117      -154.0468
  74   1.0000      -5.660779      -154.0376
  75   1.0000      -5.660634      -154.0337
  76   1.0000      -5.660154      -154.0206
  77   1.0000      -5.659647      -154.0068
  78   1.0000      -5.659441      -154.0012
  79   1.0000      -5.659056      -153.9907
  80   1.0000      -2.445269       -66.5391
  81   1.0000      -1.477815       -40.2134
  82   1.0000      -1.476923       -40.1891
  83   1.0000      -1.476880       -40.1880
  84   1.0000      -0.713318       -19.4104
  85   1.0000      -0.712895       -19.3989
  86   1.0000      -0.689531       -18.7631
  87   1.0000      -0.689247       -18.7554
  88   1.0000      -0.635491       -17.2926
  89   1.0000      -0.635058       -17.2808
  90   1.0000      -0.620076       -16.8731
  91   1.0000      -0.619589       -16.8599
  92   1.0000      -0.579426       -15.7670
  93   1.0000      -0.579111       -15.7584
  94   1.0000      -0.578074       -15.7302
  95   1.0000      -0.576837       -15.6965
  96   1.0000      -0.542139       -14.7523
  97   1.0000      -0.501262       -13.6400
  98   1.0000      -0.500137       -13.6094
  99   1.0000      -0.499291       -13.5864
 100   1.0000      -0.498969       -13.5776
 101   1.0000      -0.485104       -13.2004
 102   1.0000      -0.483083       -13.1454
 103   1.0000      -0.451049       -12.2737
 104   1.0000      -0.448381       -12.2011
 105   1.0000      -0.421524       -11.4703
 106   1.0000      -0.416287       -11.3277
 107   1.0000      -0.357589        -9.7305
 108   1.0000      -0.357191        -9.7197
 109   1.0000      -0.330580        -8.9955
 110   1.0000      -0.330071        -8.9817
 111   1.0000      -0.323951        -8.8152
 112   1.0000      -0.319688        -8.6992
 113   1.0000      -0.307529        -8.3683
 114   1.0000      -0.306518        -8.3408
 115   1.0000      -0.295085        -8.0297
 116   1.0000      -0.294707        -8.0194
 117   1.0000      -0.261809        -7.1242
 118   1.0000      -0.261385        -7.1127
 119   1.0000      -0.259558        -7.0629
 120   1.0000      -0.259157        -7.0520
 121   1.0000      -0.237019        -6.4496
 122   1.0000      -0.236183        -6.4269
 123   1.0000      -0.235435        -6.4065
 124   1.0000      -0.234029        -6.3682
 125   1.0000      -0.223950        -6.0940
 126   1.0000      -0.221460        -6.0262
 127   1.0000      -0.216670        -5.8959
 128   1.0000      -0.215586        -5.8664
 129   1.0000      -0.199610        -5.4317
 130   1.0000      -0.190280        -5.1778
 131   1.0000      -0.188916        -5.1407
 132   1.0000      -0.187959        -5.1146
 133   1.0000      -0.182348        -4.9620
 134   1.0000      -0.165745        -4.5102
 135   1.0000      -0.154829        -4.2131
 136   1.0000      -0.149716        -4.0740
 137   1.0000      -0.137945        -3.7537
 138   1.0000      -0.137452        -3.7403
 139   1.0000      -0.137290        -3.7358
 140   1.0000      -0.127091        -3.4583
 141   1.0000      -0.104914        -2.8549
 142   1.0000      -0.103725        -2.8225
 143   1.0000      -0.100787        -2.7425
 144   1.0000      -0.099966        -2.7202
 145   1.0000      -0.085948        -2.3388
 146   1.0000      -0.070062        -1.9065
 147   1.0000      -0.069899        -1.9021
 148   1.0000      -0.064000        -1.7415
 149   1.0000      -0.063938        -1.7398
 150   1.0000      -0.052554        -1.4301
 151   1.0000      -0.042527        -1.1572
 152   1.0000      -0.038875        -1.0579
 153   1.0000      -0.038192        -1.0393
 154   1.0000      -0.026506        -0.7213
 155   1.0000      -0.023690        -0.6446
 156   1.0000      -0.010612        -0.2888
 157   1.0000       0.000659         0.0179
 158   1.0000       0.011043         0.3005
 159   1.0000       0.013984         0.3805
 160   1.0000       0.032223         0.8768
 161   0.0000       0.128514         3.4970
 162   0.0000       0.134610         3.6629
 163   0.0000       0.134772         3.6673
 164   0.0000       0.140048         3.8109
 165   0.0000       0.143761         3.9119

                 SPIN DOWN ORBITALS
  NO   OCC          E(Eh)            E(eV)
   0   1.0000    -196.663001     -5351.4723
   1   1.0000     -88.735608     -2414.6187
   2   1.0000     -88.735496     -2414.6156
   3   1.0000     -88.735090     -2414.6046
   4   1.0000     -88.735061     -2414.6038
   5   1.0000     -88.734036     -2414.5759
   6   1.0000     -88.734025     -2414.5756
   7   1.0000     -88.733965     -2414.5739
   8   1.0000     -88.733594     -2414.5638
   9   1.0000     -88.648989     -2412.2616
  10   1.0000     -88.648978     -2412.2613
  11   1.0000     -88.647908     -2412.2322
  12   1.0000     -88.647451     -2412.2198
  13   1.0000     -22.003240      -598.7386
  14   1.0000     -18.877411      -513.6805
  15   1.0000     -18.515520      -503.8329
  16   1.0000     -18.513144      -503.7683
  17   1.0000     -18.501923      -503.4629
  18   1.0000     -10.079453      -274.2758
  19   1.0000     -10.078957      -274.2624
  20   1.0000     -10.065479      -273.8956
  21   1.0000     -10.065454      -273.8949
  22   1.0000     -10.064921      -273.8804
  23   1.0000     -10.064857      -273.8787
  24   1.0000     -10.052875      -273.5526
  25   1.0000     -10.052389      -273.5394
  26   1.0000     -10.051865      -273.5252
  27   1.0000     -10.051275      -273.5091
  28   1.0000     -10.024443      -272.7789
  29   1.0000     -10.024262      -272.7740
  30   1.0000     -10.023665      -272.7578
  31   1.0000     -10.023290      -272.7476
  32   1.0000      -7.789105      -211.9523
  33   1.0000      -7.789007      -211.9497
  34   1.0000      -7.788587      -211.9382
  35   1.0000      -7.788573      -211.9378
  36   1.0000      -7.787346      -211.9045
  37   1.0000      -7.787328      -211.9040
  38   1.0000      -7.787248      -211.9018
  39   1.0000      -7.786913      -211.8927
  40   1.0000      -7.703418      -209.6207
  41   1.0000      -7.703297      -209.6174
  42   1.0000      -7.702308      -209.5905
  43   1.0000      -7.701672      -209.5732
  44   1.0000      -5.754105      -156.5771
  45   1.0000      -5.753998      -156.5743
  46   1.0000      -5.753579      -156.5629
  47   1.0000      -5.753557      -156.5622
  48   1.0000      -5.752296      -156.5279
  49   1.0000      -5.752292      -156.5278
  50   1.0000      -5.752209      -156.5256
  51   1.0000      -5.751869      -156.5163
  52   1.0000      -5.750671      -156.4837
  53   1.0000      -5.750584      -156.4813
  54   1.0000      -5.750160      -156.4698
  55   1.0000      -5.750154      -156.4696
  56   1.0000      -5.747881      -156.4078
  57   1.0000      -5.747874      -156.4076
  58   1.0000      -5.747781      -156.4051
  59   1.0000      -5.747445      -156.3959
  60   1.0000      -5.743880      -156.2989
  61   1.0000      -5.743780      -156.2962
  62   1.0000      -5.743367      -156.2850
  63   1.0000      -5.743353      -156.2846
  64   1.0000      -5.743111      -156.2780
  65   1.0000      -5.743090      -156.2774
  66   1.0000      -5.743021      -156.2756
  67   1.0000      -5.742683      -156.2664
  68   1.0000      -5.668561      -154.2494
  69   1.0000      -5.668473      -154.2470
  70   1.0000      -5.667497      -154.2204
  71   1.0000      -5.666911      -154.2045
  72   1.0000      -5.661787      -154.0650
  73   1.0000      -5.661771      -154.0646
  74   1.0000      -5.661556      -154.0588
  75   1.0000      -5.661299      -154.0518
  76   1.0000      -5.660773      -154.0375
  77   1.0000      -5.660300      -154.0246
  78   1.0000      -5.660056      -154.0180
  79   1.0000      -5.659730      -154.0091
  80   1.0000      -2.358317       -64.1731
  81   1.0000      -1.396534       -38.0016
  82   1.0000      -1.391266       -37.8583
  83   1.0000      -1.366993       -37.1978
  84   1.0000      -0.713314       -19.4103
  85   1.0000      -0.712879       -19.3984
  86   1.0000      -0.689496       -18.7622
  87   1.0000      -0.689210       -18.7544
  88   1.0000      -0.635468       -17.2920
  89   1.0000      -0.635033       -17.2801
  90   1.0000      -0.629711       -17.1353
  91   1.0000      -0.620081       -16.8733
  92   1.0000      -0.619592       -16.8599
  93   1.0000      -0.579381       -15.7658
  94   1.0000      -0.579061       -15.7571
  95   1.0000      -0.578041       -15.7293
  96   1.0000      -0.576860       -15.6972
  97   1.0000      -0.501454       -13.6453
  98   1.0000      -0.500403       -13.6167
  99   1.0000      -0.499509       -13.5923
 100   1.0000      -0.499176       -13.5833
 101   1.0000      -0.485637       -13.2149
 102   1.0000      -0.483726       -13.1629
 103   1.0000      -0.451292       -12.2803
 104   1.0000      -0.448654       -12.2085
 105   1.0000      -0.421901       -11.4805
 106   1.0000      -0.416970       -11.3463
 107   1.0000      -0.357594        -9.7306
 108   1.0000      -0.357191        -9.7197
 109   1.0000      -0.330568        -8.9952
 110   1.0000      -0.330063        -8.9815
 111   1.0000      -0.323980        -8.8160
 112   1.0000      -0.319836        -8.7032
 113   1.0000      -0.307456        -8.3663
 114   1.0000      -0.306507        -8.3405
 115   1.0000      -0.295084        -8.0297
 116   1.0000      -0.294707        -8.0194
 117   1.0000      -0.261619        -7.1190
 118   1.0000      -0.261287        -7.1100
 119   1.0000      -0.259520        -7.0619
 120   1.0000      -0.259174        -7.0525
 121   1.0000      -0.236948        -6.4477
 122   1.0000      -0.236189        -6.4270
 123   1.0000      -0.235370        -6.4047
 124   1.0000      -0.233988        -6.3671
 125   1.0000      -0.223312        -6.0766
 126   1.0000      -0.221363        -6.0236
 127   1.0000      -0.216576        -5.8933
 128   1.0000      -0.215463        -5.8630
 129   1.0000      -0.197442        -5.3727
 130   1.0000      -0.190225        -5.1763
 131   1.0000      -0.188755        -5.1363
 132   1.0000      -0.187600        -5.1049
 133   1.0000      -0.182155        -4.9567
 134   1.0000      -0.165490        -4.5032
 135   1.0000      -0.154571        -4.2061
 136   1.0000      -0.149604        -4.0709
 137   1.0000      -0.137857        -3.7513
 138   1.0000      -0.137375        -3.7382
 139   1.0000      -0.136959        -3.7269
 140   1.0000      -0.126476        -3.4416
 141   1.0000      -0.104821        -2.8523
 142   1.0000      -0.103685        -2.8214
 143   1.0000      -0.100588        -2.7371
 144   1.0000      -0.099918        -2.7189
 145   1.0000      -0.091599        -2.4925
 146   1.0000      -0.080063        -2.1786
 147   1.0000      -0.069954        -1.9035
 148   1.0000      -0.069605        -1.8941
 149   1.0000      -0.057496        -1.5646
 150   1.0000      -0.055174        -1.5014
 151   1.0000      -0.050131        -1.3641
 152   1.0000      -0.044232        -1.2036
 153   1.0000      -0.041652        -1.1334
 154   1.0000      -0.040609        -1.1050
 155   1.0000      -0.037153        -1.0110
 156   1.0000      -0.025782        -0.7016
 157   1.0000      -0.025494        -0.6937
 158   1.0000       0.014871         0.4047
 159   1.0000       0.028271         0.7693
 160   0.0000       0.134573         3.6619
 161   0.0000       0.134657         3.6642
 162   0.0000       0.157568         4.2876
 163   0.0000       0.159959         4.3527
 164   0.0000       0.164739         4.4828

MULLIKEN ATOMIC CHARGES AND SPIN POPULATIONS
--------------------------------------------
   0 V :    0.455075    2.346717
   1 S :   -0.279161   -0.062561
   2 S :   -0.286153   -0.066181
   3 S :   -0.280233   -0.060780
   4 S :   -0.277377   -0.071639
   5 O :   -0.540045   -1.148912
   6 C :   -0.071808    0.015638
   7 C :   -0.077794    0.017586
   8 C :   -0.080966    0.015356
   9 C :   -0.082118    0.013387
  10 S :    0.105603    0.000288
  11 S :    0.104683    0.000267
  12 S :    0.104751    0.000799
  13 S :    0.103521    0.000898
  14 C :   -0.213607    0.002048
  15 C :   -0.212103    0.000802
  16 C :   -0.190329   -0.001697
  17 C :   -0.189283   -0.001387
  18 S :    0.009329   -0.000050
  19 S :    0.009536   -0.000053
  20 S :    0.010212   -0.000003
  21 S :    0.010071    0.000013
  22 C :   -0.303621   -0.000253
  23 C :   -0.303508   -0.000247
  24 C :   -0.157299    0.000217
  25 H :    0.143627    0.000038
  26 H :    0.116827   -0.000046
  27 H :    0.084913   -0.000035
  28 H :    0.092483   -0.000033
  29 H :    0.116451   -0.000047
  30 H :    0.143383    0.000037
  31 C :   -0.303402   -0.000138
  32 C :   -0.303899   -0.000132
  33 C :   -0.157173    0.000176
  34 H :    0.144975    0.000018
  35 H :    0.116357   -0.000027
  36 H :    0.092108   -0.000024
  37 H :    0.084850   -0.000023
  38 H :    0.116143   -0.000036
  39 H :    0.144983    0.000019
Sum of atomic charges         :   -2.0000000

LOEWDIN ATOMIC CHARGES AND SPIN POPULATIONS
-------------------------------------------
   0 V :   -0.116472    2.267055
   1 S :    0.107220   -0.046581
   2 S :    0.098460   -0.046452
   3 S :    0.105270   -0.044645
   4 S :    0.110469   -0.051176
   5 O :   -0.503761   -1.128507
   6 C :   -0.544611    0.011288
   7 C :   -0.548251    0.013597
   8 C :   -0.549728    0.014541
   9 C :   -0.549101    0.012279
  10 S :    0.476052    0.000298
  11 S :    0.475164    0.000441
  12 S :    0.474674    0.000181
  13 S :    0.473569    0.000256
  14 C :   -0.464439    0.000112
  15 C :   -0.464772   -0.000462
  16 C :   -0.620889   -0.000707
  17 C :   -0.620173   -0.000880
  18 S :    0.359256   -0.000052
  19 S :    0.360438   -0.000053
  20 S :    0.360229   -0.000071
  21 S :    0.359781   -0.000059
  22 C :   -0.283068   -0.000088
  23 C :   -0.283182   -0.000092
  24 C :   -0.176631   -0.000014
  25 H :    0.062397    0.000005
  26 H :    0.054875   -0.000022
  27 H :    0.058674   -0.000011
  28 H :    0.060457   -0.000011
  29 H :    0.054825   -0.000021
  30 H :    0.062241    0.000005
  31 C :   -0.283303   -0.000062
  32 C :   -0.283014   -0.000045
  33 C :   -0.176717   -0.000001
  34 H :    0.062748    0.000000
  35 H :    0.054728   -0.000010
  36 H :    0.060411   -0.000011
  37 H :    0.058770   -0.000011
  38 H :    0.054771   -0.000014
  39 H :    0.062632    0.000000

  Mayer bond orders larger than 0.100000
B(  0-V ,  1-S ) :   0.8356 B(  0-V ,  2-S ) :   0.8232 B(  0-V ,  3-S ) :   0.8214
B(  0-V ,  4-S ) :   0.8436 B(  0-V ,  5-O ) :   0.8530 B(  1-S ,  8-C ) :   1.1118
B(  2-S ,  6-C ) :   1.1110 B(  3-S ,  9-C ) :   1.1170 B(  4-S ,  7-C ) :   1.1087
B(  6-C ,  7-C ) :   1.6705 B(  6-C , 10-S ) :   0.9420 B(  7-C , 11-S ) :   0.9417
B(  8-C ,  9-C ) :   1.6743 B(  8-C , 13-S ) :   0.9373 B(  9-C , 12-S ) :   0.9399
B( 10-S , 14-C ) :   1.2443 B( 11-S , 14-C ) :   1.2459 B( 12-S , 15-C ) :   1.2434
B( 13-S , 15-C ) :   1.2435 B( 14-C , 16-C ) :   1.4544 B( 15-C , 17-C ) :   1.4568
B( 16-C , 18-S ) :   1.0905 B( 16-C , 19-S ) :   1.0915 B( 17-C , 20-S ) :   1.0907
B( 17-C , 21-S ) :   1.0909 B( 18-S , 32-C ) :   0.9879 B( 19-S , 31-C ) :   0.9886
B( 20-S , 23-C ) :   0.9885 B( 21-S , 22-C ) :   0.9878 B( 22-C , 24-C ) :   0.9118
B( 22-C , 25-H ) :   0.9685 B( 22-C , 26-H ) :   0.9646 B( 23-C , 24-C ) :   0.9124
B( 23-C , 29-H ) :   0.9647 B( 23-C , 30-H ) :   0.9683 B( 24-C , 27-H ) :   0.9608
B( 24-C , 28-H ) :   0.9731 B( 31-C , 33-C ) :   0.9125 B( 31-C , 38-H ) :   0.9647
B( 31-C , 39-H ) :   0.9682 B( 32-C , 33-C ) :   0.9121 B( 32-C , 34-H ) :   0.9682
B( 32-C , 35-H ) :   0.9647 B( 33-C , 36-H ) :   0.9731 B( 33-C , 37-H ) :   0.9606

FINAL SINGLE POINT ENERGY     -6337.577149968046

DIPOLE MOMENT
-------------
                                X             Y             Z
Electronic contribution:     10.56231      -3.01302       4.24207
Nuclear contribution   :    -12.60355       3.65958      -5.62584
                        -----------------------------------------
Total Dipole Moment    :     -2.04125       0.64656      -1.38377
                        -----------------------------------------
Magnitude (a.u.)       :      2.54942
Magnitude (Debye)      :      6.48011

Rotational constants in cm-1:     0.010504     0.000803     0.000783
Rotational constants in MHz :   314.908418    24.070759    23.482645

                             ****ORCA TERMINATED NORMALLY****
TOTAL RUN TIME: 0 days 1 hours 14 minutes 51 seconds 879 msec
