                         Program Version 5.0.4 -  RELEASE  -
|  1> ! nofrozencore ReducedPop printbasis
|  2> ! B3LYP TZVP
|  3>
|  4> %basis
|  5> newgto V "CP(PPP)" end
|  6> end
|  7>
|  8> %pal
|  9> nprocs 6
| 10> end
| 11>
| 12> % sym SymThresh 1e-2 end
| 13> * xyz -2 2
| 14> V -0.6702338778057036 0.2842871476439193 -0.8419849362257102
| 15> S -0.8368478830905858 -2.1826282376540314 -0.9138022393231827
| 16> S -2.054158661357056 0.1341988010633967 1.205235136496582
| 17> S 1.5552607455713225 -0.011768963172775905 -1.8861330333891542
| 18> S 0.3999705083835721 2.2179369302278746 0.25470683623283097
| 19> O -1.6403655461134825 0.854058827135264 -1.9638936480222529
| 20> C -1.811825349106241 1.7571905670851253 1.8316698087507757
| 21> C -0.8272516616526655 2.589511498455168 1.4531896949384728
| 22> C 0.571025256319214 -2.5910209895323995 -1.884252083778633
| 23> C 1.5261111790255169 -1.7251622997636167 -2.2690694936071605
| 24> S -2.899660328945847 2.3451461592112657 3.1305560591649386
| 25> S -0.7279479169222576 4.1608038968557 2.30774371613855
| 26> S 2.8940441805213397 -2.407420820420104 -3.211241320063063
| 27> S 0.8005605151603794 -4.303525840361733 -2.3753424127973615
| 28> C -2.12500005782912 3.9306323065670874 3.391939170444443
| 29> C 2.3655219784708956 -4.095538505409184 -3.1754629534869157
| 30> C -2.499643629268484 4.8219311668068165 4.358177373425217
| 31> C 3.0790196394276017 -5.124171785028333 -3.725098802257958
| 32> S -3.9934886412035073 4.623236803872699 5.319364937483374
| 33> S -1.7398904369847168 6.429288280878839 4.517535617478312
| 34> S 2.5123051329304875 -6.812045091004245 -3.6515762644503384
| 35> S 4.667500858762767 -4.866325762296304 -4.491788530387102
| 36> C 5.683220411087557 -5.8601415736374936 -3.3538768551598976
| 37> C 3.8597502664794954 -7.511042488007712 -2.646976883310537
| 38> C 5.252548032967368 -7.31745737299434 -3.2352504468722953
| 39> H 5.670697796826319 -5.379440089175965 -2.3725569245111067
| 40> H 6.701769613144516 -5.7994133772440035 -3.7459210768249123
| 41> H 5.965811168093546 -7.81877583624816 -2.564905951493386
| 42> H 5.319003717497437 -7.8082402181579385 -4.212066757335918
| 43> H 3.6330801100982697 -8.576853647489443 -2.560927596071658
| 44> H 3.806675470263711 -7.073443468719527 -1.6470673125709265
| 45> C -2.985557840870969 7.3806003441196895 4.158424858054813
| 46> C -4.825427973895841 5.882724477784977 4.8178193059447505
| 47> C -4.25525982427627 7.2479493505461745 4.910775501416405
| 48> H -5.129252596528485 5.753917915423502 3.769520025143819
| 49> H -5.748800721374663 5.853406027392113 5.404800558086563
| 50> H -4.228567333688839 7.683872146741984 5.96889923260859
| 51> H -4.993874116629216 7.871000226110829 4.274786946677349
| 52> H -2.6055182053121606 8.39866323418203 4.287763981166284
| 53> H -3.2472721473314667 7.284643208778405 3.095941733616596
| 54> *
| 55>
| 56> % eprnmr
| 57> gtensor true
| 58> Nuclei = all H {aiso,adip,aorb,fgrad,rho}
| 59> Nuclei = all V {aiso,adip,aorb,fgrad,rho}
| 60> end
| 61>
| 62>                          ****END OF INPUT****

CARTESIAN COORDINATES (ANGSTROEM)
---------------------------------
  V     -0.669345    0.284946   -0.838314
  S     -0.835959   -2.181969   -0.910132
  S     -2.053270    0.134858    1.208906
  S      1.556150   -0.011110   -1.882462
  S      0.400860    2.218596    0.258378
  O     -1.639477    0.854718   -1.960223
  C     -1.810936    1.757849    1.835341
  C     -0.826363    2.590170    1.456860
  C      0.571914   -2.590362   -1.880581
  C      1.527000   -1.724504   -2.265399
  S     -2.898771    2.345805    3.134227
  S     -0.727059    4.161463    2.311414
  S      2.894933   -2.406762   -3.207571
  S      0.801450   -4.302867   -2.371672
  C     -2.124111    3.931291    3.395610
  C      2.366411   -4.094880   -3.171792
  C     -2.498755    4.822590    4.361848
  C      3.079909   -5.123513   -3.721428
  S     -3.992600    4.623896    5.323036
  S     -1.739001    6.429947    4.521206
  S      2.513194   -6.811386   -3.647906
  S      4.668390   -4.865667   -4.488118
  C      5.684109   -5.859483   -3.350206
  C      3.860639   -7.510384   -2.643306
  C      5.253437   -7.316799   -3.231580
  H      5.671587   -5.378781   -2.368886
  H      6.702659   -5.798755   -3.742250
  H      5.966700   -7.818117   -2.561235
  H      5.319893   -7.807581   -4.208396
  H      3.633969   -8.576195   -2.557257
  H      3.807564   -7.072785   -1.643397
  C     -2.984669    7.381259    4.162096
  C     -4.824539    5.883383    4.821490
  C     -4.254371    7.248608    4.914446
  H     -5.128364    5.754577    3.773191
  H     -5.747912    5.854065    5.408471
  H     -4.227678    7.684531    5.972570
  H     -4.992985    7.871659    4.278458
  H     -2.604629    8.399322    4.291435
  H     -3.246383    7.285302    3.099612

 Total Charge           Charge          ....   -2
 Multiplicity           Mult            ....    2
 Number of Electrons    NEL             ....  321
 Basis Dimension        Dim             ....  681

ORBITAL ENERGIES
----------------
                 SPIN UP ORBITALS
  NO   OCC          E(Eh)            E(eV)
   0   1.0000    -196.674520     -5351.7858
   1   1.0000     -88.732172     -2414.5252
   2   1.0000     -88.732077     -2414.5226
   3   1.0000     -88.729714     -2414.4583
   4   1.0000     -88.729669     -2414.4570
   5   1.0000     -88.729659     -2414.4568
   6   1.0000     -88.729500     -2414.4524
   7   1.0000     -88.724042     -2414.3039
   8   1.0000     -88.723161     -2414.2800
   9   1.0000     -88.639495     -2412.0033
  10   1.0000     -88.639262     -2411.9969
  11   1.0000     -88.639063     -2411.9915
  12   1.0000     -88.638988     -2411.9895
  13   1.0000     -22.049908      -600.0085
  14   1.0000     -18.889799      -514.0176
  15   1.0000     -18.556355      -504.9441
  16   1.0000     -18.551183      -504.8033
  17   1.0000     -18.551084      -504.8007
  18   1.0000     -10.077676      -274.2275
  19   1.0000     -10.075835      -274.1774
  20   1.0000     -10.061448      -273.7859
  21   1.0000     -10.061407      -273.7848
  22   1.0000     -10.052405      -273.5399
  23   1.0000     -10.049982      -273.4739
  24   1.0000     -10.049497      -273.4607
  25   1.0000     -10.048664      -273.4380
  26   1.0000     -10.048011      -273.4203
  27   1.0000     -10.046010      -273.3658
  28   1.0000     -10.017499      -272.5900
  29   1.0000     -10.017420      -272.5879
  30   1.0000     -10.016703      -272.5683
  31   1.0000     -10.016455      -272.5616
  32   1.0000      -7.786183      -211.8728
  33   1.0000      -7.786089      -211.8703
  34   1.0000      -7.783756      -211.8068
  35   1.0000      -7.783481      -211.7993
  36   1.0000      -7.782963      -211.7852
  37   1.0000      -7.782934      -211.7844
  38   1.0000      -7.782699      -211.7780
  39   1.0000      -7.782573      -211.7746
  40   1.0000      -7.693767      -209.3580
  41   1.0000      -7.693645      -209.3547
  42   1.0000      -7.693372      -209.3473
  43   1.0000      -7.693340      -209.3464
  44   1.0000      -5.751146      -156.4966
  45   1.0000      -5.751058      -156.4942
  46   1.0000      -5.748491      -156.4244
  47   1.0000      -5.748188      -156.4161
  48   1.0000      -5.747930      -156.4091
  49   1.0000      -5.747897      -156.4082
  50   1.0000      -5.747722      -156.4035
  51   1.0000      -5.747654      -156.4016
  52   1.0000      -5.747603      -156.4002
  53   1.0000      -5.747563      -156.3991
  54   1.0000      -5.744326      -156.3111
  55   1.0000      -5.743983      -156.3017
  56   1.0000      -5.743481      -156.2881
  57   1.0000      -5.743457      -156.2874
  58   1.0000      -5.743236      -156.2814
  59   1.0000      -5.743098      -156.2776
  60   1.0000      -5.740991      -156.2203
  61   1.0000      -5.740894      -156.2177
  62   1.0000      -5.738763      -156.1597
  63   1.0000      -5.738734      -156.1589
  64   1.0000      -5.738478      -156.1519
  65   1.0000      -5.738461      -156.1515
  66   1.0000      -5.738347      -156.1484
  67   1.0000      -5.738145      -156.1429
  68   1.0000      -5.659087      -153.9916
  69   1.0000      -5.658932      -153.9874
  70   1.0000      -5.658703      -153.9811
  71   1.0000      -5.658634      -153.9793
  72   1.0000      -5.652434      -153.8105
  73   1.0000      -5.652292      -153.8067
  74   1.0000      -5.652046      -153.8000
  75   1.0000      -5.652019      -153.7993
  76   1.0000      -5.651089      -153.7740
  77   1.0000      -5.650959      -153.7704
  78   1.0000      -5.650649      -153.7620
  79   1.0000      -5.650646      -153.7619
  80   1.0000      -2.443561       -66.4927
  81   1.0000      -1.484856       -40.4050
  82   1.0000      -1.473197       -40.0877
  83   1.0000      -1.472393       -40.0658
  84   1.0000      -0.747163       -20.3313
  85   1.0000      -0.711686       -19.3660
  86   1.0000      -0.691951       -18.8289
  87   1.0000      -0.687306       -18.7025
  88   1.0000      -0.676097       -18.3975
  89   1.0000      -0.649398       -17.6710
  90   1.0000      -0.631857       -17.1937
  91   1.0000      -0.631278       -17.1779
  92   1.0000      -0.622902       -16.9500
  93   1.0000      -0.579008       -15.7556
  94   1.0000      -0.574115       -15.6225
  95   1.0000      -0.573329       -15.6011
  96   1.0000      -0.573298       -15.6002
  97   1.0000      -0.511671       -13.9233
  98   1.0000      -0.497658       -13.5420
  99   1.0000      -0.494828       -13.4650
 100   1.0000      -0.489260       -13.3134
 101   1.0000      -0.478399       -13.0179
 102   1.0000      -0.475173       -12.9301
 103   1.0000      -0.445889       -12.1333
 104   1.0000      -0.441567       -12.0156
 105   1.0000      -0.415077       -11.2948
 106   1.0000      -0.410232       -11.1630
 107   1.0000      -0.379520       -10.3273
 108   1.0000      -0.358005        -9.7418
 109   1.0000      -0.336130        -9.1466
 110   1.0000      -0.327299        -8.9062
 111   1.0000      -0.325350        -8.8532
 112   1.0000      -0.316699        -8.6178
 113   1.0000      -0.303657        -8.2629
 114   1.0000      -0.303056        -8.2466
 115   1.0000      -0.299582        -8.1520
 116   1.0000      -0.292871        -7.9694
 117   1.0000      -0.280102        -7.6220
 118   1.0000      -0.259562        -7.0630
 119   1.0000      -0.257858        -7.0167
 120   1.0000      -0.256141        -6.9700
 121   1.0000      -0.247000        -6.7212
 122   1.0000      -0.241759        -6.5786
 123   1.0000      -0.235359        -6.4044
 124   1.0000      -0.231841        -6.3087
 125   1.0000      -0.220005        -5.9866
 126   1.0000      -0.217471        -5.9177
 127   1.0000      -0.211408        -5.7527
 128   1.0000      -0.208293        -5.6679
 129   1.0000      -0.192338        -5.2338
 130   1.0000      -0.187538        -5.1032
 131   1.0000      -0.185625        -5.0511
 132   1.0000      -0.184684        -5.0255
 133   1.0000      -0.178283        -4.8513
 134   1.0000      -0.159154        -4.3308
 135   1.0000      -0.148778        -4.0484
 136   1.0000      -0.139600        -3.7987
 137   1.0000      -0.139426        -3.7940
 138   1.0000      -0.134748        -3.6667
 139   1.0000      -0.130981        -3.5642
 140   1.0000      -0.125223        -3.4075
 141   1.0000      -0.120132        -3.2690
 142   1.0000      -0.113072        -3.0768
 143   1.0000      -0.109254        -2.9729
 144   1.0000      -0.099101        -2.6967
 145   1.0000      -0.097522        -2.6537
 146   1.0000      -0.096016        -2.6127
 147   1.0000      -0.090206        -2.4546
 148   1.0000      -0.074144        -2.0176
 149   1.0000      -0.067063        -1.8249
 150   1.0000      -0.064000        -1.7415
 151   1.0000      -0.051913        -1.4126
 152   1.0000      -0.045259        -1.2316
 153   1.0000      -0.037429        -1.0185
 154   1.0000      -0.036704        -0.9988
 155   1.0000      -0.031263        -0.8507
 156   1.0000      -0.024439        -0.6650
 157   1.0000      -0.018754        -0.5103
 158   1.0000      -0.014877        -0.4048
 159   1.0000       0.020900         0.5687
 160   1.0000       0.041725         1.1354
 161   0.0000       0.138806         3.7771
 162   0.0000       0.139956         3.8084
 163   0.0000       0.157809         4.2942
 164   0.0000       0.162331         4.4173
 165   0.0000       0.171716         4.6726

                 SPIN DOWN ORBITALS
  NO   OCC          E(Eh)            E(eV)
   0   1.0000    -196.674667     -5351.7898
   1   1.0000     -88.732172     -2414.5252
   2   1.0000     -88.732077     -2414.5226
   3   1.0000     -88.729723     -2414.4585
   4   1.0000     -88.729677     -2414.4573
   5   1.0000     -88.729667     -2414.4570
   6   1.0000     -88.729508     -2414.4527
   7   1.0000     -88.724042     -2414.3039
   8   1.0000     -88.723162     -2414.2800
   9   1.0000     -88.639632     -2412.0070
  10   1.0000     -88.639402     -2412.0007
  11   1.0000     -88.639204     -2411.9954
  12   1.0000     -88.639127     -2411.9933
  13   1.0000     -22.034975      -599.6022
  14   1.0000     -18.893582      -514.1205
  15   1.0000     -18.551087      -504.8007
  16   1.0000     -18.535148      -504.3670
  17   1.0000     -18.534965      -504.3620
  18   1.0000     -10.077671      -274.2274
  19   1.0000     -10.075835      -274.1774
  20   1.0000     -10.061448      -273.7859
  21   1.0000     -10.061407      -273.7848
  22   1.0000     -10.052405      -273.5398
  23   1.0000     -10.049982      -273.4739
  24   1.0000     -10.049497      -273.4607
  25   1.0000     -10.048663      -273.4380
  26   1.0000     -10.048007      -273.4202
  27   1.0000     -10.045999      -273.3655
  28   1.0000     -10.017285      -272.5842
  29   1.0000     -10.017183      -272.5814
  30   1.0000     -10.016491      -272.5626
  31   1.0000     -10.016233      -272.5556
  32   1.0000      -7.786183      -211.8728
  33   1.0000      -7.786090      -211.8703
  34   1.0000      -7.783756      -211.8068
  35   1.0000      -7.783481      -211.7993
  36   1.0000      -7.782973      -211.7855
  37   1.0000      -7.782944      -211.7847
  38   1.0000      -7.782708      -211.7783
  39   1.0000      -7.782582      -211.7748
  40   1.0000      -7.693894      -209.3615
  41   1.0000      -7.693775      -209.3583
  42   1.0000      -7.693504      -209.3509
  43   1.0000      -7.693470      -209.3500
  44   1.0000      -5.751147      -156.4967
  45   1.0000      -5.751059      -156.4943
  46   1.0000      -5.748492      -156.4244
  47   1.0000      -5.748189      -156.4162
  48   1.0000      -5.747941      -156.4094
  49   1.0000      -5.747908      -156.4085
  50   1.0000      -5.747732      -156.4037
  51   1.0000      -5.747655      -156.4016
  52   1.0000      -5.747613      -156.4005
  53   1.0000      -5.747563      -156.3991
  54   1.0000      -5.744327      -156.3111
  55   1.0000      -5.743984      -156.3017
  56   1.0000      -5.743495      -156.2885
  57   1.0000      -5.743471      -156.2878
  58   1.0000      -5.743250      -156.2818
  59   1.0000      -5.743111      -156.2780
  60   1.0000      -5.740992      -156.2203
  61   1.0000      -5.740895      -156.2177
  62   1.0000      -5.738769      -156.1598
  63   1.0000      -5.738740      -156.1591
  64   1.0000      -5.738485      -156.1521
  65   1.0000      -5.738462      -156.1515
  66   1.0000      -5.738356      -156.1486
  67   1.0000      -5.738146      -156.1429
  68   1.0000      -5.659229      -153.9955
  69   1.0000      -5.659071      -153.9911
  70   1.0000      -5.658844      -153.9850
  71   1.0000      -5.658775      -153.9831
  72   1.0000      -5.652785      -153.8201
  73   1.0000      -5.652678      -153.8172
  74   1.0000      -5.652428      -153.8104
  75   1.0000      -5.652379      -153.8091
  76   1.0000      -5.651195      -153.7768
  77   1.0000      -5.651045      -153.7727
  78   1.0000      -5.650752      -153.7648
  79   1.0000      -5.650742      -153.7645
  80   1.0000      -2.398675       -65.2713
  81   1.0000      -1.465560       -39.8799
  82   1.0000      -1.410816       -38.3903
  83   1.0000      -1.410666       -38.3862
  84   1.0000      -0.747161       -20.3313
  85   1.0000      -0.711676       -19.3657
  86   1.0000      -0.691873       -18.8268
  87   1.0000      -0.687259       -18.7013
  88   1.0000      -0.676097       -18.3975
  89   1.0000      -0.657513       -17.8918
  90   1.0000      -0.631788       -17.1918
  91   1.0000      -0.631219       -17.1763
  92   1.0000      -0.622904       -16.9501
  93   1.0000      -0.578930       -15.7535
  94   1.0000      -0.574092       -15.6218
  95   1.0000      -0.573267       -15.5994
  96   1.0000      -0.573264       -15.5993
  97   1.0000      -0.511676       -13.9234
  98   1.0000      -0.497683       -13.5426
  99   1.0000      -0.494879       -13.4663
 100   1.0000      -0.489359       -13.3161
 101   1.0000      -0.478585       -13.0230
 102   1.0000      -0.475372       -12.9355
 103   1.0000      -0.445916       -12.1340
 104   1.0000      -0.441626       -12.0173
 105   1.0000      -0.415080       -11.2949
 106   1.0000      -0.410324       -11.1655
 107   1.0000      -0.379516       -10.3272
 108   1.0000      -0.358001        -9.7417
 109   1.0000      -0.336115        -9.1461
 110   1.0000      -0.327289        -8.9060
 111   1.0000      -0.325331        -8.8527
 112   1.0000      -0.316690        -8.6176
 113   1.0000      -0.303615        -8.2618
 114   1.0000      -0.303050        -8.2464
 115   1.0000      -0.299534        -8.1507
 116   1.0000      -0.292865        -7.9693
 117   1.0000      -0.280029        -7.6200
 118   1.0000      -0.259506        -7.0615
 119   1.0000      -0.257744        -7.0136
 120   1.0000      -0.256105        -6.9690
 121   1.0000      -0.246980        -6.7207
 122   1.0000      -0.241703        -6.5771
 123   1.0000      -0.235329        -6.4036
 124   1.0000      -0.231806        -6.3078
 125   1.0000      -0.219599        -5.9756
 126   1.0000      -0.217237        -5.9113
 127   1.0000      -0.211257        -5.7486
 128   1.0000      -0.208216        -5.6659
 129   1.0000      -0.190563        -5.1855
 130   1.0000      -0.187468        -5.1013
 131   1.0000      -0.185395        -5.0449
 132   1.0000      -0.184412        -5.0181
 133   1.0000      -0.178140        -4.8474
 134   1.0000      -0.158546        -4.3143
 135   1.0000      -0.148625        -4.0443
 136   1.0000      -0.139481        -3.7955
 137   1.0000      -0.138988        -3.7820
 138   1.0000      -0.134336        -3.6555
 139   1.0000      -0.130813        -3.5596
 140   1.0000      -0.124456        -3.3866
 141   1.0000      -0.119811        -3.2602
 142   1.0000      -0.114864        -3.1256
 143   1.0000      -0.110939        -3.0188
 144   1.0000      -0.099081        -2.6961
 145   1.0000      -0.097861        -2.6629
 146   1.0000      -0.096044        -2.6135
 147   1.0000      -0.090382        -2.4594
 148   1.0000      -0.070317        -1.9134
 149   1.0000      -0.067052        -1.8246
 150   1.0000      -0.064000        -1.7415
 151   1.0000      -0.049328        -1.3423
 152   1.0000      -0.044325        -1.2061
 153   1.0000      -0.037478        -1.0198
 154   1.0000      -0.036133        -0.9832
 155   1.0000      -0.031309        -0.8519
 156   1.0000      -0.025470        -0.6931
 157   1.0000      -0.015087        -0.4105
 158   1.0000       0.021193         0.5767
 159   1.0000       0.040616         1.1052
 160   0.0000       0.138794         3.7768
 161   0.0000       0.139938         3.8079
 162   0.0000       0.155583         4.2336
 163   0.0000       0.158994         4.3265
 164   0.0000       0.163258         4.4425

MULLIKEN ATOMIC CHARGES AND SPIN POPULATIONS
--------------------------------------------
   0 V :    0.471039    1.210669
   1 S :   -0.291211   -0.022483
   2 S :   -0.289798   -0.024979
   3 S :   -0.289179   -0.023401
   4 S :   -0.285716   -0.025512
   5 O :   -0.467799   -0.146685
   6 C :   -0.075351    0.009553
   7 C :   -0.082069    0.007946
   8 C :   -0.083351    0.007774
   9 C :   -0.084397    0.007356
  10 S :    0.092298   -0.000516
  11 S :    0.093467   -0.000574
  12 S :    0.098611   -0.000392
  13 S :    0.097770   -0.000347
  14 C :   -0.257336    0.001044
  15 C :   -0.215114    0.001000
  16 C :   -0.163180    0.000130
  17 C :   -0.191006   -0.000413
  18 S :    0.043711   -0.000105
  19 S :    0.040223   -0.000102
  20 S :    0.012470   -0.000068
  21 S :    0.012438   -0.000070
  22 C :   -0.301799    0.000001
  23 C :   -0.301350    0.000000
  24 C :   -0.151022   -0.000012
  25 H :    0.141917   -0.000002
  26 H :    0.113495   -0.000004
  27 H :    0.081800   -0.000000
  28 H :    0.089244   -0.000001
  29 H :    0.113184   -0.000005
  30 H :    0.141545   -0.000001
  31 C :   -0.315729    0.000215
  32 C :   -0.315906    0.000209
  33 C :   -0.086072   -0.000299
  34 H :    0.124011   -0.000023
  35 H :    0.109906    0.000043
  36 H :    0.070484    0.000006
  37 H :    0.062769    0.000032
  38 H :    0.110827    0.000042
  39 H :    0.126178   -0.000024
Sum of atomic charges         :   -2.0000000

LOEWDIN ATOMIC CHARGES AND SPIN POPULATIONS
-------------------------------------------
   0 V :   -0.155160    1.164018
   1 S :    0.079997   -0.014475
   2 S :    0.079891   -0.015958
   3 S :    0.081349   -0.015266
   4 S :    0.083742   -0.016218
   5 O :   -0.319107   -0.131593
   6 C :   -0.552433    0.008990
   7 C :   -0.554592    0.007895
   8 C :   -0.552747    0.008121
   9 C :   -0.552739    0.007660
  10 S :    0.462982   -0.000869
  11 S :    0.463938   -0.000926
  12 S :    0.469972   -0.000823
  13 S :    0.469211   -0.000829
  14 C :   -0.452205    0.000087
  15 C :   -0.463480   -0.000084
  16 C :   -0.597736    0.000458
  17 C :   -0.619419    0.000083
  18 S :    0.448860   -0.000083
  19 S :    0.443735   -0.000080
  20 S :    0.368455   -0.000072
  21 S :    0.367976   -0.000075
  22 C :   -0.292914   -0.000007
  23 C :   -0.293095   -0.000008
  24 C :   -0.175954   -0.000002
  25 H :    0.061976   -0.000002
  26 H :    0.053899   -0.000002
  27 H :    0.058247   -0.000001
  28 H :    0.059535   -0.000001
  29 H :    0.053852   -0.000003
  30 H :    0.061798   -0.000002
  31 C :   -0.372167    0.000016
  32 C :   -0.379077    0.000013
  33 C :   -0.183777    0.000012
  34 H :    0.052406   -0.000003
  35 H :    0.058955    0.000013
  36 H :    0.060129    0.000004
  37 H :    0.063687    0.000003
  38 H :    0.058604    0.000012
  39 H :    0.053405   -0.000003

  Mayer bond orders larger than 0.100000
B(  0-V ,  1-S ) :   0.7720 B(  0-V ,  2-S ) :   0.7709 B(  0-V ,  3-S ) :   0.7655
B(  0-V ,  4-S ) :   0.7781 B(  0-V ,  5-O ) :   2.1486 B(  1-S ,  8-C ) :   1.1032
B(  2-S ,  6-C ) :   1.1046 B(  3-S ,  9-C ) :   1.1061 B(  4-S ,  7-C ) :   1.1050
B(  6-C ,  7-C ) :   1.6877 B(  6-C , 10-S ) :   0.9353 B(  7-C , 11-S ) :   0.9386
B(  8-C ,  9-C ) :   1.6990 B(  8-C , 13-S ) :   0.9333 B(  9-C , 12-S ) :   0.9353
B( 10-S , 14-C ) :   1.2310 B( 11-S , 14-C ) :   1.2315 B( 12-S , 15-C ) :   1.2447
B( 13-S , 15-C ) :   1.2447 B( 14-C , 16-C ) :   1.5258 B( 15-C , 17-C ) :   1.4631
B( 16-C , 18-S ) :   1.0356 B( 16-C , 19-S ) :   1.0438 B( 17-C , 20-S ) :   1.0849
B( 17-C , 21-S ) :   1.0857 B( 18-S , 32-C ) :   1.1124 B( 19-S , 31-C ) :   1.0974
B( 20-S , 23-C ) :   1.0008 B( 21-S , 22-C ) :   0.9998 B( 22-C , 24-C ) :   0.9143
B( 22-C , 25-H ) :   0.9647 B( 22-C , 26-H ) :   0.9641 B( 23-C , 24-C ) :   0.9146
B( 23-C , 29-H ) :   0.9642 B( 23-C , 30-H ) :   0.9646 B( 24-C , 27-H ) :   0.9662
B( 24-C , 28-H ) :   0.9690 B( 31-C , 33-C ) :   0.9138 B( 31-C , 38-H ) :   0.9413
B( 31-C , 39-H ) :   0.9544 B( 32-C , 33-C ) :   0.9091 B( 32-C , 34-H ) :   0.9532
B( 32-C , 35-H ) :   0.9389 B( 33-C , 36-H ) :   0.9326 B( 33-C , 37-H ) :   0.9906

FINAL SINGLE POINT ENERGY     -6337.634990239865

DIPOLE MOMENT
-------------
                                X             Y             Z
Electronic contribution:     -7.06999       0.80832     -11.64644
Nuclear contribution   :      7.88922      -0.91288      12.97979
                        -----------------------------------------
Total Dipole Moment    :      0.81924      -0.10456       1.33335
                        -----------------------------------------
Magnitude (a.u.)       :      1.56841
Magnitude (Debye)      :      3.98658

Rotational constants in cm-1:     0.010914     0.000805     0.000784
Rotational constants in MHz :   327.182442    24.143111    23.505398

                             ****ORCA TERMINATED NORMALLY****
TOTAL RUN TIME: 0 days 1 hours 6 minutes 23 seconds 158 msec
