                         Program Version 5.0.4 -  RELEASE  -
|  1> ! nofrozencore ReducedPop printbasis
|  2> ! B3LYP TZVP
|  3>
|  4> %basis
|  5> newgto V "CP(PPP)" end
|  6> end
|  7>
|  8> %pal
|  9> nprocs 6
| 10> end
| 11>
| 12> % sym SymThresh 1e-2 end
| 13> * xyz -2 2
| 14> V -0.007932995367880403 -1.106429394075586 0.24512239685313233
| 15> S -2.342986846627778 -0.6046954175795438 -0.391716516241686
| 16> S 0.508604990942903 -0.9517969038813171 -2.219017648420334
| 17> S -0.7125637129319752 0.11226761359215341 2.2773127175870953
| 18> S 2.233862124145679 -0.07553015481859988 0.7220145980417816
| 19> O 0.07993048119182955 -2.653390383886825 0.6044420763351694
| 20> C 2.22210886731076 -0.45916854629423987 -2.06900777254749
| 21> C 2.880167712104798 -0.12107739701788686 -0.943431705571414
| 22> C -3.172513279683502 -0.3038706860358353 1.1567646349495395
| 23> C -2.4879248739866564 -0.000962109423659825 2.2718769543161748
| 24> S 3.2737692432590624 -0.9683022698054274 -3.4736122694806686
| 25> S 4.700402455164291 -0.21719844161201934 -1.0241902204121172
| 26> S -3.3791334251470952 0.9571452967854541 3.542417242659191
| 27> S -4.8993933071730265 0.28219430342048835 1.08015936468476
| 28> C 4.835250528214902 -0.583562484218357 -2.744455474764968
| 29> C -4.93109211609168 0.947137307694835 2.7112599010192757
| 30> C 6.008700676830148 -0.5118042328306448 -3.445558944900893
| 31> C -6.081837280243583 1.3577479587658443 3.308876776104018
| 32> S 6.107663144768183 -0.901425328427446 -5.179660601275329
| 33> S 7.55098838179725 -0.06850471143542765 -2.674805725010714
| 34> S -7.604555537395511 1.3308913051866589 2.3961931356607784
| 35> S -6.029643561137824 2.0473058821927324 4.945113716412819
| 36> C -6.565378740629842 3.754985089693329 4.491954315680815
| 37> C -7.893933787697985 3.154049807963579 2.36498290594204
| 38> C -7.913275439051325 3.777200518186111 3.764284615504734
| 39> H -5.782876302701684 4.2092370107515125 3.8788506695193843
| 40> H -6.631121329681708 4.310564201866338 5.431012630719773
| 41> H -8.2324678761532 4.826393499940553 3.6664002841580445
| 42> H -8.662944667183886 3.263804148351113 4.378591959055483
| 43> H -8.8595368280047 3.296632060987951 1.8732759594018045
| 44> H -7.121635719952346 3.6149406355370153 1.7440373381117937
| 45> C 8.431200036213257 -1.6817763965881274 -2.8976414883428268
| 46> C 7.189637225007699 -2.398617946669443 -5.046350396498925
| 47> C 8.531520808796191 -2.1336471529877703 -4.357240329614352
| 48> H 6.627960177725061 -3.1736466524519034 -4.519810704118549
| 49> H 7.354749153267521 -2.734788746460276 -6.073280928017155
| 50> H 9.08752946065914 -1.3833630928607805 -4.929138651942635
| 51> H 9.116688456917423 -3.0640570831974308 -4.385154652918327
| 52> H 9.430420390645592 -1.5323401137677146 -2.480464739421059
| 53> H 7.916922878834567 -2.431235529395493 -2.291682601059929
| 54> *
| 55>
| 56> % eprnmr
| 57> gtensor true
| 58> Nuclei = all H {aiso,adip,aorb,fgrad,rho}
| 59> Nuclei = all V {aiso,adip,aorb,fgrad,rho}
| 60> end
| 61>
| 62>                          ****END OF INPUT****

CARTESIAN COORDINATES (ANGSTROEM)
---------------------------------
  V     -0.006009   -1.103718    0.243213
  S     -2.341063   -0.601984   -0.393626
  S      0.510529   -0.949086   -2.220927
  S     -0.710640    0.114979    2.275403
  S      2.235786   -0.072819    0.720105
  O      0.081854   -2.650679    0.602533
  C      2.224033   -0.456457   -2.070917
  C      2.882091   -0.118366   -0.945341
  C     -3.170590   -0.301160    1.154855
  C     -2.486001    0.001749    2.269967
  S      3.275693   -0.965591   -3.475522
  S      4.702326   -0.214487   -1.026100
  S     -3.377210    0.959856    3.540508
  S     -4.897470    0.284905    1.078250
  C      4.837174   -0.580851   -2.746365
  C     -4.929168    0.949848    2.709350
  C      6.010624   -0.509093   -3.447468
  C     -6.079914    1.360459    3.306967
  S      6.109587   -0.898714   -5.181570
  S      7.552912   -0.065794   -2.676715
  S     -7.602632    1.333602    2.394284
  S     -6.027720    2.050017    4.943204
  C     -6.563455    3.757696    4.490045
  C     -7.892010    3.156761    2.363073
  C     -7.911352    3.779912    3.762375
  H     -5.780953    4.211948    3.876941
  H     -6.629198    4.313275    5.429103
  H     -8.230544    4.829105    3.664491
  H     -8.661021    3.266515    4.376682
  H     -8.857613    3.299343    1.871366
  H     -7.119712    3.617652    1.742128
  C      8.433124   -1.679065   -2.899551
  C      7.191561   -2.395907   -5.048260
  C      8.533445   -2.130936   -4.359150
  H      6.629884   -3.170935   -4.521720
  H      7.356673   -2.732078   -6.075190
  H      9.089453   -1.380652   -4.931048
  H      9.118612   -3.061346   -4.387064
  H      9.432344   -1.529629   -2.482374
  H      7.918847   -2.428524   -2.293592

 Total Charge           Charge          ....   -2
 Multiplicity           Mult            ....    2
 Number of Electrons    NEL             ....  321
 Basis Dimension        Dim             ....  681

ORBITAL ENERGIES
----------------
                 SPIN UP ORBITALS
  NO   OCC          E(Eh)            E(eV)
   0   1.0000    -196.677853     -5351.8765
   1   1.0000     -88.735260     -2414.6092
   2   1.0000     -88.735207     -2414.6077
   3   1.0000     -88.731993     -2414.5203
   4   1.0000     -88.731966     -2414.5195
   5   1.0000     -88.730308     -2414.4744
   6   1.0000     -88.730250     -2414.4729
   7   1.0000     -88.727623     -2414.4014
   8   1.0000     -88.727583     -2414.4003
   9   1.0000     -88.642327     -2412.0804
  10   1.0000     -88.642159     -2412.0758
  11   1.0000     -88.640053     -2412.0185
  12   1.0000     -88.639636     -2412.0071
  13   1.0000     -22.052768      -600.0863
  14   1.0000     -18.891953      -514.0762
  15   1.0000     -18.559292      -505.0240
  16   1.0000     -18.554040      -504.8811
  17   1.0000     -18.553936      -504.8783
  18   1.0000     -10.074474      -274.1404
  19   1.0000     -10.074116      -274.1306
  20   1.0000     -10.064872      -273.8791
  21   1.0000     -10.064864      -273.8789
  22   1.0000     -10.062935      -273.8264
  23   1.0000     -10.062837      -273.8237
  24   1.0000     -10.052299      -273.5370
  25   1.0000     -10.050792      -273.4960
  26   1.0000     -10.048223      -273.4260
  27   1.0000     -10.047711      -273.4121
  28   1.0000     -10.024154      -272.7711
  29   1.0000     -10.023294      -272.7477
  30   1.0000     -10.019924      -272.6560
  31   1.0000     -10.019115      -272.6340
  32   1.0000      -7.788951      -211.9481
  33   1.0000      -7.788903      -211.9468
  34   1.0000      -7.785532      -211.8551
  35   1.0000      -7.785501      -211.8542
  36   1.0000      -7.783260      -211.7933
  37   1.0000      -7.783241      -211.7927
  38   1.0000      -7.780621      -211.7215
  39   1.0000      -7.780588      -211.7206
  40   1.0000      -7.695792      -209.4131
  41   1.0000      -7.695524      -209.4059
  42   1.0000      -7.693808      -209.3592
  43   1.0000      -7.693483      -209.3503
  44   1.0000      -5.753895      -156.5714
  45   1.0000      -5.753852      -156.5703
  46   1.0000      -5.750537      -156.4801
  47   1.0000      -5.750495      -156.4789
  48   1.0000      -5.750481      -156.4785
  49   1.0000      -5.750465      -156.4781
  50   1.0000      -5.748192      -156.4162
  51   1.0000      -5.748173      -156.4157
  52   1.0000      -5.747159      -156.3881
  53   1.0000      -5.747127      -156.3873
  54   1.0000      -5.745659      -156.3473
  55   1.0000      -5.745637      -156.3467
  56   1.0000      -5.743980      -156.3016
  57   1.0000      -5.743960      -156.3011
  58   1.0000      -5.743738      -156.2951
  59   1.0000      -5.743695      -156.2939
  60   1.0000      -5.741208      -156.2262
  61   1.0000      -5.741194      -156.2258
  62   1.0000      -5.740283      -156.2010
  63   1.0000      -5.740252      -156.2002
  64   1.0000      -5.738933      -156.1643
  65   1.0000      -5.738927      -156.1642
  66   1.0000      -5.736305      -156.0928
  67   1.0000      -5.736262      -156.0916
  68   1.0000      -5.661335      -154.0528
  69   1.0000      -5.661088      -154.0460
  70   1.0000      -5.659248      -153.9960
  71   1.0000      -5.658903      -153.9866
  72   1.0000      -5.654520      -153.8673
  73   1.0000      -5.654271      -153.8605
  74   1.0000      -5.652972      -153.8252
  75   1.0000      -5.652677      -153.8172
  76   1.0000      -5.652446      -153.8109
  77   1.0000      -5.652111      -153.8017
  78   1.0000      -5.651111      -153.7746
  79   1.0000      -5.650805      -153.7662
  80   1.0000      -2.446045       -66.5603
  81   1.0000      -1.487296       -40.4714
  82   1.0000      -1.475461       -40.1493
  83   1.0000      -1.474672       -40.1279
  84   1.0000      -0.713186       -19.4068
  85   1.0000      -0.707703       -19.2576
  86   1.0000      -0.684512       -18.6265
  87   1.0000      -0.682220       -18.5642
  88   1.0000      -0.651272       -17.7220
  89   1.0000      -0.631271       -17.1778
  90   1.0000      -0.628709       -17.1080
  91   1.0000      -0.621729       -16.9181
  92   1.0000      -0.616397       -16.7730
  93   1.0000      -0.572313       -15.5734
  94   1.0000      -0.570606       -15.5270
  95   1.0000      -0.570445       -15.5226
  96   1.0000      -0.568120       -15.4593
  97   1.0000      -0.497535       -13.5386
  98   1.0000      -0.495148       -13.4737
  99   1.0000      -0.494383       -13.4529
 100   1.0000      -0.491849       -13.3839
 101   1.0000      -0.476144       -12.9565
 102   1.0000      -0.472322       -12.8525
 103   1.0000      -0.446735       -12.1563
 104   1.0000      -0.443984       -12.0814
 105   1.0000      -0.418377       -11.3846
 106   1.0000      -0.412532       -11.2256
 107   1.0000      -0.354935        -9.6583
 108   1.0000      -0.353852        -9.6288
 109   1.0000      -0.327332        -8.9072
 110   1.0000      -0.324682        -8.8351
 111   1.0000      -0.316967        -8.6251
 112   1.0000      -0.311757        -8.4834
 113   1.0000      -0.302172        -8.2225
 114   1.0000      -0.301145        -8.1946
 115   1.0000      -0.293826        -7.9954
 116   1.0000      -0.291758        -7.9391
 117   1.0000      -0.258446        -7.0327
 118   1.0000      -0.258271        -7.0279
 119   1.0000      -0.255881        -6.9629
 120   1.0000      -0.255636        -6.9562
 121   1.0000      -0.234973        -6.3939
 122   1.0000      -0.233996        -6.3674
 123   1.0000      -0.233059        -6.3419
 124   1.0000      -0.229567        -6.2468
 125   1.0000      -0.217572        -5.9204
 126   1.0000      -0.216864        -5.9012
 127   1.0000      -0.214778        -5.8444
 128   1.0000      -0.212287        -5.7766
 129   1.0000      -0.190968        -5.1965
 130   1.0000      -0.185903        -5.0587
 131   1.0000      -0.183451        -4.9920
 132   1.0000      -0.182023        -4.9531
 133   1.0000      -0.180231        -4.9043
 134   1.0000      -0.159083        -4.3289
 135   1.0000      -0.151916        -4.1338
 136   1.0000      -0.147506        -4.0138
 137   1.0000      -0.134000        -3.6463
 138   1.0000      -0.132010        -3.5922
 139   1.0000      -0.131146        -3.5687
 140   1.0000      -0.125378        -3.4117
 141   1.0000      -0.118281        -3.2186
 142   1.0000      -0.112439        -3.0596
 143   1.0000      -0.109823        -2.9884
 144   1.0000      -0.098207        -2.6724
 145   1.0000      -0.096353        -2.6219
 146   1.0000      -0.095983        -2.6118
 147   1.0000      -0.093246        -2.5373
 148   1.0000      -0.073051        -1.9878
 149   1.0000      -0.071902        -1.9566
 150   1.0000      -0.065326        -1.7776
 151   1.0000      -0.050815        -1.3827
 152   1.0000      -0.047228        -1.2851
 153   1.0000      -0.035448        -0.9646
 154   1.0000      -0.033412        -0.9092
 155   1.0000      -0.030146        -0.8203
 156   1.0000      -0.022199        -0.6041
 157   1.0000      -0.018950        -0.5156
 158   1.0000      -0.011319        -0.3080
 159   1.0000       0.015928         0.4334
 160   1.0000       0.035011         0.9527
 161   0.0000       0.133991         3.6461
 162   0.0000       0.134466         3.6590
 163   0.0000       0.160165         4.3583
 164   0.0000       0.161471         4.3939
 165   0.0000       0.167983         4.5711

                 SPIN DOWN ORBITALS
  NO   OCC          E(Eh)            E(eV)
   0   1.0000    -196.677999     -5351.8804
   1   1.0000     -88.735261     -2414.6092
   2   1.0000     -88.735208     -2414.6078
   3   1.0000     -88.731993     -2414.5203
   4   1.0000     -88.731966     -2414.5196
   5   1.0000     -88.730319     -2414.4747
   6   1.0000     -88.730262     -2414.4732
   7   1.0000     -88.727625     -2414.4014
   8   1.0000     -88.727585     -2414.4003
   9   1.0000     -88.642481     -2412.0845
  10   1.0000     -88.642311     -2412.0799
  11   1.0000     -88.640201     -2412.0225
  12   1.0000     -88.639786     -2412.0112
  13   1.0000     -22.037683      -599.6758
  14   1.0000     -18.895781      -514.1803
  15   1.0000     -18.553937      -504.8783
  16   1.0000     -18.537844      -504.4404
  17   1.0000     -18.537681      -504.4359
  18   1.0000     -10.074467      -274.1402
  19   1.0000     -10.074119      -274.1307
  20   1.0000     -10.064872      -273.8791
  21   1.0000     -10.064863      -273.8789
  22   1.0000     -10.062935      -273.8264
  23   1.0000     -10.062837      -273.8237
  24   1.0000     -10.052299      -273.5370
  25   1.0000     -10.050792      -273.4960
  26   1.0000     -10.048215      -273.4258
  27   1.0000     -10.047707      -273.4120
  28   1.0000     -10.023924      -272.7648
  29   1.0000     -10.023068      -272.7415
  30   1.0000     -10.019724      -272.6506
  31   1.0000     -10.018917      -272.6286
  32   1.0000      -7.788952      -211.9482
  33   1.0000      -7.788904      -211.9469
  34   1.0000      -7.785532      -211.8551
  35   1.0000      -7.785501      -211.8543
  36   1.0000      -7.783273      -211.7936
  37   1.0000      -7.783254      -211.7931
  38   1.0000      -7.780624      -211.7215
  39   1.0000      -7.780590      -211.7206
  40   1.0000      -7.695934      -209.4170
  41   1.0000      -7.695665      -209.4097
  42   1.0000      -7.693947      -209.3630
  43   1.0000      -7.693624      -209.3542
  44   1.0000      -5.753896      -156.5715
  45   1.0000      -5.753852      -156.5703
  46   1.0000      -5.750538      -156.4801
  47   1.0000      -5.750496      -156.4789
  48   1.0000      -5.750482      -156.4786
  49   1.0000      -5.750466      -156.4781
  50   1.0000      -5.748208      -156.4167
  51   1.0000      -5.748190      -156.4162
  52   1.0000      -5.747159      -156.3882
  53   1.0000      -5.747128      -156.3873
  54   1.0000      -5.745661      -156.3474
  55   1.0000      -5.745640      -156.3468
  56   1.0000      -5.743998      -156.3021
  57   1.0000      -5.743977      -156.3016
  58   1.0000      -5.743739      -156.2951
  59   1.0000      -5.743696      -156.2939
  60   1.0000      -5.741212      -156.2263
  61   1.0000      -5.741200      -156.2260
  62   1.0000      -5.740283      -156.2010
  63   1.0000      -5.740252      -156.2002
  64   1.0000      -5.738944      -156.1646
  65   1.0000      -5.738938      -156.1645
  66   1.0000      -5.736305      -156.0928
  67   1.0000      -5.736260      -156.0916
  68   1.0000      -5.661479      -154.0567
  69   1.0000      -5.661231      -154.0499
  70   1.0000      -5.659396      -154.0000
  71   1.0000      -5.659051      -153.9906
  72   1.0000      -5.654928      -153.8784
  73   1.0000      -5.654678      -153.8716
  74   1.0000      -5.653091      -153.8284
  75   1.0000      -5.652831      -153.8214
  76   1.0000      -5.652791      -153.8203
  77   1.0000      -5.652502      -153.8124
  78   1.0000      -5.651224      -153.7776
  79   1.0000      -5.650920      -153.7693
  80   1.0000      -2.400731       -65.3272
  81   1.0000      -1.467581       -39.9349
  82   1.0000      -1.412651       -38.4402
  83   1.0000      -1.412442       -38.4345
  84   1.0000      -0.713183       -19.4067
  85   1.0000      -0.707680       -19.2570
  86   1.0000      -0.684481       -18.6257
  87   1.0000      -0.682157       -18.5624
  88   1.0000      -0.659500       -17.9459
  89   1.0000      -0.631217       -17.1763
  90   1.0000      -0.628626       -17.1058
  91   1.0000      -0.621731       -16.9182
  92   1.0000      -0.616397       -16.7730
  93   1.0000      -0.572291       -15.5728
  94   1.0000      -0.570625       -15.5275
  95   1.0000      -0.570339       -15.5197
  96   1.0000      -0.568072       -15.4580
  97   1.0000      -0.497567       -13.5395
  98   1.0000      -0.495208       -13.4753
  99   1.0000      -0.494426       -13.4540
 100   1.0000      -0.491863       -13.3843
 101   1.0000      -0.476404       -12.9636
 102   1.0000      -0.472668       -12.8620
 103   1.0000      -0.446785       -12.1576
 104   1.0000      -0.444055       -12.0834
 105   1.0000      -0.418431       -11.3861
 106   1.0000      -0.412669       -11.2293
 107   1.0000      -0.354933        -9.6582
 108   1.0000      -0.353844        -9.6286
 109   1.0000      -0.327327        -8.9070
 110   1.0000      -0.324670        -8.8347
 111   1.0000      -0.316926        -8.6240
 112   1.0000      -0.311786        -8.4841
 113   1.0000      -0.302121        -8.2211
 114   1.0000      -0.301129        -8.1941
 115   1.0000      -0.293821        -7.9953
 116   1.0000      -0.291754        -7.9390
 117   1.0000      -0.258351        -7.0301
 118   1.0000      -0.258171        -7.0252
 119   1.0000      -0.255849        -6.9620
 120   1.0000      -0.255604        -6.9553
 121   1.0000      -0.234965        -6.3937
 122   1.0000      -0.233951        -6.3661
 123   1.0000      -0.233053        -6.3417
 124   1.0000      -0.229537        -6.2460
 125   1.0000      -0.217464        -5.9175
 126   1.0000      -0.216453        -5.8900
 127   1.0000      -0.214698        -5.8422
 128   1.0000      -0.212197        -5.7742
 129   1.0000      -0.189491        -5.1563
 130   1.0000      -0.185736        -5.0541
 131   1.0000      -0.183101        -4.9824
 132   1.0000      -0.181704        -4.9444
 133   1.0000      -0.180131        -4.9016
 134   1.0000      -0.158508        -4.3132
 135   1.0000      -0.151785        -4.1303
 136   1.0000      -0.147452        -4.0124
 137   1.0000      -0.133092        -3.6216
 138   1.0000      -0.131595        -3.5809
 139   1.0000      -0.130771        -3.5585
 140   1.0000      -0.125172        -3.4061
 141   1.0000      -0.118415        -3.2222
 142   1.0000      -0.114169        -3.1067
 143   1.0000      -0.111555        -3.0356
 144   1.0000      -0.098046        -2.6680
 145   1.0000      -0.096480        -2.6254
 146   1.0000      -0.096082        -2.6145
 147   1.0000      -0.093383        -2.5411
 148   1.0000      -0.071902        -1.9565
 149   1.0000      -0.069375        -1.8878
 150   1.0000      -0.065327        -1.7776
 151   1.0000      -0.048581        -1.3219
 152   1.0000      -0.046008        -1.2519
 153   1.0000      -0.035244        -0.9590
 154   1.0000      -0.032630        -0.8879
 155   1.0000      -0.029966        -0.8154
 156   1.0000      -0.023118        -0.6291
 157   1.0000      -0.011531        -0.3138
 158   1.0000       0.016096         0.4380
 159   1.0000       0.034321         0.9339
 160   0.0000       0.133794         3.6407
 161   0.0000       0.134424         3.6579
 162   0.0000       0.156395         4.2557
 163   0.0000       0.160616         4.3706
 164   0.0000       0.162375         4.4184

MULLIKEN ATOMIC CHARGES AND SPIN POPULATIONS
--------------------------------------------
   0 V :    0.495128    1.220458
   1 S :   -0.273040   -0.024859
   2 S :   -0.304999   -0.026787
   3 S :   -0.271035   -0.025671
   4 S :   -0.301564   -0.027348
   5 O :   -0.472502   -0.147927
   6 C :   -0.076892    0.008358
   7 C :   -0.085869    0.008026
   8 C :   -0.085279    0.008464
   9 C :   -0.088654    0.008104
  10 S :    0.090734    0.000113
  11 S :    0.092789    0.000099
  12 S :    0.092860   -0.001039
  13 S :    0.091704   -0.001032
  14 C :   -0.219378    0.000551
  15 C :   -0.243310    0.000988
  16 C :   -0.188488    0.000016
  17 C :   -0.156624   -0.000335
  18 S :    0.011734   -0.000023
  19 S :    0.012622   -0.000027
  20 S :    0.010351   -0.000054
  21 S :    0.010347   -0.000052
  22 C :   -0.293405   -0.000069
  23 C :   -0.292918   -0.000068
  24 C :   -0.177112    0.000096
  25 H :    0.144208    0.000011
  26 H :    0.115373   -0.000002
  27 H :    0.083222   -0.000010
  28 H :    0.096718   -0.000001
  29 H :    0.114935   -0.000003
  30 H :    0.143336    0.000011
  31 C :   -0.294660    0.000024
  32 C :   -0.294811    0.000022
  33 C :   -0.168060   -0.000026
  34 H :    0.141246   -0.000004
  35 H :    0.113144   -0.000000
  36 H :    0.091847   -0.000001
  37 H :    0.081689    0.000003
  38 H :    0.113142    0.000001
  39 H :    0.141472   -0.000005
Sum of atomic charges         :   -2.0000000

LOEWDIN ATOMIC CHARGES AND SPIN POPULATIONS
-------------------------------------------
   0 V :   -0.142296    1.173892
   1 S :    0.078906   -0.016497
   2 S :    0.048239   -0.018281
   3 S :    0.080435   -0.017103
   4 S :    0.051992   -0.018662
   5 O :   -0.319591   -0.132976
   6 C :   -0.525094    0.008924
   7 C :   -0.527139    0.008517
   8 C :   -0.532602    0.007788
   9 C :   -0.532823    0.007350
  10 S :    0.456282   -0.000246
  11 S :    0.458337   -0.000285
  12 S :    0.460022   -0.001252
  13 S :    0.458657   -0.001263
  14 C :   -0.469992    0.000162
  15 C :   -0.469552   -0.000191
  16 C :   -0.620411    0.000155
  17 C :   -0.622522    0.000187
  18 S :    0.359394   -0.000037
  19 S :    0.360616   -0.000036
  20 S :    0.369099   -0.000070
  21 S :    0.368513   -0.000068
  22 C :   -0.282635    0.000007
  23 C :   -0.282861    0.000006
  24 C :   -0.178194   -0.000006
  25 H :    0.062735   -0.000000
  26 H :    0.053707   -0.000001
  27 H :    0.058000   -0.000002
  28 H :    0.061252   -0.000000
  29 H :    0.053675   -0.000001
  30 H :    0.062334   -0.000001
  31 C :   -0.284547   -0.000003
  32 C :   -0.284211   -0.000005
  33 C :   -0.176464    0.000003
  34 H :    0.061772   -0.000002
  35 H :    0.053610   -0.000000
  36 H :    0.060019   -0.000001
  37 H :    0.057979   -0.000001
  38 H :    0.053648   -0.000000
  39 H :    0.061715   -0.000002

  Mayer bond orders larger than 0.100000
B(  0-V ,  1-S ) :   0.7940 B(  0-V ,  2-S ) :   0.7300 B(  0-V ,  3-S ) :   0.7881
B(  0-V ,  4-S ) :   0.7364 B(  0-V ,  5-O ) :   2.1448 B(  1-S ,  8-C ) :   1.1168
B(  2-S ,  6-C ) :   1.1014 B(  3-S ,  9-C ) :   1.1239 B(  4-S ,  7-C ) :   1.1030
B(  6-C ,  7-C ) :   1.7253 B(  6-C , 10-S ) :   0.9209 B(  7-C , 11-S ) :   0.9253
B(  8-C ,  9-C ) :   1.7155 B(  8-C , 13-S ) :   0.9239 B(  9-C , 12-S ) :   0.9258
B( 10-S , 14-C ) :   1.2310 B( 11-S , 14-C ) :   1.2326 B( 12-S , 15-C ) :   1.2369
B( 13-S , 15-C ) :   1.2375 B( 14-C , 16-C ) :   1.4570 B( 15-C , 17-C ) :   1.4661
B( 16-C , 18-S ) :   1.0806 B( 16-C , 19-S ) :   1.0852 B( 17-C , 20-S ) :   1.0724
B( 17-C , 21-S ) :   1.0727 B( 18-S , 32-C ) :   0.9956 B( 19-S , 31-C ) :   0.9954
B( 20-S , 23-C ) :   0.9920 B( 21-S , 22-C ) :   0.9910 B( 22-C , 24-C ) :   0.9122
B( 22-C , 25-H ) :   0.9680 B( 22-C , 26-H ) :   0.9645 B( 23-C , 24-C ) :   0.9133
B( 23-C , 29-H ) :   0.9646 B( 23-C , 30-H ) :   0.9676 B( 24-C , 27-H ) :   0.9593
B( 24-C , 28-H ) :   0.9703 B( 31-C , 33-C ) :   0.9135 B( 31-C , 38-H ) :   0.9650
B( 31-C , 39-H ) :   0.9662 B( 32-C , 33-C ) :   0.9130 B( 32-C , 34-H ) :   0.9660
B( 32-C , 35-H ) :   0.9651 B( 33-C , 36-H ) :   0.9723 B( 33-C , 37-H ) :   0.9613

FINAL SINGLE POINT ENERGY     -6337.685260933265

DIPOLE MOMENT
-------------
                                X             Y             Z
Electronic contribution:     -3.88932     -12.23043       4.29206
Nuclear contribution   :      4.04848      13.69942      -4.61460
                        -----------------------------------------
Total Dipole Moment    :      0.15916       1.46899      -0.32254
                        -----------------------------------------
Magnitude (a.u.)       :      1.51238
Magnitude (Debye)      :      3.84415

Rotational constants in cm-1:     0.010714     0.000805     0.000784
Rotational constants in MHz :   321.185391    24.141736    23.505749

                             ****ORCA TERMINATED NORMALLY****
TOTAL RUN TIME: 0 days 1 hours 6 minutes 25 seconds 423 msec
