                         Program Version 5.0.4 -  RELEASE  -
|  1> ! nofrozencore ReducedPop printbasis
|  2> ! B3LYP TZVP
|  3>
|  4> %basis
|  5> newgto V "CP(PPP)" end
|  6> end
|  7>
|  8> %pal
|  9> nprocs 8
| 10> end
| 11>
| 12> % sym SymThresh 1e-2 end
| 13> * xyz -2 2
| 14> V 0.021245178107878467 1.014284734186649 -0.4591211716966265
| 15> S -1.564853758778453 -0.1531534556158937 -1.9563194553717083
| 16> S -1.8115537724736432 0.9784088677096049 1.204188237716064
| 17> S 1.7929903731502368 -0.24691645827930628 -1.6434221811544285
| 18> S 1.5301366288874056 0.783972104754431 1.478749217348903
| 19> O 0.11134037494176062 2.5198311619831926 -0.9522788529523597
| 20> C -0.8952103503713101 1.386840040898836 2.64897343273782
| 21> C 0.4454108350287117 1.3053004869718106 2.7594770784877305
| 22> C -0.4609897672291215 -0.9267708611498519 -3.085155679363783
| 23> C 0.8774971203185303 -0.9661911791936626 -2.9579806038524064
| 24> S -1.7864991858577133 1.8819515380539031 4.127659085866016
| 25> S 1.1418469096305215 1.6866425302863663 4.368437677343061
| 26> S 1.776214233781599 -1.8714136916772657 -4.222792702062051
| 27> S -1.1536755131031842 -1.7804852664824469 -4.506456815002007
| 28> C -0.38309997714699634 2.0275779598754666 5.186560904679537
| 29> C 0.3692109570521033 -2.4122896040832105 -5.14799901647657
| 30> C -0.46567079273714457 2.3722516295797615 6.514970533156518
| 31> C 0.45096468312798443 -3.224260516314263 -6.242009762369581
| 32> S -2.0127290249251164 2.7848716556549133 7.283072349039783
| 33> S 0.9823857648639572 2.5203245452913015 7.531662471625163
| 34> S -0.9985609703102677 -3.7393009838305744 -7.146176522692027
| 35> S 2.0132131966460705 -3.845893641683703 -6.840804529183683
| 36> C 1.6912772890959338 -5.649893396088889 -6.553524411911538
| 37> C -0.8678046712055149 -5.560194930355327 -6.8187832283884635
| 38> C 0.4599550761884718 -6.168085238077186 -7.338215271561659
| 39> H 1.6118627286915654 -5.91239730200177 -5.49153957767648
| 40> H 2.6015553194457204 -6.108281176381277 -6.955358058905078
| 41> H 0.399521921862655 -7.246935531446629 -7.120093138388747
| 42> H 0.5770143592239301 -6.049389066071099 -8.419836316113921
| 43> H -1.7050285121878337 -5.95436209693865 -7.405118767024395
| 44> H -1.027955733142257 -5.824654930822353 -5.766473327869366
| 45> C 0.8780122570991469 4.303900739810523 7.988855713713454
| 46> C -1.6708748911574647 4.530622146521969 7.769956628708374
| 47> C -0.4200543434804946 4.767961934669917 8.53319603493749
| 48> H -1.5557317707146425 4.87398063421723 6.712369781669175
| 49> H -2.5273071251160033 5.064938600877884 8.227110336285277
| 50> H -0.5563313176677064 4.059872431634757 9.380685827090055
| 51> H -0.3680398891407813 5.781421803573099 8.99621452298142
| 52> H 1.7257424499263 4.681678466619029 8.59442925764568
| 53> H 1.0060471878748418 4.651700254570509 6.934449930168058
| 54> *
| 55>
| 56> % eprnmr
| 57> gtensor true
| 58> Nuclei = all H {aiso,adip,aorb,fgrad,rho}
| 59> Nuclei = all V {aiso,adip,aorb,fgrad,rho}
| 60> end
| 61>
| 62>                          ****END OF INPUT****

CARTESIAN COORDINATES (ANGSTROEM)
---------------------------------
  V      0.020882    1.012324   -0.455847
  S     -1.565217   -0.155115   -1.953045
  S     -1.811917    0.976448    1.207462
  S      1.792627   -0.248878   -1.640148
  S      1.529773    0.782011    1.482023
  O      0.110977    2.517870   -0.949005
  C     -0.895574    1.384879    2.652248
  C      0.445047    1.303339    2.762751
  C     -0.461353   -0.928732   -3.081882
  C      0.877134   -0.968152   -2.954707
  S     -1.786863    1.879990    4.130933
  S      1.141483    1.684681    4.371712
  S      1.775851   -1.873375   -4.219519
  S     -1.154039   -1.782446   -4.503183
  C     -0.383464    2.025617    5.189835
  C      0.368847   -2.414251   -5.144725
  C     -0.466034    2.370291    6.518245
  C      0.450601   -3.226222   -6.238736
  S     -2.013093    2.782911    7.286346
  S      0.982022    2.518363    7.534937
  S     -0.998925   -3.741262   -7.142902
  S      2.012850   -3.847855   -6.837530
  C      1.690914   -5.651854   -6.550250
  C     -0.868168   -5.562156   -6.815509
  C      0.459591   -6.170046   -7.334941
  H      1.611499   -5.914358   -5.488265
  H      2.601192   -6.110242   -6.952084
  H      0.399158   -7.248897   -7.116819
  H      0.576651   -6.051350   -8.416562
  H     -1.705392   -5.956323   -7.401845
  H     -1.028319   -5.826616   -5.763199
  C      0.877649    4.301940    7.992130
  C     -1.671238    4.528661    7.773231
  C     -0.420418    4.766001    8.536470
  H     -1.556095    4.872020    6.715644
  H     -2.527671    5.062978    8.230384
  H     -0.556695    4.057911    9.383960
  H     -0.368403    5.779461    8.999489
  H      1.725379    4.679717    8.597703
  H      1.005684    4.649739    6.937724

 Total Charge           Charge          ....   -2
 Multiplicity           Mult            ....    2
 Number of Electrons    NEL             ....  321
 Basis Dimension        Dim             ....  681

ORBITAL ENERGIES
----------------
                 SPIN UP ORBITALS
  NO   OCC          E(Eh)            E(eV)
   0   1.0000    -196.675225     -5351.8050
   1   1.0000     -88.734404     -2414.5859
   2   1.0000     -88.734342     -2414.5842
   3   1.0000     -88.732866     -2414.5440
   4   1.0000     -88.732693     -2414.5393
   5   1.0000     -88.732660     -2414.5384
   6   1.0000     -88.732618     -2414.5373
   7   1.0000     -88.729710     -2414.4582
   8   1.0000     -88.729620     -2414.4557
   9   1.0000     -88.640748     -2412.0374
  10   1.0000     -88.640595     -2412.0332
  11   1.0000     -88.639965     -2412.0161
  12   1.0000     -88.639468     -2412.0026
  13   1.0000     -22.050622      -600.0279
  14   1.0000     -18.890986      -514.0499
  15   1.0000     -18.557071      -504.9636
  16   1.0000     -18.551897      -504.8228
  17   1.0000     -18.551795      -504.8200
  18   1.0000     -10.078729      -274.2561
  19   1.0000     -10.075300      -274.1629
  20   1.0000     -10.065787      -273.9040
  21   1.0000     -10.065728      -273.9024
  22   1.0000     -10.063465      -273.8408
  23   1.0000     -10.063289      -273.8360
  24   1.0000     -10.054148      -273.5873
  25   1.0000     -10.051124      -273.5050
  26   1.0000     -10.047963      -273.4190
  27   1.0000     -10.047852      -273.4159
  28   1.0000     -10.020088      -272.6605
  29   1.0000     -10.019159      -272.6352
  30   1.0000     -10.017748      -272.5968
  31   1.0000     -10.016951      -272.5751
  32   1.0000      -7.787710      -211.9144
  33   1.0000      -7.787629      -211.9122
  34   1.0000      -7.786447      -211.8800
  35   1.0000      -7.786374      -211.8780
  36   1.0000      -7.786129      -211.8713
  37   1.0000      -7.785967      -211.8669
  38   1.0000      -7.782955      -211.7850
  39   1.0000      -7.782900      -211.7835
  40   1.0000      -7.695062      -209.3933
  41   1.0000      -7.694793      -209.3860
  42   1.0000      -7.694244      -209.3710
  43   1.0000      -7.693826      -209.3597
  44   1.0000      -5.752690      -156.5386
  45   1.0000      -5.752608      -156.5364
  46   1.0000      -5.751469      -156.5054
  47   1.0000      -5.751404      -156.5036
  48   1.0000      -5.751057      -156.4942
  49   1.0000      -5.750897      -156.4899
  50   1.0000      -5.749302      -156.4465
  51   1.0000      -5.749229      -156.4445
  52   1.0000      -5.747997      -156.4110
  53   1.0000      -5.747927      -156.4090
  54   1.0000      -5.747910      -156.4086
  55   1.0000      -5.747852      -156.4070
  56   1.0000      -5.746617      -156.3734
  57   1.0000      -5.746454      -156.3690
  58   1.0000      -5.743479      -156.2880
  59   1.0000      -5.743425      -156.2865
  60   1.0000      -5.742529      -156.2621
  61   1.0000      -5.742449      -156.2600
  62   1.0000      -5.741994      -156.2476
  63   1.0000      -5.741818      -156.2428
  64   1.0000      -5.741121      -156.2239
  65   1.0000      -5.741040      -156.2216
  66   1.0000      -5.738764      -156.1597
  67   1.0000      -5.738703      -156.1580
  68   1.0000      -5.660383      -154.0269
  69   1.0000      -5.660158      -154.0207
  70   1.0000      -5.659557      -154.0044
  71   1.0000      -5.659122      -153.9925
  72   1.0000      -5.653694      -153.8448
  73   1.0000      -5.653448      -153.8382
  74   1.0000      -5.652916      -153.8237
  75   1.0000      -5.652511      -153.8126
  76   1.0000      -5.652384      -153.8092
  77   1.0000      -5.652096      -153.8014
  78   1.0000      -5.651569      -153.7870
  79   1.0000      -5.651131      -153.7751
  80   1.0000      -2.444375       -66.5148
  81   1.0000      -1.485891       -40.4331
  82   1.0000      -1.473982       -40.1091
  83   1.0000      -1.473159       -40.0867
  84   1.0000      -0.715214       -19.4620
  85   1.0000      -0.708214       -19.2715
  86   1.0000      -0.691731       -18.8229
  87   1.0000      -0.683359       -18.5951
  88   1.0000      -0.650670       -17.7056
  89   1.0000      -0.635344       -17.2886
  90   1.0000      -0.629916       -17.1409
  91   1.0000      -0.621484       -16.9114
  92   1.0000      -0.615885       -16.7591
  93   1.0000      -0.577075       -15.7030
  94   1.0000      -0.575970       -15.6729
  95   1.0000      -0.573995       -15.6192
  96   1.0000      -0.572407       -15.5760
  97   1.0000      -0.497636       -13.5414
  98   1.0000      -0.497372       -13.5342
  99   1.0000      -0.495477       -13.4826
 100   1.0000      -0.494923       -13.4675
 101   1.0000      -0.480702       -13.0806
 102   1.0000      -0.477590       -12.9959
 103   1.0000      -0.446490       -12.1496
 104   1.0000      -0.442146       -12.0314
 105   1.0000      -0.416168       -11.3245
 106   1.0000      -0.411123       -11.1872
 107   1.0000      -0.357074        -9.7165
 108   1.0000      -0.349487        -9.5100
 109   1.0000      -0.339692        -9.2435
 110   1.0000      -0.320964        -8.7339
 111   1.0000      -0.320899        -8.7321
 112   1.0000      -0.315866        -8.5951
 113   1.0000      -0.303514        -8.2590
 114   1.0000      -0.302498        -8.2314
 115   1.0000      -0.295746        -8.0477
 116   1.0000      -0.290615        -7.9080
 117   1.0000      -0.262700        -7.1484
 118   1.0000      -0.259677        -7.0662
 119   1.0000      -0.254821        -6.9340
 120   1.0000      -0.253818        -6.9067
 121   1.0000      -0.243184        -6.6174
 122   1.0000      -0.237358        -6.4588
 123   1.0000      -0.232692        -6.3319
 124   1.0000      -0.224500        -6.1090
 125   1.0000      -0.222411        -6.0521
 126   1.0000      -0.218592        -5.9482
 127   1.0000      -0.212664        -5.7869
 128   1.0000      -0.203053        -5.5253
 129   1.0000      -0.193463        -5.2644
 130   1.0000      -0.187872        -5.1123
 131   1.0000      -0.185378        -5.0444
 132   1.0000      -0.177147        -4.8204
 133   1.0000      -0.173862        -4.7310
 134   1.0000      -0.159719        -4.3462
 135   1.0000      -0.151064        -4.1107
 136   1.0000      -0.144056        -3.9200
 137   1.0000      -0.140493        -3.8230
 138   1.0000      -0.133600        -3.6354
 139   1.0000      -0.133212        -3.6249
 140   1.0000      -0.126108        -3.4316
 141   1.0000      -0.121617        -3.3094
 142   1.0000      -0.114561        -3.1174
 143   1.0000      -0.110843        -3.0162
 144   1.0000      -0.101265        -2.7556
 145   1.0000      -0.098263        -2.6739
 146   1.0000      -0.097662        -2.6575
 147   1.0000      -0.093120        -2.5339
 148   1.0000      -0.074963        -2.0398
 149   1.0000      -0.068057        -1.8519
 150   1.0000      -0.065703        -1.7879
 151   1.0000      -0.052846        -1.4380
 152   1.0000      -0.046080        -1.2539
 153   1.0000      -0.037532        -1.0213
 154   1.0000      -0.037318        -1.0155
 155   1.0000      -0.031101        -0.8463
 156   1.0000      -0.025486        -0.6935
 157   1.0000      -0.019526        -0.5313
 158   1.0000      -0.016087        -0.4377
 159   1.0000       0.019802         0.5389
 160   1.0000       0.040697         1.1074
 161   0.0000       0.134805         3.6682
 162   0.0000       0.136916         3.7257
 163   0.0000       0.157477         4.2852
 164   0.0000       0.162826         4.4307
 165   0.0000       0.168595         4.5877

                 SPIN DOWN ORBITALS
  NO   OCC          E(Eh)            E(eV)
   0   1.0000    -196.675373     -5351.8090
   1   1.0000     -88.734405     -2414.5859
   2   1.0000     -88.734342     -2414.5842
   3   1.0000     -88.732875     -2414.5443
   4   1.0000     -88.732694     -2414.5394
   5   1.0000     -88.732668     -2414.5387
   6   1.0000     -88.732619     -2414.5373
   7   1.0000     -88.729718     -2414.4584
   8   1.0000     -88.729628     -2414.4559
   9   1.0000     -88.640886     -2412.0411
  10   1.0000     -88.640735     -2412.0370
  11   1.0000     -88.640102     -2412.0198
  12   1.0000     -88.639607     -2412.0063
  13   1.0000     -22.035711      -599.6222
  14   1.0000     -18.894740      -514.1520
  15   1.0000     -18.551824      -504.8208
  16   1.0000     -18.535879      -504.3869
  17   1.0000     -18.535695      -504.3819
  18   1.0000     -10.078722      -274.2560
  19   1.0000     -10.075300      -274.1628
  20   1.0000     -10.065787      -273.9040
  21   1.0000     -10.065728      -273.9024
  22   1.0000     -10.063464      -273.8408
  23   1.0000     -10.063288      -273.8360
  24   1.0000     -10.054148      -273.5873
  25   1.0000     -10.051111      -273.5046
  26   1.0000     -10.047963      -273.4190
  27   1.0000     -10.047847      -273.4158
  28   1.0000     -10.019850      -272.6540
  29   1.0000     -10.018936      -272.6291
  30   1.0000     -10.017535      -272.5910
  31   1.0000     -10.016739      -272.5693
  32   1.0000      -7.787711      -211.9144
  33   1.0000      -7.787629      -211.9122
  34   1.0000      -7.786448      -211.8800
  35   1.0000      -7.786375      -211.8780
  36   1.0000      -7.786138      -211.8716
  37   1.0000      -7.785976      -211.8672
  38   1.0000      -7.782965      -211.7852
  39   1.0000      -7.782909      -211.7837
  40   1.0000      -7.695191      -209.3968
  41   1.0000      -7.694923      -209.3895
  42   1.0000      -7.694371      -209.3745
  43   1.0000      -7.693956      -209.3632
  44   1.0000      -5.752690      -156.5387
  45   1.0000      -5.752609      -156.5365
  46   1.0000      -5.751470      -156.5055
  47   1.0000      -5.751405      -156.5037
  48   1.0000      -5.751068      -156.4945
  49   1.0000      -5.750908      -156.4901
  50   1.0000      -5.749302      -156.4465
  51   1.0000      -5.749229      -156.4445
  52   1.0000      -5.747999      -156.4110
  53   1.0000      -5.747928      -156.4091
  54   1.0000      -5.747921      -156.4089
  55   1.0000      -5.747863      -156.4073
  56   1.0000      -5.746631      -156.3738
  57   1.0000      -5.746468      -156.3693
  58   1.0000      -5.743493      -156.2884
  59   1.0000      -5.743439      -156.2869
  60   1.0000      -5.742529      -156.2622
  61   1.0000      -5.742449      -156.2600
  62   1.0000      -5.742003      -156.2478
  63   1.0000      -5.741828      -156.2431
  64   1.0000      -5.741122      -156.2239
  65   1.0000      -5.741041      -156.2217
  66   1.0000      -5.738770      -156.1599
  67   1.0000      -5.738709      -156.1582
  68   1.0000      -5.660520      -154.0306
  69   1.0000      -5.660299      -154.0246
  70   1.0000      -5.659699      -154.0082
  71   1.0000      -5.659264      -153.9964
  72   1.0000      -5.654078      -153.8553
  73   1.0000      -5.653827      -153.8485
  74   1.0000      -5.653267      -153.8332
  75   1.0000      -5.652871      -153.8224
  76   1.0000      -5.652469      -153.8115
  77   1.0000      -5.652188      -153.8039
  78   1.0000      -5.651674      -153.7899
  79   1.0000      -5.651237      -153.7780
  80   1.0000      -2.399555       -65.2952
  81   1.0000      -1.466682       -39.9104
  82   1.0000      -1.411660       -38.4132
  83   1.0000      -1.411500       -38.4089
  84   1.0000      -0.715195       -19.4614
  85   1.0000      -0.708196       -19.2710
  86   1.0000      -0.691671       -18.8213
  87   1.0000      -0.683317       -18.5940
  88   1.0000      -0.658694       -17.9240
  89   1.0000      -0.635271       -17.2866
  90   1.0000      -0.629857       -17.1393
  91   1.0000      -0.621483       -16.9114
  92   1.0000      -0.615887       -16.7591
  93   1.0000      -0.577045       -15.7022
  94   1.0000      -0.575880       -15.6705
  95   1.0000      -0.573972       -15.6186
  96   1.0000      -0.572344       -15.5743
  97   1.0000      -0.497652       -13.5418
  98   1.0000      -0.497411       -13.5352
  99   1.0000      -0.495508       -13.4834
 100   1.0000      -0.494974       -13.4689
 101   1.0000      -0.480893       -13.0858
 102   1.0000      -0.477829       -13.0024
 103   1.0000      -0.446516       -12.1503
 104   1.0000      -0.442189       -12.0326
 105   1.0000      -0.416167       -11.3245
 106   1.0000      -0.411225       -11.1900
 107   1.0000      -0.357069        -9.7164
 108   1.0000      -0.349478        -9.5098
 109   1.0000      -0.339676        -9.2431
 110   1.0000      -0.320916        -8.7326
 111   1.0000      -0.320865        -8.7312
 112   1.0000      -0.315887        -8.5957
 113   1.0000      -0.303468        -8.2578
 114   1.0000      -0.302469        -8.2306
 115   1.0000      -0.295738        -8.0475
 116   1.0000      -0.290602        -7.9077
 117   1.0000      -0.262598        -7.1457
 118   1.0000      -0.259632        -7.0649
 119   1.0000      -0.254739        -6.9318
 120   1.0000      -0.253767        -6.9054
 121   1.0000      -0.243129        -6.6159
 122   1.0000      -0.237345        -6.4585
 123   1.0000      -0.232635        -6.3303
 124   1.0000      -0.224463        -6.1080
 125   1.0000      -0.222189        -6.0461
 126   1.0000      -0.218257        -5.9391
 127   1.0000      -0.212452        -5.7811
 128   1.0000      -0.202985        -5.5235
 129   1.0000      -0.191491        -5.2107
 130   1.0000      -0.187809        -5.1105
 131   1.0000      -0.185171        -5.0388
 132   1.0000      -0.176994        -4.8162
 133   1.0000      -0.173772        -4.7286
 134   1.0000      -0.159079        -4.3288
 135   1.0000      -0.150902        -4.1063
 136   1.0000      -0.143968        -3.9176
 137   1.0000      -0.140104        -3.8124
 138   1.0000      -0.133182        -3.6241
 139   1.0000      -0.132850        -3.6150
 140   1.0000      -0.125454        -3.4138
 141   1.0000      -0.121302        -3.3008
 142   1.0000      -0.116309        -3.1649
 143   1.0000      -0.112437        -3.0596
 144   1.0000      -0.101349        -2.7578
 145   1.0000      -0.098489        -2.6800
 146   1.0000      -0.097643        -2.6570
 147   1.0000      -0.093388        -2.5412
 148   1.0000      -0.071147        -1.9360
 149   1.0000      -0.068045        -1.8516
 150   1.0000      -0.065703        -1.7879
 151   1.0000      -0.050280        -1.3682
 152   1.0000      -0.045143        -1.2284
 153   1.0000      -0.037359        -1.0166
 154   1.0000      -0.036937        -1.0051
 155   1.0000      -0.031106        -0.8464
 156   1.0000      -0.026506        -0.7213
 157   1.0000      -0.016292        -0.4433
 158   1.0000       0.020076         0.5463
 159   1.0000       0.039620         1.0781
 160   0.0000       0.134799         3.6681
 161   0.0000       0.136903         3.7253
 162   0.0000       0.154738         4.2106
 163   0.0000       0.158755         4.3199
 164   0.0000       0.163554         4.4505

MULLIKEN ATOMIC CHARGES AND SPIN POPULATIONS
--------------------------------------------
   0 V :    0.471656    1.209273
   1 S :   -0.291485   -0.022533
   2 S :   -0.288107   -0.024918
   3 S :   -0.289573   -0.023467
   4 S :   -0.283952   -0.025418
   5 O :   -0.466553   -0.145695
   6 C :   -0.077908    0.009656
   7 C :   -0.084556    0.008025
   8 C :   -0.083898    0.007747
   9 C :   -0.084592    0.007392
  10 S :    0.104531   -0.000618
  11 S :    0.105565   -0.000652
  12 S :    0.098930   -0.000393
  13 S :    0.098158   -0.000347
  14 C :   -0.200370    0.001551
  15 C :   -0.218035    0.000994
  16 C :   -0.216047   -0.000043
  17 C :   -0.181224   -0.000405
  18 S :    0.007644   -0.000110
  19 S :    0.008273   -0.000109
  20 S :    0.007822   -0.000071
  21 S :    0.007975   -0.000073
  22 C :   -0.288749   -0.000001
  23 C :   -0.287889   -0.000002
  24 C :   -0.166311   -0.000011
  25 H :    0.140703   -0.000001
  26 H :    0.107975   -0.000004
  27 H :    0.081222   -0.000000
  28 H :    0.097194   -0.000001
  29 H :    0.107647   -0.000005
  30 H :    0.140272   -0.000001
  31 C :   -0.324468    0.000255
  32 C :   -0.325015    0.000248
  33 C :   -0.132313   -0.000338
  34 H :    0.142320   -0.000023
  35 H :    0.125309    0.000036
  36 H :    0.079077    0.000051
  37 H :    0.091558   -0.000002
  38 H :    0.125117    0.000037
  39 H :    0.142093   -0.000024
Sum of atomic charges         :   -2.0000000

LOEWDIN ATOMIC CHARGES AND SPIN POPULATIONS
-------------------------------------------
   0 V :   -0.156128    1.162753
   1 S :    0.079731   -0.014540
   2 S :    0.080170   -0.015844
   3 S :    0.081090   -0.015328
   4 S :    0.084097   -0.016088
   5 O :   -0.317147   -0.130648
   6 C :   -0.549346    0.009034
   7 C :   -0.551463    0.007931
   8 C :   -0.552483    0.008126
   9 C :   -0.552462    0.007658
  10 S :    0.477441   -0.000926
  11 S :    0.478106   -0.000967
  12 S :    0.469595   -0.000823
  13 S :    0.468948   -0.000829
  14 C :   -0.466829    0.000206
  15 C :   -0.464537   -0.000080
  16 C :   -0.629444    0.000489
  17 C :   -0.620516    0.000084
  18 S :    0.361167   -0.000083
  19 S :    0.362599   -0.000080
  20 S :    0.359708   -0.000074
  21 S :    0.359292   -0.000076
  22 C :   -0.282527   -0.000007
  23 C :   -0.282701   -0.000009
  24 C :   -0.173961   -0.000002
  25 H :    0.063975   -0.000002
  26 H :    0.051347   -0.000002
  27 H :    0.057038   -0.000002
  28 H :    0.061204   -0.000001
  29 H :    0.051300   -0.000003
  30 H :    0.063792   -0.000002
  31 C :   -0.297831    0.000049
  32 C :   -0.297759    0.000042
  33 C :   -0.194145    0.000006
  34 H :    0.062682   -0.000001
  35 H :    0.064053    0.000013
  36 H :    0.060777    0.000009
  37 H :    0.064444    0.000001
  38 H :    0.064133    0.000013
  39 H :    0.062590   -0.000001

  Mayer bond orders larger than 0.100000
B(  0-V ,  1-S ) :   0.7731 B(  0-V ,  2-S ) :   0.7686 B(  0-V ,  3-S ) :   0.7664
B(  0-V ,  4-S ) :   0.7759 B(  0-V ,  5-O ) :   2.1500 B(  1-S ,  8-C ) :   1.1031
B(  2-S ,  6-C ) :   1.1063 B(  3-S ,  9-C ) :   1.1058 B(  4-S ,  7-C ) :   1.1067
B(  6-C ,  7-C ) :   1.6782 B(  6-C , 10-S ) :   0.9370 B(  7-C , 11-S ) :   0.9408
B(  8-C ,  9-C ) :   1.7003 B(  8-C , 13-S ) :   0.9333 B(  9-C , 12-S ) :   0.9352
B( 10-S , 14-C ) :   1.2505 B( 11-S , 14-C ) :   1.2501 B( 12-S , 15-C ) :   1.2458
B( 13-S , 15-C ) :   1.2461 B( 14-C , 16-C ) :   1.4025 B( 15-C , 17-C ) :   1.4707
B( 16-C , 18-S ) :   1.1014 B( 16-C , 19-S ) :   1.1037 B( 17-C , 20-S ) :   1.0806
B( 17-C , 21-S ) :   1.0817 B( 18-S , 32-C ) :   0.9466 B( 19-S , 31-C ) :   0.9470
B( 20-S , 23-C ) :   0.9982 B( 21-S , 22-C ) :   0.9976 B( 22-C , 24-C ) :   0.9191
B( 22-C , 25-H ) :   0.9540 B( 22-C , 26-H ) :   0.9694 B( 23-C , 24-C ) :   0.9195
B( 23-C , 29-H ) :   0.9694 B( 23-C , 30-H ) :   0.9539 B( 24-C , 27-H ) :   0.9708
B( 24-C , 28-H ) :   0.9655 B( 31-C , 33-C ) :   0.9015 B( 31-C , 38-H ) :   0.9544
B( 31-C , 39-H ) :   0.9977 B( 32-C , 33-C ) :   0.9005 B( 32-C , 34-H ) :   0.9977
B( 32-C , 35-H ) :   0.9544 B( 33-C , 36-H ) :   0.9806 B( 33-C , 37-H ) :   0.9363

FINAL SINGLE POINT ENERGY     -6337.676046199311

DIPOLE MOMENT
-------------
                                X             Y             Z
Electronic contribution:     -0.04178      10.85676      -8.66448
Nuclear contribution   :      0.07390     -12.12463       9.35026
                        -----------------------------------------
Total Dipole Moment    :      0.03212      -1.26787       0.68577
                        -----------------------------------------
Magnitude (a.u.)       :      1.44181
Magnitude (Debye)      :      3.66478

Rotational constants in cm-1:     0.010778     0.000804     0.000783
Rotational constants in MHz :   323.102760    24.116811    23.486737

                             ****ORCA TERMINATED NORMALLY****
TOTAL RUN TIME: 0 days 1 hours 2 minutes 8 seconds 355 msec
