                         Program Version 5.0.4 -  RELEASE  -
|  1> ! nofrozencore ReducedPop printbasis
|  2> ! B3LYP TZVP
|  3>
|  4> %basis
|  5> newgto V "CP(PPP)" end
|  6> end
|  7>
|  8> %pal
|  9> nprocs 8
| 10> end
| 11>
| 12> % sym SymThresh 1e-2 end
| 13> * xyz -2 2
| 14> V -0.3235912876273425 -0.9195260740824858 -0.5373476251814364
| 15> S 0.48131117881799695 -1.8714002815165387 1.5950324295435654
| 16> S -2.2409962366677836 -0.1079224308139837 0.7893691909031101
| 17> S 2.0724216603806442 -0.6641428881858753 -1.123814737084035
| 18> S -0.614299104600337 1.1454798787040843 -1.8677121553955525
| 19> O -0.8930579518946239 -2.1246283727037754 -1.4012097589522015
| 20> C -3.0200771987487784 1.1312619698952338 -0.39436794492007976
| 21> C -2.143774187469436 1.471738061298925 -1.395084183936526
| 22> C 2.28316445686531 -2.0519849076265384 1.2956913828812948
| 23> C 2.7655053395711398 -1.5095395708227777 0.15056511543415638
| 24> S -4.550249693679015 1.710515740785053 -0.12731400093703207
| 25> S -3.0873857568050367 2.805766938400979 -2.4369846324774787
| 26> S 4.628376224228259 -1.7683840456122941 0.08869552903873532
| 27> S 3.255897166390312 -2.840674448857704 2.4637914592068313
| 28> C -4.754546403739745 2.70979327322748 -1.20451048609614
| 29> C 4.709620829948375 -2.647969978419416 1.8144003609051838
| 30> C -5.5457441127923675 3.7258758213937413 -1.9135524066783014
| 31> C 6.05504216490153 -2.922348615441821 2.0915733415789832
| 32> S -7.175814572857008 3.601596945947242 -0.7708240034291285
| 33> S -5.634816978033594 4.758072633691446 -3.1032508609082696
| 34> S 6.119008628942947 -3.782291589658561 3.784941115200326
| 35> S 7.525396770046542 -2.659692900820517 1.3519455875481938
| 36> C 8.30860068040971 -1.5334191156376293 2.5974946970535764
| 37> C 7.104066072488743 -2.4850554199855805 4.661989468319578
| 38> C 8.446391679940303 -2.152094947612575 3.9756277424876765
| 39> H 7.696982125406824 -0.6297030369816241 2.6336122284725163
| 40> H 9.27946791860773 -1.280080252921799 2.16279635038937
| 41> H 8.993243312823699 -1.4440824992715386 4.613996126203454
| 42> H 9.04768240121625 -3.0645727408810717 3.912485980283052
| 43> H 7.311015160130591 -2.8768115909807093 5.6615773045122975
| 44> H 6.493730676944176 -1.5853474368735374 4.775995868082556
| 45> C -7.024933548064214 4.044770729586486 -4.101846427026777
| 46> C -8.312102093286526 3.0352562571139643 -2.1162301111311805
| 47> C -8.330583485246997 3.974301912782633 -3.354821029603863
| 48> H -8.068080631158823 2.0103647562564997 -2.4120600007505217
| 49> H -9.325156204694496 3.024041237225094 -1.7017994758442834
| 50> H -8.63579879816593 4.973940650665468 -3.0293770271244678
| 51> H -9.097693368938632 3.6091176010754418 -4.052139637569082
| 52> H -7.064007480519229 4.691237592047178 -4.98441824470437
| 53> H -6.695099111151333 3.049796056198158 -4.40714364941203
| 54> *
| 55>
| 56> % eprnmr
| 57> gtensor true
| 58> Nuclei = all H {aiso,adip,aorb,fgrad,rho}
| 59> Nuclei = all V {aiso,adip,aorb,fgrad,rho}
| 60> end
| 61>
| 62>                          ****END OF INPUT****

CARTESIAN COORDINATES (ANGSTROEM)
---------------------------------
  V     -0.324584   -0.915965   -0.536331
  S      0.480318   -1.867840    1.596049
  S     -2.241989   -0.104362    0.790386
  S      2.071429   -0.660582   -1.122798
  S     -0.615292    1.149040   -1.866695
  O     -0.894051   -2.121068   -1.400193
  C     -3.021070    1.134823   -0.393351
  C     -2.144767    1.475299   -1.394067
  C      2.282172   -2.048424    1.296708
  C      2.764512   -1.505979    0.151582
  S     -4.551243    1.714076   -0.126297
  S     -3.088379    2.809328   -2.435968
  S      4.627383   -1.764823    0.089712
  S      3.254904   -2.837114    2.464808
  C     -4.755539    2.713354   -1.203494
  C      4.708628   -2.644409    1.815417
  C     -5.546737    3.729436   -1.912536
  C      6.054049   -2.918788    2.092590
  S     -7.176807    3.605158   -0.769807
  S     -5.635810    4.761633   -3.102234
  S      6.118016   -3.778731    3.785958
  S      7.524404   -2.656132    1.352962
  C      8.307608   -1.529859    2.598512
  C      7.103073   -2.481495    4.663006
  C      8.445399   -2.148534    3.976645
  H      7.695989   -0.626142    2.634629
  H      9.278475   -1.276520    2.163813
  H      8.992250   -1.440522    4.615013
  H      9.046690   -3.061012    3.913503
  H      7.310022   -2.873251    5.662594
  H      6.492738   -1.581787    4.777013
  C     -7.025926    4.048331   -4.100830
  C     -8.313095    3.038817   -2.115213
  C     -8.331576    3.977863   -3.353804
  H     -8.069074    2.013925   -2.411043
  H     -9.326149    3.027602   -1.700783
  H     -8.636792    4.977501   -3.028360
  H     -9.098686    3.612678   -4.051123
  H     -7.065000    4.694798   -4.983401
  H     -6.696092    3.053357   -4.406127

 Total Charge           Charge          ....   -2
 Multiplicity           Mult            ....    2
 Number of Electrons    NEL             ....  321
 Basis Dimension        Dim             ....  681

ORBITAL ENERGIES
----------------
                 SPIN UP ORBITALS
  NO   OCC          E(Eh)            E(eV)
   0   1.0000    -196.683717     -5352.0360
   1   1.0000     -88.757406     -2415.2118
   2   1.0000     -88.749236     -2414.9895
   3   1.0000     -88.738387     -2414.6943
   4   1.0000     -88.733290     -2414.5556
   5   1.0000     -88.724093     -2414.3053
   6   1.0000     -88.718801     -2414.1613
   7   1.0000     -88.706866     -2413.8365
   8   1.0000     -88.706265     -2413.8202
   9   1.0000     -88.660833     -2412.5839
  10   1.0000     -88.652970     -2412.3700
  11   1.0000     -88.644153     -2412.1300
  12   1.0000     -88.642889     -2412.0956
  13   1.0000     -22.058915      -600.2536
  14   1.0000     -18.899432      -514.2797
  15   1.0000     -18.565346      -505.1888
  16   1.0000     -18.560217      -505.0492
  17   1.0000     -18.560105      -505.0461
  18   1.0000     -10.080977      -274.3173
  19   1.0000     -10.079948      -274.2893
  20   1.0000     -10.061766      -273.7946
  21   1.0000     -10.061480      -273.7868
  22   1.0000     -10.052632      -273.5460
  23   1.0000     -10.051949      -273.5274
  24   1.0000     -10.050281      -273.4821
  25   1.0000     -10.050277      -273.4819
  26   1.0000     -10.048315      -273.4286
  27   1.0000     -10.042392      -273.2674
  28   1.0000     -10.040885      -273.2264
  29   1.0000     -10.031459      -272.9699
  30   1.0000     -10.021171      -272.6899
  31   1.0000     -10.020835      -272.6808
  32   1.0000      -7.819114      -212.7689
  33   1.0000      -7.806425      -212.4236
  34   1.0000      -7.793169      -212.0629
  35   1.0000      -7.789579      -211.9652
  36   1.0000      -7.777000      -211.6229
  37   1.0000      -7.769973      -211.4317
  38   1.0000      -7.759835      -211.1558
  39   1.0000      -7.756831      -211.0741
  40   1.0000      -7.717836      -210.0130
  41   1.0000      -7.708968      -209.7717
  42   1.0000      -7.697135      -209.4497
  43   1.0000      -7.695318      -209.4002
  44   1.0000      -5.782868      -157.3598
  45   1.0000      -5.777968      -157.2265
  46   1.0000      -5.776039      -157.1740
  47   1.0000      -5.770761      -157.0304
  48   1.0000      -5.766124      -156.9042
  49   1.0000      -5.762875      -156.8158
  50   1.0000      -5.758100      -156.6859
  51   1.0000      -5.754368      -156.5843
  52   1.0000      -5.754312      -156.5828
  53   1.0000      -5.750341      -156.4747
  54   1.0000      -5.748121      -156.4143
  55   1.0000      -5.744854      -156.3254
  56   1.0000      -5.741818      -156.2428
  57   1.0000      -5.738711      -156.1583
  58   1.0000      -5.735181      -156.0622
  59   1.0000      -5.731949      -155.9743
  60   1.0000      -5.731089      -155.9509
  61   1.0000      -5.725348      -155.7946
  62   1.0000      -5.724417      -155.7693
  63   1.0000      -5.722013      -155.7039
  64   1.0000      -5.721407      -155.6874
  65   1.0000      -5.718248      -155.6014
  66   1.0000      -5.715151      -155.5172
  67   1.0000      -5.712060      -155.4330
  68   1.0000      -5.682372      -154.6252
  69   1.0000      -5.676189      -154.4570
  70   1.0000      -5.675642      -154.4421
  71   1.0000      -5.673771      -154.3912
  72   1.0000      -5.667461      -154.2194
  73   1.0000      -5.666613      -154.1964
  74   1.0000      -5.662802      -154.0927
  75   1.0000      -5.661233      -154.0500
  76   1.0000      -5.655935      -153.9058
  77   1.0000      -5.654197      -153.8585
  78   1.0000      -5.654125      -153.8566
  79   1.0000      -5.652229      -153.8050
  80   1.0000      -2.452754       -66.7428
  81   1.0000      -1.494117       -40.6570
  82   1.0000      -1.482523       -40.3415
  83   1.0000      -1.481587       -40.3160
  84   1.0000      -0.739645       -20.1268
  85   1.0000      -0.719427       -19.5766
  86   1.0000      -0.694720       -18.9043
  87   1.0000      -0.694290       -18.8926
  88   1.0000      -0.658748       -17.9254
  89   1.0000      -0.635275       -17.2867
  90   1.0000      -0.633277       -17.2324
  91   1.0000      -0.621304       -16.9065
  92   1.0000      -0.616948       -16.7880
  93   1.0000      -0.598855       -16.2957
  94   1.0000      -0.594193       -16.1688
  95   1.0000      -0.555669       -15.1205
  96   1.0000      -0.543661       -14.7938
  97   1.0000      -0.508898       -13.8478
  98   1.0000      -0.504216       -13.7204
  99   1.0000      -0.490422       -13.3450
 100   1.0000      -0.487421       -13.2634
 101   1.0000      -0.483981       -13.1698
 102   1.0000      -0.476275       -12.9601
 103   1.0000      -0.444193       -12.0871
 104   1.0000      -0.434135       -11.8134
 105   1.0000      -0.414504       -11.2792
 106   1.0000      -0.404839       -11.0162
 107   1.0000      -0.379312       -10.3216
 108   1.0000      -0.364187        -9.9100
 109   1.0000      -0.340526        -9.2662
 110   1.0000      -0.337364        -9.1801
 111   1.0000      -0.319208        -8.6861
 112   1.0000      -0.313474        -8.5301
 113   1.0000      -0.297060        -8.0834
 114   1.0000      -0.290369        -7.9014
 115   1.0000      -0.287189        -7.8148
 116   1.0000      -0.280714        -7.6386
 117   1.0000      -0.272138        -7.4053
 118   1.0000      -0.271155        -7.3785
 119   1.0000      -0.247604        -6.7377
 120   1.0000      -0.240396        -6.5415
 121   1.0000      -0.237541        -6.4638
 122   1.0000      -0.236607        -6.4384
 123   1.0000      -0.231653        -6.3036
 124   1.0000      -0.227312        -6.1855
 125   1.0000      -0.224387        -6.1059
 126   1.0000      -0.219545        -5.9741
 127   1.0000      -0.218041        -5.9332
 128   1.0000      -0.216376        -5.8879
 129   1.0000      -0.197267        -5.3679
 130   1.0000      -0.192192        -5.2298
 131   1.0000      -0.188547        -5.1306
 132   1.0000      -0.179643        -4.8883
 133   1.0000      -0.174064        -4.7365
 134   1.0000      -0.165150        -4.4940
 135   1.0000      -0.150845        -4.1047
 136   1.0000      -0.147881        -4.0240
 137   1.0000      -0.143234        -3.8976
 138   1.0000      -0.139586        -3.7983
 139   1.0000      -0.132797        -3.6136
 140   1.0000      -0.128909        -3.5078
 141   1.0000      -0.121966        -3.3189
 142   1.0000      -0.117529        -3.1981
 143   1.0000      -0.114521        -3.1163
 144   1.0000      -0.103167        -2.8073
 145   1.0000      -0.090483        -2.4622
 146   1.0000      -0.087240        -2.3739
 147   1.0000      -0.076532        -2.0826
 148   1.0000      -0.068119        -1.8536
 149   1.0000      -0.066105        -1.7988
 150   1.0000      -0.061824        -1.6823
 151   1.0000      -0.056249        -1.5306
 152   1.0000      -0.046562        -1.2670
 153   1.0000      -0.044998        -1.2245
 154   1.0000      -0.040221        -1.0945
 155   1.0000      -0.033444        -0.9101
 156   1.0000      -0.027758        -0.7553
 157   1.0000      -0.026861        -0.7309
 158   1.0000      -0.018089        -0.4922
 159   1.0000       0.014827         0.4035
 160   1.0000       0.033612         0.9146
 161   0.0000       0.125226         3.4076
 162   0.0000       0.129295         3.5183
 163   0.0000       0.131342         3.5740
 164   0.0000       0.150890         4.1059
 165   0.0000       0.161034         4.3820

                 SPIN DOWN ORBITALS
  NO   OCC          E(Eh)            E(eV)
   0   1.0000    -196.683863     -5352.0400
   1   1.0000     -88.757416     -2415.2121
   2   1.0000     -88.749242     -2414.9896
   3   1.0000     -88.738388     -2414.6943
   4   1.0000     -88.733292     -2414.5556
   5   1.0000     -88.724094     -2414.3053
   6   1.0000     -88.718812     -2414.1616
   7   1.0000     -88.706868     -2413.8366
   8   1.0000     -88.706277     -2413.8205
   9   1.0000     -88.660968     -2412.5876
  10   1.0000     -88.653103     -2412.3736
  11   1.0000     -88.644303     -2412.1341
  12   1.0000     -88.643040     -2412.0997
  13   1.0000     -22.044019      -599.8483
  14   1.0000     -18.903196      -514.3821
  15   1.0000     -18.560089      -505.0457
  16   1.0000     -18.544230      -504.6142
  17   1.0000     -18.544021      -504.6085
  18   1.0000     -10.080978      -274.3174
  19   1.0000     -10.079945      -274.2892
  20   1.0000     -10.061766      -273.7946
  21   1.0000     -10.061480      -273.7868
  22   1.0000     -10.052632      -273.5460
  23   1.0000     -10.051943      -273.5273
  24   1.0000     -10.050277      -273.4819
  25   1.0000     -10.050270      -273.4818
  26   1.0000     -10.048276      -273.4275
  27   1.0000     -10.042392      -273.2674
  28   1.0000     -10.040756      -273.2229
  29   1.0000     -10.031280      -272.9650
  30   1.0000     -10.020818      -272.6803
  31   1.0000     -10.020578      -272.6738
  32   1.0000      -7.819125      -212.7692
  33   1.0000      -7.806431      -212.4238
  34   1.0000      -7.793170      -212.0629
  35   1.0000      -7.789580      -211.9653
  36   1.0000      -7.777000      -211.6229
  37   1.0000      -7.769985      -211.4320
  38   1.0000      -7.759836      -211.1559
  39   1.0000      -7.756843      -211.0744
  40   1.0000      -7.717962      -210.0164
  41   1.0000      -7.709093      -209.7751
  42   1.0000      -7.697274      -209.4535
  43   1.0000      -7.695457      -209.4040
  44   1.0000      -5.782880      -157.3602
  45   1.0000      -5.777979      -157.2268
  46   1.0000      -5.776059      -157.1745
  47   1.0000      -5.770770      -157.0306
  48   1.0000      -5.766132      -156.9044
  49   1.0000      -5.762880      -156.8159
  50   1.0000      -5.758101      -156.6859
  51   1.0000      -5.754368      -156.5843
  52   1.0000      -5.754315      -156.5829
  53   1.0000      -5.750344      -156.4748
  54   1.0000      -5.748122      -156.4144
  55   1.0000      -5.744854      -156.3254
  56   1.0000      -5.741819      -156.2428
  57   1.0000      -5.738712      -156.1583
  58   1.0000      -5.735194      -156.0626
  59   1.0000      -5.731950      -155.9743
  60   1.0000      -5.731112      -155.9515
  61   1.0000      -5.725355      -155.7948
  62   1.0000      -5.724419      -155.7694
  63   1.0000      -5.722019      -155.7041
  64   1.0000      -5.721410      -155.6875
  65   1.0000      -5.718272      -155.6021
  66   1.0000      -5.715154      -155.5172
  67   1.0000      -5.712075      -155.4335
  68   1.0000      -5.682483      -154.6282
  69   1.0000      -5.676526      -154.4661
  70   1.0000      -5.675777      -154.4457
  71   1.0000      -5.673897      -154.3946
  72   1.0000      -5.667809      -154.2289
  73   1.0000      -5.666718      -154.1992
  74   1.0000      -5.662968      -154.0972
  75   1.0000      -5.661411      -154.0548
  76   1.0000      -5.656309      -153.9160
  77   1.0000      -5.654523      -153.8674
  78   1.0000      -5.654316      -153.8618
  79   1.0000      -5.652316      -153.8073
  80   1.0000      -2.407962       -65.5240
  81   1.0000      -1.474858       -40.1329
  82   1.0000      -1.420388       -38.6507
  83   1.0000      -1.419892       -38.6372
  84   1.0000      -0.739545       -20.1240
  85   1.0000      -0.719382       -19.5754
  86   1.0000      -0.694689       -18.9034
  87   1.0000      -0.694263       -18.8919
  88   1.0000      -0.666820       -18.1451
  89   1.0000      -0.635239       -17.2857
  90   1.0000      -0.633237       -17.2313
  91   1.0000      -0.621224       -16.9044
  92   1.0000      -0.616911       -16.7870
  93   1.0000      -0.598823       -16.2948
  94   1.0000      -0.594180       -16.1685
  95   1.0000      -0.555621       -15.1192
  96   1.0000      -0.543533       -14.7903
  97   1.0000      -0.508999       -13.8506
  98   1.0000      -0.504332       -13.7236
  99   1.0000      -0.490465       -13.3462
 100   1.0000      -0.487516       -13.2660
 101   1.0000      -0.484004       -13.1704
 102   1.0000      -0.476319       -12.9613
 103   1.0000      -0.444260       -12.0889
 104   1.0000      -0.434250       -11.8165
 105   1.0000      -0.414564       -11.2809
 106   1.0000      -0.404935       -11.0188
 107   1.0000      -0.379276       -10.3206
 108   1.0000      -0.364177        -9.9097
 109   1.0000      -0.340513        -9.2658
 110   1.0000      -0.337351        -9.1798
 111   1.0000      -0.319199        -8.6858
 112   1.0000      -0.313460        -8.5297
 113   1.0000      -0.296995        -8.0817
 114   1.0000      -0.290309        -7.8997
 115   1.0000      -0.287168        -7.8142
 116   1.0000      -0.280662        -7.6372
 117   1.0000      -0.272109        -7.4045
 118   1.0000      -0.271126        -7.3777
 119   1.0000      -0.247388        -6.7318
 120   1.0000      -0.240294        -6.5387
 121   1.0000      -0.237356        -6.4588
 122   1.0000      -0.236550        -6.4369
 123   1.0000      -0.231551        -6.3008
 124   1.0000      -0.227053        -6.1784
 125   1.0000      -0.224265        -6.1026
 126   1.0000      -0.219488        -5.9726
 127   1.0000      -0.217988        -5.9318
 128   1.0000      -0.216054        -5.8791
 129   1.0000      -0.195526        -5.3205
 130   1.0000      -0.192118        -5.2278
 131   1.0000      -0.188340        -5.1250
 132   1.0000      -0.179459        -4.8833
 133   1.0000      -0.173640        -4.7250
 134   1.0000      -0.164890        -4.4869
 135   1.0000      -0.150359        -4.0915
 136   1.0000      -0.147447        -4.0122
 137   1.0000      -0.142809        -3.8860
 138   1.0000      -0.139209        -3.7881
 139   1.0000      -0.132492        -3.6053
 140   1.0000      -0.128666        -3.5012
 141   1.0000      -0.123479        -3.3600
 142   1.0000      -0.117777        -3.2049
 143   1.0000      -0.116223        -3.1626
 144   1.0000      -0.103239        -2.8093
 145   1.0000      -0.090307        -2.4574
 146   1.0000      -0.087218        -2.3733
 147   1.0000      -0.073578        -2.0022
 148   1.0000      -0.067980        -1.8498
 149   1.0000      -0.065932        -1.7941
 150   1.0000      -0.060320        -1.6414
 151   1.0000      -0.055182        -1.5016
 152   1.0000      -0.045802        -1.2463
 153   1.0000      -0.043114        -1.1732
 154   1.0000      -0.040583        -1.1043
 155   1.0000      -0.033421        -0.9094
 156   1.0000      -0.028217        -0.7678
 157   1.0000      -0.018586        -0.5057
 158   1.0000       0.015104         0.4110
 159   1.0000       0.032616         0.8875
 160   0.0000       0.125471         3.4142
 161   0.0000       0.128298         3.4912
 162   0.0000       0.131328         3.5736
 163   0.0000       0.146511         3.9868
 164   0.0000       0.154315         4.1991

MULLIKEN ATOMIC CHARGES AND SPIN POPULATIONS
--------------------------------------------
   0 V :    0.457528    1.209267
   1 S :   -0.307174   -0.025617
   2 S :   -0.320412   -0.027725
   3 S :   -0.244023   -0.021811
   4 S :   -0.186557   -0.023335
   5 O :   -0.460455   -0.146466
   6 C :   -0.182972    0.015474
   7 C :    0.001220    0.003532
   8 C :   -0.149317    0.009767
   9 C :   -0.026848    0.006212
  10 S :    0.349846   -0.000974
  11 S :   -0.113482   -0.000703
  12 S :   -0.029740   -0.000606
  13 S :    0.244450   -0.000173
  14 C :   -0.144928    0.000994
  15 C :   -0.184444    0.000826
  16 C :   -0.284587    0.001613
  17 C :   -0.224062   -0.000261
  18 S :   -0.143091   -0.000274
  19 S :    0.113855   -0.000085
  20 S :   -0.070271   -0.000097
  21 S :    0.070951   -0.000052
  22 C :   -0.295935   -0.000007
  23 C :   -0.297411   -0.000006
  24 C :   -0.158480   -0.000004
  25 H :    0.143919    0.000001
  26 H :    0.111127   -0.000004
  27 H :    0.083691   -0.000002
  28 H :    0.090861   -0.000001
  29 H :    0.112193   -0.000005
  30 H :    0.137180   -0.000002
  31 C :   -0.287438    0.000546
  32 C :   -0.287170    0.000137
  33 C :   -0.159946   -0.000258
  34 H :    0.128473   -0.000011
  35 H :    0.107302   -0.000004
  36 H :    0.086398    0.000039
  37 H :    0.080598    0.000016
  38 H :    0.101111    0.000085
  39 H :    0.138036   -0.000026
Sum of atomic charges         :   -2.0000000

LOEWDIN ATOMIC CHARGES AND SPIN POPULATIONS
-------------------------------------------
   0 V :   -0.158282    1.162398
   1 S :    0.047978   -0.017003
   2 S :    0.025127   -0.017976
   3 S :    0.135934   -0.014052
   4 S :    0.192394   -0.015046
   5 O :   -0.314334   -0.131341
   6 C :   -0.605944    0.014767
   7 C :   -0.489814    0.003879
   8 C :   -0.584978    0.010195
   9 C :   -0.517319    0.006358
  10 S :    0.731997   -0.000953
  11 S :    0.242154   -0.001308
  12 S :    0.335694   -0.001140
  13 S :    0.616993   -0.000556
  14 C :   -0.481566    0.000048
  15 C :   -0.469344   -0.000161
  16 C :   -0.643809    0.001678
  17 C :   -0.627345    0.000147
  18 S :    0.217476   -0.000220
  19 S :    0.469022    0.000007
  20 S :    0.286281   -0.000093
  21 S :    0.420759   -0.000068
  22 C :   -0.281925   -0.000006
  23 C :   -0.288509   -0.000008
  24 C :   -0.176193   -0.000002
  25 H :    0.064239   -0.000001
  26 H :    0.052846   -0.000002
  27 H :    0.057930   -0.000002
  28 H :    0.059856   -0.000001
  29 H :    0.052356   -0.000003
  30 H :    0.058825   -0.000003
  31 C :   -0.288956    0.000394
  32 C :   -0.293702    0.000010
  33 C :   -0.177242    0.000006
  34 H :    0.054906   -0.000004
  35 H :    0.049653   -0.000000
  36 H :    0.058347    0.000011
  37 H :    0.056429    0.000006
  38 H :    0.048951    0.000036
  39 H :    0.063114    0.000007

  Mayer bond orders larger than 0.100000
B(  0-V ,  1-S ) :   0.8090 B(  0-V ,  2-S ) :   0.8165 B(  0-V ,  3-S ) :   0.7380
B(  0-V ,  4-S ) :   0.7196 B(  0-V ,  5-O ) :   2.1541 B(  1-S ,  8-C ) :   1.0285
B(  2-S ,  6-C ) :   0.9741 B(  3-S ,  9-C ) :   1.1938 B(  4-S ,  7-C ) :   1.2789
B(  6-C ,  7-C ) :   1.6237 B(  6-C , 10-S ) :   1.0053 B(  7-C , 11-S ) :   0.8507
B(  8-C ,  9-C ) :   1.6795 B(  8-C , 13-S ) :   0.9781 B(  9-C , 12-S ) :   0.8840
B( 10-S , 14-C ) :   1.4868 B( 10-S , 16-C ) :   0.1098 B( 11-S , 14-C ) :   0.9681
B( 12-S , 15-C ) :   1.0869 B( 13-S , 15-C ) :   1.3744 B( 14-C , 16-C ) :   1.3997
B( 15-C , 17-C ) :   1.4568 B( 16-C , 18-S ) :   0.8555 B( 16-C , 19-S ) :   1.3670
B( 17-C , 20-S ) :   0.9611 B( 17-C , 21-S ) :   1.2223 B( 18-S , 32-C ) :   1.0369
B( 19-S , 31-C ) :   0.8869 B( 20-S , 23-C ) :   1.0229 B( 21-S , 22-C ) :   0.9396
B( 22-C , 24-C ) :   0.9243 B( 22-C , 25-H ) :   0.9659 B( 22-C , 26-H ) :   0.9633
B( 23-C , 24-C ) :   0.9053 B( 23-C , 29-H ) :   0.9663 B( 23-C , 30-H ) :   0.9678
B( 24-C , 27-H ) :   0.9630 B( 24-C , 28-H ) :   0.9714 B( 31-C , 33-C ) :   0.9328
B( 31-C , 38-H ) :   0.9598 B( 31-C , 39-H ) :   0.9680 B( 32-C , 33-C ) :   0.9024
B( 32-C , 34-H ) :   0.9694 B( 32-C , 35-H ) :   0.9667 B( 33-C , 36-H ) :   0.9699
B( 33-C , 37-H ) :   0.9652

FINAL SINGLE POINT ENERGY     -6337.496363574812

DIPOLE MOMENT
-------------
                                X             Y             Z
Electronic contribution:     -0.47311     -13.05978      -4.86764
Nuclear contribution   :      1.39435      14.06314       5.42882
                        -----------------------------------------
Total Dipole Moment    :      0.92124       1.00336       0.56118
                        -----------------------------------------
Magnitude (a.u.)       :      1.47321
Magnitude (Debye)      :      3.74460

Rotational constants in cm-1:     0.010745     0.000804     0.000783
Rotational constants in MHz :   322.119696    24.115198    23.483473

                             ****ORCA TERMINATED NORMALLY****
TOTAL RUN TIME: 0 days 1 hours 2 minutes 23 seconds 179 msec
