                         Program Version 5.0.4 -  RELEASE  -
|  1> ! nofrozencore ReducedPop printbasis
|  2> ! B3LYP TZVP
|  3>
|  4> %basis
|  5> newgto V "CP(PPP)" end
|  6> end
|  7>
|  8> %pal
|  9> nprocs 8
| 10> end
| 11>
| 12> % sym SymThresh 1e-2 end
| 13> * xyz -2 2
| 14> V 0.5216111453109743 0.9298078080258375 -0.3312913062767586
| 15> S -1.559238325541848 1.0152759143762904 -1.6844627518864415
| 16> S -0.9081787610132632 1.5409258293040295 1.5794291056078156
| 17> S 1.2849344630569786 -0.7867881641982898 -1.9284733980355966
| 18> S 1.8012237999902787 -0.42524931746141353 1.302815763907999
| 19> O 1.3597219404415037 2.2425174787703455 -0.6460755222081124
| 20> C 0.1803107155690427 1.129098000961134 2.897413948064645
| 21> C 1.2604672209515708 0.3314546269122239 2.7949434037132317
| 22> C -1.104136611449326 0.021485447244910392 -3.063368680709667
| 23> C 0.02798136460670268 -0.7012707409938161 -3.150820154221712
| 24> S -0.20342146658968743 1.7568384988357069 4.529016862512238
| 25> S 2.133452642126208 -0.026241190952256452 4.330013119660622
| 26> S 0.2411288398629467 -1.690277460285009 -4.62817204655162
| 27> S -2.2319007655572554 -0.09894146684760975 -4.4632272150599706
| 28> C 1.0997048919387824 0.9346709676851137 5.395635521351909
| 29> C -1.2929574851137156 -1.2726857101180755 -5.39649992296124
| 30> C 1.2704613514004512 1.0576518668022865 6.7473746907194485
| 31> C -1.6866115694628296 -1.8083799798643339 -6.591943284449889
| 32> S 0.17360016015714705 2.0822615298298777 7.715254938845634
| 33> S 2.587574091300231 0.2538185472090902 7.638709677415515
| 34> S -3.2051324129521848 -1.3456897743231906 -7.399459490116174
| 35> S -0.710473193589529 -3.063042854865847 -7.406738342261591
| 36> C -1.9371217814121193 -4.445368057830673 -7.304678738391613
| 37> C -4.063092486949924 -2.98692466190737 -7.344094261891771
| 38> C -3.2686497205162732 -4.126360462165378 -7.99347854600838
| 39> H -2.0892189150053184 -4.6857535934647645 -6.247624513291196
| 40> H -1.4539541463755332 -5.302789481306479 -7.78500552152147
| 41> H -3.8924415698776134 -5.030993648623502 -7.969488218833045
| 42> H -3.0820357115781314 -3.886937640525659 -9.047263380923036
| 43> H -5.01073361028378 -2.8352791488889073 -7.871332738377425
| 44> H -4.286722822674565 -3.217090490712379 -6.297568001416578
| 45> C 3.462142739629522 1.7618921994194179 8.268112710896036
| 46> C 1.4141284782825003 3.3253775637102514 8.29589807226806
| 47> C 2.5714613543958853 2.704436597081495 9.085651787680824
| 48> H 1.7834354101715522 3.8698039748085327 7.42187784837027
| 49> H 0.8552951922656943 4.025627384414398 8.925214407759574
| 50> H 2.170650108316714 2.1676046326720337 9.953135228279399
| 51> H 3.2019849841399743 3.5188080192917326 9.469423871332845
| 52> H 4.282119817481197 1.382443666301875 8.886688942914995
| 53> H 3.8942455885081486 2.2836447259113366 7.409132869848952
| 54> *
| 55>
| 56> % eprnmr
| 57> gtensor true
| 58> Nuclei = all H {aiso,adip,aorb,fgrad,rho}
| 59> Nuclei = all V {aiso,adip,aorb,fgrad,rho}
| 60> end
| 61>
| 62>                          ****END OF INPUT****

CARTESIAN COORDINATES (ANGSTROEM)
---------------------------------
  V      0.520450    0.927764   -0.328262
  S     -1.560399    1.013233   -1.681434
  S     -0.909339    1.538882    1.582458
  S      1.283774   -0.788832   -1.925444
  S      1.800063   -0.427293    1.305845
  O      1.358561    2.240474   -0.643046
  C      0.179150    1.127055    2.900443
  C      1.259307    0.329411    2.797972
  C     -1.105297    0.019442   -3.060340
  C      0.026821   -0.703314   -3.147791
  S     -0.204582    1.754795    4.532046
  S      2.132292   -0.028285    4.333042
  S      0.239968   -1.692321   -4.625143
  S     -2.233061   -0.100985   -4.460198
  C      1.098544    0.932628    5.398665
  C     -1.294118   -1.274729   -5.393471
  C      1.269301    1.055609    6.750404
  C     -1.687772   -1.810423   -6.588914
  S      0.172440    2.080218    7.718284
  S      2.586413    0.251775    7.641739
  S     -3.206293   -1.347733   -7.396430
  S     -0.711634   -3.065086   -7.403709
  C     -1.938282   -4.447411   -7.301650
  C     -4.064253   -2.988968   -7.341065
  C     -3.269810   -4.128404   -7.990449
  H     -2.090380   -4.687797   -6.244595
  H     -1.455115   -5.304833   -7.781976
  H     -3.893602   -5.033037   -7.966459
  H     -3.083196   -3.888981   -9.044234
  H     -5.011894   -2.837323   -7.868304
  H     -4.287883   -3.219134   -6.294539
  C      3.460982    1.759849    8.271142
  C      1.412968    3.323334    8.298927
  C      2.570301    2.702393    9.088681
  H      1.782275    3.867761    7.424907
  H      0.854135    4.023584    8.928243
  H      2.169489    2.165561    9.956164
  H      3.200824    3.516765    9.472453
  H      4.280959    1.380400    8.889718
  H      3.893085    2.281601    7.412162

 Total Charge           Charge          ....   -2
 Multiplicity           Mult            ....    2
 Number of Electrons    NEL             ....  321
 Basis Dimension        Dim             ....  681

ORBITAL ENERGIES
----------------
                 SPIN UP ORBITALS
  NO   OCC          E(Eh)            E(eV)
   0   1.0000    -196.674507     -5351.7854
   1   1.0000     -88.733915     -2414.5726
   2   1.0000     -88.733607     -2414.5642
   3   1.0000     -88.732513     -2414.5344
   4   1.0000     -88.732208     -2414.5261
   5   1.0000     -88.730848     -2414.4891
   6   1.0000     -88.730699     -2414.4851
   7   1.0000     -88.729081     -2414.4411
   8   1.0000     -88.728958     -2414.4377
   9   1.0000     -88.639696     -2412.0087
  10   1.0000     -88.639567     -2412.0052
  11   1.0000     -88.638923     -2411.9877
  12   1.0000     -88.638799     -2411.9843
  13   1.0000     -22.049907      -600.0085
  14   1.0000     -18.889759      -514.0165
  15   1.0000     -18.556357      -504.9442
  16   1.0000     -18.551181      -504.8033
  17   1.0000     -18.551082      -504.8006
  18   1.0000     -10.075705      -274.1739
  19   1.0000     -10.075640      -274.1721
  20   1.0000     -10.064368      -273.8654
  21   1.0000     -10.063892      -273.8524
  22   1.0000     -10.063634      -273.8454
  23   1.0000     -10.063335      -273.8373
  24   1.0000     -10.051782      -273.5229
  25   1.0000     -10.051432      -273.5134
  26   1.0000     -10.048383      -273.4304
  27   1.0000     -10.048154      -273.4242
  28   1.0000     -10.017948      -272.6022
  29   1.0000     -10.017884      -272.6005
  30   1.0000     -10.016829      -272.5718
  31   1.0000     -10.016681      -272.5677
  32   1.0000      -7.787221      -211.9010
  33   1.0000      -7.786963      -211.8940
  34   1.0000      -7.785999      -211.8678
  35   1.0000      -7.785694      -211.8595
  36   1.0000      -7.783966      -211.8125
  37   1.0000      -7.783806      -211.8081
  38   1.0000      -7.782535      -211.7735
  39   1.0000      -7.782353      -211.7686
  40   1.0000      -7.693877      -209.3610
  41   1.0000      -7.693759      -209.3578
  42   1.0000      -7.693294      -209.3452
  43   1.0000      -7.693284      -209.3449
  44   1.0000      -5.752234      -156.5262
  45   1.0000      -5.751965      -156.5189
  46   1.0000      -5.750973      -156.4919
  47   1.0000      -5.750677      -156.4839
  48   1.0000      -5.748914      -156.4359
  49   1.0000      -5.748803      -156.4329
  50   1.0000      -5.748766      -156.4319
  51   1.0000      -5.748531      -156.4255
  52   1.0000      -5.747585      -156.3997
  53   1.0000      -5.747472      -156.3967
  54   1.0000      -5.747295      -156.3919
  55   1.0000      -5.747280      -156.3914
  56   1.0000      -5.744509      -156.3160
  57   1.0000      -5.744357      -156.3119
  58   1.0000      -5.743016      -156.2754
  59   1.0000      -5.742840      -156.2706
  60   1.0000      -5.742017      -156.2482
  61   1.0000      -5.741778      -156.2417
  62   1.0000      -5.740789      -156.2148
  63   1.0000      -5.740471      -156.2062
  64   1.0000      -5.739800      -156.1879
  65   1.0000      -5.739618      -156.1830
  66   1.0000      -5.738351      -156.1485
  67   1.0000      -5.738162      -156.1433
  68   1.0000      -5.659200      -153.9947
  69   1.0000      -5.659076      -153.9913
  70   1.0000      -5.658600      -153.9783
  71   1.0000      -5.658574      -153.9776
  72   1.0000      -5.652563      -153.8141
  73   1.0000      -5.652405      -153.8098
  74   1.0000      -5.651966      -153.7978
  75   1.0000      -5.651934      -153.7969
  76   1.0000      -5.651176      -153.7763
  77   1.0000      -5.651080      -153.7737
  78   1.0000      -5.650598      -153.7606
  79   1.0000      -5.650586      -153.7603
  80   1.0000      -2.443550       -66.4924
  81   1.0000      -1.484834       -40.4044
  82   1.0000      -1.473199       -40.0878
  83   1.0000      -1.472371       -40.0653
  84   1.0000      -0.708923       -19.2908
  85   1.0000      -0.708903       -19.2902
  86   1.0000      -0.684981       -18.6393
  87   1.0000      -0.684772       -18.6336
  88   1.0000      -0.649397       -17.6710
  89   1.0000      -0.630704       -17.1623
  90   1.0000      -0.630409       -17.1543
  91   1.0000      -0.616946       -16.7880
  92   1.0000      -0.616549       -16.7772
  93   1.0000      -0.574422       -15.6308
  94   1.0000      -0.574269       -15.6267
  95   1.0000      -0.572865       -15.5884
  96   1.0000      -0.572006       -15.5651
  97   1.0000      -0.496760       -13.5175
  98   1.0000      -0.495714       -13.4891
  99   1.0000      -0.494871       -13.4661
 100   1.0000      -0.494767       -13.4633
 101   1.0000      -0.479405       -13.0453
 102   1.0000      -0.476786       -12.9740
 103   1.0000      -0.446871       -12.1600
 104   1.0000      -0.444653       -12.0996
 105   1.0000      -0.416024       -11.3206
 106   1.0000      -0.410773       -11.1777
 107   1.0000      -0.354759        -9.6535
 108   1.0000      -0.354330        -9.6418
 109   1.0000      -0.326108        -8.8738
 110   1.0000      -0.325632        -8.8609
 111   1.0000      -0.318756        -8.6738
 112   1.0000      -0.314149        -8.5484
 113   1.0000      -0.303946        -8.2708
 114   1.0000      -0.303140        -8.2488
 115   1.0000      -0.292096        -7.9483
 116   1.0000      -0.291349        -7.9280
 117   1.0000      -0.257772        -7.0143
 118   1.0000      -0.257421        -7.0048
 119   1.0000      -0.255397        -6.9497
 120   1.0000      -0.255138        -6.9427
 121   1.0000      -0.234319        -6.3762
 122   1.0000      -0.233653        -6.3580
 123   1.0000      -0.230984        -6.2854
 124   1.0000      -0.229689        -6.2502
 125   1.0000      -0.219611        -5.9759
 126   1.0000      -0.217855        -5.9281
 127   1.0000      -0.213859        -5.8194
 128   1.0000      -0.211706        -5.7608
 129   1.0000      -0.192794        -5.2462
 130   1.0000      -0.186926        -5.0865
 131   1.0000      -0.185752        -5.0546
 132   1.0000      -0.184284        -5.0146
 133   1.0000      -0.179093        -4.8734
 134   1.0000      -0.159074        -4.3286
 135   1.0000      -0.151248        -4.1157
 136   1.0000      -0.146481        -3.9860
 137   1.0000      -0.135759        -3.6942
 138   1.0000      -0.134020        -3.6469
 139   1.0000      -0.132427        -3.6035
 140   1.0000      -0.124774        -3.3953
 141   1.0000      -0.120710        -3.2847
 142   1.0000      -0.113046        -3.0762
 143   1.0000      -0.109354        -2.9757
 144   1.0000      -0.099474        -2.7068
 145   1.0000      -0.097895        -2.6639
 146   1.0000      -0.096846        -2.6353
 147   1.0000      -0.094362        -2.5677
 148   1.0000      -0.074182        -2.0186
 149   1.0000      -0.067501        -1.8368
 150   1.0000      -0.066858        -1.8193
 151   1.0000      -0.051963        -1.4140
 152   1.0000      -0.045111        -1.2275
 153   1.0000      -0.037150        -1.0109
 154   1.0000      -0.036855        -1.0029
 155   1.0000      -0.030902        -0.8409
 156   1.0000      -0.024456        -0.6655
 157   1.0000      -0.018860        -0.5132
 158   1.0000      -0.014894        -0.4053
 159   1.0000       0.020846         0.5672
 160   1.0000       0.041663         1.1337
 161   0.0000       0.136963         3.7269
 162   0.0000       0.137389         3.7385
 163   0.0000       0.162003         4.4083
 164   0.0000       0.162578         4.4240
 165   0.0000       0.170644         4.6435

                 SPIN DOWN ORBITALS
  NO   OCC          E(Eh)            E(eV)
   0   1.0000    -196.674654     -5351.7894
   1   1.0000     -88.733916     -2414.5726
   2   1.0000     -88.733607     -2414.5642
   3   1.0000     -88.732514     -2414.5344
   4   1.0000     -88.732208     -2414.5261
   5   1.0000     -88.730857     -2414.4894
   6   1.0000     -88.730707     -2414.4853
   7   1.0000     -88.729089     -2414.4413
   8   1.0000     -88.728966     -2414.4379
   9   1.0000     -88.639833     -2412.0125
  10   1.0000     -88.639706     -2412.0090
  11   1.0000     -88.639065     -2411.9916
  12   1.0000     -88.638936     -2411.9881
  13   1.0000     -22.034979      -599.6023
  14   1.0000     -18.893534      -514.1192
  15   1.0000     -18.551093      -504.8009
  16   1.0000     -18.535151      -504.3671
  17   1.0000     -18.534965      -504.3620
  18   1.0000     -10.075705      -274.1739
  19   1.0000     -10.075635      -274.1720
  20   1.0000     -10.064367      -273.8654
  21   1.0000     -10.063892      -273.8524
  22   1.0000     -10.063633      -273.8454
  23   1.0000     -10.063336      -273.8373
  24   1.0000     -10.051782      -273.5229
  25   1.0000     -10.051432      -273.5134
  26   1.0000     -10.048371      -273.4301
  27   1.0000     -10.048150      -273.4240
  28   1.0000     -10.017740      -272.5966
  29   1.0000     -10.017671      -272.5947
  30   1.0000     -10.016577      -272.5649
  31   1.0000     -10.016468      -272.5620
  32   1.0000      -7.787221      -211.9011
  33   1.0000      -7.786963      -211.8940
  34   1.0000      -7.786000      -211.8678
  35   1.0000      -7.785694      -211.8595
  36   1.0000      -7.783977      -211.8128
  37   1.0000      -7.783816      -211.8084
  38   1.0000      -7.782544      -211.7738
  39   1.0000      -7.782361      -211.7688
  40   1.0000      -7.694006      -209.3645
  41   1.0000      -7.693889      -209.3614
  42   1.0000      -7.693426      -209.3488
  43   1.0000      -7.693412      -209.3484
  44   1.0000      -5.752235      -156.5263
  45   1.0000      -5.751966      -156.5190
  46   1.0000      -5.750974      -156.4920
  47   1.0000      -5.750678      -156.4839
  48   1.0000      -5.748926      -156.4362
  49   1.0000      -5.748804      -156.4329
  50   1.0000      -5.748777      -156.4322
  51   1.0000      -5.748532      -156.4255
  52   1.0000      -5.747587      -156.3998
  53   1.0000      -5.747482      -156.3969
  54   1.0000      -5.747305      -156.3921
  55   1.0000      -5.747281      -156.3915
  56   1.0000      -5.744524      -156.3164
  57   1.0000      -5.744371      -156.3123
  58   1.0000      -5.743029      -156.2758
  59   1.0000      -5.742853      -156.2710
  60   1.0000      -5.742018      -156.2482
  61   1.0000      -5.741779      -156.2417
  62   1.0000      -5.740790      -156.2148
  63   1.0000      -5.740472      -156.2062
  64   1.0000      -5.739809      -156.1882
  65   1.0000      -5.739624      -156.1831
  66   1.0000      -5.738357      -156.1486
  67   1.0000      -5.738169      -156.1435
  68   1.0000      -5.659341      -153.9985
  69   1.0000      -5.659212      -153.9950
  70   1.0000      -5.658745      -153.9823
  71   1.0000      -5.658716      -153.9815
  72   1.0000      -5.652916      -153.8237
  73   1.0000      -5.652794      -153.8204
  74   1.0000      -5.652348      -153.8082
  75   1.0000      -5.652293      -153.8067
  76   1.0000      -5.651284      -153.7792
  77   1.0000      -5.651165      -153.7760
  78   1.0000      -5.650699      -153.7633
  79   1.0000      -5.650682      -153.7629
  80   1.0000      -2.398675       -65.2713
  81   1.0000      -1.465551       -39.8797
  82   1.0000      -1.410819       -38.3903
  83   1.0000      -1.410669       -38.3863
  84   1.0000      -0.708899       -19.2901
  85   1.0000      -0.708885       -19.2897
  86   1.0000      -0.684926       -18.6378
  87   1.0000      -0.684729       -18.6324
  88   1.0000      -0.657495       -17.8913
  89   1.0000      -0.630634       -17.1604
  90   1.0000      -0.630346       -17.1526
  91   1.0000      -0.616946       -16.7879
  92   1.0000      -0.616551       -16.7772
  93   1.0000      -0.574395       -15.6301
  94   1.0000      -0.574225       -15.6254
  95   1.0000      -0.572801       -15.5867
  96   1.0000      -0.571939       -15.5633
  97   1.0000      -0.496781       -13.5181
  98   1.0000      -0.495761       -13.4903
  99   1.0000      -0.494913       -13.4673
 100   1.0000      -0.494794       -13.4640
 101   1.0000      -0.479592       -13.0504
 102   1.0000      -0.477035       -12.9808
 103   1.0000      -0.446890       -12.1605
 104   1.0000      -0.444701       -12.1009
 105   1.0000      -0.416023       -11.3205
 106   1.0000      -0.410884       -11.1807
 107   1.0000      -0.354749        -9.6532
 108   1.0000      -0.354325        -9.6417
 109   1.0000      -0.326091        -8.8734
 110   1.0000      -0.325624        -8.8607
 111   1.0000      -0.318677        -8.6716
 112   1.0000      -0.314176        -8.5492
 113   1.0000      -0.303892        -8.2693
 114   1.0000      -0.303116        -8.2482
 115   1.0000      -0.292090        -7.9482
 116   1.0000      -0.291346        -7.9279
 117   1.0000      -0.257642        -7.0108
 118   1.0000      -0.257313        -7.0018
 119   1.0000      -0.255364        -6.9488
 120   1.0000      -0.255106        -6.9418
 121   1.0000      -0.234278        -6.3750
 122   1.0000      -0.233636        -6.3575
 123   1.0000      -0.230933        -6.2840
 124   1.0000      -0.229659        -6.2493
 125   1.0000      -0.219233        -5.9656
 126   1.0000      -0.217762        -5.9256
 127   1.0000      -0.213643        -5.8135
 128   1.0000      -0.211582        -5.7574
 129   1.0000      -0.191072        -5.1993
 130   1.0000      -0.186859        -5.0847
 131   1.0000      -0.185420        -5.0455
 132   1.0000      -0.184019        -5.0074
 133   1.0000      -0.178978        -4.8702
 134   1.0000      -0.158456        -4.3118
 135   1.0000      -0.151077        -4.1110
 136   1.0000      -0.146403        -3.9838
 137   1.0000      -0.135122        -3.6769
 138   1.0000      -0.133803        -3.6410
 139   1.0000      -0.132085        -3.5942
 140   1.0000      -0.124166        -3.3787
 141   1.0000      -0.120388        -3.2759
 142   1.0000      -0.114813        -3.1242
 143   1.0000      -0.110917        -3.0182
 144   1.0000      -0.099451        -2.7062
 145   1.0000      -0.098212        -2.6725
 146   1.0000      -0.096859        -2.6357
 147   1.0000      -0.094685        -2.5765
 148   1.0000      -0.070423        -1.9163
 149   1.0000      -0.067470        -1.8360
 150   1.0000      -0.066817        -1.8182
 151   1.0000      -0.049378        -1.3437
 152   1.0000      -0.044166        -1.2018
 153   1.0000      -0.037177        -1.0116
 154   1.0000      -0.036283        -0.9873
 155   1.0000      -0.030966        -0.8426
 156   1.0000      -0.025515        -0.6943
 157   1.0000      -0.015224        -0.4143
 158   1.0000       0.021152         0.5756
 159   1.0000       0.040557         1.1036
 160   0.0000       0.136967         3.7271
 161   0.0000       0.137379         3.7383
 162   0.0000       0.156194         4.2503
 163   0.0000       0.162290         4.4161
 164   0.0000       0.163761         4.4562

MULLIKEN ATOMIC CHARGES AND SPIN POPULATIONS
--------------------------------------------
   0 V :    0.471498    1.210511
   1 S :   -0.293215   -0.022687
   2 S :   -0.288078   -0.025210
   3 S :   -0.287188   -0.023181
   4 S :   -0.286983   -0.025749
   5 O :   -0.468204   -0.146482
   6 C :   -0.086994    0.010496
   7 C :   -0.075606    0.007245
   8 C :   -0.078803    0.007628
   9 C :   -0.089863    0.007527
  10 S :    0.102004   -0.000472
  11 S :    0.097809   -0.000726
  12 S :    0.103111   -0.000316
  13 S :    0.097058   -0.000406
  14 C :   -0.213400    0.001499
  15 C :   -0.211497    0.000990
  16 C :   -0.191087   -0.000055
  17 C :   -0.191251   -0.000409
  18 S :    0.009819   -0.000116
  19 S :    0.007932   -0.000113
  20 S :    0.006902   -0.000063
  21 S :    0.008611   -0.000076
  22 C :   -0.301934   -0.000000
  23 C :   -0.297354   -0.000004
  24 C :   -0.158447   -0.000011
  25 H :    0.144683   -0.000002
  26 H :    0.114329   -0.000004
  27 H :    0.083397   -0.000000
  28 H :    0.091787   -0.000001
  29 H :    0.111905   -0.000005
  30 H :    0.141292   -0.000001
  31 C :   -0.298621    0.000205
  32 C :   -0.301355    0.000184
  33 C :   -0.157159   -0.000240
  34 H :    0.143453   -0.000016
  35 H :    0.114116    0.000015
  36 H :    0.092120    0.000024
  37 H :    0.082752    0.000016
  38 H :    0.112047    0.000026
  39 H :    0.140413   -0.000019
Sum of atomic charges         :   -2.0000000

LOEWDIN ATOMIC CHARGES AND SPIN POPULATIONS
-------------------------------------------
   0 V :   -0.155626    1.163882
   1 S :    0.075703   -0.014779
   2 S :    0.083348   -0.015903
   3 S :    0.085501   -0.014955
   4 S :    0.078924   -0.016533
   5 O :   -0.319420   -0.131421
   6 C :   -0.552367    0.009766
   7 C :   -0.549852    0.007215
   8 C :   -0.550957    0.007907
   9 C :   -0.553831    0.007900
  10 S :    0.473594   -0.000822
  11 S :    0.468940   -0.001016
  12 S :    0.474607   -0.000783
  13 S :    0.468022   -0.000852
  14 C :   -0.464734    0.000156
  15 C :   -0.464906   -0.000088
  16 C :   -0.621310    0.000485
  17 C :   -0.621820    0.000084
  18 S :    0.359759   -0.000092
  19 S :    0.357901   -0.000085
  20 S :    0.358732   -0.000070
  21 S :    0.357025   -0.000077
  22 C :   -0.283339   -0.000007
  23 C :   -0.284478   -0.000010
  24 C :   -0.176347   -0.000001
  25 H :    0.063628   -0.000002
  26 H :    0.054025   -0.000002
  27 H :    0.057872   -0.000002
  28 H :    0.060457   -0.000001
  29 H :    0.053569   -0.000003
  30 H :    0.062184   -0.000001
  31 C :   -0.284704    0.000052
  32 C :   -0.284146    0.000030
  33 C :   -0.176411    0.000007
  34 H :    0.062953   -0.000001
  35 H :    0.054034    0.000007
  36 H :    0.060473    0.000005
  37 H :    0.057680    0.000002
  38 H :    0.053663    0.000010
  39 H :    0.061654   -0.000000

  Mayer bond orders larger than 0.100000
B(  0-V ,  1-S ) :   0.7670 B(  0-V ,  2-S ) :   0.7771 B(  0-V ,  3-S ) :   0.7698
B(  0-V ,  4-S ) :   0.7724 B(  0-V ,  5-O ) :   2.1480 B(  1-S ,  8-C ) :   1.1057
B(  2-S ,  6-C ) :   1.1013 B(  3-S ,  9-C ) :   1.1036 B(  4-S ,  7-C ) :   1.1071
B(  6-C ,  7-C ) :   1.6847 B(  6-C , 10-S ) :   0.9423 B(  7-C , 11-S ) :   0.9314
B(  8-C ,  9-C ) :   1.6986 B(  8-C , 13-S ) :   0.9283 B(  9-C , 12-S ) :   0.9416
B( 10-S , 14-C ) :   1.2454 B( 11-S , 14-C ) :   1.2494 B( 12-S , 15-C ) :   1.2451
B( 13-S , 15-C ) :   1.2478 B( 14-C , 16-C ) :   1.4532 B( 15-C , 17-C ) :   1.4514
B( 16-C , 18-S ) :   1.0902 B( 16-C , 19-S ) :   1.0844 B( 17-C , 20-S ) :   1.0851
B( 17-C , 21-S ) :   1.0890 B( 18-S , 32-C ) :   0.9893 B( 19-S , 31-C ) :   0.9940
B( 20-S , 23-C ) :   0.9939 B( 21-S , 22-C ) :   0.9888 B( 22-C , 24-C ) :   0.9114
B( 22-C , 25-H ) :   0.9660 B( 22-C , 26-H ) :   0.9652 B( 23-C , 24-C ) :   0.9167
B( 23-C , 29-H ) :   0.9652 B( 23-C , 30-H ) :   0.9649 B( 24-C , 27-H ) :   0.9624
B( 24-C , 28-H ) :   0.9715 B( 31-C , 33-C ) :   0.9160 B( 31-C , 38-H ) :   0.9652
B( 31-C , 39-H ) :   0.9649 B( 32-C , 33-C ) :   0.9110 B( 32-C , 34-H ) :   0.9662
B( 32-C , 35-H ) :   0.9654 B( 33-C , 36-H ) :   0.9715 B( 33-C , 37-H ) :   0.9624

FINAL SINGLE POINT ENERGY     -6337.706158779993

DIPOLE MOMENT
-------------
                                X             Y             Z
Electronic contribution:      5.19597      10.31539      -7.17976
Nuclear contribution   :     -5.78475     -11.49013       7.97717
                        -----------------------------------------
Total Dipole Moment    :     -0.58878      -1.17473       0.79741
                        -----------------------------------------
Magnitude (a.u.)       :      1.53705
Magnitude (Debye)      :      3.90687

Rotational constants in cm-1:     0.010757     0.000805     0.000784
Rotational constants in MHz :   322.486123    24.133366    23.500225

                             ****ORCA TERMINATED NORMALLY****
TOTAL RUN TIME: 0 days 1 hours 1 minutes 47 seconds 377 msec
