                         Program Version 5.0.4 -  RELEASE  -
|  1> ! nofrozencore ReducedPop printbasis
|  2> ! B3LYP TZVP
|  3>
|  4> %basis
|  5> newgto V "CP(PPP)" end
|  6> end
|  7>
|  8> %pal
|  9> nprocs 6
| 10> end
| 11>
| 12> % sym SymThresh 1e-2 end
| 13> * xyz -2 2
| 14> V -0.8222607203097514 0.6009242073722091 0.4874767393176531
| 15> S -1.2493789819351655 1.2157702148440055 -2.0316866091540327
| 16> S -1.6576345217331778 -1.5543782483279882 -0.0995726728386614
| 17> S 1.258944547828919 2.2221761864088383 0.5729282903665258
| 18> S 0.47964280696614386 -0.7101565949379877 1.9855694442846168
| 19> O -2.0281996840877228 1.0076138877066154 1.4761795044804755
| 20> C -1.0790576311047453 -2.7350274985091114 1.0986481951888014
| 21> C -0.15388913183933844 -2.3702319100040885 1.9968342403126773
| 22> C -0.1500425322129218 2.616173233309624 -1.9026289774599787
| 23> C 0.7556023484432935 2.9747249930261668 -0.9634232752012245
| 24> S -1.9540499452907552 -4.296577232016316 1.4222931033968405
| 25> S 0.10896571474512051 -3.48795171482919 3.404203285515746
| 26> S 1.8634981956344436 4.308004496717836 -1.414512360140438
| 27> S -0.08542360129256898 3.545599804592214 -3.4364402960759937
| 28> C -0.9871518604669558 -4.75364492558488 2.8334625211794755
| 29> C 1.2859157800747072 4.5843939947166685 -3.052852919895684
| 30> C -1.0664948479622465 -5.982298730152977 3.423766969780079
| 31> C 1.7811575386501395 5.546034281096535 -3.888956820622958
| 32> S -2.269525044965436 -7.176141108441631 2.8657541881804467
| 33> S -0.0885114640454612 -6.350962076518458 4.870405354598925
| 34> S 1.091420162375923 5.88029028676365 -5.491526756027907
| 35> S 3.0973307998254778 6.654567397918203 -3.4348508268222684
| 36> C 4.334334607939192 6.116928537355065 -4.70674698804831
| 37> C 2.578378097048474 5.452769843432225 -6.512888503604664
| 38> C 3.8503770471317966 6.236196871480166 -6.158557473476205
| 39> H 4.621678905713318 5.087882461649959 -4.472420768267818
| 40> H 5.208901698258343 6.757494213987413 -4.555427890650669
| 41> H 4.6607216958491655 5.873045614320885 -6.813892014500678
| 42> H 3.6947141607220146 7.298325019955617 -6.396296426371363
| 43> H 2.2919813504276005 5.664458837174079 -7.548217619837053
| 44> H 2.7448407198752793 4.375431650711362 -6.419549436153974
| 45> C -1.476069040629517 -6.550092094052446 6.073728310811053
| 46> C -3.29447003904778 -7.2322768871019445 4.402718393560566
| 47> C -2.481419075338048 -7.618904783811739 5.640283642155337
| 48> H -3.7685524735655704 -6.256485797146904 4.538459247484647
| 49> H -4.077613891168172 -7.970355597011418 4.209770387705619
| 50> H -1.9527980174031512 -8.560965522560881 5.449087186212219
| 51> H -3.1800824028305623 -7.796242957065825 6.47283689354049
| 52> H -1.0078390580017824 -6.822514629577376 7.023418292742841
| 53> H -1.9671868533147427 -5.581263782594807 6.198550096675605
| 54> *
| 55>
| 56> % eprnmr
| 57> gtensor true
| 58> Nuclei = all H {aiso,adip,aorb,fgrad,rho}
| 59> Nuclei = all V {aiso,adip,aorb,fgrad,rho}
| 60> end
| 61>
| 62>                          ****END OF INPUT****

CARTESIAN COORDINATES (ANGSTROEM)
---------------------------------
  V     -0.820497    0.597544    0.487075
  S     -1.247615    1.212390   -2.032088
  S     -1.655871   -1.557759   -0.099974
  S      1.260708    2.218796    0.572527
  S      0.481407   -0.713537    1.985168
  O     -2.026436    1.004234    1.475778
  C     -1.077294   -2.738408    1.098246
  C     -0.152125   -2.373612    1.996433
  C     -0.148279    2.612793   -1.903031
  C      0.757366    2.971345   -0.963825
  S     -1.952286   -4.299958    1.421891
  S      0.110730   -3.491332    3.403802
  S      1.865262    4.304624   -1.414914
  S     -0.083660    3.542219   -3.436842
  C     -0.985388   -4.757025    2.833061
  C      1.287680    4.581014   -3.053255
  C     -1.064731   -5.985679    3.423365
  C      1.782921    5.542654   -3.889359
  S     -2.267761   -7.179521    2.865352
  S     -0.086748   -6.354342    4.870004
  S      1.093184    5.876910   -5.491928
  S      3.099095    6.651187   -3.435253
  C      4.336099    6.113548   -4.707149
  C      2.580142    5.449390   -6.513290
  C      3.852141    6.232817   -6.158959
  H      4.623443    5.084502   -4.472822
  H      5.210666    6.754114   -4.555830
  H      4.662486    5.869665   -6.814294
  H      3.696478    7.294945   -6.396698
  H      2.293745    5.661079   -7.548619
  H      2.746605    4.372051   -6.419951
  C     -1.474305   -6.553472    6.073327
  C     -3.292706   -7.235657    4.402317
  C     -2.479655   -7.622285    5.639882
  H     -3.766789   -6.259866    4.538058
  H     -4.075850   -7.973736    4.209369
  H     -1.951034   -8.564346    5.448685
  H     -3.178318   -7.799623    6.472435
  H     -1.006075   -6.825895    7.023017
  H     -1.965423   -5.584644    6.198148

 Total Charge           Charge          ....   -2
 Multiplicity           Mult            ....    2
 Number of Electrons    NEL             ....  321
 Basis Dimension        Dim             ....  681

ORBITAL ENERGIES
----------------
                 SPIN UP ORBITALS
  NO   OCC          E(Eh)            E(eV)
   0   1.0000    -196.681532     -5351.9766
   1   1.0000     -88.738804     -2414.7056
   2   1.0000     -88.738794     -2414.7053
   3   1.0000     -88.736489     -2414.6426
   4   1.0000     -88.736331     -2414.6383
   5   1.0000     -88.727752     -2414.4049
   6   1.0000     -88.727407     -2414.3955
   7   1.0000     -88.723488     -2414.2888
   8   1.0000     -88.723141     -2414.2794
   9   1.0000     -88.643200     -2412.1041
  10   1.0000     -88.642890     -2412.0957
  11   1.0000     -88.640383     -2412.0274
  12   1.0000     -88.639746     -2412.0101
  13   1.0000     -22.055340      -600.1563
  14   1.0000     -18.890841      -514.0459
  15   1.0000     -18.562116      -505.1008
  16   1.0000     -18.556540      -504.9491
  17   1.0000     -18.556476      -504.9474
  18   1.0000     -10.081176      -274.3227
  19   1.0000     -10.069064      -273.9932
  20   1.0000     -10.068043      -273.9654
  21   1.0000     -10.068000      -273.9642
  22   1.0000     -10.059575      -273.7350
  23   1.0000     -10.059533      -273.7338
  24   1.0000     -10.054900      -273.6077
  25   1.0000     -10.054005      -273.5834
  26   1.0000     -10.049406      -273.4582
  27   1.0000     -10.042281      -273.2644
  28   1.0000     -10.022464      -272.7251
  29   1.0000     -10.021378      -272.6956
  30   1.0000     -10.020433      -272.6698
  31   1.0000     -10.019672      -272.6491
  32   1.0000      -7.792293      -212.0391
  33   1.0000      -7.792270      -212.0384
  34   1.0000      -7.789169      -211.9541
  35   1.0000      -7.789073      -211.9514
  36   1.0000      -7.781254      -211.7387
  37   1.0000      -7.780991      -211.7315
  38   1.0000      -7.777079      -211.6251
  39   1.0000      -7.776877      -211.6196
  40   1.0000      -7.697548      -209.4609
  41   1.0000      -7.697163      -209.4504
  42   1.0000      -7.693485      -209.3504
  43   1.0000      -7.692894      -209.3343
  44   1.0000      -5.757269      -156.6633
  45   1.0000      -5.757254      -156.6629
  46   1.0000      -5.754106      -156.5772
  47   1.0000      -5.754010      -156.5746
  48   1.0000      -5.753900      -156.5716
  49   1.0000      -5.753877      -156.5710
  50   1.0000      -5.749953      -156.4642
  51   1.0000      -5.749839      -156.4611
  52   1.0000      -5.747057      -156.3854
  53   1.0000      -5.747036      -156.3848
  54   1.0000      -5.746206      -156.3622
  55   1.0000      -5.745948      -156.3552
  56   1.0000      -5.744840      -156.3250
  57   1.0000      -5.744751      -156.3226
  58   1.0000      -5.742861      -156.2712
  59   1.0000      -5.742575      -156.2634
  60   1.0000      -5.742145      -156.2517
  61   1.0000      -5.741933      -156.2459
  62   1.0000      -5.737418      -156.1231
  63   1.0000      -5.737185      -156.1168
  64   1.0000      -5.736049      -156.0858
  65   1.0000      -5.735783      -156.0786
  66   1.0000      -5.732874      -155.9994
  67   1.0000      -5.732683      -155.9942
  68   1.0000      -5.662921      -154.0959
  69   1.0000      -5.662594      -154.0870
  70   1.0000      -5.658984      -153.9888
  71   1.0000      -5.658373      -153.9722
  72   1.0000      -5.656047      -153.9089
  73   1.0000      -5.655712      -153.8997
  74   1.0000      -5.654886      -153.8773
  75   1.0000      -5.654440      -153.8651
  76   1.0000      -5.652449      -153.8110
  77   1.0000      -5.651893      -153.7958
  78   1.0000      -5.650526      -153.7586
  79   1.0000      -5.649926      -153.7423
  80   1.0000      -2.448398       -66.6243
  81   1.0000      -1.487995       -40.4904
  82   1.0000      -1.478027       -40.2191
  83   1.0000      -1.477730       -40.2111
  84   1.0000      -0.714912       -19.4537
  85   1.0000      -0.704666       -19.1749
  86   1.0000      -0.688431       -18.7332
  87   1.0000      -0.680798       -18.5255
  88   1.0000      -0.649235       -17.6666
  89   1.0000      -0.634697       -17.2710
  90   1.0000      -0.626195       -17.0396
  91   1.0000      -0.623595       -16.9689
  92   1.0000      -0.611445       -16.6383
  93   1.0000      -0.577525       -15.7153
  94   1.0000      -0.574106       -15.6222
  95   1.0000      -0.571827       -15.5602
  96   1.0000      -0.566113       -15.4047
  97   1.0000      -0.500998       -13.6329
  98   1.0000      -0.499076       -13.5805
  99   1.0000      -0.491183       -13.3658
 100   1.0000      -0.487710       -13.2713
 101   1.0000      -0.477293       -12.9878
 102   1.0000      -0.472744       -12.8640
 103   1.0000      -0.451124       -12.2757
 104   1.0000      -0.440139       -11.9768
 105   1.0000      -0.418456       -11.3868
 106   1.0000      -0.413363       -11.2482
 107   1.0000      -0.358914        -9.7666
 108   1.0000      -0.350027        -9.5247
 109   1.0000      -0.331571        -9.0225
 110   1.0000      -0.320882        -8.7316
 111   1.0000      -0.319274        -8.6879
 112   1.0000      -0.311320        -8.4715
 113   1.0000      -0.305163        -8.3039
 114   1.0000      -0.301223        -8.1967
 115   1.0000      -0.296532        -8.0691
 116   1.0000      -0.287645        -7.8272
 117   1.0000      -0.261061        -7.1038
 118   1.0000      -0.260693        -7.0938
 119   1.0000      -0.253374        -6.8947
 120   1.0000      -0.253042        -6.8856
 121   1.0000      -0.238628        -6.4934
 122   1.0000      -0.237243        -6.4557
 123   1.0000      -0.228892        -6.2285
 124   1.0000      -0.223685        -6.0868
 125   1.0000      -0.222155        -6.0451
 126   1.0000      -0.219933        -5.9847
 127   1.0000      -0.213682        -5.8146
 128   1.0000      -0.206948        -5.6313
 129   1.0000      -0.190950        -5.1960
 130   1.0000      -0.188676        -5.1341
 131   1.0000      -0.188437        -5.1276
 132   1.0000      -0.182523        -4.9667
 133   1.0000      -0.176436        -4.8011
 134   1.0000      -0.160781        -4.3751
 135   1.0000      -0.154806        -4.2125
 136   1.0000      -0.144485        -3.9316
 137   1.0000      -0.139122        -3.7857
 138   1.0000      -0.135862        -3.6970
 139   1.0000      -0.128549        -3.4980
 140   1.0000      -0.122429        -3.3315
 141   1.0000      -0.115695        -3.1482
 142   1.0000      -0.110510        -3.0071
 143   1.0000      -0.108838        -2.9616
 144   1.0000      -0.098842        -2.6896
 145   1.0000      -0.097553        -2.6546
 146   1.0000      -0.095411        -2.5963
 147   1.0000      -0.094304        -2.5661
 148   1.0000      -0.077220        -2.1013
 149   1.0000      -0.075225        -2.0470
 150   1.0000      -0.059340        -1.6147
 151   1.0000      -0.049075        -1.3354
 152   1.0000      -0.047568        -1.2944
 153   1.0000      -0.038952        -1.0599
 154   1.0000      -0.032042        -0.8719
 155   1.0000      -0.027554        -0.7498
 156   1.0000      -0.022649        -0.6163
 157   1.0000      -0.015129        -0.4117
 158   1.0000      -0.013832        -0.3764
 159   1.0000       0.017538         0.4772
 160   1.0000       0.038279         1.0416
 161   0.0000       0.130021         3.5381
 162   0.0000       0.141355         3.8465
 163   0.0000       0.157592         4.2883
 164   0.0000       0.163246         4.4421
 165   0.0000       0.164037         4.4637

                 SPIN DOWN ORBITALS
  NO   OCC          E(Eh)            E(eV)
   0   1.0000    -196.681658     -5351.9800
   1   1.0000     -88.738805     -2414.7056
   2   1.0000     -88.738795     -2414.7054
   3   1.0000     -88.736499     -2414.6429
   4   1.0000     -88.736341     -2414.6386
   5   1.0000     -88.727752     -2414.4049
   6   1.0000     -88.727407     -2414.3955
   7   1.0000     -88.723475     -2414.2885
   8   1.0000     -88.723129     -2414.2791
   9   1.0000     -88.643355     -2412.1083
  10   1.0000     -88.643044     -2412.0999
  11   1.0000     -88.640514     -2412.0310
  12   1.0000     -88.639873     -2412.0136
  13   1.0000     -22.040121      -599.7422
  14   1.0000     -18.894973      -514.1584
  15   1.0000     -18.556551      -504.9494
  16   1.0000     -18.540418      -504.5104
  17   1.0000     -18.540001      -504.4991
  18   1.0000     -10.081179      -274.3228
  19   1.0000     -10.069055      -273.9929
  20   1.0000     -10.068043      -273.9654
  21   1.0000     -10.068000      -273.9642
  22   1.0000     -10.059575      -273.7350
  23   1.0000     -10.059533      -273.7338
  24   1.0000     -10.054901      -273.6078
  25   1.0000     -10.054007      -273.5834
  26   1.0000     -10.049406      -273.4582
  27   1.0000     -10.042265      -273.2639
  28   1.0000     -10.022252      -272.7193
  29   1.0000     -10.021173      -272.6900
  30   1.0000     -10.020268      -272.6654
  31   1.0000     -10.019510      -272.6447
  32   1.0000      -7.792294      -212.0391
  33   1.0000      -7.792270      -212.0385
  34   1.0000      -7.789181      -211.9544
  35   1.0000      -7.789084      -211.9518
  36   1.0000      -7.781254      -211.7387
  37   1.0000      -7.780991      -211.7315
  38   1.0000      -7.777066      -211.6247
  39   1.0000      -7.776865      -211.6193
  40   1.0000      -7.697696      -209.4649
  41   1.0000      -7.697310      -209.4544
  42   1.0000      -7.693606      -209.3537
  43   1.0000      -7.693010      -209.3374
  44   1.0000      -5.757270      -156.6633
  45   1.0000      -5.757255      -156.6629
  46   1.0000      -5.754122      -156.5776
  47   1.0000      -5.754025      -156.5750
  48   1.0000      -5.753901      -156.5716
  49   1.0000      -5.753878      -156.5710
  50   1.0000      -5.749971      -156.4647
  51   1.0000      -5.749857      -156.4616
  52   1.0000      -5.747058      -156.3854
  53   1.0000      -5.747037      -156.3848
  54   1.0000      -5.746207      -156.3622
  55   1.0000      -5.745948      -156.3552
  56   1.0000      -5.744846      -156.3252
  57   1.0000      -5.744758      -156.3228
  58   1.0000      -5.742861      -156.2712
  59   1.0000      -5.742574      -156.2634
  60   1.0000      -5.742123      -156.2511
  61   1.0000      -5.741911      -156.2454
  62   1.0000      -5.737395      -156.1225
  63   1.0000      -5.737164      -156.1162
  64   1.0000      -5.736049      -156.0858
  65   1.0000      -5.735783      -156.0786
  66   1.0000      -5.732867      -155.9992
  67   1.0000      -5.732675      -155.9940
  68   1.0000      -5.663081      -154.1003
  69   1.0000      -5.662755      -154.0914
  70   1.0000      -5.659072      -153.9912
  71   1.0000      -5.658454      -153.9744
  72   1.0000      -5.656391      -153.9182
  73   1.0000      -5.656057      -153.9091
  74   1.0000      -5.655047      -153.8817
  75   1.0000      -5.654597      -153.8694
  76   1.0000      -5.652848      -153.8218
  77   1.0000      -5.652283      -153.8064
  78   1.0000      -5.650618      -153.7611
  79   1.0000      -5.650014      -153.7447
  80   1.0000      -2.402662       -65.3798
  81   1.0000      -1.467304       -39.9274
  82   1.0000      -1.415823       -38.5265
  83   1.0000      -1.414675       -38.4953
  84   1.0000      -0.714906       -19.4536
  85   1.0000      -0.704620       -19.1737
  86   1.0000      -0.688385       -18.7319
  87   1.0000      -0.680739       -18.5238
  88   1.0000      -0.658412       -17.9163
  89   1.0000      -0.634645       -17.2696
  90   1.0000      -0.626140       -17.0381
  91   1.0000      -0.623597       -16.9689
  92   1.0000      -0.611444       -16.6382
  93   1.0000      -0.577508       -15.7148
  94   1.0000      -0.574117       -15.6225
  95   1.0000      -0.571731       -15.5576
  96   1.0000      -0.566026       -15.4024
  97   1.0000      -0.501074       -13.6349
  98   1.0000      -0.499103       -13.5813
  99   1.0000      -0.491231       -13.3671
 100   1.0000      -0.487694       -13.2708
 101   1.0000      -0.477568       -12.9953
 102   1.0000      -0.472980       -12.8704
 103   1.0000      -0.451159       -12.2767
 104   1.0000      -0.440228       -11.9792
 105   1.0000      -0.418412       -11.3856
 106   1.0000      -0.413515       -11.2523
 107   1.0000      -0.358906        -9.7663
 108   1.0000      -0.350007        -9.5242
 109   1.0000      -0.331565        -9.0223
 110   1.0000      -0.320829        -8.7302
 111   1.0000      -0.319248        -8.6872
 112   1.0000      -0.311352        -8.4723
 113   1.0000      -0.305137        -8.3032
 114   1.0000      -0.301167        -8.1952
 115   1.0000      -0.296525        -8.0689
 116   1.0000      -0.287645        -7.8272
 117   1.0000      -0.260948        -7.1008
 118   1.0000      -0.260611        -7.0916
 119   1.0000      -0.253325        -6.8933
 120   1.0000      -0.253024        -6.8851
 121   1.0000      -0.238624        -6.4933
 122   1.0000      -0.237192        -6.4543
 123   1.0000      -0.228861        -6.2276
 124   1.0000      -0.223668        -6.0863
 125   1.0000      -0.221738        -6.0338
 126   1.0000      -0.219912        -5.9841
 127   1.0000      -0.213518        -5.8101
 128   1.0000      -0.206734        -5.6255
 129   1.0000      -0.189064        -5.1447
 130   1.0000      -0.188612        -5.1324
 131   1.0000      -0.188207        -5.1214
 132   1.0000      -0.182406        -4.9635
 133   1.0000      -0.176384        -4.7997
 134   1.0000      -0.160220        -4.3598
 135   1.0000      -0.154634        -4.2078
 136   1.0000      -0.144431        -3.9302
 137   1.0000      -0.138696        -3.7741
 138   1.0000      -0.135511        -3.6874
 139   1.0000      -0.127975        -3.4824
 140   1.0000      -0.122525        -3.3341
 141   1.0000      -0.115893        -3.1536
 142   1.0000      -0.112190        -3.0529
 143   1.0000      -0.110177        -2.9981
 144   1.0000      -0.099182        -2.6989
 145   1.0000      -0.098209        -2.6724
 146   1.0000      -0.095518        -2.5992
 147   1.0000      -0.094488        -2.5711
 148   1.0000      -0.075189        -2.0460
 149   1.0000      -0.072019        -1.9597
 150   1.0000      -0.059344        -1.6148
 151   1.0000      -0.047154        -1.2831
 152   1.0000      -0.043155        -1.1743
 153   1.0000      -0.038959        -1.0601
 154   1.0000      -0.030981        -0.8430
 155   1.0000      -0.027598        -0.7510
 156   1.0000      -0.023527        -0.6402
 157   1.0000      -0.014354        -0.3906
 158   1.0000       0.017768         0.4835
 159   1.0000       0.037645         1.0244
 160   0.0000       0.130030         3.5383
 161   0.0000       0.141298         3.8449
 162   0.0000       0.155511         4.2317
 163   0.0000       0.157815         4.2944
 164   0.0000       0.165933         4.5153

MULLIKEN ATOMIC CHARGES AND SPIN POPULATIONS
--------------------------------------------
   0 V :    0.464118    1.224238
   1 S :   -0.339938   -0.028110
   2 S :   -0.222815   -0.020634
   3 S :   -0.341705   -0.027658
   4 S :   -0.221372   -0.021235
   5 O :   -0.461424   -0.159400
   6 C :   -0.084962    0.006592
   7 C :   -0.094149    0.006170
   8 C :   -0.086460    0.009076
   9 C :   -0.090128    0.007949
  10 S :    0.096329   -0.000730
  11 S :    0.098421   -0.000698
  12 S :    0.103538    0.001455
  13 S :    0.100827    0.001547
  14 C :   -0.247601   -0.000048
  15 C :   -0.204236    0.003468
  16 C :   -0.141333    0.000059
  17 C :   -0.223990   -0.001988
  18 S :    0.009831   -0.000079
  19 S :    0.010358   -0.000077
  20 S :    0.009622    0.000081
  21 S :    0.009445    0.000070
  22 C :   -0.294910   -0.000009
  23 C :   -0.293495   -0.000008
  24 C :   -0.154804   -0.000016
  25 H :    0.141140   -0.000001
  26 H :    0.109240   -0.000004
  27 H :    0.080805   -0.000000
  28 H :    0.084928   -0.000000
  29 H :    0.108398   -0.000005
  30 H :    0.139883   -0.000002
  31 C :   -0.297622    0.000007
  32 C :   -0.298410    0.000003
  33 C :   -0.175758   -0.000006
  34 H :    0.144572    0.000003
  35 H :    0.117426   -0.000002
  36 H :    0.100193    0.000004
  37 H :    0.084174   -0.000011
  38 H :    0.117343   -0.000002
  39 H :    0.144521    0.000002
Sum of atomic charges         :   -2.0000000

LOEWDIN ATOMIC CHARGES AND SPIN POPULATIONS
-------------------------------------------
   0 V :   -0.121063    1.180873
   1 S :   -0.000556   -0.018702
   2 S :    0.138482   -0.014666
   3 S :   -0.002897   -0.018404
   4 S :    0.139865   -0.015040
   5 O :   -0.332412   -0.144289
   6 C :   -0.535647    0.007966
   7 C :   -0.539071    0.007666
   8 C :   -0.546491    0.007234
   9 C :   -0.546804    0.006684
  10 S :    0.462914   -0.001072
  11 S :    0.464781   -0.001064
  12 S :    0.473491    0.001272
  13 S :    0.470278    0.001316
  14 C :   -0.462873   -0.000272
  15 C :   -0.471846    0.000338
  16 C :   -0.615078   -0.000101
  17 C :   -0.628022    0.000388
  18 S :    0.365370   -0.000082
  19 S :    0.366677   -0.000079
  20 S :    0.355242    0.000040
  21 S :    0.353779    0.000032
  22 C :   -0.285043   -0.000009
  23 C :   -0.285418   -0.000009
  24 C :   -0.174524    0.000003
  25 H :    0.061833   -0.000001
  26 H :    0.052883   -0.000003
  27 H :    0.058810    0.000002
  28 H :    0.059245    0.000000
  29 H :    0.052859   -0.000003
  30 H :    0.061399   -0.000001
  31 C :   -0.283147    0.000003
  32 C :   -0.282806    0.000002
  33 C :   -0.179033   -0.000008
  34 H :    0.063032   -0.000001
  35 H :    0.054383   -0.000003
  36 H :    0.061879   -0.000001
  37 H :    0.058155   -0.000002
  38 H :    0.054471   -0.000003
  39 H :    0.062906   -0.000001

  Mayer bond orders larger than 0.100000
B(  0-V ,  1-S ) :   0.6649 B(  0-V ,  2-S ) :   0.8810 B(  0-V ,  3-S ) :   0.6531
B(  0-V ,  4-S ) :   0.8864 B(  0-V ,  5-O ) :   2.1529 B(  1-S ,  8-C ) :   1.1461
B(  2-S ,  6-C ) :   1.0766 B(  3-S ,  9-C ) :   1.1497 B(  4-S ,  7-C ) :   1.0768
B(  6-C ,  7-C ) :   1.7181 B(  6-C , 10-S ) :   0.9145 B(  7-C , 11-S ) :   0.9181
B(  8-C ,  9-C ) :   1.6561 B(  8-C , 13-S ) :   0.9475 B(  9-C , 12-S ) :   0.9536
B( 10-S , 14-C ) :   1.2350 B( 11-S , 14-C ) :   1.2371 B( 12-S , 15-C ) :   1.2460
B( 13-S , 15-C ) :   1.2455 B( 14-C , 16-C ) :   1.4596 B( 15-C , 17-C ) :   1.4581
B( 16-C , 18-S ) :   1.0669 B( 16-C , 19-S ) :   1.0706 B( 17-C , 20-S ) :   1.0946
B( 17-C , 21-S ) :   1.0948 B( 18-S , 32-C ) :   0.9911 B( 19-S , 31-C ) :   0.9910
B( 20-S , 23-C ) :   0.9951 B( 21-S , 22-C ) :   0.9942 B( 22-C , 24-C ) :   0.9163
B( 22-C , 25-H ) :   0.9652 B( 22-C , 26-H ) :   0.9648 B( 23-C , 24-C ) :   0.9173
B( 23-C , 29-H ) :   0.9649 B( 23-C , 30-H ) :   0.9648 B( 24-C , 27-H ) :   0.9642
B( 24-C , 28-H ) :   0.9730 B( 31-C , 33-C ) :   0.9100 B( 31-C , 38-H ) :   0.9648
B( 31-C , 39-H ) :   0.9677 B( 32-C , 33-C ) :   0.9099 B( 32-C , 34-H ) :   0.9675
B( 32-C , 35-H ) :   0.9647 B( 33-C , 36-H ) :   0.9709 B( 33-C , 37-H ) :   0.9592

FINAL SINGLE POINT ENERGY     -6337.673305378028

DIPOLE MOMENT
-------------
                                X             Y             Z
Electronic contribution:     -9.76935       8.50729       4.47089
Nuclear contribution   :     10.58503     -10.23290      -4.38242
                        -----------------------------------------
Total Dipole Moment    :      0.81568      -1.72561       0.08847
                        -----------------------------------------
Magnitude (a.u.)       :      1.91073
Magnitude (Debye)      :      4.85669

Rotational constants in cm-1:     0.010647     0.000804     0.000783
Rotational constants in MHz :   319.179413    24.117562    23.469138

                             ****ORCA TERMINATED NORMALLY****
TOTAL RUN TIME: 0 days 1 hours 6 minutes 1 seconds 354 msec
