                         Program Version 5.0.4 -  RELEASE  -
|  1> ! nofrozencore ReducedPop printbasis
|  2> ! B3LYP TZVP
|  3>
|  4> %basis
|  5> newgto V "CP(PPP)" end
|  6> end
|  7>
|  8> %pal
|  9> nprocs 8
| 10> end
| 11>
| 12> % sym SymThresh 1e-2 end
| 13> * xyz -2 2
| 14> V -0.915471162365381 0.09283252699874095 0.6263111119311282
| 15> S -0.6848155123221277 -2.365853572519978 0.48266032082453014
| 16> S 1.0332016566747795 0.0004333197198551786 2.1498405096082154
| 17> S -1.757418115383459 -0.026796489091844327 -1.6991630396619986
| 18> S -0.002934703996388735 2.2654605299992614 -0.10310199862718027
| 19> O -2.1649516525620034 0.3940724355853294 1.560272272943058
| 20> C 1.4663400120262897 1.7050845543072948 2.1635399036425085
| 21> C 1.0530557972593495 2.61169483236117 1.2579333801531132
| 22> C -1.4962136971427813 -2.6957858084200366 -1.0419705977451863
| 23> C -1.92103968951686 -1.7622419751503118 -1.9130394001588922
| 24> S 2.6020099431161796 2.2981314349531887 3.422901956308643
| 25> S 1.7083436766647104 4.27362476115907 1.4304739828622468
| 26> S -2.6720787638955104 -2.364166903812015 -3.4293692125420905
| 27> S -1.74899998521828 -4.408721556883553 -1.5212601045536944
| 28> C 2.7160112012326216 3.966499467411048 2.8496775909528442
| 29> C -2.460414295230653 -4.088981452608081 -3.1077759422327667
| 30> C 3.491152931263836 4.923545367478658 3.445115329690483
| 31> C -2.818545021002031 -5.071565740746721 -3.9887927648437467
| 32> S 4.448570110657629 4.586463596045168 4.910035507026399
| 33> S 3.5720859285395314 6.5899654870159585 2.8193182320372063
| 34> S -2.5826454268870087 -6.798999660183044 -3.620574371340337
| 35> S -3.5132320260104897 -4.69523060138319 -5.586650948165912
| 36> C -2.167604406216501 -5.409490205712989 -6.638942031211002
| 37> C -1.3801785212870648 -7.201973695345576 -4.9696538802895756
| 38> C -1.9036517129609287 -6.893861099637811 -6.374228582264875
| 39> H -1.2630356658429829 -4.818728411746107 -6.4780162286556076
| 40> H -2.4944731027724756 -5.259421509399461 -7.6709740500173735
| 41> H -1.1576595594170767 -7.243027199289766 -7.101858334893122
| 42> H -2.8225794272606404 -7.461050309443442 -6.5527715730961456
| 43> H -1.1766254350746859 -8.270812712247764 -4.867204840552847
| 44> H -0.45432381059007754 -6.657481077954246 -4.77132501460549
| 45> C 2.8694307619729957 7.490526879107144 4.272252532417351
| 46> C 3.58380341910308 5.770334826212312 6.046722679229171
| 47> C 3.6552572931396643 7.1573663265504965 5.647667027265979
| 48> H 2.600290225384683 5.314519316879727 6.215298255843087
| 49> H 4.130203739312967 5.777229238606021 6.998129915376383
| 50> H 4.551598166606591 7.808550351337664 5.1822936278365175
| 51> H 3.1249548668341953 7.98183219785869 6.227637122823116
| 52> H 2.8419441285891294 8.533566503634683 3.9278508740928415
| 53> H 1.8405973904016968 7.164260870310483 4.491851230341844
| 54> *
| 55>
| 56> % eprnmr
| 57> gtensor true
| 58> Nuclei = all H {aiso,adip,aorb,fgrad,rho}
| 59> Nuclei = all V {aiso,adip,aorb,fgrad,rho}
| 60> end
| 61>
| 62>                          ****END OF INPUT****

CARTESIAN COORDINATES (ANGSTROEM)
---------------------------------
  V     -0.911861    0.094028    0.625824
  S     -0.681206   -2.364658    0.482173
  S      1.036812    0.001629    2.149353
  S     -1.753808   -0.025601   -1.699650
  S      0.000675    2.266656   -0.103589
  O     -2.161342    0.395268    1.559785
  C      1.469950    1.706280    2.163053
  C      1.056666    2.612890    1.257446
  C     -1.492604   -2.694590   -1.042458
  C     -1.917430   -1.761047   -1.913527
  S      2.605620    2.299327    3.422415
  S      1.711954    4.274820    1.429987
  S     -2.668469   -2.362971   -3.429856
  S     -1.745390   -4.407526   -1.521747
  C      2.719621    3.967695    2.849190
  C     -2.456804   -4.087786   -3.108263
  C      3.494763    4.924741    3.444628
  C     -2.814935   -5.070370   -3.989280
  S      4.452180    4.587659    4.909548
  S      3.575696    6.591161    2.818831
  S     -2.579035   -6.797804   -3.621062
  S     -3.509622   -4.694035   -5.587138
  C     -2.163994   -5.408295   -6.639429
  C     -1.376569   -7.200778   -4.970141
  C     -1.900042   -6.892666   -6.374716
  H     -1.259426   -4.817533   -6.478503
  H     -2.490863   -5.258226   -7.671461
  H     -1.154050   -7.241832   -7.102346
  H     -2.818969   -7.459855   -6.553259
  H     -1.173015   -8.269617   -4.867692
  H     -0.450714   -6.656286   -4.771812
  C      2.873041    7.491722    4.271765
  C      3.587413    5.771530    6.046236
  C      3.658867    7.158562    5.647180
  H      2.603900    5.315715    6.214811
  H      4.133814    5.778425    6.997643
  H      4.555208    7.809746    5.181806
  H      3.128565    7.983028    6.227150
  H      2.845554    8.534762    3.927364
  H      1.844207    7.165456    4.491364

 Total Charge           Charge          ....   -2
 Multiplicity           Mult            ....    2
 Number of Electrons    NEL             ....  321
 Basis Dimension        Dim             ....  681

ORBITAL ENERGIES
----------------
                 SPIN UP ORBITALS
  NO   OCC          E(Eh)            E(eV)
   0   1.0000    -196.674955     -5351.7976
   1   1.0000     -88.736355     -2414.6390
   2   1.0000     -88.733258     -2414.5547
   3   1.0000     -88.733116     -2414.5508
   4   1.0000     -88.732695     -2414.5394
   5   1.0000     -88.731199     -2414.4987
   6   1.0000     -88.730653     -2414.4838
   7   1.0000     -88.730133     -2414.4697
   8   1.0000     -88.730078     -2414.4682
   9   1.0000     -88.639997     -2412.0169
  10   1.0000     -88.639905     -2412.0144
  11   1.0000     -88.639853     -2412.0130
  12   1.0000     -88.639406     -2412.0009
  13   1.0000     -22.050350      -600.0205
  14   1.0000     -18.890288      -514.0309
  15   1.0000     -18.556798      -504.9562
  16   1.0000     -18.551625      -504.8154
  17   1.0000     -18.551525      -504.8127
  18   1.0000     -10.076629      -274.1990
  19   1.0000     -10.075900      -274.1792
  20   1.0000     -10.069481      -274.0045
  21   1.0000     -10.065292      -273.8905
  22   1.0000     -10.064923      -273.8805
  23   1.0000     -10.063297      -273.8362
  24   1.0000     -10.063238      -273.8346
  25   1.0000     -10.051145      -273.5056
  26   1.0000     -10.049147      -273.4512
  27   1.0000     -10.048437      -273.4319
  28   1.0000     -10.018767      -272.6245
  29   1.0000     -10.017950      -272.6023
  30   1.0000     -10.017797      -272.5981
  31   1.0000     -10.017155      -272.5807
  32   1.0000      -7.789717      -211.9690
  33   1.0000      -7.786697      -211.8868
  34   1.0000      -7.786580      -211.8836
  35   1.0000      -7.786165      -211.8723
  36   1.0000      -7.784457      -211.8259
  37   1.0000      -7.783916      -211.8111
  38   1.0000      -7.783396      -211.7970
  39   1.0000      -7.783360      -211.7960
  40   1.0000      -7.694327      -209.3733
  41   1.0000      -7.694184      -209.3694
  42   1.0000      -7.694079      -209.3665
  43   1.0000      -7.693749      -209.3575
  44   1.0000      -5.754764      -156.5951
  45   1.0000      -5.751693      -156.5115
  46   1.0000      -5.751569      -156.5081
  47   1.0000      -5.751385      -156.5032
  48   1.0000      -5.751106      -156.4956
  49   1.0000      -5.749395      -156.4490
  50   1.0000      -5.748860      -156.4344
  51   1.0000      -5.748343      -156.4204
  52   1.0000      -5.748313      -156.4195
  53   1.0000      -5.748262      -156.4182
  54   1.0000      -5.748152      -156.4152
  55   1.0000      -5.747662      -156.4018
  56   1.0000      -5.744970      -156.3286
  57   1.0000      -5.744419      -156.3136
  58   1.0000      -5.744341      -156.3115
  59   1.0000      -5.743917      -156.2999
  60   1.0000      -5.743875      -156.2988
  61   1.0000      -5.741502      -156.2342
  62   1.0000      -5.741373      -156.2307
  63   1.0000      -5.741094      -156.2231
  64   1.0000      -5.740298      -156.2015
  65   1.0000      -5.739742      -156.1863
  66   1.0000      -5.739207      -156.1718
  67   1.0000      -5.739180      -156.1710
  68   1.0000      -5.659634      -154.0065
  69   1.0000      -5.659502      -154.0029
  70   1.0000      -5.659424      -154.0008
  71   1.0000      -5.659049      -153.9906
  72   1.0000      -5.652960      -153.8249
  73   1.0000      -5.652851      -153.8219
  74   1.0000      -5.652750      -153.8192
  75   1.0000      -5.652425      -153.8103
  76   1.0000      -5.651645      -153.7891
  77   1.0000      -5.651505      -153.7853
  78   1.0000      -5.651369      -153.7816
  79   1.0000      -5.651062      -153.7732
  80   1.0000      -2.444005       -66.5047
  81   1.0000      -1.485311       -40.4174
  82   1.0000      -1.473648       -40.1000
  83   1.0000      -1.472829       -40.0777
  84   1.0000      -0.711158       -19.3516
  85   1.0000      -0.709542       -19.3076
  86   1.0000      -0.687662       -18.7122
  87   1.0000      -0.685513       -18.6538
  88   1.0000      -0.649878       -17.6841
  89   1.0000      -0.633222       -17.2308
  90   1.0000      -0.631264       -17.1776
  91   1.0000      -0.618816       -16.8388
  92   1.0000      -0.617174       -16.7941
  93   1.0000      -0.575183       -15.6515
  94   1.0000      -0.574522       -15.6335
  95   1.0000      -0.573725       -15.6118
  96   1.0000      -0.572716       -15.5844
  97   1.0000      -0.499585       -13.5944
  98   1.0000      -0.496484       -13.5100
  99   1.0000      -0.495887       -13.4938
 100   1.0000      -0.494336       -13.4516
 101   1.0000      -0.480612       -13.0781
 102   1.0000      -0.477680       -12.9983
 103   1.0000      -0.446460       -12.1488
 104   1.0000      -0.441091       -12.0027
 105   1.0000      -0.416013       -11.3203
 106   1.0000      -0.410915       -11.1816
 107   1.0000      -0.355189        -9.6652
 108   1.0000      -0.352983        -9.6052
 109   1.0000      -0.327392        -8.9088
 110   1.0000      -0.326460        -8.8834
 111   1.0000      -0.319853        -8.7036
 112   1.0000      -0.315418        -8.5830
 113   1.0000      -0.313181        -8.5221
 114   1.0000      -0.303890        -8.2693
 115   1.0000      -0.296683        -8.0732
 116   1.0000      -0.292222        -7.9518
 117   1.0000      -0.268221        -7.2987
 118   1.0000      -0.257312        -7.0018
 119   1.0000      -0.256823        -6.9885
 120   1.0000      -0.254318        -6.9203
 121   1.0000      -0.235612        -6.4113
 122   1.0000      -0.234400        -6.3784
 123   1.0000      -0.230466        -6.2713
 124   1.0000      -0.221509        -6.0276
 125   1.0000      -0.219851        -5.9825
 126   1.0000      -0.216862        -5.9011
 127   1.0000      -0.211996        -5.7687
 128   1.0000      -0.192992        -5.2516
 129   1.0000      -0.189178        -5.1478
 130   1.0000      -0.187250        -5.0953
 131   1.0000      -0.184051        -5.0083
 132   1.0000      -0.180757        -4.9187
 133   1.0000      -0.175703        -4.7811
 134   1.0000      -0.159508        -4.3404
 135   1.0000      -0.151620        -4.1258
 136   1.0000      -0.146966        -3.9991
 137   1.0000      -0.135274        -3.6810
 138   1.0000      -0.134193        -3.6516
 139   1.0000      -0.133228        -3.6253
 140   1.0000      -0.125163        -3.4059
 141   1.0000      -0.121224        -3.2987
 142   1.0000      -0.113580        -3.0907
 143   1.0000      -0.109742        -2.9862
 144   1.0000      -0.099990        -2.7209
 145   1.0000      -0.098275        -2.6742
 146   1.0000      -0.097420        -2.6509
 147   1.0000      -0.094846        -2.5809
 148   1.0000      -0.074623        -2.0306
 149   1.0000      -0.067839        -1.8460
 150   1.0000      -0.067255        -1.8301
 151   1.0000      -0.052467        -1.4277
 152   1.0000      -0.045700        -1.2436
 153   1.0000      -0.037725        -1.0266
 154   1.0000      -0.037192        -1.0120
 155   1.0000      -0.031533        -0.8581
 156   1.0000      -0.025063        -0.6820
 157   1.0000      -0.019190        -0.5222
 158   1.0000      -0.015587        -0.4241
 159   1.0000       0.020238         0.5507
 160   1.0000       0.041113         1.1188
 161   0.0000       0.134484         3.6595
 162   0.0000       0.137339         3.7372
 163   0.0000       0.155839         4.2406
 164   0.0000       0.162290         4.4161
 165   0.0000       0.169234         4.6051

                 SPIN DOWN ORBITALS
  NO   OCC          E(Eh)            E(eV)
   0   1.0000    -196.675101     -5351.8016
   1   1.0000     -88.736356     -2414.6390
   2   1.0000     -88.733258     -2414.5547
   3   1.0000     -88.733117     -2414.5509
   4   1.0000     -88.732696     -2414.5394
   5   1.0000     -88.731207     -2414.4989
   6   1.0000     -88.730662     -2414.4841
   7   1.0000     -88.730141     -2414.4699
   8   1.0000     -88.730086     -2414.4684
   9   1.0000     -88.640137     -2412.0208
  10   1.0000     -88.640042     -2412.0182
  11   1.0000     -88.639994     -2412.0169
  12   1.0000     -88.639545     -2412.0046
  13   1.0000     -22.035421      -599.6143
  14   1.0000     -18.894067      -514.1337
  15   1.0000     -18.551533      -504.8129
  16   1.0000     -18.535593      -504.3791
  17   1.0000     -18.535409      -504.3741
  18   1.0000     -10.076624      -274.1989
  19   1.0000     -10.075899      -274.1791
  20   1.0000     -10.069480      -274.0045
  21   1.0000     -10.065292      -273.8905
  22   1.0000     -10.064922      -273.8805
  23   1.0000     -10.063297      -273.8362
  24   1.0000     -10.063238      -273.8346
  25   1.0000     -10.051145      -273.5056
  26   1.0000     -10.049135      -273.4509
  27   1.0000     -10.048433      -273.4318
  28   1.0000     -10.018528      -272.6180
  29   1.0000     -10.017736      -272.5964
  30   1.0000     -10.017574      -272.5921
  31   1.0000     -10.016943      -272.5749
  32   1.0000      -7.789717      -211.9690
  33   1.0000      -7.786698      -211.8868
  34   1.0000      -7.786581      -211.8836
  35   1.0000      -7.786166      -211.8723
  36   1.0000      -7.784467      -211.8261
  37   1.0000      -7.783926      -211.8114
  38   1.0000      -7.783405      -211.7972
  39   1.0000      -7.783370      -211.7963
  40   1.0000      -7.694457      -209.3768
  41   1.0000      -7.694312      -209.3729
  42   1.0000      -7.694210      -209.3701
  43   1.0000      -7.693878      -209.3611
  44   1.0000      -5.754765      -156.5951
  45   1.0000      -5.751694      -156.5116
  46   1.0000      -5.751570      -156.5082
  47   1.0000      -5.751387      -156.5032
  48   1.0000      -5.751107      -156.4956
  49   1.0000      -5.749406      -156.4493
  50   1.0000      -5.748871      -156.4347
  51   1.0000      -5.748354      -156.4207
  52   1.0000      -5.748323      -156.4198
  53   1.0000      -5.748263      -156.4182
  54   1.0000      -5.748153      -156.4152
  55   1.0000      -5.747664      -156.4019
  56   1.0000      -5.744984      -156.3290
  57   1.0000      -5.744433      -156.3140
  58   1.0000      -5.744342      -156.3115
  59   1.0000      -5.743931      -156.3003
  60   1.0000      -5.743889      -156.2992
  61   1.0000      -5.741503      -156.2342
  62   1.0000      -5.741374      -156.2307
  63   1.0000      -5.741094      -156.2231
  64   1.0000      -5.740306      -156.2017
  65   1.0000      -5.739751      -156.1866
  66   1.0000      -5.739213      -156.1719
  67   1.0000      -5.739186      -156.1712
  68   1.0000      -5.659772      -154.0102
  69   1.0000      -5.659644      -154.0067
  70   1.0000      -5.659566      -154.0046
  71   1.0000      -5.659191      -153.9944
  72   1.0000      -5.653347      -153.8354
  73   1.0000      -5.653203      -153.8315
  74   1.0000      -5.653132      -153.8295
  75   1.0000      -5.652786      -153.8201
  76   1.0000      -5.651732      -153.7914
  77   1.0000      -5.651610      -153.7881
  78   1.0000      -5.651462      -153.7841
  79   1.0000      -5.651168      -153.7761
  80   1.0000      -2.399129       -65.2836
  81   1.0000      -1.466025       -39.8926
  82   1.0000      -1.411274       -38.4027
  83   1.0000      -1.411115       -38.3984
  84   1.0000      -0.711134       -19.3509
  85   1.0000      -0.709526       -19.3072
  86   1.0000      -0.687605       -18.7107
  87   1.0000      -0.685471       -18.6526
  88   1.0000      -0.657983       -17.9046
  89   1.0000      -0.633152       -17.2289
  90   1.0000      -0.631205       -17.1760
  91   1.0000      -0.618811       -16.8387
  92   1.0000      -0.617176       -16.7942
  93   1.0000      -0.575151       -15.6507
  94   1.0000      -0.574499       -15.6329
  95   1.0000      -0.573647       -15.6097
  96   1.0000      -0.572648       -15.5825
  97   1.0000      -0.499613       -13.5951
  98   1.0000      -0.496502       -13.5105
  99   1.0000      -0.495933       -13.4950
 100   1.0000      -0.494365       -13.4523
 101   1.0000      -0.480816       -13.0837
 102   1.0000      -0.477933       -13.0052
 103   1.0000      -0.446489       -12.1496
 104   1.0000      -0.441130       -12.0038
 105   1.0000      -0.416012       -11.3202
 106   1.0000      -0.411020       -11.1844
 107   1.0000      -0.355184        -9.6651
 108   1.0000      -0.352974        -9.6049
 109   1.0000      -0.327375        -8.9083
 110   1.0000      -0.326451        -8.8832
 111   1.0000      -0.319781        -8.7017
 112   1.0000      -0.315433        -8.5834
 113   1.0000      -0.313177        -8.5220
 114   1.0000      -0.303852        -8.2682
 115   1.0000      -0.296652        -8.0723
 116   1.0000      -0.292218        -7.9516
 117   1.0000      -0.268167        -7.2972
 118   1.0000      -0.257172        -6.9980
 119   1.0000      -0.256769        -6.9870
 120   1.0000      -0.254271        -6.9191
 121   1.0000      -0.235551        -6.4097
 122   1.0000      -0.234367        -6.3774
 123   1.0000      -0.230429        -6.2703
 124   1.0000      -0.221418        -6.0251
 125   1.0000      -0.219571        -5.9748
 126   1.0000      -0.216559        -5.8929
 127   1.0000      -0.211847        -5.7647
 128   1.0000      -0.191113        -5.2004
 129   1.0000      -0.189049        -5.1443
 130   1.0000      -0.187173        -5.0932
 131   1.0000      -0.183814        -5.0018
 132   1.0000      -0.180641        -4.9155
 133   1.0000      -0.175619        -4.7788
 134   1.0000      -0.158897        -4.3238
 135   1.0000      -0.151455        -4.1213
 136   1.0000      -0.146890        -3.9971
 137   1.0000      -0.134425        -3.6579
 138   1.0000      -0.134067        -3.6481
 139   1.0000      -0.132985        -3.6187
 140   1.0000      -0.124589        -3.3902
 141   1.0000      -0.120896        -3.2897
 142   1.0000      -0.115362        -3.1391
 143   1.0000      -0.111317        -3.0291
 144   1.0000      -0.099991        -2.7209
 145   1.0000      -0.098592        -2.6828
 146   1.0000      -0.097408        -2.6506
 147   1.0000      -0.095167        -2.5896
 148   1.0000      -0.070800        -1.9266
 149   1.0000      -0.067822        -1.8455
 150   1.0000      -0.067253        -1.8301
 151   1.0000      -0.049881        -1.3573
 152   1.0000      -0.044763        -1.2181
 153   1.0000      -0.037776        -1.0279
 154   1.0000      -0.036621        -0.9965
 155   1.0000      -0.031572        -0.8591
 156   1.0000      -0.026098        -0.7102
 157   1.0000      -0.015797        -0.4299
 158   1.0000       0.020524         0.5585
 159   1.0000       0.040017         1.0889
 160   0.0000       0.134494         3.6598
 161   0.0000       0.137329         3.7369
 162   0.0000       0.154770         4.2115
 163   0.0000       0.157203         4.2777
 164   0.0000       0.163027         4.4362

MULLIKEN ATOMIC CHARGES AND SPIN POPULATIONS
--------------------------------------------
   0 V :    0.471480    1.210521
   1 S :   -0.291218   -0.022504
   2 S :   -0.289331   -0.025123
   3 S :   -0.289130   -0.023437
   4 S :   -0.284598   -0.025602
   5 O :   -0.467662   -0.146602
   6 C :   -0.078440    0.009692
   7 C :   -0.084783    0.008013
   8 C :   -0.083881    0.007748
   9 C :   -0.084649    0.007402
  10 S :    0.097409   -0.000581
  11 S :    0.104797   -0.000631
  12 S :    0.100097   -0.000392
  13 S :    0.099145   -0.000346
  14 C :   -0.214388    0.001492
  15 C :   -0.212063    0.000996
  16 C :   -0.188102   -0.000041
  17 C :   -0.190668   -0.000405
  18 S :    0.015151   -0.000112
  19 S :    0.008653   -0.000115
  20 S :    0.008318   -0.000068
  21 S :    0.008380   -0.000071
  22 C :   -0.300934   -0.000001
  23 C :   -0.300183   -0.000001
  24 C :   -0.157981   -0.000012
  25 H :    0.143348   -0.000001
  26 H :    0.113732   -0.000004
  27 H :    0.083540   -0.000001
  28 H :    0.092133   -0.000001
  29 H :    0.113411   -0.000005
  30 H :    0.142925   -0.000001
  31 C :   -0.345079    0.000191
  32 C :   -0.283917    0.000174
  33 C :   -0.145555   -0.000223
  34 H :    0.160494   -0.000016
  35 H :    0.113393    0.000019
  36 H :    0.078201    0.000028
  37 H :    0.081588    0.000013
  38 H :    0.120587    0.000025
  39 H :    0.135780   -0.000020
Sum of atomic charges         :   -2.0000000

LOEWDIN ATOMIC CHARGES AND SPIN POPULATIONS
-------------------------------------------
   0 V :   -0.155600    1.163892
   1 S :    0.079913   -0.014510
   2 S :    0.079282   -0.016010
   3 S :    0.081303   -0.015299
   4 S :    0.083794   -0.016246
   5 O :   -0.318966   -0.131517
   6 C :   -0.550055    0.009050
   7 C :   -0.551853    0.007938
   8 C :   -0.552391    0.008132
   9 C :   -0.552378    0.007667
  10 S :    0.470531   -0.000900
  11 S :    0.474841   -0.000954
  12 S :    0.471365   -0.000823
  13 S :    0.470563   -0.000830
  14 C :   -0.464861    0.000171
  15 C :   -0.465180   -0.000080
  16 C :   -0.623135    0.000474
  17 C :   -0.622100    0.000085
  18 S :    0.367041   -0.000089
  19 S :    0.357980   -0.000088
  20 S :    0.359039   -0.000073
  21 S :    0.358594   -0.000075
  22 C :   -0.283300   -0.000007
  23 C :   -0.283396   -0.000009
  24 C :   -0.176085   -0.000002
  25 H :    0.062542   -0.000001
  26 H :    0.053600   -0.000002
  27 H :    0.058021   -0.000002
  28 H :    0.060176   -0.000001
  29 H :    0.053582   -0.000002
  30 H :    0.062416   -0.000002
  31 C :   -0.306734    0.000045
  32 C :   -0.286787    0.000037
  33 C :   -0.201358    0.000007
  34 H :    0.074116   -0.000001
  35 H :    0.061329    0.000009
  36 H :    0.084122    0.000006
  37 H :    0.064378    0.000001
  38 H :    0.051997    0.000008
  39 H :    0.053653   -0.000001

  Mayer bond orders larger than 0.100000
B(  0-V ,  1-S ) :   0.7722 B(  0-V ,  2-S ) :   0.7702 B(  0-V ,  3-S ) :   0.7655
B(  0-V ,  4-S ) :   0.7777 B(  0-V ,  5-O ) :   2.1488 B(  1-S ,  8-C ) :   1.1034
B(  2-S ,  6-C ) :   1.1046 B(  3-S ,  9-C ) :   1.1063 B(  4-S ,  7-C ) :   1.1057
B(  6-C ,  7-C ) :   1.6834 B(  6-C , 10-S ) :   0.9357 B(  7-C , 11-S ) :   0.9391
B(  8-C ,  9-C ) :   1.6985 B(  8-C , 13-S ) :   0.9335 B(  9-C , 12-S ) :   0.9354
B( 10-S , 14-C ) :   1.2462 B( 11-S , 14-C ) :   1.2518 B( 12-S , 15-C ) :   1.2466
B( 13-S , 15-C ) :   1.2466 B( 14-C , 16-C ) :   1.4661 B( 15-C , 17-C ) :   1.4535
B( 16-C , 18-S ) :   1.0801 B( 16-C , 19-S ) :   1.0824 B( 17-C , 20-S ) :   1.0882
B( 17-C , 21-S ) :   1.0890 B( 18-S , 32-C ) :   0.9615 B( 19-S , 31-C ) :   0.9990
B( 20-S , 23-C ) :   0.9915 B( 21-S , 22-C ) :   0.9910 B( 22-C , 24-C ) :   0.9128
B( 22-C , 25-H ) :   0.9657 B( 22-C , 26-H ) :   0.9655 B( 23-C , 24-C ) :   0.9137
B( 23-C , 29-H ) :   0.9656 B( 23-C , 30-H ) :   0.9655 B( 24-C , 27-H ) :   0.9625
B( 24-C , 28-H ) :   0.9720 B( 31-C , 33-C ) :   0.8546 B( 31-C , 38-H ) :   0.9609
B( 31-C , 39-H ) :   0.9590 B( 32-C , 33-C ) :   0.9719 B( 32-C , 34-H ) :   0.9571
B( 32-C , 35-H ) :   0.9666 B( 33-C , 36-H ) :   0.9535 B( 33-C , 37-H ) :   0.9649

FINAL SINGLE POINT ENERGY     -6337.657156991984

DIPOLE MOMENT
-------------
                                X             Y             Z
Electronic contribution:    -12.03654      -2.22090       6.21354
Nuclear contribution   :     13.33172       2.29488      -6.98133
                        -----------------------------------------
Total Dipole Moment    :      1.29518       0.07397      -0.76779
                        -----------------------------------------
Magnitude (a.u.)       :      1.50747
Magnitude (Debye)      :      3.83168

Rotational constants in cm-1:     0.010759     0.000804     0.000783
Rotational constants in MHz :   322.550210    24.116075    23.486470

                             ****ORCA TERMINATED NORMALLY****
TOTAL RUN TIME: 0 days 1 hours 1 minutes 35 seconds 800 msec
