                         Program Version 5.0.4 -  RELEASE  -
|  1> ! nofrozencore ReducedPop printbasis
|  2> ! B3LYP TZVP
|  3>
|  4> %basis
|  5> newgto V "CP(PPP)" end
|  6> end
|  7>
|  8> %pal
|  9> nprocs 8
| 10> end
| 11>
| 12> % sym SymThresh 1e-2 end
| 13> * xyz -2 2
| 14> V -1.0008257183643028 -0.1505437819959888 -0.41279704686070756
| 15> S -0.9044349367348116 -1.9257187648549183 1.3063625241613241
| 16> S -1.2250616377079317 1.4225425348908873 1.4873960015008005
| 17> S 0.48490754021157934 -1.6112718212055495 -1.7490089100135846
| 18> S 0.235802886561509 1.6694102424224906 -1.5331277499181668
| 19> O -2.443895607544975 -0.22708564970180303 -1.0750647398309956
| 20> C -0.8399130260351685 2.9325759781325527 0.6722747724408139
| 21> C -0.2518922471509313 3.030442123972641 -0.5347031031960104
| 22> C -0.18139226366446204 -3.2365977612450214 0.3816274398092926
| 23> C 0.3755752281988337 -3.1094854523285607 -0.8369022021212744
| 24> S -1.1837964416904374 4.480391315327938 1.517774858873691
| 25> S 0.11839339033494904 4.687984284891614 -1.1149453580979927
| 26> S 1.1143481927536765 -4.589142476120924 -1.5380509889481329
| 27> S -0.10984040064877997 -4.871197012947692 1.1249017115307456
| 28> C -0.514193833843276 5.557988014788042 0.28689272042705255
| 29> C 0.8231817591589761 -5.652004179389369 -0.15713117666791107
| 30> C -0.4977398956278697 6.921290180419315 0.39817391385741907
| 31> C 1.2709334127772691 -6.942415959162949 -0.08914488096307073
| 32> S -1.213127120011223 7.764899553674835 1.7954069554072203
| 33> S 0.18529909553976226 7.958800597669531 -0.8794950877118386
| 34> S 1.0012819126487071 -7.959405602261371 1.3492667625517327
| 35> S 2.2741745629652015 -7.659919662039931 -1.3765658869872908
| 36> C 3.8512907124542064 -7.826204962686865 -0.41063871482174263
| 37> C 2.7663643953838446 -8.08725001471449 1.9117082272394634
| 38> C 3.709301408187915 -8.675065241104233 0.8567627261653511
| 39> H 4.205297841604269 -6.818526467959321 -0.1695837974531795
| 40> H 4.569403119438391 -8.287148827842781 -1.0951067808062016
| 41> H 4.707496228171718 -8.781685903659685 1.3113150960191877
| 42> H 3.366863997749701 -9.681276190222668 0.5830740556443553
| 43> H 2.7467133520046345 -8.7277263676164 2.7981376008437997
| 44> H 3.095203447952428 -7.088575951516807 2.217145734335475
| 45> C -1.3661242067563333 8.840135243572423 -1.3747768795525075
| 46> C -2.5590260803775595 8.668760008021387 0.8991045405927459
| 47> C -2.0491171408439706 9.578362245238457 -0.22129128862406736
| 48> H -3.262281645437425 7.928896075589482 0.5097400136469464
| 49> H -3.071823483316964 9.259157614238234 1.6627444616295004
| 50> H -1.3570832665350556 10.315937586125557 0.19791861343130476
| 51> H -2.907156763361519 10.13082223754707 -0.6299338442607922
| 52> H -1.0638893494850798 9.547018510189233 -2.151683992104177
| 53> H -2.041888086087852 8.10798964999333 -1.8230066381479575
| 54> *
| 55>
| 56> % eprnmr
| 57> gtensor true
| 58> Nuclei = all H {aiso,adip,aorb,fgrad,rho}
| 59> Nuclei = all V {aiso,adip,aorb,fgrad,rho}
| 60> end
| 61>
| 62>                          ****END OF INPUT****

CARTESIAN COORDINATES (ANGSTROEM)
---------------------------------
  V     -0.998317   -0.148006   -0.411395
  S     -0.901926   -1.923181    1.307765
  S     -1.222553    1.425080    1.488798
  S      0.487416   -1.608734   -1.747607
  S      0.238312    1.671948   -1.531726
  O     -2.441387   -0.224548   -1.073663
  C     -0.837404    2.935113    0.673677
  C     -0.249383    3.032979   -0.533301
  C     -0.178883   -3.234060    0.383030
  C      0.378084   -3.106948   -0.835500
  S     -1.181288    4.482929    1.519177
  S      0.120902    4.690522   -1.113543
  S      1.116857   -4.586605   -1.536649
  S     -0.107332   -4.868660    1.126304
  C     -0.511685    5.560525    0.288295
  C      0.825691   -5.649467   -0.155729
  C     -0.495231    6.923828    0.399576
  C      1.273442   -6.939879   -0.087743
  S     -1.210618    7.767437    1.796809
  S      0.187808    7.961338   -0.878093
  S      1.003791   -7.956868    1.350669
  S      2.276683   -7.657382   -1.375164
  C      3.853800   -7.823668   -0.409237
  C      2.768873   -8.084713    1.913110
  C      3.711810   -8.672528    0.858165
  H      4.207807   -6.815989   -0.168182
  H      4.571912   -8.284611   -1.093705
  H      4.710005   -8.779149    1.312717
  H      3.369373   -9.678739    0.584476
  H      2.749222   -8.725189    2.799540
  H      3.097712   -7.086039    2.218548
  C     -1.363615    8.842673   -1.373375
  C     -2.556517    8.671297    0.900507
  C     -2.046608    9.580900   -0.219889
  H     -3.259773    7.931433    0.511142
  H     -3.069315    9.261695    1.664147
  H     -1.354574   10.318475    0.199321
  H     -2.904648   10.133360   -0.628532
  H     -1.061381    9.549556   -2.150282
  H     -2.039379    8.110527   -1.821604

 Total Charge           Charge          ....   -2
 Multiplicity           Mult            ....    2
 Number of Electrons    NEL             ....  321
 Basis Dimension        Dim             ....  681

ORBITAL ENERGIES
----------------
                 SPIN UP ORBITALS
  NO   OCC          E(Eh)            E(eV)
   0   1.0000    -196.675108     -5351.8018
   1   1.0000     -88.732974     -2414.5470
   2   1.0000     -88.732946     -2414.5462
   3   1.0000     -88.732532     -2414.5350
   4   1.0000     -88.732436     -2414.5323
   5   1.0000     -88.730290     -2414.4739
   6   1.0000     -88.730270     -2414.4734
   7   1.0000     -88.730222     -2414.4721
   8   1.0000     -88.730100     -2414.4688
   9   1.0000     -88.639928     -2412.0151
  10   1.0000     -88.639605     -2412.0063
  11   1.0000     -88.639456     -2412.0022
  12   1.0000     -88.639337     -2411.9990
  13   1.0000     -22.050522      -600.0252
  14   1.0000     -18.890077      -514.0251
  15   1.0000     -18.556935      -504.9599
  16   1.0000     -18.551809      -504.8204
  17   1.0000     -18.551715      -504.8178
  18   1.0000     -10.076022      -274.1825
  19   1.0000     -10.075834      -274.1774
  20   1.0000     -10.063239      -273.8347
  21   1.0000     -10.063183      -273.8331
  22   1.0000     -10.062775      -273.8220
  23   1.0000     -10.062736      -273.8210
  24   1.0000     -10.051140      -273.5054
  25   1.0000     -10.051106      -273.5045
  26   1.0000     -10.048030      -273.4208
  27   1.0000     -10.047925      -273.4179
  28   1.0000     -10.018158      -272.6079
  29   1.0000     -10.018064      -272.6054
  30   1.0000     -10.017271      -272.5838
  31   1.0000     -10.017243      -272.5830
  32   1.0000      -7.786413      -211.8791
  33   1.0000      -7.786401      -211.8788
  34   1.0000      -7.785926      -211.8658
  35   1.0000      -7.785823      -211.8630
  36   1.0000      -7.783536      -211.8008
  37   1.0000      -7.783535      -211.8007
  38   1.0000      -7.783498      -211.7997
  39   1.0000      -7.783399      -211.7971
  40   1.0000      -7.694141      -209.3682
  41   1.0000      -7.693940      -209.3628
  42   1.0000      -7.693704      -209.3563
  43   1.0000      -7.693699      -209.3562
  44   1.0000      -5.751406      -156.5037
  45   1.0000      -5.751399      -156.5035
  46   1.0000      -5.750946      -156.4912
  47   1.0000      -5.750836      -156.4882
  48   1.0000      -5.748479      -156.4241
  49   1.0000      -5.748467      -156.4237
  50   1.0000      -5.748439      -156.4230
  51   1.0000      -5.748332      -156.4201
  52   1.0000      -5.747986      -156.4106
  53   1.0000      -5.747980      -156.4105
  54   1.0000      -5.747490      -156.3971
  55   1.0000      -5.747397      -156.3946
  56   1.0000      -5.744056      -156.3037
  57   1.0000      -5.744049      -156.3035
  58   1.0000      -5.744007      -156.3024
  59   1.0000      -5.743909      -156.2997
  60   1.0000      -5.741202      -156.2261
  61   1.0000      -5.741190      -156.2257
  62   1.0000      -5.740713      -156.2128
  63   1.0000      -5.740609      -156.2099
  64   1.0000      -5.739366      -156.1761
  65   1.0000      -5.739356      -156.1758
  66   1.0000      -5.739330      -156.1751
  67   1.0000      -5.739230      -156.1724
  68   1.0000      -5.659474      -154.0021
  69   1.0000      -5.659244      -153.9959
  70   1.0000      -5.659042      -153.9904
  71   1.0000      -5.658994      -153.9891
  72   1.0000      -5.652813      -153.8209
  73   1.0000      -5.652608      -153.8153
  74   1.0000      -5.652385      -153.8092
  75   1.0000      -5.652356      -153.8084
  76   1.0000      -5.651463      -153.7841
  77   1.0000      -5.651245      -153.7782
  78   1.0000      -5.650994      -153.7714
  79   1.0000      -5.650987      -153.7712
  80   1.0000      -2.444110       -66.5076
  81   1.0000      -1.485251       -40.4157
  82   1.0000      -1.473761       -40.1031
  83   1.0000      -1.472999       -40.0823
  84   1.0000      -0.709425       -19.3044
  85   1.0000      -0.708877       -19.2895
  86   1.0000      -0.685440       -18.6518
  87   1.0000      -0.684316       -18.6212
  88   1.0000      -0.649548       -17.6751
  89   1.0000      -0.631151       -17.1745
  90   1.0000      -0.630422       -17.1547
  91   1.0000      -0.616925       -16.7874
  92   1.0000      -0.615107       -16.7379
  93   1.0000      -0.574526       -15.6337
  94   1.0000      -0.574326       -15.6282
  95   1.0000      -0.573348       -15.6016
  96   1.0000      -0.572310       -15.5733
  97   1.0000      -0.496370       -13.5069
  98   1.0000      -0.495846       -13.4927
  99   1.0000      -0.494879       -13.4663
 100   1.0000      -0.494409       -13.4535
 101   1.0000      -0.479655       -13.0521
 102   1.0000      -0.477050       -12.9812
 103   1.0000      -0.446862       -12.1597
 104   1.0000      -0.444482       -12.0950
 105   1.0000      -0.416270       -11.3273
 106   1.0000      -0.411060       -11.1855
 107   1.0000      -0.355036        -9.6610
 108   1.0000      -0.353477        -9.6186
 109   1.0000      -0.326427        -8.8825
 110   1.0000      -0.325090        -8.8461
 111   1.0000      -0.318908        -8.6779
 112   1.0000      -0.314237        -8.5508
 113   1.0000      -0.304072        -8.2742
 114   1.0000      -0.303117        -8.2482
 115   1.0000      -0.292153        -7.9499
 116   1.0000      -0.290468        -7.9040
 117   1.0000      -0.257941        -7.0189
 118   1.0000      -0.257234        -6.9997
 119   1.0000      -0.255688        -6.9576
 120   1.0000      -0.254812        -6.9338
 121   1.0000      -0.234221        -6.3735
 122   1.0000      -0.233328        -6.3492
 123   1.0000      -0.230621        -6.2755
 124   1.0000      -0.228726        -6.2240
 125   1.0000      -0.219927        -5.9845
 126   1.0000      -0.218150        -5.9362
 127   1.0000      -0.213817        -5.8183
 128   1.0000      -0.210881        -5.7384
 129   1.0000      -0.192886        -5.2487
 130   1.0000      -0.187029        -5.0893
 131   1.0000      -0.186155        -5.0655
 132   1.0000      -0.184711        -5.0262
 133   1.0000      -0.179356        -4.8805
 134   1.0000      -0.159208        -4.3323
 135   1.0000      -0.151394        -4.1196
 136   1.0000      -0.146619        -3.9897
 137   1.0000      -0.135467        -3.6863
 138   1.0000      -0.133536        -3.6337
 139   1.0000      -0.133031        -3.6200
 140   1.0000      -0.124758        -3.3948
 141   1.0000      -0.120812        -3.2875
 142   1.0000      -0.113235        -3.0813
 143   1.0000      -0.109136        -2.9697
 144   1.0000      -0.099660        -2.7119
 145   1.0000      -0.098049        -2.6681
 146   1.0000      -0.096663        -2.6303
 147   1.0000      -0.094486        -2.5711
 148   1.0000      -0.074363        -2.0235
 149   1.0000      -0.067223        -1.8292
 150   1.0000      -0.066103        -1.7988
 151   1.0000      -0.052289        -1.4228
 152   1.0000      -0.045427        -1.2361
 153   1.0000      -0.038034        -1.0349
 154   1.0000      -0.036928        -1.0049
 155   1.0000      -0.031458        -0.8560
 156   1.0000      -0.024853        -0.6763
 157   1.0000      -0.019328        -0.5259
 158   1.0000      -0.015444        -0.4202
 159   1.0000       0.020150         0.5483
 160   1.0000       0.041247         1.1224
 161   0.0000       0.137052         3.7294
 162   0.0000       0.137537         3.7426
 163   0.0000       0.162253         4.4151
 164   0.0000       0.163207         4.4411
 165   0.0000       0.170722         4.6456

                 SPIN DOWN ORBITALS
  NO   OCC          E(Eh)            E(eV)
   0   1.0000    -196.675255     -5351.8058
   1   1.0000     -88.732975     -2414.5470
   2   1.0000     -88.732947     -2414.5462
   3   1.0000     -88.732533     -2414.5350
   4   1.0000     -88.732436     -2414.5323
   5   1.0000     -88.730298     -2414.4742
   6   1.0000     -88.730278     -2414.4736
   7   1.0000     -88.730229     -2414.4723
   8   1.0000     -88.730108     -2414.4690
   9   1.0000     -88.640072     -2412.0190
  10   1.0000     -88.639750     -2412.0102
  11   1.0000     -88.639601     -2412.0062
  12   1.0000     -88.639484     -2412.0030
  13   1.0000     -22.035557      -599.6180
  14   1.0000     -18.893891      -514.1289
  15   1.0000     -18.551646      -504.8160
  16   1.0000     -18.535726      -504.3827
  17   1.0000     -18.535585      -504.3789
  18   1.0000     -10.076020      -274.1824
  19   1.0000     -10.075830      -274.1773
  20   1.0000     -10.063239      -273.8346
  21   1.0000     -10.063183      -273.8331
  22   1.0000     -10.062775      -273.8220
  23   1.0000     -10.062736      -273.8210
  24   1.0000     -10.051140      -273.5054
  25   1.0000     -10.051106      -273.5045
  26   1.0000     -10.048021      -273.4205
  27   1.0000     -10.047920      -273.4178
  28   1.0000     -10.017925      -272.6016
  29   1.0000     -10.017842      -272.5993
  30   1.0000     -10.017051      -272.5778
  31   1.0000     -10.017021      -272.5770
  32   1.0000      -7.786414      -211.8791
  33   1.0000      -7.786402      -211.8788
  34   1.0000      -7.785926      -211.8658
  35   1.0000      -7.785823      -211.8630
  36   1.0000      -7.783545      -211.8010
  37   1.0000      -7.783544      -211.8010
  38   1.0000      -7.783507      -211.8000
  39   1.0000      -7.783408      -211.7973
  40   1.0000      -7.694276      -209.3719
  41   1.0000      -7.694076      -209.3665
  42   1.0000      -7.693839      -209.3600
  43   1.0000      -7.693835      -209.3599
  44   1.0000      -5.751407      -156.5037
  45   1.0000      -5.751400      -156.5035
  46   1.0000      -5.750946      -156.4912
  47   1.0000      -5.750836      -156.4882
  48   1.0000      -5.748490      -156.4244
  49   1.0000      -5.748478      -156.4240
  50   1.0000      -5.748449      -156.4233
  51   1.0000      -5.748342      -156.4204
  52   1.0000      -5.747987      -156.4107
  53   1.0000      -5.747981      -156.4105
  54   1.0000      -5.747490      -156.3972
  55   1.0000      -5.747397      -156.3946
  56   1.0000      -5.744070      -156.3041
  57   1.0000      -5.744062      -156.3039
  58   1.0000      -5.744020      -156.3027
  59   1.0000      -5.743922      -156.3001
  60   1.0000      -5.741203      -156.2261
  61   1.0000      -5.741191      -156.2257
  62   1.0000      -5.740714      -156.2128
  63   1.0000      -5.740610      -156.2099
  64   1.0000      -5.739372      -156.1763
  65   1.0000      -5.739363      -156.1760
  66   1.0000      -5.739337      -156.1753
  67   1.0000      -5.739238      -156.1726
  68   1.0000      -5.659620      -154.0061
  69   1.0000      -5.659388      -153.9998
  70   1.0000      -5.659187      -153.9943
  71   1.0000      -5.659140      -153.9930
  72   1.0000      -5.653178      -153.8308
  73   1.0000      -5.652993      -153.8258
  74   1.0000      -5.652764      -153.8195
  75   1.0000      -5.652729      -153.8186
  76   1.0000      -5.651583      -153.7874
  77   1.0000      -5.651354      -153.7812
  78   1.0000      -5.651116      -153.7747
  79   1.0000      -5.651100      -153.7742
  80   1.0000      -2.399109       -65.2831
  81   1.0000      -1.465871       -39.8884
  82   1.0000      -1.411320       -38.4040
  83   1.0000      -1.411054       -38.3967
  84   1.0000      -0.709401       -19.3038
  85   1.0000      -0.708857       -19.2890
  86   1.0000      -0.685389       -18.6504
  87   1.0000      -0.684271       -18.6200
  88   1.0000      -0.657748       -17.8982
  89   1.0000      -0.631084       -17.1727
  90   1.0000      -0.630360       -17.1530
  91   1.0000      -0.616926       -16.7874
  92   1.0000      -0.615109       -16.7380
  93   1.0000      -0.574497       -15.6329
  94   1.0000      -0.574301       -15.6275
  95   1.0000      -0.573272       -15.5995
  96   1.0000      -0.572242       -15.5715
  97   1.0000      -0.496388       -13.5074
  98   1.0000      -0.495897       -13.4940
  99   1.0000      -0.494930       -13.4677
 100   1.0000      -0.494443       -13.4545
 101   1.0000      -0.479855       -13.0575
 102   1.0000      -0.477314       -12.9884
 103   1.0000      -0.446888       -12.1604
 104   1.0000      -0.444534       -12.0964
 105   1.0000      -0.416280       -11.3275
 106   1.0000      -0.411187       -11.1890
 107   1.0000      -0.355027        -9.6608
 108   1.0000      -0.353470        -9.6184
 109   1.0000      -0.326412        -8.8821
 110   1.0000      -0.325079        -8.8458
 111   1.0000      -0.318829        -8.6758
 112   1.0000      -0.314268        -8.5517
 113   1.0000      -0.304019        -8.2728
 114   1.0000      -0.303090        -8.2475
 115   1.0000      -0.292147        -7.9497
 116   1.0000      -0.290464        -7.9039
 117   1.0000      -0.257779        -7.0145
 118   1.0000      -0.257161        -6.9977
 119   1.0000      -0.255663        -6.9569
 120   1.0000      -0.254773        -6.9327
 121   1.0000      -0.234180        -6.3724
 122   1.0000      -0.233297        -6.3483
 123   1.0000      -0.230574        -6.2742
 124   1.0000      -0.228694        -6.2231
 125   1.0000      -0.219555        -5.9744
 126   1.0000      -0.218047        -5.9333
 127   1.0000      -0.213615        -5.8128
 128   1.0000      -0.210737        -5.7345
 129   1.0000      -0.191120        -5.2006
 130   1.0000      -0.186960        -5.0874
 131   1.0000      -0.185860        -5.0575
 132   1.0000      -0.184468        -5.0196
 133   1.0000      -0.179241        -4.8774
 134   1.0000      -0.158590        -4.3154
 135   1.0000      -0.151222        -4.1150
 136   1.0000      -0.146545        -3.9877
 137   1.0000      -0.134750        -3.6667
 138   1.0000      -0.133252        -3.6260
 139   1.0000      -0.132783        -3.6132
 140   1.0000      -0.124237        -3.3807
 141   1.0000      -0.120463        -3.2780
 142   1.0000      -0.115087        -3.1317
 143   1.0000      -0.110785        -3.0146
 144   1.0000      -0.099642        -2.7114
 145   1.0000      -0.098394        -2.6774
 146   1.0000      -0.096659        -2.6302
 147   1.0000      -0.094776        -2.5790
 148   1.0000      -0.070516        -1.9188
 149   1.0000      -0.067220        -1.8291
 150   1.0000      -0.066095        -1.7985
 151   1.0000      -0.049681        -1.3519
 152   1.0000      -0.044509        -1.2112
 153   1.0000      -0.038111        -1.0370
 154   1.0000      -0.036322        -0.9884
 155   1.0000      -0.031719        -0.8631
 156   1.0000      -0.025994        -0.7073
 157   1.0000      -0.015722        -0.4278
 158   1.0000       0.020336         0.5534
 159   1.0000       0.040536         1.1030
 160   0.0000       0.137054         3.7294
 161   0.0000       0.137536         3.7425
 162   0.0000       0.155654         4.2356
 163   0.0000       0.162614         4.4250
 164   0.0000       0.164098         4.4653

MULLIKEN ATOMIC CHARGES AND SPIN POPULATIONS
--------------------------------------------
   0 V :    0.472011    1.214543
   1 S :   -0.290565   -0.024082
   2 S :   -0.291303   -0.025133
   3 S :   -0.288583   -0.025016
   4 S :   -0.287346   -0.025870
   5 O :   -0.467455   -0.147858
   6 C :   -0.077405    0.009255
   7 C :   -0.085601    0.008031
   8 C :   -0.083026    0.008345
   9 C :   -0.085500    0.007860
  10 S :    0.099930   -0.000494
  11 S :    0.101291   -0.000524
  12 S :    0.101911   -0.000397
  13 S :    0.100874   -0.000345
  14 C :   -0.213414    0.001398
  15 C :   -0.210586    0.001153
  16 C :   -0.190353   -0.000209
  17 C :   -0.188335   -0.000455
  18 S :    0.007905   -0.000096
  19 S :    0.008110   -0.000096
  20 S :    0.003959   -0.000042
  21 S :    0.004152   -0.000044
  22 C :   -0.300547   -0.000019
  23 C :   -0.299565   -0.000020
  24 C :   -0.161350    0.000013
  25 H :    0.146004   -0.000001
  26 H :    0.113369   -0.000004
  27 H :    0.083690   -0.000003
  28 H :    0.091550   -0.000002
  29 H :    0.112969   -0.000005
  30 H :    0.145477   -0.000001
  31 C :   -0.300035    0.000129
  32 C :   -0.300743    0.000124
  33 C :   -0.158566   -0.000152
  34 H :    0.142788   -0.000013
  35 H :    0.113348    0.000011
  36 H :    0.092069    0.000014
  37 H :    0.082804    0.000006
  38 H :    0.113291    0.000011
  39 H :    0.142775   -0.000013
Sum of atomic charges         :   -2.0000000

LOEWDIN ATOMIC CHARGES AND SPIN POPULATIONS
-------------------------------------------
   0 V :   -0.154355    1.167675
   1 S :    0.079368   -0.015673
   2 S :    0.078409   -0.016273
   3 S :    0.080674   -0.016465
   4 S :    0.082095   -0.016715
   5 O :   -0.319453   -0.132680
   6 C :   -0.550229    0.008825
   7 C :   -0.552286    0.007997
   8 C :   -0.551495    0.008463
   9 C :   -0.551611    0.007917
  10 S :    0.471471   -0.000858
  11 S :    0.472463   -0.000881
  12 S :    0.472388   -0.000802
  13 S :    0.471485   -0.000804
  14 C :   -0.464926    0.000082
  15 C :   -0.464537   -0.000011
  16 C :   -0.623293    0.000351
  17 C :   -0.623606    0.000092
  18 S :    0.357939   -0.000082
  19 S :    0.359429   -0.000081
  20 S :    0.355330   -0.000054
  21 S :    0.354877   -0.000056
  22 C :   -0.282125   -0.000007
  23 C :   -0.282165   -0.000008
  24 C :   -0.176205   -0.000004
  25 H :    0.064113   -0.000001
  26 H :    0.053580   -0.000003
  27 H :    0.058632   -0.000001
  28 H :    0.060431   -0.000001
  29 H :    0.053477   -0.000003
  30 H :    0.063926   -0.000002
  31 C :   -0.283826    0.000027
  32 C :   -0.283522    0.000023
  33 C :   -0.176278    0.000003
  34 H :    0.062388   -0.000001
  35 H :    0.053483    0.000004
  36 H :    0.060220    0.000002
  37 H :    0.057879    0.000000
  38 H :    0.053564    0.000004
  39 H :    0.062292   -0.000001

  Mayer bond orders larger than 0.100000
B(  0-V ,  1-S ) :   0.7728 B(  0-V ,  2-S ) :   0.7686 B(  0-V ,  3-S ) :   0.7666
B(  0-V ,  4-S ) :   0.7745 B(  0-V ,  5-O ) :   2.1495 B(  1-S ,  8-C ) :   1.1032
B(  2-S ,  6-C ) :   1.1047 B(  3-S ,  9-C ) :   1.1069 B(  4-S ,  7-C ) :   1.1065
B(  6-C ,  7-C ) :   1.6871 B(  6-C , 10-S ) :   0.9347 B(  7-C , 11-S ) :   0.9390
B(  8-C ,  9-C ) :   1.6952 B(  8-C , 13-S ) :   0.9341 B(  9-C , 12-S ) :   0.9366
B( 10-S , 14-C ) :   1.2493 B( 11-S , 14-C ) :   1.2490 B( 12-S , 15-C ) :   1.2470
B( 13-S , 15-C ) :   1.2471 B( 14-C , 16-C ) :   1.4485 B( 15-C , 17-C ) :   1.4470
B( 16-C , 18-S ) :   1.0882 B( 16-C , 19-S ) :   1.0898 B( 17-C , 20-S ) :   1.0884
B( 17-C , 21-S ) :   1.0893 B( 18-S , 32-C ) :   0.9919 B( 19-S , 31-C ) :   0.9917
B( 20-S , 23-C ) :   0.9905 B( 21-S , 22-C ) :   0.9898 B( 22-C , 24-C ) :   0.9146
B( 22-C , 25-H ) :   0.9663 B( 22-C , 26-H ) :   0.9653 B( 23-C , 24-C ) :   0.9153
B( 23-C , 29-H ) :   0.9653 B( 23-C , 30-H ) :   0.9661 B( 24-C , 27-H ) :   0.9621
B( 24-C , 28-H ) :   0.9711 B( 31-C , 33-C ) :   0.9142 B( 31-C , 38-H ) :   0.9655
B( 31-C , 39-H ) :   0.9661 B( 32-C , 33-C ) :   0.9139 B( 32-C , 34-H ) :   0.9660
B( 32-C , 35-H ) :   0.9654 B( 33-C , 36-H ) :   0.9715 B( 33-C , 37-H ) :   0.9624

FINAL SINGLE POINT ENERGY     -6337.706855689969

DIPOLE MOMENT
-------------
                                X             Y             Z
Electronic contribution:    -11.71346      -5.65291      -4.58711
Nuclear contribution   :     13.01576       6.26681       5.09013
                        -----------------------------------------
Total Dipole Moment    :      1.30230       0.61390       0.50302
                        -----------------------------------------
Magnitude (a.u.)       :      1.52509
Magnitude (Debye)      :      3.87647

Rotational constants in cm-1:     0.010729     0.000807     0.000786
Rotational constants in MHz :   321.633678    24.200997    23.572314

                             ****ORCA TERMINATED NORMALLY****
TOTAL RUN TIME: 0 days 1 hours 1 minutes 40 seconds 291 msec
