                         Program Version 5.0.4 -  RELEASE  -
|  1> ! nofrozencore ReducedPop printbasis
|  2> ! B3LYP TZVP
|  3>
|  4> %basis
|  5> newgto V "CP(PPP)" end
|  6> end
|  7>
|  8> %pal
|  9> nprocs 6
| 10> end
| 11>
| 12> % sym SymThresh 1e-2 end
| 13> * xyz -2 2
| 14> V -0.26786927710288255 1.0805810118619112 -0.016894728907778073
| 15> S -2.152650672536528 0.10314885497559122 -1.2858406562938727
| 16> S -1.3046080899631523 0.07473429689114418 1.9907995109018088
| 17> S 1.0574698024252156 0.7316895549607757 -2.079205519793336
| 18> S 1.8592933134540444 0.6145276430978786 1.1386786952708157
| 19> O -0.5407649792992776 2.6409018377490305 0.10549305514223613
| 20> C 0.015734134473889463 0.21151594071798918 3.10404185026403
| 21> C 1.285740567990913 0.4258114430725101 2.7610981675842154
| 22> C -1.4739512550213576 0.022645573319694013 -2.900164747538317
| 23> C -0.19236630183197423 0.2707713609906799 -3.215381847457117
| 24> S -0.2076348760285348 -0.022863388398661384 4.8301884632859355
| 25> S 2.393747455518234 0.3991377874138246 4.1217268730107985
| 26> S 0.24185334634959157 0.05749780498211429 -4.935131879019418
| 27> S -2.5247945580368194 -0.4716212162812911 -4.258377138744526
| 28> C 1.3526387013504189 0.23775211881099373 5.4550913780302475
| 29> C -1.317455547543384 -0.4716659093999163 -5.52463015671892
| 30> C 1.7526106207611898 -0.042000729774211806 6.7469905869298135
| 31> C -1.5607584123345561 -0.8472323661041304 -6.817369423112592
| 32> S 0.5307604851436326 -0.28343090677475086 8.005127029113588
| 33> S 3.4597153745513984 0.12942832758941292 7.186551865265712
| 34> S -3.1566866233272513 -1.3938147745209661 -7.3519994240187385
| 35> S -0.28603101427066385 -0.8622519963988956 -8.045595121233694
| 36> C -0.2537604668837064 -2.6724039012459113 -8.41587999142969
| 37> C -2.7356053784832057 -3.1305129191226206 -7.822273546005863
| 38> C -1.6181485821637331 -3.1990589172738666 -8.864971027647528
| 39> H 0.12214956411295771 -3.208246134957303 -7.540468985740777
| 40> H 0.47213473872802064 -2.7847120502794036 -9.226566148891736
| 41> H -1.500845419489238 -4.245820210367917 -9.181086628679228
| 42> H -1.9335280767276684 -2.6285565707105643 -9.745522880081761
| 43> H -3.658214577108805 -3.5429373887266533 -8.24103837962046
| 44> H -2.4852030173864796 -3.6937737631358156 -6.919645701698072
| 45> C 3.2463955412402434 1.621749228042392 8.317312985151478
| 46> C 0.9012233231207925 1.294596248161377 8.967287102279741
| 47> C 2.310783223104717 1.5423632043187463 9.539409659163159
| 48> H 0.7275522176558746 2.1006044662396866 8.22531846686661
| 49> H 0.10627343436138323 1.3711268575183593 9.739707274074764
| 50> H 2.6310716291183396 0.8370042890425677 10.341338724713639
| 51> H 2.2883028668785075 2.5767613867937933 9.978021348157267
| 52> H 4.274508286249625 1.9464001996376292 8.585323547802545
| 53> H 2.8129626728073855 2.3949408112480346 7.6506598473429035
| 54> *
| 55>
| 56> % eprnmr
| 57> gtensor true
| 58> Nuclei = all H {aiso,adip,aorb,fgrad,rho}
| 59> Nuclei = all V {aiso,adip,aorb,fgrad,rho}
| 60> end
| 61>
| 62>                          ****END OF INPUT****

CARTESIAN COORDINATES (ANGSTROEM)
---------------------------------
  V     -0.266754    1.077652   -0.014686
  S     -2.151536    0.100220   -1.283632
  S     -1.303493    0.071806    1.993008
  S      1.058585    0.728761   -2.076997
  S      1.860408    0.611599    1.140887
  O     -0.539650    2.637973    0.107702
  C      0.016849    0.208587    3.106250
  C      1.286856    0.422883    2.763307
  C     -1.472836    0.019717   -2.897956
  C     -0.191251    0.267843   -3.213173
  S     -0.206520   -0.025792    4.832397
  S      2.394863    0.396209    4.123935
  S      0.242968    0.054569   -4.932923
  S     -2.523679   -0.474550   -4.256169
  C      1.353754    0.234823    5.457300
  C     -1.316340   -0.474595   -5.522422
  C      1.753726   -0.044929    6.749199
  C     -1.559643   -0.850161   -6.815161
  S      0.531876   -0.286360    8.007336
  S      3.460830    0.126500    7.188760
  S     -3.155572   -1.396743   -7.349791
  S     -0.284916   -0.865181   -8.043387
  C     -0.252645   -2.675333   -8.413672
  C     -2.734490   -3.133442   -7.820065
  C     -1.617034   -3.201988   -8.862763
  H      0.123265   -3.211175   -7.538261
  H      0.473250   -2.787641   -9.224358
  H     -1.499730   -4.248749   -9.178878
  H     -1.932413   -2.631485   -9.743314
  H     -3.657100   -3.545866   -8.238830
  H     -2.484088   -3.696702   -6.917437
  C      3.247511    1.618821    8.319521
  C      0.902338    1.291668    8.969496
  C      2.311898    1.539435    9.541618
  H      0.728667    2.097676    8.227527
  H      0.107389    1.368198    9.741916
  H      2.632187    0.834076   10.343547
  H      2.289418    2.573833    9.980230
  H      4.275623    1.943472    8.587532
  H      2.814078    2.392012    7.652868

 Total Charge           Charge          ....   -2
 Multiplicity           Mult            ....    2
 Number of Electrons    NEL             ....  321
 Basis Dimension        Dim             ....  681

ORBITAL ENERGIES
----------------
                 SPIN UP ORBITALS
  NO   OCC          E(Eh)            E(eV)
   0   1.0000    -196.678557     -5351.8956
   1   1.0000     -88.732332     -2414.5295
   2   1.0000     -88.732190     -2414.5256
   3   1.0000     -88.731564     -2414.5086
   4   1.0000     -88.731453     -2414.5056
   5   1.0000     -88.731062     -2414.4950
   6   1.0000     -88.731006     -2414.4934
   7   1.0000     -88.725854     -2414.3532
   8   1.0000     -88.725703     -2414.3491
   9   1.0000     -88.642758     -2412.0921
  10   1.0000     -88.642569     -2412.0869
  11   1.0000     -88.642345     -2412.0808
  12   1.0000     -88.642234     -2412.0778
  13   1.0000     -22.053946      -600.1184
  14   1.0000     -18.893770      -514.1256
  15   1.0000     -18.560349      -505.0528
  16   1.0000     -18.555253      -504.9141
  17   1.0000     -18.555135      -504.9109
  18   1.0000     -10.075522      -274.1689
  19   1.0000     -10.067880      -273.9610
  20   1.0000     -10.063282      -273.8358
  21   1.0000     -10.063226      -273.8343
  22   1.0000     -10.062933      -273.8263
  23   1.0000     -10.062905      -273.8256
  24   1.0000     -10.058679      -273.7106
  25   1.0000     -10.050239      -273.4809
  26   1.0000     -10.046449      -273.3778
  27   1.0000     -10.040821      -273.2246
  28   1.0000     -10.019657      -272.6487
  29   1.0000     -10.018845      -272.6266
  30   1.0000     -10.017221      -272.5824
  31   1.0000     -10.016209      -272.5549
  32   1.0000      -7.785351      -211.8502
  33   1.0000      -7.785256      -211.8476
  34   1.0000      -7.785026      -211.8413
  35   1.0000      -7.784966      -211.8397
  36   1.0000      -7.784929      -211.8387
  37   1.0000      -7.784887      -211.8375
  38   1.0000      -7.781937      -211.7573
  39   1.0000      -7.781858      -211.7551
  40   1.0000      -7.697501      -209.4597
  41   1.0000      -7.697257      -209.4530
  42   1.0000      -7.697138      -209.4498
  43   1.0000      -7.696681      -209.4373
  44   1.0000      -5.750330      -156.4744
  45   1.0000      -5.750230      -156.4717
  46   1.0000      -5.750123      -156.4688
  47   1.0000      -5.749982      -156.4650
  48   1.0000      -5.749810      -156.4603
  49   1.0000      -5.749778      -156.4594
  50   1.0000      -5.746850      -156.3797
  51   1.0000      -5.746760      -156.3773
  52   1.0000      -5.746603      -156.3730
  53   1.0000      -5.746472      -156.3695
  54   1.0000      -5.746466      -156.3693
  55   1.0000      -5.746375      -156.3668
  56   1.0000      -5.745360      -156.3392
  57   1.0000      -5.745312      -156.3379
  58   1.0000      -5.741946      -156.2463
  59   1.0000      -5.741853      -156.2438
  60   1.0000      -5.740868      -156.2170
  61   1.0000      -5.740841      -156.2162
  62   1.0000      -5.740167      -156.1979
  63   1.0000      -5.740064      -156.1951
  64   1.0000      -5.739874      -156.1899
  65   1.0000      -5.739734      -156.1861
  66   1.0000      -5.738067      -156.1407
  67   1.0000      -5.737997      -156.1388
  68   1.0000      -5.662714      -154.0903
  69   1.0000      -5.662489      -154.0842
  70   1.0000      -5.662417      -154.0822
  71   1.0000      -5.661951      -154.0695
  72   1.0000      -5.656098      -153.9103
  73   1.0000      -5.655856      -153.9037
  74   1.0000      -5.655797      -153.9021
  75   1.0000      -5.655348      -153.8898
  76   1.0000      -5.654850      -153.8763
  77   1.0000      -5.654565      -153.8685
  78   1.0000      -5.654482      -153.8663
  79   1.0000      -5.654016      -153.8536
  80   1.0000      -2.447617       -66.6031
  81   1.0000      -1.488859       -40.5139
  82   1.0000      -1.477324       -40.2000
  83   1.0000      -1.476461       -40.1765
  84   1.0000      -0.725603       -19.7447
  85   1.0000      -0.714212       -19.4347
  86   1.0000      -0.689514       -18.7626
  87   1.0000      -0.687516       -18.7083
  88   1.0000      -0.653277       -17.7766
  89   1.0000      -0.636085       -17.3087
  90   1.0000      -0.633780       -17.2460
  91   1.0000      -0.618003       -16.8167
  92   1.0000      -0.604745       -16.4559
  93   1.0000      -0.585790       -15.9402
  94   1.0000      -0.580252       -15.7895
  95   1.0000      -0.578376       -15.7384
  96   1.0000      -0.577360       -15.7108
  97   1.0000      -0.497907       -13.5488
  98   1.0000      -0.497745       -13.5443
  99   1.0000      -0.496156       -13.5011
 100   1.0000      -0.495903       -13.4942
 101   1.0000      -0.481895       -13.1130
 102   1.0000      -0.480035       -13.0624
 103   1.0000      -0.448657       -12.2086
 104   1.0000      -0.445621       -12.1260
 105   1.0000      -0.417327       -11.3561
 106   1.0000      -0.413101       -11.2410
 107   1.0000      -0.355205        -9.6656
 108   1.0000      -0.354275        -9.6403
 109   1.0000      -0.327908        -8.9228
 110   1.0000      -0.327556        -8.9132
 111   1.0000      -0.325539        -8.8584
 112   1.0000      -0.320582        -8.7235
 113   1.0000      -0.305647        -8.3171
 114   1.0000      -0.305175        -8.3042
 115   1.0000      -0.293917        -7.9979
 116   1.0000      -0.272772        -7.4225
 117   1.0000      -0.259685        -7.0664
 118   1.0000      -0.258281        -7.0282
 119   1.0000      -0.255725        -6.9586
 120   1.0000      -0.251425        -6.8416
 121   1.0000      -0.244525        -6.6539
 122   1.0000      -0.233752        -6.3607
 123   1.0000      -0.231865        -6.3094
 124   1.0000      -0.222682        -6.0595
 125   1.0000      -0.221793        -6.0353
 126   1.0000      -0.218451        -5.9443
 127   1.0000      -0.216317        -5.8863
 128   1.0000      -0.214327        -5.8321
 129   1.0000      -0.196038        -5.3345
 130   1.0000      -0.189325        -5.1518
 131   1.0000      -0.188716        -5.1352
 132   1.0000      -0.184724        -5.0266
 133   1.0000      -0.176404        -4.8002
 134   1.0000      -0.164730        -4.4825
 135   1.0000      -0.153974        -4.1898
 136   1.0000      -0.147340        -4.0093
 137   1.0000      -0.141784        -3.8581
 138   1.0000      -0.136957        -3.7268
 139   1.0000      -0.129305        -3.5186
 140   1.0000      -0.128494        -3.4965
 141   1.0000      -0.119158        -3.2425
 142   1.0000      -0.117007        -3.1839
 143   1.0000      -0.112323        -3.0565
 144   1.0000      -0.101429        -2.7600
 145   1.0000      -0.099223        -2.7000
 146   1.0000      -0.097749        -2.6599
 147   1.0000      -0.093920        -2.5557
 148   1.0000      -0.077759        -2.1159
 149   1.0000      -0.067898        -1.8476
 150   1.0000      -0.066200        -1.8014
 151   1.0000      -0.055903        -1.5212
 152   1.0000      -0.049758        -1.3540
 153   1.0000      -0.039911        -1.0860
 154   1.0000      -0.037536        -1.0214
 155   1.0000      -0.030120        -0.8196
 156   1.0000      -0.027863        -0.7582
 157   1.0000      -0.022522        -0.6129
 158   1.0000      -0.018516        -0.5039
 159   1.0000       0.018906         0.5145
 160   1.0000       0.038838         1.0568
 161   0.0000       0.137185         3.7330
 162   0.0000       0.139187         3.7875
 163   0.0000       0.161366         4.3910
 164   0.0000       0.163889         4.4596
 165   0.0000       0.166476         4.5300

                 SPIN DOWN ORBITALS
  NO   OCC          E(Eh)            E(eV)
   0   1.0000    -196.678703     -5351.8996
   1   1.0000     -88.732332     -2414.5295
   2   1.0000     -88.732191     -2414.5257
   3   1.0000     -88.731564     -2414.5086
   4   1.0000     -88.731453     -2414.5056
   5   1.0000     -88.731070     -2414.4952
   6   1.0000     -88.731014     -2414.4936
   7   1.0000     -88.725863     -2414.3535
   8   1.0000     -88.725712     -2414.3494
   9   1.0000     -88.642895     -2412.0958
  10   1.0000     -88.642704     -2412.0906
  11   1.0000     -88.642481     -2412.0845
  12   1.0000     -88.642373     -2412.0816
  13   1.0000     -22.039027      -599.7124
  14   1.0000     -18.897566      -514.2289
  15   1.0000     -18.555077      -504.9093
  16   1.0000     -18.539276      -504.4794
  17   1.0000     -18.538995      -504.4717
  18   1.0000     -10.075520      -274.1688
  19   1.0000     -10.067877      -273.9609
  20   1.0000     -10.063280      -273.8358
  21   1.0000     -10.063224      -273.8343
  22   1.0000     -10.062933      -273.8263
  23   1.0000     -10.062905      -273.8256
  24   1.0000     -10.058679      -273.7106
  25   1.0000     -10.050239      -273.4809
  26   1.0000     -10.046445      -273.3777
  27   1.0000     -10.040808      -273.2243
  28   1.0000     -10.019443      -272.6429
  29   1.0000     -10.018633      -272.6209
  30   1.0000     -10.016998      -272.5764
  31   1.0000     -10.015998      -272.5492
  32   1.0000      -7.785352      -211.8502
  33   1.0000      -7.785256      -211.8476
  34   1.0000      -7.785027      -211.8413
  35   1.0000      -7.784976      -211.8400
  36   1.0000      -7.784939      -211.8389
  37   1.0000      -7.784887      -211.8376
  38   1.0000      -7.781947      -211.7575
  39   1.0000      -7.781869      -211.7554
  40   1.0000      -7.697627      -209.4631
  41   1.0000      -7.697385      -209.4565
  42   1.0000      -7.697265      -209.4532
  43   1.0000      -7.696810      -209.4408
  44   1.0000      -5.750331      -156.4744
  45   1.0000      -5.750231      -156.4717
  46   1.0000      -5.750124      -156.4688
  47   1.0000      -5.749984      -156.4650
  48   1.0000      -5.749822      -156.4606
  49   1.0000      -5.749789      -156.4597
  50   1.0000      -5.746850      -156.3797
  51   1.0000      -5.746761      -156.3773
  52   1.0000      -5.746604      -156.3731
  53   1.0000      -5.746479      -156.3696
  54   1.0000      -5.746474      -156.3695
  55   1.0000      -5.746388      -156.3672
  56   1.0000      -5.745374      -156.3396
  57   1.0000      -5.745326      -156.3383
  58   1.0000      -5.741960      -156.2467
  59   1.0000      -5.741867      -156.2441
  60   1.0000      -5.740874      -156.2171
  61   1.0000      -5.740847      -156.2164
  62   1.0000      -5.740168      -156.1979
  63   1.0000      -5.740065      -156.1951
  64   1.0000      -5.739874      -156.1899
  65   1.0000      -5.739734      -156.1861
  66   1.0000      -5.738075      -156.1410
  67   1.0000      -5.738007      -156.1391
  68   1.0000      -5.662848      -154.0939
  69   1.0000      -5.662626      -154.0879
  70   1.0000      -5.662559      -154.0861
  71   1.0000      -5.662093      -154.0734
  72   1.0000      -5.656473      -153.9204
  73   1.0000      -5.656226      -153.9137
  74   1.0000      -5.656148      -153.9116
  75   1.0000      -5.655709      -153.8997
  76   1.0000      -5.654932      -153.8785
  77   1.0000      -5.654654      -153.8710
  78   1.0000      -5.654587      -153.8691
  79   1.0000      -5.654122      -153.8565
  80   1.0000      -2.402763       -65.3825
  81   1.0000      -1.469541       -39.9883
  82   1.0000      -1.414934       -38.5023
  83   1.0000      -1.414877       -38.5008
  84   1.0000      -0.725550       -19.7432
  85   1.0000      -0.714189       -19.4341
  86   1.0000      -0.689476       -18.7616
  87   1.0000      -0.687492       -18.7076
  88   1.0000      -0.661420       -17.9982
  89   1.0000      -0.636025       -17.3071
  90   1.0000      -0.633724       -17.2445
  91   1.0000      -0.618005       -16.8168
  92   1.0000      -0.604743       -16.4559
  93   1.0000      -0.585723       -15.9383
  94   1.0000      -0.580226       -15.7887
  95   1.0000      -0.578352       -15.7378
  96   1.0000      -0.577296       -15.7090
  97   1.0000      -0.497941       -13.5497
  98   1.0000      -0.497810       -13.5461
  99   1.0000      -0.496288       -13.5047
 100   1.0000      -0.495943       -13.4953
 101   1.0000      -0.482049       -13.1172
 102   1.0000      -0.480187       -13.0666
 103   1.0000      -0.448679       -12.2092
 104   1.0000      -0.445677       -12.1275
 105   1.0000      -0.417331       -11.3561
 106   1.0000      -0.413181       -11.2432
 107   1.0000      -0.355198        -9.6654
 108   1.0000      -0.354257        -9.6398
 109   1.0000      -0.327863        -8.9216
 110   1.0000      -0.327542        -8.9129
 111   1.0000      -0.325509        -8.8576
 112   1.0000      -0.320594        -8.7238
 113   1.0000      -0.305609        -8.3160
 114   1.0000      -0.305159        -8.3038
 115   1.0000      -0.293912        -7.9978
 116   1.0000      -0.272770        -7.4224
 117   1.0000      -0.259553        -7.0628
 118   1.0000      -0.258221        -7.0265
 119   1.0000      -0.255663        -6.9569
 120   1.0000      -0.251373        -6.8402
 121   1.0000      -0.244495        -6.6531
 122   1.0000      -0.233689        -6.3590
 123   1.0000      -0.231827        -6.3083
 124   1.0000      -0.222609        -6.0575
 125   1.0000      -0.221209        -6.0194
 126   1.0000      -0.218018        -5.9326
 127   1.0000      -0.216280        -5.8853
 128   1.0000      -0.214254        -5.8301
 129   1.0000      -0.194730        -5.2989
 130   1.0000      -0.189252        -5.1498
 131   1.0000      -0.188436        -5.1276
 132   1.0000      -0.184421        -5.0184
 133   1.0000      -0.176223        -4.7953
 134   1.0000      -0.164139        -4.4664
 135   1.0000      -0.153795        -4.1850
 136   1.0000      -0.147206        -4.0057
 137   1.0000      -0.141255        -3.8437
 138   1.0000      -0.136497        -3.7143
 139   1.0000      -0.129114        -3.5134
 140   1.0000      -0.127900        -3.4803
 141   1.0000      -0.119006        -3.2383
 142   1.0000      -0.118763        -3.2317
 143   1.0000      -0.114084        -3.1044
 144   1.0000      -0.101480        -2.7614
 145   1.0000      -0.099517        -2.7080
 146   1.0000      -0.097743        -2.6597
 147   1.0000      -0.094053        -2.5593
 148   1.0000      -0.073577        -2.0021
 149   1.0000      -0.067895        -1.8475
 150   1.0000      -0.066192        -1.8012
 151   1.0000      -0.053370        -1.4523
 152   1.0000      -0.048822        -1.3285
 153   1.0000      -0.039260        -1.0683
 154   1.0000      -0.037537        -1.0214
 155   1.0000      -0.030066        -0.8181
 156   1.0000      -0.028918        -0.7869
 157   1.0000      -0.018688        -0.5085
 158   1.0000       0.019221         0.5230
 159   1.0000       0.037742         1.0270
 160   0.0000       0.137181         3.7329
 161   0.0000       0.139213         3.7882
 162   0.0000       0.152766         4.1570
 163   0.0000       0.161508         4.3948
 164   0.0000       0.164241         4.4692

MULLIKEN ATOMIC CHARGES AND SPIN POPULATIONS
--------------------------------------------
   0 V :    0.459649    1.209654
   1 S :   -0.287299   -0.022445
   2 S :   -0.275525   -0.023148
   3 S :   -0.285391   -0.023397
   4 S :   -0.271386   -0.023739
   5 O :   -0.465301   -0.146911
   6 C :   -0.093958    0.008327
   7 C :   -0.100259    0.006855
   8 C :   -0.086827    0.007706
   9 C :   -0.087538    0.007371
  10 S :    0.127556   -0.000521
  11 S :    0.128651   -0.000580
  12 S :    0.110557   -0.000401
  13 S :    0.109764   -0.000355
  14 C :   -0.250469    0.000022
  15 C :   -0.223803    0.000992
  16 C :   -0.159762    0.001074
  17 C :   -0.191877   -0.000380
  18 S :    0.003568   -0.000121
  19 S :    0.004486   -0.000118
  20 S :    0.008519   -0.000064
  21 S :    0.008632   -0.000067
  22 C :   -0.288888   -0.000002
  23 C :   -0.288322   -0.000003
  24 C :   -0.176044   -0.000008
  25 H :    0.141354   -0.000001
  26 H :    0.111016   -0.000004
  27 H :    0.082201   -0.000001
  28 H :    0.093100   -0.000002
  29 H :    0.110772   -0.000005
  30 H :    0.140921   -0.000001
  31 C :   -0.339301    0.000194
  32 C :   -0.339238    0.000187
  33 C :   -0.110219   -0.000150
  34 H :    0.134151   -0.000021
  35 H :    0.117407    0.000033
  36 H :    0.091013    0.000005
  37 H :    0.086282    0.000009
  38 H :    0.117448    0.000033
  39 H :    0.134358   -0.000021
Sum of atomic charges         :   -2.0000000

LOEWDIN ATOMIC CHARGES AND SPIN POPULATIONS
-------------------------------------------
   0 V :   -0.156521    1.163337
   1 S :    0.084550   -0.014395
   2 S :    0.097657   -0.014927
   3 S :    0.085816   -0.015194
   4 S :    0.101210   -0.015217
   5 O :   -0.317796   -0.131773
   6 C :   -0.571457    0.008192
   7 C :   -0.573536    0.007194
   8 C :   -0.556833    0.008069
   9 C :   -0.556803    0.007600
  10 S :    0.514838   -0.000910
  11 S :    0.515922   -0.000959
  12 S :    0.484902   -0.000815
  13 S :    0.484206   -0.000823
  14 C :   -0.522729    0.000104
  15 C :   -0.477331   -0.000043
  16 C :   -0.651668    0.000647
  17 C :   -0.634691    0.000073
  18 S :    0.355822   -0.000088
  19 S :    0.356832   -0.000084
  20 S :    0.362562   -0.000069
  21 S :    0.362141   -0.000071
  22 C :   -0.283597   -0.000007
  23 C :   -0.283746   -0.000009
  24 C :   -0.179490   -0.000002
  25 H :    0.061602   -0.000001
  26 H :    0.054078   -0.000002
  27 H :    0.056680   -0.000002
  28 H :    0.060503   -0.000001
  29 H :    0.054040   -0.000002
  30 H :    0.061408   -0.000001
  31 C :   -0.290185    0.000078
  32 C :   -0.290048    0.000069
  33 C :   -0.167505    0.000001
  34 H :    0.064593   -0.000002
  35 H :    0.051335    0.000014
  36 H :    0.061349    0.000003
  37 H :    0.065929    0.000004
  38 H :    0.051440    0.000015
  39 H :    0.064518   -0.000001

  Mayer bond orders larger than 0.100000
B(  0-V ,  1-S ) :   0.7768 B(  0-V ,  2-S ) :   0.7745 B(  0-V ,  3-S ) :   0.7702
B(  0-V ,  4-S ) :   0.7817 B(  0-V ,  5-O ) :   2.1498 B(  1-S ,  8-C ) :   1.1089
B(  2-S ,  6-C ) :   1.1382 B(  3-S ,  9-C ) :   1.1118 B(  4-S ,  7-C ) :   1.1390
B(  6-C ,  7-C ) :   1.6133 B(  6-C , 10-S ) :   0.9951 B(  7-C , 11-S ) :   0.9969
B(  8-C ,  9-C ) :   1.6858 B(  8-C , 13-S ) :   0.9442 B(  9-C , 12-S ) :   0.9460
B( 10-S , 14-C ) :   1.2679 B( 11-S , 14-C ) :   1.2700 B( 12-S , 15-C ) :   1.2684
B( 13-S , 15-C ) :   1.2686 B( 14-C , 16-C ) :   1.3790 B( 15-C , 17-C ) :   1.4130
B( 16-C , 18-S ) :   1.0757 B( 16-C , 19-S ) :   1.0807 B( 17-C , 20-S ) :   1.0979
B( 17-C , 21-S ) :   1.0985 B( 18-S , 32-C ) :   0.9868 B( 19-S , 31-C ) :   0.9865
B( 20-S , 23-C ) :   0.9919 B( 21-S , 22-C ) :   0.9912 B( 22-C , 24-C ) :   0.9143
B( 22-C , 25-H ) :   0.9632 B( 22-C , 26-H ) :   0.9672 B( 23-C , 24-C ) :   0.9148
B( 23-C , 29-H ) :   0.9672 B( 23-C , 30-H ) :   0.9630 B( 24-C , 27-H ) :   0.9572
B( 24-C , 28-H ) :   0.9757 B( 31-C , 33-C ) :   0.9121 B( 31-C , 38-H ) :   0.9550
B( 31-C , 39-H ) :   0.9732 B( 32-C , 33-C ) :   0.9122 B( 32-C , 34-H ) :   0.9732
B( 32-C , 35-H ) :   0.9550 B( 33-C , 36-H ) :   0.9510 B( 33-C , 37-H ) :   0.9792

FINAL SINGLE POINT ENERGY     -6337.677806502410

DIPOLE MOMENT
-------------
                                X             Y             Z
Electronic contribution:     -4.46628      11.88457      -3.58858
Nuclear contribution   :      4.85883     -13.27716       3.55276
                        -----------------------------------------
Total Dipole Moment    :      0.39255      -1.39259      -0.03582
                        -----------------------------------------
Magnitude (a.u.)       :      1.44730
Magnitude (Debye)      :      3.67875

Rotational constants in cm-1:     0.010974     0.000805     0.000785
Rotational constants in MHz :   329.006249    24.119968    23.525216

                             ****ORCA TERMINATED NORMALLY****
TOTAL RUN TIME: 0 days 1 hours 6 minutes 24 seconds 90 msec
