                         Program Version 5.0.4 -  RELEASE  -
|  1> ! nofrozencore ReducedPop printbasis
|  2> ! B3LYP TZVP
|  3>
|  4> %basis
|  5> newgto V "CP(PPP)" end
|  6> end
|  7>
|  8> %pal
|  9> nprocs 6
| 10> end
| 11>
| 12> % sym SymThresh 1e-2 end
| 13> * xyz -2 2
| 14> V 0.9653898292121122 0.44604274460348065 0.3299881410269207
| 15> S 0.6317199209780608 1.3477437699810575 -1.9375404196005095
| 16> S -0.8697872904351808 1.9848231004556616 0.976523962005542
| 17> S 1.734403063736883 -1.6441148863059842 -0.7967469351727523
| 18> S 0.005550391695653338 -1.0958400937180013 1.9922250711117324
| 19> O 2.270902600704128 1.1110839804036112 0.9512732746480876
| 20> C -1.28954064207187 1.2815372150761515 2.5317598264951457
| 21> C -0.9476346970400262 0.04289812305177147 2.935077802327988
| 22> C 1.388446959722314 0.09682952537117202 -2.918027133393426
| 23> C 1.8058549795141143 -1.1051801574400344 -2.470310835929741
| 24> S -2.3109586385901912 2.233274712746087 3.6633630361019716
| 25> S -1.5938664358611765 -0.49114526396148117 4.521350540356543
| 26> S 2.4478806346692354 -2.2351168010170333 -3.717055861046579
| 27> S 1.5792446257635013 0.41686738561174563 -4.670984026202222
| 28> C -2.4765194868272142 0.9905614974394954 4.909680401093486
| 29> C 2.211062526395216 -1.1757099174915266 -5.113670226563878
| 30> C -3.200028537010239 1.156062696980807 6.05866831508068
| 31> C 2.4907644076362723 -1.5262065742045545 -6.40565554340351
| 32> S -3.9769446472773122 2.7055005391933924 6.478880279711734
| 33> S -3.3923042378526205 -0.16621346731377767 7.237778491397114
| 34> S 2.3636611747313587 -0.33133967367596556 -7.724971528515614
| 35> S 2.9563679507711695 -3.182600508538572 -6.881723389235076
| 36> C 1.4993293253816569 -3.5529359367318363 -7.973494673098117
| 37> C 1.0079443228762313 -1.1303609835959276 -8.70495344960182
| 38> C 1.327529252401036 -2.5661911967948963 -9.134463359048187
| 39> H 0.6044216016302282 -3.57406785380529 -7.347037803103193
| 40> H 1.67264275934083 -4.56434263121229 -8.355440790332473
| 41> H 0.5033371528433939 -2.9257714408760376 -9.76988377263459
| 42> H 2.235420210878166 -2.5675818274253412 -9.746222756131656
| 43> H 0.8657851181988029 -0.4914908851198796 -9.582556191068987
| 44> H 0.09283676209747403 -1.098189729963203 -8.10891720171982
| 45> C -2.5495947444873615 0.6193827514357644 8.687128931243699
| 46> C -3.0304635891638427 3.0613266888711888 8.032052257236078
| 47> C -3.1545295434184855 1.9650993693210812 9.093930400553319
| 48> H -1.9841252139232426 3.224627606003983 7.762586838663583
| 49> H -3.4371237316223944 4.003543440075841 8.409369935857077
| 50> H -4.210313326476566 1.8263933388887605 9.348922135961107
| 51> H -2.6406408491854814 2.30980518722088 10.002798236937425
| 52> H -2.642780882416982 -0.10243725229951504 9.503293733889196
| 53> H -1.4891796404390403 0.7271008282089342 8.44605499062904
| 54> *
| 55>
| 56> % eprnmr
| 57> gtensor true
| 58> Nuclei = all H {aiso,adip,aorb,fgrad,rho}
| 59> Nuclei = all V {aiso,adip,aorb,fgrad,rho}
| 60> end
| 61>
| 62>                          ****END OF INPUT****

CARTESIAN COORDINATES (ANGSTROEM)
---------------------------------
  V      0.961739    0.445385    0.330957
  S      0.628069    1.347086   -1.936571
  S     -0.873438    1.984165    0.977493
  S      1.730753   -1.644773   -0.795778
  S      0.001900   -1.096498    1.993194
  O      2.267252    1.110426    0.952242
  C     -1.293191    1.280879    2.532729
  C     -0.951285    0.042240    2.936047
  C      1.384797    0.096171   -2.917058
  C      1.802205   -1.105838   -2.469342
  S     -2.314609    2.232617    3.664332
  S     -1.597517   -0.491803    4.522320
  S      2.444230   -2.235775   -3.716087
  S      1.575594    0.416209   -4.670015
  C     -2.480170    0.989903    4.910650
  C      2.207412   -1.176368   -5.112701
  C     -3.203679    1.155405    6.059637
  C      2.487114   -1.526865   -6.404686
  S     -3.980595    2.704843    6.479849
  S     -3.395955   -0.166872    7.238748
  S      2.360011   -0.331998   -7.724002
  S      2.952718   -3.183259   -6.880754
  C      1.495679   -3.553594   -7.972526
  C      1.004294   -1.131019   -8.703984
  C      1.323879   -2.566849   -9.133494
  H      0.600771   -3.574726   -7.346069
  H      1.668992   -4.565001   -8.354472
  H      0.499687   -2.926429   -9.768915
  H      2.231770   -2.568240   -9.745254
  H      0.862135   -0.492149   -9.581587
  H      0.089186   -1.098848   -8.107948
  C     -2.553245    0.618725    8.688098
  C     -3.034114    3.060669    8.033021
  C     -3.158180    1.964441    9.094900
  H     -1.987776    3.223970    7.763556
  H     -3.440774    4.002885    8.410339
  H     -4.213964    1.825735    9.349891
  H     -2.644291    2.309147   10.003767
  H     -2.646431   -0.103095    9.504263
  H     -1.492830    0.726443    8.447024

 Total Charge           Charge          ....   -2
 Multiplicity           Mult            ....    2
 Number of Electrons    NEL             ....  321
 Basis Dimension        Dim             ....  681

ORBITAL ENERGIES
----------------
                 SPIN UP ORBITALS
  NO   OCC          E(Eh)            E(eV)
   0   1.0000    -196.675208     -5351.8045
   1   1.0000     -88.733429     -2414.5594
   2   1.0000     -88.733236     -2414.5541
   3   1.0000     -88.733156     -2414.5519
   4   1.0000     -88.733129     -2414.5512
   5   1.0000     -88.730653     -2414.4838
   6   1.0000     -88.730136     -2414.4698
   7   1.0000     -88.729901     -2414.4633
   8   1.0000     -88.729368     -2414.4488
   9   1.0000     -88.640174     -2412.0218
  10   1.0000     -88.640109     -2412.0200
  11   1.0000     -88.639045     -2411.9910
  12   1.0000     -88.639002     -2411.9899
  13   1.0000     -22.050564      -600.0264
  14   1.0000     -18.889815      -514.0180
  15   1.0000     -18.557012      -504.9620
  16   1.0000     -18.551850      -504.8215
  17   1.0000     -18.551733      -504.8183
  18   1.0000     -10.075798      -274.1764
  19   1.0000     -10.075666      -274.1728
  20   1.0000     -10.063860      -273.8516
  21   1.0000     -10.063689      -273.8469
  22   1.0000     -10.063495      -273.8416
  23   1.0000     -10.063386      -273.8387
  24   1.0000     -10.051555      -273.5167
  25   1.0000     -10.051434      -273.5134
  26   1.0000     -10.048477      -273.4330
  27   1.0000     -10.048236      -273.4264
  28   1.0000     -10.018674      -272.6220
  29   1.0000     -10.018291      -272.6116
  30   1.0000     -10.017086      -272.5788
  31   1.0000     -10.017063      -272.5781
  32   1.0000      -7.786670      -211.8861
  33   1.0000      -7.786660      -211.8858
  34   1.0000      -7.786548      -211.8827
  35   1.0000      -7.786536      -211.8824
  36   1.0000      -7.783814      -211.8083
  37   1.0000      -7.783395      -211.7970
  38   1.0000      -7.783187      -211.7913
  39   1.0000      -7.782667      -211.7771
  40   1.0000      -7.694454      -209.3767
  41   1.0000      -7.694348      -209.3739
  42   1.0000      -7.693295      -209.3452
  43   1.0000      -7.693186      -209.3422
  44   1.0000      -5.751680      -156.5112
  45   1.0000      -5.751660      -156.5106
  46   1.0000      -5.751540      -156.5074
  47   1.0000      -5.751532      -156.5071
  48   1.0000      -5.748765      -156.4319
  49   1.0000      -5.748342      -156.4204
  50   1.0000      -5.748273      -156.4185
  51   1.0000      -5.748240      -156.4176
  52   1.0000      -5.748130      -156.4146
  53   1.0000      -5.748127      -156.4145
  54   1.0000      -5.748116      -156.4142
  55   1.0000      -5.747621      -156.4007
  56   1.0000      -5.744345      -156.3116
  57   1.0000      -5.743905      -156.2996
  58   1.0000      -5.743700      -156.2940
  59   1.0000      -5.743183      -156.2799
  60   1.0000      -5.741471      -156.2334
  61   1.0000      -5.741433      -156.2323
  62   1.0000      -5.741353      -156.2302
  63   1.0000      -5.741313      -156.2291
  64   1.0000      -5.739645      -156.1837
  65   1.0000      -5.739229      -156.1723
  66   1.0000      -5.739005      -156.1663
  67   1.0000      -5.738462      -156.1515
  68   1.0000      -5.659760      -154.0099
  69   1.0000      -5.659662      -154.0072
  70   1.0000      -5.658619      -153.9788
  71   1.0000      -5.658533      -153.9765
  72   1.0000      -5.653121      -153.8292
  73   1.0000      -5.652983      -153.8255
  74   1.0000      -5.651976      -153.7981
  75   1.0000      -5.651881      -153.7955
  76   1.0000      -5.651783      -153.7928
  77   1.0000      -5.651702      -153.7906
  78   1.0000      -5.650556      -153.7594
  79   1.0000      -5.650464      -153.7570
  80   1.0000      -2.444056       -66.5061
  81   1.0000      -1.485063       -40.4106
  82   1.0000      -1.473710       -40.1017
  83   1.0000      -1.472927       -40.0804
  84   1.0000      -0.709184       -19.2979
  85   1.0000      -0.708324       -19.2745
  86   1.0000      -0.685350       -18.6493
  87   1.0000      -0.684251       -18.6194
  88   1.0000      -0.649243       -17.6668
  89   1.0000      -0.631096       -17.1730
  90   1.0000      -0.630250       -17.1500
  91   1.0000      -0.616954       -16.7882
  92   1.0000      -0.615915       -16.7599
  93   1.0000      -0.574343       -15.6287
  94   1.0000      -0.574213       -15.6251
  95   1.0000      -0.573049       -15.5934
  96   1.0000      -0.571516       -15.5517
  97   1.0000      -0.496601       -13.5132
  98   1.0000      -0.495964       -13.4959
  99   1.0000      -0.495266       -13.4769
 100   1.0000      -0.494620       -13.4593
 101   1.0000      -0.479542       -13.0490
 102   1.0000      -0.476882       -12.9766
 103   1.0000      -0.446994       -12.1633
 104   1.0000      -0.444778       -12.1030
 105   1.0000      -0.416028       -11.3207
 106   1.0000      -0.410787       -11.1781
 107   1.0000      -0.355131        -9.6636
 108   1.0000      -0.354225        -9.6390
 109   1.0000      -0.326455        -8.8833
 110   1.0000      -0.325494        -8.8572
 111   1.0000      -0.318790        -8.6747
 112   1.0000      -0.314182        -8.5493
 113   1.0000      -0.304063        -8.2740
 114   1.0000      -0.303181        -8.2500
 115   1.0000      -0.292230        -7.9520
 116   1.0000      -0.291383        -7.9289
 117   1.0000      -0.257701        -7.0124
 118   1.0000      -0.257586        -7.0093
 119   1.0000      -0.255627        -6.9560
 120   1.0000      -0.255166        -6.9434
 121   1.0000      -0.234241        -6.3740
 122   1.0000      -0.233538        -6.3549
 123   1.0000      -0.231002        -6.2859
 124   1.0000      -0.229643        -6.2489
 125   1.0000      -0.219495        -5.9728
 126   1.0000      -0.217876        -5.9287
 127   1.0000      -0.213997        -5.8232
 128   1.0000      -0.211449        -5.7538
 129   1.0000      -0.192600        -5.2409
 130   1.0000      -0.186748        -5.0817
 131   1.0000      -0.185730        -5.0540
 132   1.0000      -0.184287        -5.0147
 133   1.0000      -0.179090        -4.8733
 134   1.0000      -0.159143        -4.3305
 135   1.0000      -0.151370        -4.1190
 136   1.0000      -0.146694        -3.9918
 137   1.0000      -0.135579        -3.6893
 138   1.0000      -0.133626        -3.6361
 139   1.0000      -0.132581        -3.6077
 140   1.0000      -0.124623        -3.3912
 141   1.0000      -0.120863        -3.2888
 142   1.0000      -0.112540        -3.0624
 143   1.0000      -0.109071        -2.9680
 144   1.0000      -0.099542        -2.7087
 145   1.0000      -0.097774        -2.6606
 146   1.0000      -0.097066        -2.6413
 147   1.0000      -0.094371        -2.5680
 148   1.0000      -0.074125        -2.0170
 149   1.0000      -0.067678        -1.8416
 150   1.0000      -0.067185        -1.8282
 151   1.0000      -0.052147        -1.4190
 152   1.0000      -0.045206        -1.2301
 153   1.0000      -0.037062        -1.0085
 154   1.0000      -0.036902        -1.0041
 155   1.0000      -0.030778        -0.8375
 156   1.0000      -0.024555        -0.6682
 157   1.0000      -0.019606        -0.5335
 158   1.0000      -0.014931        -0.4063
 159   1.0000       0.020855         0.5675
 160   1.0000       0.041424         1.1272
 161   0.0000       0.136763         3.7215
 162   0.0000       0.136863         3.7242
 163   0.0000       0.161958         4.4071
 164   0.0000       0.162065         4.4100
 165   0.0000       0.170226         4.6321

                 SPIN DOWN ORBITALS
  NO   OCC          E(Eh)            E(eV)
   0   1.0000    -196.675355     -5351.8085
   1   1.0000     -88.733429     -2414.5594
   2   1.0000     -88.733237     -2414.5541
   3   1.0000     -88.733157     -2414.5520
   4   1.0000     -88.733130     -2414.5512
   5   1.0000     -88.730662     -2414.4841
   6   1.0000     -88.730144     -2414.4700
   7   1.0000     -88.729909     -2414.4636
   8   1.0000     -88.729375     -2414.4490
   9   1.0000     -88.640316     -2412.0256
  10   1.0000     -88.640248     -2412.0238
  11   1.0000     -88.639182     -2411.9948
  12   1.0000     -88.639147     -2411.9938
  13   1.0000     -22.035587      -599.6188
  14   1.0000     -18.893642      -514.1221
  15   1.0000     -18.551712      -504.8177
  16   1.0000     -18.535755      -504.3835
  17   1.0000     -18.535596      -504.3792
  18   1.0000     -10.075797      -274.1764
  19   1.0000     -10.075660      -274.1727
  20   1.0000     -10.063860      -273.8516
  21   1.0000     -10.063689      -273.8469
  22   1.0000     -10.063494      -273.8416
  23   1.0000     -10.063386      -273.8387
  24   1.0000     -10.051555      -273.5167
  25   1.0000     -10.051434      -273.5134
  26   1.0000     -10.048473      -273.4329
  27   1.0000     -10.048225      -273.4261
  28   1.0000     -10.018482      -272.6167
  29   1.0000     -10.018051      -272.6050
  30   1.0000     -10.016857      -272.5725
  31   1.0000     -10.016844      -272.5722
  32   1.0000      -7.786671      -211.8861
  33   1.0000      -7.786661      -211.8858
  34   1.0000      -7.786549      -211.8828
  35   1.0000      -7.786537      -211.8824
  36   1.0000      -7.783823      -211.8086
  37   1.0000      -7.783405      -211.7972
  38   1.0000      -7.783197      -211.7916
  39   1.0000      -7.782675      -211.7774
  40   1.0000      -7.694586      -209.3803
  41   1.0000      -7.694478      -209.3774
  42   1.0000      -7.693430      -209.3489
  43   1.0000      -7.693314      -209.3457
  44   1.0000      -5.751680      -156.5112
  45   1.0000      -5.751661      -156.5107
  46   1.0000      -5.751541      -156.5074
  47   1.0000      -5.751533      -156.5072
  48   1.0000      -5.748776      -156.4321
  49   1.0000      -5.748353      -156.4206
  50   1.0000      -5.748273      -156.4185
  51   1.0000      -5.748242      -156.4176
  52   1.0000      -5.748141      -156.4149
  53   1.0000      -5.748129      -156.4145
  54   1.0000      -5.748117      -156.4142
  55   1.0000      -5.747630      -156.4010
  56   1.0000      -5.744360      -156.3120
  57   1.0000      -5.743919      -156.3000
  58   1.0000      -5.743713      -156.2944
  59   1.0000      -5.743195      -156.2803
  60   1.0000      -5.741472      -156.2334
  61   1.0000      -5.741434      -156.2324
  62   1.0000      -5.741354      -156.2302
  63   1.0000      -5.741314      -156.2291
  64   1.0000      -5.739652      -156.1839
  65   1.0000      -5.739236      -156.1725
  66   1.0000      -5.739014      -156.1665
  67   1.0000      -5.738467      -156.1516
  68   1.0000      -5.659907      -154.0139
  69   1.0000      -5.659800      -154.0110
  70   1.0000      -5.658761      -153.9827
  71   1.0000      -5.658671      -153.9803
  72   1.0000      -5.653480      -153.8390
  73   1.0000      -5.653368      -153.8360
  74   1.0000      -5.652367      -153.8087
  75   1.0000      -5.652244      -153.8054
  76   1.0000      -5.651897      -153.7959
  77   1.0000      -5.651785      -153.7929
  78   1.0000      -5.650653      -153.7621
  79   1.0000      -5.650562      -153.7596
  80   1.0000      -2.399035       -65.2811
  81   1.0000      -1.465637       -39.8820
  82   1.0000      -1.411233       -38.4016
  83   1.0000      -1.411009       -38.3955
  84   1.0000      -0.709158       -19.2972
  85   1.0000      -0.708308       -19.2740
  86   1.0000      -0.685295       -18.6478
  87   1.0000      -0.684209       -18.6183
  88   1.0000      -0.657491       -17.8912
  89   1.0000      -0.631024       -17.1710
  90   1.0000      -0.630192       -17.1484
  91   1.0000      -0.616954       -16.7882
  92   1.0000      -0.615917       -16.7599
  93   1.0000      -0.574313       -15.6279
  94   1.0000      -0.574185       -15.6244
  95   1.0000      -0.572969       -15.5913
  96   1.0000      -0.571457       -15.5501
  97   1.0000      -0.496619       -13.5137
  98   1.0000      -0.496012       -13.4972
  99   1.0000      -0.495309       -13.4780
 100   1.0000      -0.494652       -13.4602
 101   1.0000      -0.479740       -13.0544
 102   1.0000      -0.477141       -12.9837
 103   1.0000      -0.447016       -12.1639
 104   1.0000      -0.444827       -12.1044
 105   1.0000      -0.416032       -11.3208
 106   1.0000      -0.410905       -11.1813
 107   1.0000      -0.355121        -9.6633
 108   1.0000      -0.354220        -9.6388
 109   1.0000      -0.326439        -8.8829
 110   1.0000      -0.325485        -8.8569
 111   1.0000      -0.318714        -8.6727
 112   1.0000      -0.314212        -8.5501
 113   1.0000      -0.304011        -8.2726
 114   1.0000      -0.303158        -8.2493
 115   1.0000      -0.292224        -7.9518
 116   1.0000      -0.291380        -7.9288
 117   1.0000      -0.257626        -7.0103
 118   1.0000      -0.257434        -7.0051
 119   1.0000      -0.255591        -6.9550
 120   1.0000      -0.255132        -6.9425
 121   1.0000      -0.234203        -6.3730
 122   1.0000      -0.233519        -6.3544
 123   1.0000      -0.230953        -6.2845
 124   1.0000      -0.229615        -6.2481
 125   1.0000      -0.219112        -5.9623
 126   1.0000      -0.217789        -5.9263
 127   1.0000      -0.213794        -5.8176
 128   1.0000      -0.211313        -5.7501
 129   1.0000      -0.190926        -5.1954
 130   1.0000      -0.186677        -5.0797
 131   1.0000      -0.185326        -5.0430
 132   1.0000      -0.184071        -5.0088
 133   1.0000      -0.178981        -4.8703
 134   1.0000      -0.158533        -4.3139
 135   1.0000      -0.151200        -4.1144
 136   1.0000      -0.146618        -3.9897
 137   1.0000      -0.134958        -3.6724
 138   1.0000      -0.133401        -3.6300
 139   1.0000      -0.132258        -3.5989
 140   1.0000      -0.124067        -3.3760
 141   1.0000      -0.120535        -3.2799
 142   1.0000      -0.114407        -3.1132
 143   1.0000      -0.110664        -3.0113
 144   1.0000      -0.099519        -2.7080
 145   1.0000      -0.098153        -2.6709
 146   1.0000      -0.097057        -2.6411
 147   1.0000      -0.094715        -2.5773
 148   1.0000      -0.070356        -1.9145
 149   1.0000      -0.067668        -1.8413
 150   1.0000      -0.067170        -1.8278
 151   1.0000      -0.049555        -1.3485
 152   1.0000      -0.044297        -1.2054
 153   1.0000      -0.037024        -1.0075
 154   1.0000      -0.036476        -0.9926
 155   1.0000      -0.030785        -0.8377
 156   1.0000      -0.025645        -0.6978
 157   1.0000      -0.015513        -0.4221
 158   1.0000       0.021148         0.5755
 159   1.0000       0.040319         1.0971
 160   0.0000       0.136764         3.7215
 161   0.0000       0.136879         3.7247
 162   0.0000       0.156074         4.2470
 163   0.0000       0.162073         4.4102
 164   0.0000       0.163447         4.4476

MULLIKEN ATOMIC CHARGES AND SPIN POPULATIONS
--------------------------------------------
   0 V :    0.473486    1.213465
   1 S :   -0.288102   -0.023593
   2 S :   -0.288837   -0.025999
   3 S :   -0.294489   -0.023176
   4 S :   -0.284863   -0.025270
   5 O :   -0.469070   -0.148199
   6 C :   -0.077710    0.010067
   7 C :   -0.084680    0.007572
   8 C :   -0.097936    0.008451
   9 C :   -0.071835    0.006732
  10 S :    0.099562   -0.000587
  11 S :    0.101251   -0.000625
  12 S :    0.098777   -0.000463
  13 S :    0.101171   -0.000209
  14 C :   -0.212863    0.001489
  15 C :   -0.209782    0.001004
  16 C :   -0.192314   -0.000053
  17 C :   -0.191888   -0.000408
  18 S :    0.008872   -0.000117
  19 S :    0.009253   -0.000111
  20 S :    0.007474   -0.000075
  21 S :    0.006793   -0.000062
  22 C :   -0.300326    0.000002
  23 C :   -0.297410   -0.000004
  24 C :   -0.158939   -0.000012
  25 H :    0.142701   -0.000002
  26 H :    0.113037   -0.000003
  27 H :    0.083145   -0.000000
  28 H :    0.092066   -0.000001
  29 H :    0.113040   -0.000006
  30 H :    0.143113   -0.000001
  31 C :   -0.298931    0.000196
  32 C :   -0.301743    0.000190
  33 C :   -0.157197   -0.000240
  34 H :    0.142205   -0.000018
  35 H :    0.113519    0.000020
  36 H :    0.092101    0.000024
  37 H :    0.082513    0.000015
  38 H :    0.113068    0.000020
  39 H :    0.141767   -0.000018
Sum of atomic charges         :   -2.0000000

LOEWDIN ATOMIC CHARGES AND SPIN POPULATIONS
-------------------------------------------
   0 V :   -0.151455    1.166789
   1 S :    0.082944   -0.015173
   2 S :    0.079427   -0.016798
   3 S :    0.073191   -0.015323
   4 S :    0.083623   -0.015974
   5 O :   -0.321035   -0.133092
   6 C :   -0.549011    0.009065
   7 C :   -0.552902    0.007832
   8 C :   -0.554510    0.008712
   9 C :   -0.548595    0.006990
  10 S :    0.471536   -0.000863
  11 S :    0.472057   -0.000988
  12 S :    0.470107   -0.000883
  13 S :    0.471279   -0.000701
  14 C :   -0.465127    0.000158
  15 C :   -0.464291   -0.000083
  16 C :   -0.622368    0.000475
  17 C :   -0.621082    0.000096
  18 S :    0.356834   -0.000092
  19 S :    0.361270   -0.000085
  20 S :    0.360638   -0.000077
  21 S :    0.352888   -0.000067
  22 C :   -0.282248   -0.000005
  23 C :   -0.283305   -0.000010
  24 C :   -0.176059   -0.000001
  25 H :    0.062498   -0.000001
  26 H :    0.053721   -0.000002
  27 H :    0.058272   -0.000001
  28 H :    0.060149   -0.000001
  29 H :    0.053961   -0.000003
  30 H :    0.062388   -0.000002
  31 C :   -0.284378    0.000045
  32 C :   -0.283495    0.000035
  33 C :   -0.176389    0.000007
  34 H :    0.062233   -0.000001
  35 H :    0.053563    0.000008
  36 H :    0.060272    0.000005
  37 H :    0.057819    0.000002
  38 H :    0.053687    0.000009
  39 H :    0.061889   -0.000000

  Mayer bond orders larger than 0.100000
B(  0-V ,  1-S ) :   0.7819 B(  0-V ,  2-S ) :   0.7650 B(  0-V ,  3-S ) :   0.7498
B(  0-V ,  4-S ) :   0.7866 B(  0-V ,  5-O ) :   2.1473 B(  1-S ,  8-C ) :   1.1000
B(  2-S ,  6-C ) :   1.1075 B(  3-S ,  9-C ) :   1.1060 B(  4-S ,  7-C ) :   1.1005
B(  6-C ,  7-C ) :   1.6846 B(  6-C , 10-S ) :   0.9349 B(  7-C , 11-S ) :   0.9392
B(  8-C ,  9-C ) :   1.6984 B(  8-C , 13-S ) :   0.9403 B(  9-C , 12-S ) :   0.9300
B( 10-S , 14-C ) :   1.2477 B( 11-S , 14-C ) :   1.2478 B( 12-S , 15-C ) :   1.2458
B( 13-S , 15-C ) :   1.2413 B( 14-C , 16-C ) :   1.4505 B( 15-C , 17-C ) :   1.4510
B( 16-C , 18-S ) :   1.0866 B( 16-C , 19-S ) :   1.0898 B( 17-C , 20-S ) :   1.0884
B( 17-C , 21-S ) :   1.0841 B( 18-S , 32-C ) :   0.9915 B( 19-S , 31-C ) :   0.9920
B( 20-S , 23-C ) :   0.9899 B( 21-S , 22-C ) :   0.9910 B( 22-C , 24-C ) :   0.9140
B( 22-C , 25-H ) :   0.9654 B( 22-C , 26-H ) :   0.9653 B( 23-C , 24-C ) :   0.9142
B( 23-C , 29-H ) :   0.9656 B( 23-C , 30-H ) :   0.9661 B( 24-C , 27-H ) :   0.9623
B( 24-C , 28-H ) :   0.9717 B( 31-C , 33-C ) :   0.9138 B( 31-C , 38-H ) :   0.9655
B( 31-C , 39-H ) :   0.9658 B( 32-C , 33-C ) :   0.9127 B( 32-C , 34-H ) :   0.9655
B( 32-C , 35-H ) :   0.9655 B( 33-C , 36-H ) :   0.9717 B( 33-C , 37-H ) :   0.9624

FINAL SINGLE POINT ENERGY     -6337.705976861539

DIPOLE MOMENT
-------------
                                X             Y             Z
Electronic contribution:     12.78273       4.55169       0.84779
Nuclear contribution   :    -14.22555      -5.06932      -0.95251
                        -----------------------------------------
Total Dipole Moment    :     -1.44283      -0.51764      -0.10472
                        -----------------------------------------
Magnitude (a.u.)       :      1.53644
Magnitude (Debye)      :      3.90533

Rotational constants in cm-1:     0.010737     0.000804     0.000784
Rotational constants in MHz :   321.893605    24.115345    23.490051

                             ****ORCA TERMINATED NORMALLY****
TOTAL RUN TIME: 0 days 1 hours 7 minutes 0 seconds 557 msec
