                         Program Version 5.0.4 -  RELEASE  -
|  1> ! nofrozencore ReducedPop printbasis
|  2> ! B3LYP TZVP
|  3>
|  4> %basis
|  5> newgto V "CP(PPP)" end
|  6> end
|  7>
|  8> %pal
|  9> nprocs 8
| 10> end
| 11>
| 12> % sym SymThresh 1e-2 end
| 13> * xyz -2 2
| 14> V 0.5058879766105595 -0.686253506545204 -0.7154456494656223
| 15> S 1.2734174733027583 -1.6056594363569272 1.448845528581006
| 16> S -1.6896228392677288 -1.6771973636698947 -0.14601791316689347
| 17> S 2.1436837729562144 1.1291714036912819 -0.32501011263354673
| 18> S -0.7960840441420958 1.0940818055317403 -1.8198631471208964
| 19> O 1.1022061765121935 -1.6150338086478804 -1.8588101450728352
| 20> C -2.6930369384846577 -0.8481199692952073 -1.3297093230886508
| 21> C -2.3356658041903082 0.2643641852795115 -1.997604346519986
| 22> C 2.6616700134813347 -0.5769115359066656 1.7829956246993672
| 23> C 3.005778199177752 0.5139567438378093 1.0776233950779774
| 24> S -4.351699606361158 -1.4637408867989483 -1.6385153111955266
| 25> S -3.5706291563965293 0.9790748994298812 -3.0850456718310304
| 26> S 4.43745096258271 1.4260274050861894 1.6596800447224567
| 27> S 3.688846632954713 -0.9676081363255712 3.2024100510954603
| 28> C -4.852163818270976 -0.20029622825576152 -2.7724469652744554
| 29> C 4.783712372078415 0.4247815491060285 3.0826390208302024
| 30> C -6.08497481625257 -0.14703455285251893 -3.355793098700283
| 31> C 5.767621614543031 0.6946632746363725 3.9779730082401903
| 32> S -7.32951920710424 -1.3898125096240659 -3.0517570163870342
| 33> S -6.533377198359963 1.1592722585912323 -4.48631559931364
| 34> S 6.072411239489145 -0.3609414711120494 5.392629704996198
| 35> S 6.832612288235955 2.1252473398541225 3.8044605523122454
| 36> C 6.333775876408387 2.9354886268230413 5.336528622041182
| 37> C 5.709976088813272 0.8760020061736201 6.65388073800271
| 38> C 6.563451119816373 2.201530606582832 6.71452198122422
| 39> H 5.326533865879911 3.3531715804331603 5.190939146641751
| 40> H 7.04193740420599 3.781066009760118 5.248840272263988
| 41> H 6.585070950194204 2.8025715774666313 7.665317812424322
| 42> H 7.600103048187937 1.7784349178979628 6.5420905198089905
| 43> H 5.968929855888813 0.23294157897277623 7.515869980340255
| 44> H 4.620223328257437 1.0211479989916126 6.686883901060508
| 45> C -6.805558860527204 0.12527196528644474 -5.979921654444809
| 46> C -7.470486264543851 -2.027793250332731 -4.769284601487384
| 47> C -7.867231655893161 -0.9841052249005258 -5.834101022894618
| 48> H -6.538492710979158 -2.5402816863350797 -5.020183955704813
| 49> H -8.255475136028988 -2.7848165547856256 -4.67806600515577
| 50> H -8.788134681756137 -0.5012418451814163 -5.479843407151986
| 51> H -8.091801747115243 -1.458217342133196 -6.801138468271301
| 52> H -7.132311539580617 0.8603474517014129 -6.721870863054276
| 53> H -5.8381689301414506 -0.26817641723279617 -6.3017565203096515
| 54> *
| 55>
| 56> % eprnmr
| 57> gtensor true
| 58> Nuclei = all H {aiso,adip,aorb,fgrad,rho}
| 59> Nuclei = all V {aiso,adip,aorb,fgrad,rho}
| 60> end
| 61>
| 62>                          ****END OF INPUT****

CARTESIAN COORDINATES (ANGSTROEM)
---------------------------------
  V      0.502566   -0.684589   -0.714502
  S      1.270096   -1.603995    1.449790
  S     -1.692945   -1.675533   -0.145074
  S      2.140362    1.130836   -0.324066
  S     -0.799406    1.095747   -1.818919
  O      1.098884   -1.613369   -1.857866
  C     -2.696359   -0.846455   -1.328765
  C     -2.338988    0.266029   -1.996660
  C      2.658348   -0.575247    1.783940
  C      3.002456    0.515622    1.078568
  S     -4.355022   -1.462076   -1.637571
  S     -3.573951    0.980740   -3.084102
  S      4.434129    1.427692    1.660624
  S      3.685525   -0.965943    3.203354
  C     -4.855486   -0.198631   -2.771503
  C      4.780390    0.426446    3.083583
  C     -6.088297   -0.145370   -3.354849
  C      5.764300    0.696328    3.978917
  S     -7.332841   -1.388148   -3.050813
  S     -6.536699    1.160937   -4.485371
  S      6.069089   -0.359277    5.393574
  S      6.829290    2.126912    3.805405
  C      6.330454    2.937153    5.337473
  C      5.706654    0.877667    6.654825
  C      6.560129    2.203195    6.715466
  H      5.323212    3.354836    5.191883
  H      7.038615    3.782731    5.249784
  H      6.581749    2.804236    7.666262
  H      7.596781    1.780100    6.543035
  H      5.965608    0.234606    7.516814
  H      4.616901    1.022813    6.687828
  C     -6.808881    0.126937   -5.978978
  C     -7.473808   -2.026128   -4.768340
  C     -7.870554   -0.982440   -5.833157
  H     -6.541815   -2.538617   -5.019240
  H     -8.258797   -2.783152   -4.677122
  H     -8.791457   -0.499577   -5.478899
  H     -8.095124   -1.456553   -6.800194
  H     -7.135633    0.862012   -6.720927
  H     -5.841491   -0.266512   -6.300812

 Total Charge           Charge          ....   -2
 Multiplicity           Mult            ....    2
 Number of Electrons    NEL             ....  321
 Basis Dimension        Dim             ....  681

ORBITAL ENERGIES
----------------
                 SPIN UP ORBITALS
  NO   OCC          E(Eh)            E(eV)
   0   1.0000    -196.673989     -5351.7713
   1   1.0000     -88.737749     -2414.6769
   2   1.0000     -88.737628     -2414.6736
   3   1.0000     -88.734089     -2414.5773
   4   1.0000     -88.734085     -2414.5772
   5   1.0000     -88.729270     -2414.4462
   6   1.0000     -88.729071     -2414.4408
   7   1.0000     -88.728264     -2414.4188
   8   1.0000     -88.728233     -2414.4180
   9   1.0000     -88.638878     -2411.9865
  10   1.0000     -88.638844     -2411.9856
  11   1.0000     -88.638660     -2411.9806
  12   1.0000     -88.638313     -2411.9711
  13   1.0000     -22.049380      -599.9941
  14   1.0000     -18.889132      -513.9994
  15   1.0000     -18.555834      -504.9299
  16   1.0000     -18.550655      -504.7890
  17   1.0000     -18.550556      -504.7863
  18   1.0000     -10.074825      -274.1499
  19   1.0000     -10.073960      -274.1264
  20   1.0000     -10.066224      -273.9159
  21   1.0000     -10.065444      -273.8946
  22   1.0000     -10.065386      -273.8931
  23   1.0000     -10.063032      -273.8290
  24   1.0000     -10.062948      -273.8267
  25   1.0000     -10.053798      -273.5778
  26   1.0000     -10.047599      -273.4091
  27   1.0000     -10.047096      -273.3954
  28   1.0000     -10.017281      -272.5841
  29   1.0000     -10.016558      -272.5644
  30   1.0000     -10.016346      -272.5586
  31   1.0000     -10.015753      -272.5425
  32   1.0000      -7.791592      -212.0200
  33   1.0000      -7.791481      -212.0170
  34   1.0000      -7.787655      -211.9129
  35   1.0000      -7.787634      -211.9123
  36   1.0000      -7.782524      -211.7732
  37   1.0000      -7.782367      -211.7690
  38   1.0000      -7.781543      -211.7465
  39   1.0000      -7.781524      -211.7460
  40   1.0000      -7.693171      -209.3418
  41   1.0000      -7.693094      -209.3397
  42   1.0000      -7.692873      -209.3337
  43   1.0000      -7.692662      -209.3280
  44   1.0000      -5.756583      -156.6446
  45   1.0000      -5.756471      -156.6415
  46   1.0000      -5.753086      -156.5494
  47   1.0000      -5.752980      -156.5465
  48   1.0000      -5.752646      -156.5375
  49   1.0000      -5.752625      -156.5369
  50   1.0000      -5.749205      -156.4438
  51   1.0000      -5.749202      -156.4437
  52   1.0000      -5.747478      -156.3968
  53   1.0000      -5.747317      -156.3924
  54   1.0000      -5.746527      -156.3709
  55   1.0000      -5.746520      -156.3708
  56   1.0000      -5.746386      -156.3671
  57   1.0000      -5.746269      -156.3639
  58   1.0000      -5.743048      -156.2763
  59   1.0000      -5.742888      -156.2719
  60   1.0000      -5.742450      -156.2600
  61   1.0000      -5.742422      -156.2592
  62   1.0000      -5.742082      -156.2500
  63   1.0000      -5.742079      -156.2499
  64   1.0000      -5.738334      -156.1480
  65   1.0000      -5.738177      -156.1437
  66   1.0000      -5.737291      -156.1196
  67   1.0000      -5.737272      -156.1191
  68   1.0000      -5.658484      -153.9752
  69   1.0000      -5.658412      -153.9732
  70   1.0000      -5.658216      -153.9679
  71   1.0000      -5.657964      -153.9610
  72   1.0000      -5.651825      -153.7940
  73   1.0000      -5.651774      -153.7926
  74   1.0000      -5.651548      -153.7864
  75   1.0000      -5.651334      -153.7806
  76   1.0000      -5.650489      -153.7576
  77   1.0000      -5.650400      -153.7552
  78   1.0000      -5.650169      -153.7489
  79   1.0000      -5.649961      -153.7432
  80   1.0000      -2.442973       -66.4767
  81   1.0000      -1.484231       -40.3880
  82   1.0000      -1.472610       -40.0717
  83   1.0000      -1.471801       -40.0497
  84   1.0000      -0.710065       -19.3218
  85   1.0000      -0.709107       -19.2958
  86   1.0000      -0.684314       -18.6211
  87   1.0000      -0.682881       -18.5821
  88   1.0000      -0.648770       -17.6539
  89   1.0000      -0.629542       -17.1307
  90   1.0000      -0.627543       -17.0763
  91   1.0000      -0.625665       -17.0252
  92   1.0000      -0.619653       -16.8616
  93   1.0000      -0.573451       -15.6044
  94   1.0000      -0.572613       -15.5816
  95   1.0000      -0.572481       -15.5780
  96   1.0000      -0.570960       -15.5366
  97   1.0000      -0.501341       -13.6422
  98   1.0000      -0.497466       -13.5367
  99   1.0000      -0.493520       -13.4294
 100   1.0000      -0.488829       -13.3017
 101   1.0000      -0.477304       -12.9881
 102   1.0000      -0.473753       -12.8915
 103   1.0000      -0.447244       -12.1701
 104   1.0000      -0.444707       -12.1011
 105   1.0000      -0.415404       -11.3037
 106   1.0000      -0.410221       -11.1627
 107   1.0000      -0.354291        -9.6407
 108   1.0000      -0.353007        -9.6058
 109   1.0000      -0.326782        -8.8922
 110   1.0000      -0.326069        -8.8728
 111   1.0000      -0.318823        -8.6756
 112   1.0000      -0.314520        -8.5585
 113   1.0000      -0.304343        -8.2816
 114   1.0000      -0.302116        -8.2210
 115   1.0000      -0.292284        -7.9535
 116   1.0000      -0.290656        -7.9091
 117   1.0000      -0.257793        -7.0149
 118   1.0000      -0.255705        -6.9581
 119   1.0000      -0.255161        -6.9433
 120   1.0000      -0.249822        -6.7980
 121   1.0000      -0.238012        -6.4766
 122   1.0000      -0.234530        -6.3819
 123   1.0000      -0.224561        -6.1106
 124   1.0000      -0.217973        -5.9313
 125   1.0000      -0.215126        -5.8539
 126   1.0000      -0.212792        -5.7904
 127   1.0000      -0.211795        -5.7632
 128   1.0000      -0.206913        -5.6304
 129   1.0000      -0.195395        -5.3170
 130   1.0000      -0.192337        -5.2338
 131   1.0000      -0.187441        -5.1005
 132   1.0000      -0.186974        -5.0878
 133   1.0000      -0.181035        -4.9262
 134   1.0000      -0.158642        -4.3169
 135   1.0000      -0.150924        -4.1069
 136   1.0000      -0.145630        -3.9628
 137   1.0000      -0.136565        -3.7161
 138   1.0000      -0.136001        -3.7008
 139   1.0000      -0.131743        -3.5849
 140   1.0000      -0.124694        -3.3931
 141   1.0000      -0.119809        -3.2602
 142   1.0000      -0.112401        -3.0586
 143   1.0000      -0.109388        -2.9766
 144   1.0000      -0.099146        -2.6979
 145   1.0000      -0.098559        -2.6819
 146   1.0000      -0.096904        -2.6369
 147   1.0000      -0.095248        -2.5918
 148   1.0000      -0.073650        -2.0041
 149   1.0000      -0.070979        -1.9314
 150   1.0000      -0.068255        -1.8573
 151   1.0000      -0.051307        -1.3961
 152   1.0000      -0.044674        -1.2157
 153   1.0000      -0.037248        -1.0136
 154   1.0000      -0.036044        -0.9808
 155   1.0000      -0.030812        -0.8384
 156   1.0000      -0.023789        -0.6473
 157   1.0000      -0.018158        -0.4941
 158   1.0000      -0.014311        -0.3894
 159   1.0000       0.021455         0.5838
 160   1.0000       0.042268         1.1502
 161   0.0000       0.136491         3.7141
 162   0.0000       0.137446         3.7401
 163   0.0000       0.158741         4.3196
 164   0.0000       0.162295         4.4163
 165   0.0000       0.169549         4.6137

                 SPIN DOWN ORBITALS
  NO   OCC          E(Eh)            E(eV)
   0   1.0000    -196.674136     -5351.7753
   1   1.0000     -88.737749     -2414.6769
   2   1.0000     -88.737629     -2414.6736
   3   1.0000     -88.734089     -2414.5773
   4   1.0000     -88.734086     -2414.5772
   5   1.0000     -88.729278     -2414.4464
   6   1.0000     -88.729080     -2414.4410
   7   1.0000     -88.728272     -2414.4190
   8   1.0000     -88.728241     -2414.4182
   9   1.0000     -88.639018     -2411.9903
  10   1.0000     -88.638981     -2411.9893
  11   1.0000     -88.638801     -2411.9844
  12   1.0000     -88.638452     -2411.9749
  13   1.0000     -22.034458      -599.5881
  14   1.0000     -18.892891      -514.1017
  15   1.0000     -18.550577      -504.7869
  16   1.0000     -18.534627      -504.3529
  17   1.0000     -18.534446      -504.3479
  18   1.0000     -10.074820      -274.1498
  19   1.0000     -10.073959      -274.1264
  20   1.0000     -10.066224      -273.9159
  21   1.0000     -10.065444      -273.8947
  22   1.0000     -10.065386      -273.8931
  23   1.0000     -10.063031      -273.8290
  24   1.0000     -10.062947      -273.8267
  25   1.0000     -10.053798      -273.5778
  26   1.0000     -10.047587      -273.4088
  27   1.0000     -10.047092      -273.3953
  28   1.0000     -10.017043      -272.5776
  29   1.0000     -10.016344      -272.5586
  30   1.0000     -10.016123      -272.5526
  31   1.0000     -10.015541      -272.5367
  32   1.0000      -7.791592      -212.0200
  33   1.0000      -7.791482      -212.0170
  34   1.0000      -7.787656      -211.9129
  35   1.0000      -7.787634      -211.9123
  36   1.0000      -7.782533      -211.7735
  37   1.0000      -7.782377      -211.7692
  38   1.0000      -7.781552      -211.7468
  39   1.0000      -7.781534      -211.7463
  40   1.0000      -7.693301      -209.3454
  41   1.0000      -7.693222      -209.3432
  42   1.0000      -7.693004      -209.3373
  43   1.0000      -7.692791      -209.3315
  44   1.0000      -5.756584      -156.6446
  45   1.0000      -5.756472      -156.6416
  46   1.0000      -5.753086      -156.5494
  47   1.0000      -5.752980      -156.5466
  48   1.0000      -5.752647      -156.5375
  49   1.0000      -5.752626      -156.5369
  50   1.0000      -5.749207      -156.4439
  51   1.0000      -5.749203      -156.4438
  52   1.0000      -5.747489      -156.3971
  53   1.0000      -5.747327      -156.3927
  54   1.0000      -5.746537      -156.3712
  55   1.0000      -5.746531      -156.3710
  56   1.0000      -5.746387      -156.3671
  57   1.0000      -5.746270      -156.3640
  58   1.0000      -5.743061      -156.2766
  59   1.0000      -5.742901      -156.2723
  60   1.0000      -5.742450      -156.2600
  61   1.0000      -5.742423      -156.2593
  62   1.0000      -5.742096      -156.2504
  63   1.0000      -5.742093      -156.2503
  64   1.0000      -5.738342      -156.1482
  65   1.0000      -5.738186      -156.1440
  66   1.0000      -5.737297      -156.1198
  67   1.0000      -5.737278      -156.1193
  68   1.0000      -5.658623      -153.9790
  69   1.0000      -5.658554      -153.9771
  70   1.0000      -5.658358      -153.9717
  71   1.0000      -5.658106      -153.9649
  72   1.0000      -5.652211      -153.8045
  73   1.0000      -5.652125      -153.8021
  74   1.0000      -5.651930      -153.7968
  75   1.0000      -5.651694      -153.7904
  76   1.0000      -5.650576      -153.7600
  77   1.0000      -5.650505      -153.7581
  78   1.0000      -5.650263      -153.7515
  79   1.0000      -5.650067      -153.7461
  80   1.0000      -2.398119       -65.2561
  81   1.0000      -1.464976       -39.8640
  82   1.0000      -1.410267       -38.3753
  83   1.0000      -1.410101       -38.3708
  84   1.0000      -0.710052       -19.3215
  85   1.0000      -0.709082       -19.2951
  86   1.0000      -0.684256       -18.6195
  87   1.0000      -0.682830       -18.5808
  88   1.0000      -0.656835       -17.8734
  89   1.0000      -0.629467       -17.1287
  90   1.0000      -0.627545       -17.0764
  91   1.0000      -0.625604       -17.0236
  92   1.0000      -0.619653       -16.8616
  93   1.0000      -0.573420       -15.6036
  94   1.0000      -0.572589       -15.5809
  95   1.0000      -0.572399       -15.5758
  96   1.0000      -0.570900       -15.5350
  97   1.0000      -0.501358       -13.6426
  98   1.0000      -0.497484       -13.5372
  99   1.0000      -0.493574       -13.4308
 100   1.0000      -0.488930       -13.3045
 101   1.0000      -0.477495       -12.9933
 102   1.0000      -0.473943       -12.8966
 103   1.0000      -0.447265       -12.1707
 104   1.0000      -0.444760       -12.1025
 105   1.0000      -0.415401       -11.3036
 106   1.0000      -0.410330       -11.1657
 107   1.0000      -0.354281        -9.6405
 108   1.0000      -0.353001        -9.6057
 109   1.0000      -0.326777        -8.8921
 110   1.0000      -0.326059        -8.8725
 111   1.0000      -0.318751        -8.6736
 112   1.0000      -0.314546        -8.5592
 113   1.0000      -0.304289        -8.2801
 114   1.0000      -0.302074        -8.2199
 115   1.0000      -0.292274        -7.9532
 116   1.0000      -0.290644        -7.9088
 117   1.0000      -0.257712        -7.0127
 118   1.0000      -0.255661        -6.9569
 119   1.0000      -0.255043        -6.9401
 120   1.0000      -0.249760        -6.7963
 121   1.0000      -0.237958        -6.4752
 122   1.0000      -0.234506        -6.3812
 123   1.0000      -0.224524        -6.1096
 124   1.0000      -0.217623        -5.9218
 125   1.0000      -0.214889        -5.8474
 126   1.0000      -0.212660        -5.7868
 127   1.0000      -0.211769        -5.7625
 128   1.0000      -0.206808        -5.6275
 129   1.0000      -0.195018        -5.3067
 130   1.0000      -0.191514        -5.2114
 131   1.0000      -0.186985        -5.0881
 132   1.0000      -0.186310        -5.0698
 133   1.0000      -0.180918        -4.9230
 134   1.0000      -0.158025        -4.3001
 135   1.0000      -0.150741        -4.1019
 136   1.0000      -0.145547        -3.9605
 137   1.0000      -0.136060        -3.7024
 138   1.0000      -0.135655        -3.6914
 139   1.0000      -0.131524        -3.5790
 140   1.0000      -0.123899        -3.3715
 141   1.0000      -0.119484        -3.2513
 142   1.0000      -0.114157        -3.1064
 143   1.0000      -0.110858        -3.0166
 144   1.0000      -0.099162        -2.6983
 145   1.0000      -0.098552        -2.6817
 146   1.0000      -0.097223        -2.6456
 147   1.0000      -0.095634        -2.6023
 148   1.0000      -0.070967        -1.9311
 149   1.0000      -0.069797        -1.8993
 150   1.0000      -0.068258        -1.8574
 151   1.0000      -0.048718        -1.3257
 152   1.0000      -0.043736        -1.1901
 153   1.0000      -0.037292        -1.0148
 154   1.0000      -0.035474        -0.9653
 155   1.0000      -0.030882        -0.8403
 156   1.0000      -0.024818        -0.6753
 157   1.0000      -0.014523        -0.3952
 158   1.0000       0.021745         0.5917
 159   1.0000       0.041168         1.1202
 160   0.0000       0.136452         3.7130
 161   0.0000       0.137463         3.7405
 162   0.0000       0.156265         4.2522
 163   0.0000       0.159711         4.3460
 164   0.0000       0.163255         4.4424

MULLIKEN ATOMIC CHARGES AND SPIN POPULATIONS
--------------------------------------------
   0 V :    0.471605    1.210129
   1 S :   -0.292321   -0.022490
   2 S :   -0.290452   -0.025186
   3 S :   -0.290554   -0.023450
   4 S :   -0.286037   -0.025628
   5 O :   -0.468352   -0.146213
   6 C :   -0.077098    0.009758
   7 C :   -0.084136    0.008045
   8 C :   -0.082566    0.007766
   9 C :   -0.083365    0.007431
  10 S :    0.096525   -0.000575
  11 S :    0.097722   -0.000615
  12 S :    0.089882   -0.000391
  13 S :    0.088615   -0.000341
  14 C :   -0.212491    0.001503
  15 C :   -0.223947    0.001007
  16 C :   -0.196182   -0.000067
  17 C :   -0.191555   -0.000434
  18 S :    0.012855   -0.000120
  19 S :    0.013041   -0.000119
  20 S :    0.022482   -0.000077
  21 S :    0.022486   -0.000081
  22 C :   -0.283504   -0.000002
  23 C :   -0.283079   -0.000002
  24 C :   -0.182149   -0.000007
  25 H :    0.148460   -0.000001
  26 H :    0.091279   -0.000006
  27 H :    0.115150   -0.000003
  28 H :    0.089317   -0.000002
  29 H :    0.091249   -0.000007
  30 H :    0.148089   -0.000001
  31 C :   -0.295911    0.000182
  32 C :   -0.296871    0.000178
  33 C :   -0.165592   -0.000223
  34 H :    0.144207   -0.000016
  35 H :    0.108431    0.000016
  36 H :    0.091276    0.000029
  37 H :    0.091141    0.000009
  38 H :    0.108382    0.000017
  39 H :    0.143969   -0.000016
Sum of atomic charges         :   -2.0000000

LOEWDIN ATOMIC CHARGES AND SPIN POPULATIONS
-------------------------------------------
   0 V :   -0.156265    1.163515
   1 S :    0.078790   -0.014503
   2 S :    0.078719   -0.016050
   3 S :    0.080134   -0.015307
   4 S :    0.082706   -0.016259
   5 O :   -0.319603   -0.131164
   6 C :   -0.550176    0.009084
   7 C :   -0.552303    0.007963
   8 C :   -0.552687    0.008155
   9 C :   -0.552761    0.007686
  10 S :    0.468648   -0.000888
  11 S :    0.469456   -0.000938
  12 S :    0.462580   -0.000816
  13 S :    0.461455   -0.000822
  14 C :   -0.464328    0.000144
  15 C :   -0.462790   -0.000077
  16 C :   -0.618939    0.000483
  17 C :   -0.609517    0.000077
  18 S :    0.364851   -0.000094
  19 S :    0.366246   -0.000091
  20 S :    0.380414   -0.000081
  21 S :    0.379907   -0.000083
  22 C :   -0.301090   -0.000008
  23 C :   -0.301240   -0.000009
  24 C :   -0.179697   -0.000001
  25 H :    0.060838   -0.000002
  26 H :    0.047230   -0.000004
  27 H :    0.069078   -0.000002
  28 H :    0.067995   -0.000001
  29 H :    0.047194   -0.000004
  30 H :    0.060630   -0.000002
  31 C :   -0.288706    0.000039
  32 C :   -0.288417    0.000033
  33 C :   -0.174561    0.000006
  34 H :    0.061375   -0.000001
  35 H :    0.051314    0.000007
  36 H :    0.061380    0.000005
  37 H :    0.059482    0.000001
  38 H :    0.051391    0.000007
  39 H :    0.061268   -0.000000

  Mayer bond orders larger than 0.100000
B(  0-V ,  1-S ) :   0.7722 B(  0-V ,  2-S ) :   0.7708 B(  0-V ,  3-S ) :   0.7655
B(  0-V ,  4-S ) :   0.7782 B(  0-V ,  5-O ) :   2.1480 B(  1-S ,  8-C ) :   1.1008
B(  2-S ,  6-C ) :   1.1032 B(  3-S ,  9-C ) :   1.1037 B(  4-S ,  7-C ) :   1.1038
B(  6-C ,  7-C ) :   1.6868 B(  6-C , 10-S ) :   0.9348 B(  7-C , 11-S ) :   0.9388
B(  8-C ,  9-C ) :   1.7053 B(  8-C , 13-S ) :   0.9333 B(  9-C , 12-S ) :   0.9349
B( 10-S , 14-C ) :   1.2457 B( 11-S , 14-C ) :   1.2454 B( 12-S , 15-C ) :   1.2369
B( 13-S , 15-C ) :   1.2363 B( 14-C , 16-C ) :   1.4503 B( 15-C , 17-C ) :   1.4726
B( 16-C , 18-S ) :   1.0826 B( 16-C , 19-S ) :   1.0840 B( 17-C , 20-S ) :   1.0602
B( 17-C , 21-S ) :   1.0609 B( 18-S , 32-C ) :   0.9992 B( 19-S , 31-C ) :   0.9988
B( 20-S , 23-C ) :   1.0108 B( 21-S , 22-C ) :   1.0105 B( 22-C , 24-C ) :   0.9103
B( 22-C , 25-H ) :   0.9543 B( 22-C , 26-H ) :   0.9738 B( 23-C , 24-C ) :   0.9111
B( 23-C , 29-H ) :   0.9736 B( 23-C , 30-H ) :   0.9544 B( 24-C , 27-H ) :   0.9320
B( 24-C , 28-H ) :   0.9952 B( 31-C , 33-C ) :   0.9102 B( 31-C , 38-H ) :   0.9688
B( 31-C , 39-H ) :   0.9637 B( 32-C , 33-C ) :   0.9094 B( 32-C , 34-H ) :   0.9635
B( 32-C , 35-H ) :   0.9689 B( 33-C , 36-H ) :   0.9803 B( 33-C , 37-H ) :   0.9541

FINAL SINGLE POINT ENERGY     -6337.677869082834

DIPOLE MOMENT
-------------
                                X             Y             Z
Electronic contribution:      8.51259      -8.12519      -6.14872
Nuclear contribution   :     -9.38658       9.03545       6.86793
                        -----------------------------------------
Total Dipole Moment    :     -0.87399       0.91026       0.71922
                        -----------------------------------------
Magnitude (a.u.)       :      1.45248
Magnitude (Debye)      :      3.69192

Rotational constants in cm-1:     0.010761     0.000804     0.000783
Rotational constants in MHz :   322.593891    24.116597    23.484369

                             ****ORCA TERMINATED NORMALLY****
TOTAL RUN TIME: 0 days 1 hours 1 minutes 40 seconds 313 msec
