                         Program Version 5.0.4 -  RELEASE  -
|  1> ! nofrozencore ReducedPop printbasis
|  2> ! B3LYP TZVP
|  3>
|  4> %basis
|  5> newgto V "CP(PPP)" end
|  6> end
|  7>
|  8> %pal
|  9> nprocs 8
| 10> end
| 11>
| 12> % sym SymThresh 1e-2 end
| 13> * xyz -2 2
| 14> V -1.0806326311256529 -0.12175641043467358 0.2509407594164655
| 15> S -0.539719689042649 1.980027418358167 1.516326642319391
| 16> S -0.9411550520161482 1.2546540999396512 -1.728580608460336
| 17> S 0.10744969929394826 -1.2920492941710813 2.0257521998612393
| 18> S -0.15203940663818022 -1.9800167696447577 -1.2264010950482918
| 19> O -2.625829540943033 -0.43356926100018645 0.4502051732439918
| 20> C -0.8682293555173818 0.0006573270999561515 -3.0195643197746187
| 21> C -0.537048617750147 -1.275442103685662 -2.7455801281620884
| 22> C 0.09567408867079037 1.2942747054667991 2.970483801540558
| 23> C 0.3741712435218133 0.002920437997833668 3.2257378479621126
| 24> S -1.0859429577364497 0.25939469174391977 -4.810030660269713
| 25> S -0.3620975496252782 -2.501209035451169 -4.03089391897589
| 26> S 1.0895499822885866 -0.2430160509009652 4.8739280086655405
| 27> S 0.40513524051180366 2.548639080976266 4.202450164777793
| 28> C -0.8103820303557371 -1.351884666412908 -5.3609990684682245
| 29> C 1.1436381558183124 1.4079225949343874 5.392919525148759
| 30> C -0.882678063161701 -1.5336452686844666 -6.717197530254478
| 31> C 1.6942244738155798 1.6558581282739935 6.622897212255243
| 32> S -1.2437127005649027 -0.3115547725896677 -8.036483534606797
| 33> S -0.48949806461678685 -3.0976402731200254 -7.303778872474666
| 34> S 1.7367081973821878 3.3038171679305925 7.1512483860544656
| 35> S 2.4009390780401496 0.43737347018549017 7.788001768308327
| 36> C 4.13191194802968 1.1072568045851419 7.7212541488840065
| 37> C 3.5609580040511144 3.561504175181156 7.273599415161828
| 38> C 4.241366735067744 2.5568954773301322 8.202172407502449
| 39> H 4.478009238067194 1.0128923693953764 6.687534726380005
| 40> H 4.7385990748572295 0.44406592734910566 8.347575805875548
| 41> H 5.306673320388945 2.817348294038672 8.277091816835885
| 42> H 3.813553455698034 2.638486307203266 9.206553543950932
| 43> H 3.6852574994236904 4.580304448220365 7.651288695506606
| 44> H 3.9893980042668558 3.5123606805710486 6.268848439140088
| 45> C -2.116037384540281 -3.5447867939488034 -8.038996127127696
| 46> C -2.806662900217257 -1.165062803080684 -8.558330163289032
| 47> C -2.5229221403549182 -2.556506188470313 -9.12867259399377
| 48> H -3.452943002754514 -1.23243998167133 -7.669697812071386
| 49> H -3.3006636712333894 -0.5152255812741885 -9.298836216739158
| 50> H -1.7249804203035055 -2.486686484774754 -9.880002374372038
| 51> H -3.426671463474318 -2.9297295910145897 -9.637856795371325
| 52> H -2.005285653635293 -4.556442489605305 -8.439773720824386
| 53> H -2.8614493291079888 -3.568696318038798 -7.238786712746949
| 54> *
| 55>
| 56> % eprnmr
| 57> gtensor true
| 58> Nuclei = all H {aiso,adip,aorb,fgrad,rho}
| 59> Nuclei = all V {aiso,adip,aorb,fgrad,rho}
| 60> end
| 61>
| 62>                          ****END OF INPUT****

CARTESIAN COORDINATES (ANGSTROEM)
---------------------------------
  V     -1.078034   -0.121736    0.248122
  S     -0.537121    1.980048    1.513508
  S     -0.938557    1.254674   -1.731400
  S      0.110048   -1.292029    2.022933
  S     -0.149441   -1.979997   -1.229220
  O     -2.623231   -0.433549    0.447386
  C     -0.865631    0.000677   -3.022383
  C     -0.534450   -1.275422   -2.748399
  C      0.098272    1.294295    2.967665
  C      0.376770    0.002941    3.222919
  S     -1.083345    0.259415   -4.812850
  S     -0.359499   -2.501189   -4.033713
  S      1.092148   -0.242996    4.871109
  S      0.407734    2.548659    4.199631
  C     -0.807784   -1.351865   -5.363818
  C      1.146236    1.407943    5.390101
  C     -0.880080   -1.533625   -6.720017
  C      1.696823    1.655878    6.620078
  S     -1.241114   -0.311535   -8.039303
  S     -0.486900   -3.097620   -7.306598
  S      1.739307    3.303837    7.148429
  S      2.403537    0.437394    7.785183
  C      4.134510    1.107277    7.718435
  C      3.563556    3.561524    7.270780
  C      4.243965    2.556916    8.199353
  H      4.480608    1.012913    6.684716
  H      4.741197    0.444086    8.344757
  H      5.309272    2.817368    8.274273
  H      3.816152    2.638506    9.203735
  H      3.687856    4.580325    7.648470
  H      3.991996    3.512381    6.266029
  C     -2.113439   -3.544767   -8.041815
  C     -2.804065   -1.165043   -8.561149
  C     -2.520324   -2.556486   -9.131492
  H     -3.450345   -1.232420   -7.672517
  H     -3.298065   -0.515205   -9.301655
  H     -1.722382   -2.486666   -9.882821
  H     -3.424073   -2.929709   -9.640676
  H     -2.002687   -4.556422   -8.442593
  H     -2.858851   -3.568676   -7.241606

 Total Charge           Charge          ....   -2
 Multiplicity           Mult            ....    2
 Number of Electrons    NEL             ....  321
 Basis Dimension        Dim             ....  681

ORBITAL ENERGIES
----------------
                 SPIN UP ORBITALS
  NO   OCC          E(Eh)            E(eV)
   0   1.0000    -196.676080     -5351.8282
   1   1.0000     -88.737609     -2414.6731
   2   1.0000     -88.736663     -2414.6474
   3   1.0000     -88.735493     -2414.6155
   4   1.0000     -88.734946     -2414.6006
   5   1.0000     -88.727089     -2414.3868
   6   1.0000     -88.726295     -2414.3652
   7   1.0000     -88.725274     -2414.3374
   8   1.0000     -88.724300     -2414.3110
   9   1.0000     -88.643075     -2412.1007
  10   1.0000     -88.641808     -2412.0662
  11   1.0000     -88.639244     -2411.9964
  12   1.0000     -88.636935     -2411.9336
  13   1.0000     -22.051423      -600.0497
  14   1.0000     -18.891144      -514.0542
  15   1.0000     -18.557837      -504.9844
  16   1.0000     -18.552731      -504.8455
  17   1.0000     -18.552606      -504.8421
  18   1.0000     -10.076074      -274.1839
  19   1.0000     -10.075432      -274.1664
  20   1.0000     -10.065211      -273.8883
  21   1.0000     -10.065110      -273.8856
  22   1.0000     -10.060102      -273.7493
  23   1.0000     -10.057651      -273.6826
  24   1.0000     -10.050083      -273.4767
  25   1.0000     -10.048195      -273.4253
  26   1.0000     -10.047842      -273.4157
  27   1.0000     -10.045729      -273.3582
  28   1.0000     -10.019155      -272.6351
  29   1.0000     -10.018963      -272.6298
  30   1.0000     -10.016909      -272.5740
  31   1.0000     -10.016559      -272.5644
  32   1.0000      -7.790132      -211.9803
  33   1.0000      -7.789253      -211.9563
  34   1.0000      -7.787539      -211.9097
  35   1.0000      -7.787245      -211.9017
  36   1.0000      -7.781839      -211.7546
  37   1.0000      -7.780444      -211.7167
  38   1.0000      -7.779652      -211.6951
  39   1.0000      -7.779454      -211.6897
  40   1.0000      -7.696502      -209.4325
  41   1.0000      -7.695505      -209.4053
  42   1.0000      -7.694276      -209.3719
  43   1.0000      -7.692175      -209.3147
  44   1.0000      -5.755128      -156.6050
  45   1.0000      -5.754187      -156.5794
  46   1.0000      -5.753092      -156.5496
  47   1.0000      -5.752665      -156.5380
  48   1.0000      -5.752000      -156.5199
  49   1.0000      -5.751248      -156.4994
  50   1.0000      -5.747985      -156.4106
  51   1.0000      -5.747709      -156.4031
  52   1.0000      -5.746787      -156.3780
  53   1.0000      -5.745130      -156.3329
  54   1.0000      -5.744801      -156.3240
  55   1.0000      -5.744515      -156.3162
  56   1.0000      -5.744117      -156.3054
  57   1.0000      -5.743850      -156.2981
  58   1.0000      -5.743139      -156.2788
  59   1.0000      -5.743033      -156.2759
  60   1.0000      -5.742810      -156.2698
  61   1.0000      -5.740946      -156.2191
  62   1.0000      -5.740942      -156.2190
  63   1.0000      -5.739959      -156.1922
  64   1.0000      -5.736694      -156.1034
  65   1.0000      -5.736369      -156.0945
  66   1.0000      -5.735400      -156.0682
  67   1.0000      -5.734490      -156.0434
  68   1.0000      -5.662260      -154.0779
  69   1.0000      -5.661124      -154.0470
  70   1.0000      -5.659268      -153.9965
  71   1.0000      -5.657091      -153.9373
  72   1.0000      -5.655031      -153.8812
  73   1.0000      -5.654075      -153.8552
  74   1.0000      -5.653653      -153.8437
  75   1.0000      -5.653074      -153.8280
  76   1.0000      -5.652716      -153.8182
  77   1.0000      -5.651666      -153.7896
  78   1.0000      -5.651026      -153.7722
  79   1.0000      -5.649517      -153.7312
  80   1.0000      -2.445078       -66.5339
  81   1.0000      -1.486286       -40.4439
  82   1.0000      -1.474779       -40.1308
  83   1.0000      -1.473926       -40.1076
  84   1.0000      -0.712180       -19.3794
  85   1.0000      -0.710830       -19.3427
  86   1.0000      -0.685890       -18.6640
  87   1.0000      -0.685832       -18.6624
  88   1.0000      -0.650687       -17.7061
  89   1.0000      -0.633087       -17.2272
  90   1.0000      -0.632655       -17.2154
  91   1.0000      -0.615852       -16.7582
  92   1.0000      -0.614497       -16.7213
  93   1.0000      -0.581303       -15.8181
  94   1.0000      -0.580554       -15.7977
  95   1.0000      -0.568041       -15.4572
  96   1.0000      -0.565743       -15.3947
  97   1.0000      -0.498738       -13.5714
  98   1.0000      -0.496694       -13.5157
  99   1.0000      -0.492995       -13.4151
 100   1.0000      -0.490446       -13.3457
 101   1.0000      -0.477515       -12.9939
 102   1.0000      -0.474520       -12.9124
 103   1.0000      -0.447370       -12.1736
 104   1.0000      -0.445306       -12.1174
 105   1.0000      -0.416277       -11.3275
 106   1.0000      -0.411182       -11.1888
 107   1.0000      -0.355163        -9.6645
 108   1.0000      -0.355001        -9.6601
 109   1.0000      -0.328247        -8.9321
 110   1.0000      -0.327213        -8.9039
 111   1.0000      -0.317282        -8.6337
 112   1.0000      -0.312534        -8.5045
 113   1.0000      -0.302347        -8.2273
 114   1.0000      -0.298895        -8.1333
 115   1.0000      -0.290996        -7.9184
 116   1.0000      -0.288859        -7.8603
 117   1.0000      -0.257065        -6.9951
 118   1.0000      -0.255285        -6.9467
 119   1.0000      -0.254483        -6.9248
 120   1.0000      -0.250088        -6.8052
 121   1.0000      -0.236005        -6.4220
 122   1.0000      -0.235125        -6.3981
 123   1.0000      -0.231876        -6.3097
 124   1.0000      -0.230548        -6.2735
 125   1.0000      -0.219612        -5.9759
 126   1.0000      -0.217665        -5.9230
 127   1.0000      -0.211836        -5.7644
 128   1.0000      -0.210618        -5.7312
 129   1.0000      -0.192671        -5.2428
 130   1.0000      -0.189086        -5.1453
 131   1.0000      -0.187902        -5.1131
 132   1.0000      -0.182989        -4.9794
 133   1.0000      -0.178679        -4.8621
 134   1.0000      -0.160409        -4.3649
 135   1.0000      -0.151567        -4.1244
 136   1.0000      -0.148215        -4.0331
 137   1.0000      -0.135216        -3.6794
 138   1.0000      -0.133626        -3.6361
 139   1.0000      -0.132598        -3.6082
 140   1.0000      -0.125511        -3.4153
 141   1.0000      -0.120429        -3.2770
 142   1.0000      -0.114615        -3.1188
 143   1.0000      -0.109478        -2.9790
 144   1.0000      -0.099604        -2.7104
 145   1.0000      -0.098233        -2.6731
 146   1.0000      -0.096562        -2.6276
 147   1.0000      -0.094020        -2.5584
 148   1.0000      -0.074085        -2.0160
 149   1.0000      -0.066079        -1.7981
 150   1.0000      -0.062936        -1.7126
 151   1.0000      -0.052820        -1.4373
 152   1.0000      -0.045355        -1.2342
 153   1.0000      -0.037692        -1.0257
 154   1.0000      -0.036872        -1.0033
 155   1.0000      -0.030924        -0.8415
 156   1.0000      -0.024980        -0.6797
 157   1.0000      -0.020062        -0.5459
 158   1.0000      -0.015412        -0.4194
 159   1.0000       0.020200         0.5497
 160   1.0000       0.040604         1.1049
 161   0.0000       0.134978         3.6729
 162   0.0000       0.136138         3.7045
 163   0.0000       0.160889         4.3780
 164   0.0000       0.163064         4.4372
 165   0.0000       0.165765         4.5107

                 SPIN DOWN ORBITALS
  NO   OCC          E(Eh)            E(eV)
   0   1.0000    -196.676227     -5351.8322
   1   1.0000     -88.737610     -2414.6731
   2   1.0000     -88.736665     -2414.6474
   3   1.0000     -88.735502     -2414.6158
   4   1.0000     -88.734955     -2414.6009
   5   1.0000     -88.727089     -2414.3868
   6   1.0000     -88.726302     -2414.3654
   7   1.0000     -88.725280     -2414.3376
   8   1.0000     -88.724301     -2414.3110
   9   1.0000     -88.643209     -2412.1043
  10   1.0000     -88.641944     -2412.0699
  11   1.0000     -88.639385     -2412.0003
  12   1.0000     -88.637081     -2411.9376
  13   1.0000     -22.036501      -599.6437
  14   1.0000     -18.894923      -514.1570
  15   1.0000     -18.552568      -504.8410
  16   1.0000     -18.536695      -504.4091
  17   1.0000     -18.536516      -504.4043
  18   1.0000     -10.076077      -274.1840
  19   1.0000     -10.075436      -274.1665
  20   1.0000     -10.065211      -273.8883
  21   1.0000     -10.065110      -273.8856
  22   1.0000     -10.060102      -273.7493
  23   1.0000     -10.057649      -273.6825
  24   1.0000     -10.050083      -273.4767
  25   1.0000     -10.048195      -273.4253
  26   1.0000     -10.047838      -273.4156
  27   1.0000     -10.045716      -273.3578
  28   1.0000     -10.018819      -272.6259
  29   1.0000     -10.018700      -272.6227
  30   1.0000     -10.016734      -272.5692
  31   1.0000     -10.016417      -272.5606
  32   1.0000      -7.790133      -211.9803
  33   1.0000      -7.789254      -211.9564
  34   1.0000      -7.787550      -211.9100
  35   1.0000      -7.787255      -211.9020
  36   1.0000      -7.781839      -211.7546
  37   1.0000      -7.780452      -211.7169
  38   1.0000      -7.779653      -211.6951
  39   1.0000      -7.779461      -211.6899
  40   1.0000      -7.696624      -209.4358
  41   1.0000      -7.695630      -209.4087
  42   1.0000      -7.694409      -209.3755
  43   1.0000      -7.692314      -209.3185
  44   1.0000      -5.755130      -156.6050
  45   1.0000      -5.754189      -156.5795
  46   1.0000      -5.753098      -156.5498
  47   1.0000      -5.752672      -156.5382
  48   1.0000      -5.752001      -156.5199
  49   1.0000      -5.751250      -156.4995
  50   1.0000      -5.747999      -156.4110
  51   1.0000      -5.747724      -156.4035
  52   1.0000      -5.746788      -156.3780
  53   1.0000      -5.745141      -156.3332
  54   1.0000      -5.744802      -156.3240
  55   1.0000      -5.744516      -156.3162
  56   1.0000      -5.744127      -156.3057
  57   1.0000      -5.743851      -156.2981
  58   1.0000      -5.743139      -156.2788
  59   1.0000      -5.743044      -156.2762
  60   1.0000      -5.742818      -156.2700
  61   1.0000      -5.740959      -156.2194
  62   1.0000      -5.740943      -156.2190
  63   1.0000      -5.739970      -156.1925
  64   1.0000      -5.736694      -156.1034
  65   1.0000      -5.736373      -156.0946
  66   1.0000      -5.735405      -156.0683
  67   1.0000      -5.734491      -156.0434
  68   1.0000      -5.662417      -154.0822
  69   1.0000      -5.661277      -154.0512
  70   1.0000      -5.659404      -154.0002
  71   1.0000      -5.657219      -153.9408
  72   1.0000      -5.655386      -153.8909
  73   1.0000      -5.654417      -153.8645
  74   1.0000      -5.653731      -153.8459
  75   1.0000      -5.653445      -153.8381
  76   1.0000      -5.652822      -153.8211
  77   1.0000      -5.651773      -153.7926
  78   1.0000      -5.651436      -153.7834
  79   1.0000      -5.649614      -153.7338
  80   1.0000      -2.400213       -65.3131
  81   1.0000      -1.466979       -39.9185
  82   1.0000      -1.412505       -38.4362
  83   1.0000      -1.412191       -38.4277
  84   1.0000      -0.712161       -19.3789
  85   1.0000      -0.710815       -19.3423
  86   1.0000      -0.685841       -18.6627
  87   1.0000      -0.685784       -18.6611
  88   1.0000      -0.658795       -17.9267
  89   1.0000      -0.633036       -17.2258
  90   1.0000      -0.632592       -17.2137
  91   1.0000      -0.615853       -16.7582
  92   1.0000      -0.614495       -16.7213
  93   1.0000      -0.581308       -15.8182
  94   1.0000      -0.580540       -15.7973
  95   1.0000      -0.567958       -15.4549
  96   1.0000      -0.565615       -15.3912
  97   1.0000      -0.498747       -13.5716
  98   1.0000      -0.496695       -13.5158
  99   1.0000      -0.493100       -13.4179
 100   1.0000      -0.490595       -13.3498
 101   1.0000      -0.477667       -12.9980
 102   1.0000      -0.474676       -12.9166
 103   1.0000      -0.447386       -12.1740
 104   1.0000      -0.445349       -12.1186
 105   1.0000      -0.416270       -11.3273
 106   1.0000      -0.411283       -11.1916
 107   1.0000      -0.355158        -9.6644
 108   1.0000      -0.354993        -9.6598
 109   1.0000      -0.328230        -8.9316
 110   1.0000      -0.327200        -8.9036
 111   1.0000      -0.317230        -8.6323
 112   1.0000      -0.312583        -8.5058
 113   1.0000      -0.302295        -8.2259
 114   1.0000      -0.298838        -8.1318
 115   1.0000      -0.290992        -7.9183
 116   1.0000      -0.288857        -7.8602
 117   1.0000      -0.256906        -6.9908
 118   1.0000      -0.255215        -6.9447
 119   1.0000      -0.254440        -6.9237
 120   1.0000      -0.250036        -6.8038
 121   1.0000      -0.235957        -6.4207
 122   1.0000      -0.235101        -6.3974
 123   1.0000      -0.231825        -6.3083
 124   1.0000      -0.230504        -6.2723
 125   1.0000      -0.219378        -5.9696
 126   1.0000      -0.217555        -5.9200
 127   1.0000      -0.211488        -5.7549
 128   1.0000      -0.210539        -5.7290
 129   1.0000      -0.190781        -5.1914
 130   1.0000      -0.188968        -5.1421
 131   1.0000      -0.187665        -5.1066
 132   1.0000      -0.182781        -4.9737
 133   1.0000      -0.178532        -4.8581
 134   1.0000      -0.159728        -4.3464
 135   1.0000      -0.151446        -4.1211
 136   1.0000      -0.148158        -4.0316
 137   1.0000      -0.134524        -3.6606
 138   1.0000      -0.133343        -3.6285
 139   1.0000      -0.132244        -3.5986
 140   1.0000      -0.125081        -3.4036
 141   1.0000      -0.120140        -3.2692
 142   1.0000      -0.116269        -3.1638
 143   1.0000      -0.111287        -3.0283
 144   1.0000      -0.099642        -2.7114
 145   1.0000      -0.098425        -2.6783
 146   1.0000      -0.096509        -2.6261
 147   1.0000      -0.094271        -2.5653
 148   1.0000      -0.070158        -1.9091
 149   1.0000      -0.066061        -1.7976
 150   1.0000      -0.062935        -1.7125
 151   1.0000      -0.050309        -1.3690
 152   1.0000      -0.044341        -1.2066
 153   1.0000      -0.037285        -1.0146
 154   1.0000      -0.036757        -1.0002
 155   1.0000      -0.030992        -0.8433
 156   1.0000      -0.025934        -0.7057
 157   1.0000      -0.015612        -0.4248
 158   1.0000       0.020504         0.5579
 159   1.0000       0.039482         1.0744
 160   0.0000       0.134989         3.6732
 161   0.0000       0.136132         3.7043
 162   0.0000       0.154324         4.1994
 163   0.0000       0.163605         4.4519
 164   0.0000       0.165016         4.4903

MULLIKEN ATOMIC CHARGES AND SPIN POPULATIONS
--------------------------------------------
   0 V :    0.476542    1.210122
   1 S :   -0.304438   -0.023528
   2 S :   -0.274195   -0.024182
   3 S :   -0.274441   -0.023191
   4 S :   -0.309457   -0.026763
   5 O :   -0.466798   -0.146632
   6 C :   -0.003299    0.015254
   7 C :   -0.157321    0.003584
   8 C :   -0.143884    0.004806
   9 C :   -0.024686    0.011206
  10 S :    0.093941   -0.000503
  11 S :    0.105274   -0.000709
  12 S :    0.096027   -0.000402
  13 S :    0.103759   -0.000394
  14 C :   -0.180009    0.000873
  15 C :   -0.198686    0.000916
  16 C :   -0.230790    0.000149
  17 C :   -0.202400   -0.000381
  18 S :    0.010802   -0.000174
  19 S :    0.015930   -0.000106
  20 S :    0.007953   -0.000035
  21 S :    0.009385   -0.000123
  22 C :   -0.310142   -0.000000
  23 C :   -0.299366    0.000002
  24 C :   -0.157850   -0.000012
  25 H :    0.150394   -0.000002
  26 H :    0.118549   -0.000006
  27 H :    0.083289   -0.000001
  28 H :    0.094193   -0.000001
  29 H :    0.110579   -0.000003
  30 H :    0.138115   -0.000001
  31 C :   -0.310298    0.000245
  32 C :   -0.317959    0.000190
  33 C :   -0.158922   -0.000250
  34 H :    0.154039   -0.000022
  35 H :    0.121705    0.000021
  36 H :    0.100438    0.000024
  37 H :    0.081627    0.000014
  38 H :    0.112228    0.000037
  39 H :    0.140171   -0.000025
Sum of atomic charges         :   -2.0000000

LOEWDIN ATOMIC CHARGES AND SPIN POPULATIONS
-------------------------------------------
   0 V :   -0.151006    1.163459
   1 S :    0.075794   -0.015575
   2 S :    0.090395   -0.014187
   3 S :    0.089109   -0.014485
   4 S :    0.066875   -0.018205
   5 O :   -0.318201   -0.131572
   6 C :   -0.534395    0.012623
   7 C :   -0.561449    0.004985
   8 C :   -0.561986    0.006398
   9 C :   -0.540761    0.009859
  10 S :    0.479547   -0.000672
  11 S :    0.462358   -0.001081
  12 S :    0.478998   -0.000685
  13 S :    0.463381   -0.000901
  14 C :   -0.463989   -0.000164
  15 C :   -0.464906   -0.000189
  16 C :   -0.628785    0.000541
  17 C :   -0.625538    0.000104
  18 S :    0.336893   -0.000141
  19 S :    0.384308   -0.000073
  20 S :    0.377663   -0.000044
  21 S :    0.340846   -0.000119
  22 C :   -0.280805   -0.000008
  23 C :   -0.286454   -0.000003
  24 C :   -0.177916   -0.000002
  25 H :    0.065985   -0.000002
  26 H :    0.053731   -0.000003
  27 H :    0.057328   -0.000001
  28 H :    0.060236   -0.000001
  29 H :    0.053121   -0.000001
  30 H :    0.060483   -0.000001
  31 C :   -0.287742    0.000080
  32 C :   -0.281531    0.000029
  33 C :   -0.183219    0.000005
  34 H :    0.068737   -0.000002
  35 H :    0.053429    0.000006
  36 H :    0.060955    0.000005
  37 H :    0.055558    0.000002
  38 H :    0.051773    0.000017
  39 H :    0.061178   -0.000001

  Mayer bond orders larger than 0.100000
B(  0-V ,  1-S ) :   0.7468 B(  0-V ,  2-S ) :   0.8139 B(  0-V ,  3-S ) :   0.7930
B(  0-V ,  4-S ) :   0.7209 B(  0-V ,  5-O ) :   2.1498 B(  1-S ,  8-C ) :   1.1307
B(  2-S ,  6-C ) :   1.0481 B(  3-S ,  9-C ) :   1.0723 B(  4-S ,  7-C ) :   1.1550
B(  6-C ,  7-C ) :   1.6669 B(  6-C , 10-S ) :   0.9102 B(  7-C , 11-S ) :   0.9643
B(  8-C ,  9-C ) :   1.6858 B(  8-C , 13-S ) :   0.9558 B(  9-C , 12-S ) :   0.9168
B( 10-S , 14-C ) :   1.2536 B( 11-S , 14-C ) :   1.2036 B( 12-S , 15-C ) :   1.2531
B( 13-S , 15-C ) :   1.2139 B( 14-C , 16-C ) :   1.4201 B( 15-C , 17-C ) :   1.4348
B( 16-C , 18-S ) :   1.0815 B( 16-C , 19-S ) :   1.1250 B( 17-C , 20-S ) :   1.1035
B( 17-C , 21-S ) :   1.0797 B( 18-S , 32-C ) :   0.9813 B( 19-S , 31-C ) :   0.9799
B( 20-S , 23-C ) :   0.9847 B( 21-S , 22-C ) :   0.9887 B( 22-C , 24-C ) :   0.9053
B( 22-C , 25-H ) :   0.9701 B( 22-C , 26-H ) :   0.9648 B( 23-C , 24-C ) :   0.9144
B( 23-C , 29-H ) :   0.9653 B( 23-C , 30-H ) :   0.9633 B( 24-C , 27-H ) :   0.9617
B( 24-C , 28-H ) :   0.9725 B( 31-C , 33-C ) :   0.9049 B( 31-C , 38-H ) :   0.9633
B( 31-C , 39-H ) :   0.9675 B( 32-C , 33-C ) :   0.8944 B( 32-C , 34-H ) :   0.9749
B( 32-C , 35-H ) :   0.9629 B( 33-C , 36-H ) :   0.9746 B( 33-C , 37-H ) :   0.9580

FINAL SINGLE POINT ENERGY     -6337.673008084203

DIPOLE MOMENT
-------------
                                X             Y             Z
Electronic contribution:    -12.20030      -0.21046       5.99210
Nuclear contribution   :     13.61537       0.28007      -6.55560
                        -----------------------------------------
Total Dipole Moment    :      1.41508       0.06961      -0.56350
                        -----------------------------------------
Magnitude (a.u.)       :      1.52474
Magnitude (Debye)      :      3.87557

Rotational constants in cm-1:     0.010807     0.000805     0.000784
Rotational constants in MHz :   323.998163    24.121603    23.498533

                             ****ORCA TERMINATED NORMALLY****
TOTAL RUN TIME: 0 days 1 hours 1 minutes 34 seconds 177 msec
