                         Program Version 5.0.4 -  RELEASE  -
|  1> ! nofrozencore ReducedPop printbasis
|  2> ! B3LYP TZVP
|  3>
|  4> %basis
|  5> newgto V "CP(PPP)" end
|  6> end
|  7>
|  8> %pal
|  9> nprocs 6
| 10> end
| 11>
| 12> % sym SymThresh 1e-2 end
| 13> * xyz -2 2
| 14> V -1.0323746823952233 0.3298712029241533 0.25375044107298445
| 15> S 0.25672746633631927 2.383715090060142 0.7423649450655008
| 16> S -0.6335476046990731 0.8693176506088801 -2.128911095825968
| 17> S -0.11312838831678729 -0.5419563854187686 2.3811339150590984
| 18> S -0.9039592669150479 -2.0295485648535445 -0.4546075408485089
| 19> O -2.564318120607446 0.6643023084152654 0.5093754119629701
| 20> C -1.0806345033925753 -0.6725752525729037 -2.8486704002460472
| 21> C -1.185341436558746 -1.8329026875310745 -2.1787023455633427
| 22> C 0.7942328408517211 2.065784788326215 2.386099034891599
| 23> C 0.6489558806044212 0.8975781536168447 3.037912961588715
| 24> S -1.3516787442936131 -0.7497236866981739 -4.623515629335165
| 25> S -1.5640086875678239 -3.2920570393390025 -3.1532655823182574
| 26> S 1.337323529214746 0.8135990658114602 4.6946064347052925
| 27> S 1.6503893043552682 3.373268657311162 3.2721835349316644
| 28> C -1.6369820007864826 -2.4950675152564856 -4.733305454359977
| 29> C 2.0157782107615874 2.4453068940618454 4.732228146223872
| 30> C -1.897677196783963 -3.1481305411391554 -5.89314566767809
| 31> C 2.737345290526167 2.93958892771593 5.7824154665757215
| 32> S -2.0096166942658846 -2.296039052349605 -7.461400665372312
| 33> S -2.1633698912660466 -4.915885143258538 -5.943535360211338
| 34> S 3.403748186178953 4.592690576365187 5.773318957756786
| 35> S 3.0960025089264605 1.954682816275884 7.224749911868633
| 36> C 4.941699344083596 1.915411865250695 7.071210601275188
| 37> C 5.2038250148778475 4.160554137654412 5.842669680851069
| 38> C 5.585290808423166 3.2984939547829524 7.042403294331773
| 39> H 5.208880196807239 1.3717029654658977 6.161405491508447
| 40> H 5.273499154575789 1.3259454720041044 7.929831024916624
| 41> H 6.676924066854988 3.171753312324986 7.043159746489223
| 42> H 5.317876480171662 3.8312970678845 7.9601717133978775
| 43> H 5.7139762904151254 5.127160189726755 5.853578863167123
| 44> H 5.478643279266084 3.6408999497093197 4.921206245287961
| 45> C -3.9105930490825873 -4.9247011300288355 -6.592440111857418
| 46> C -3.7823039648609025 -2.700528980401865 -7.873070378786676
| 47> C -4.112472547963792 -4.138770505109926 -7.825061736280763
| 48> H -4.567033008084219 -2.4219910435539265 -7.106197606640401
| 49> H -3.804550729575551 -1.9575158139537103 -8.74220191227595
| 50> H -3.402304618899732 -4.5861971268481385 -8.531367674620373
| 51> H -5.129672699431179 -4.3035479330561035 -8.21386209845545
| 52> H -4.033748366288856 -6.043923521348737 -6.389554632125659
| 53> H -4.681565106809773 -4.337839268431811 -6.006884648585336
| 54> *
| 55>
| 56> % eprnmr
| 57> gtensor true
| 58> Nuclei = all H {aiso,adip,aorb,fgrad,rho}
| 59> Nuclei = all V {aiso,adip,aorb,fgrad,rho}
| 60> end
| 61>
| 62>                          ****END OF INPUT****

CARTESIAN COORDINATES (ANGSTROEM)
---------------------------------
  V     -1.030186    0.328130    0.251128
  S      0.258916    2.381974    0.739743
  S     -0.631359    0.867576   -2.131534
  S     -0.110940   -0.543698    2.378512
  S     -0.901771   -2.031290   -0.457230
  O     -2.562130    0.662561    0.506753
  C     -1.078446   -0.674316   -2.851293
  C     -1.183153   -1.834644   -2.181325
  C      0.796421    2.064044    2.383477
  C      0.651144    0.895837    3.035291
  S     -1.349490   -0.751465   -4.626138
  S     -1.561820   -3.293798   -3.155888
  S      1.339512    0.811858    4.691984
  S      1.652578    3.371527    3.269561
  C     -1.634794   -2.496809   -4.735928
  C      2.017967    2.443566    4.729606
  C     -1.895489   -3.149872   -5.895768
  C      2.739534    2.937848    5.779793
  S     -2.007428   -2.297780   -7.464023
  S     -2.161182   -4.917626   -5.946158
  S      3.405937    4.590949    5.770697
  S      3.098191    1.952942    7.222128
  C      4.943888    1.913671    7.068588
  C      5.206013    4.158813    5.840047
  C      5.587479    3.296753    7.039781
  H      5.211069    1.369962    6.158783
  H      5.275688    1.324204    7.927209
  H      6.679112    3.170012    7.040537
  H      5.320065    3.829556    7.957549
  H      5.716165    5.125419    5.850956
  H      5.480832    3.639159    4.918584
  C     -3.908405   -4.926442   -6.595063
  C     -3.780116   -2.702270   -7.875693
  C     -4.110284   -4.140512   -7.827684
  H     -4.564845   -2.423732   -7.108820
  H     -3.802362   -1.959257   -8.744824
  H     -3.400116   -4.587938   -8.533990
  H     -5.127484   -4.305289   -8.216485
  H     -4.031560   -6.045665   -6.392177
  H     -4.679377   -4.339580   -6.009507

 Total Charge           Charge          ....   -2
 Multiplicity           Mult            ....    2
 Number of Electrons    NEL             ....  321
 Basis Dimension        Dim             ....  681

ORBITAL ENERGIES
----------------
                 SPIN UP ORBITALS
  NO   OCC          E(Eh)            E(eV)
   0   1.0000    -196.674186     -5351.7767
   1   1.0000     -88.738580     -2414.6995
   2   1.0000     -88.738575     -2414.6994
   3   1.0000     -88.733285     -2414.5554
   4   1.0000     -88.733186     -2414.5527
   5   1.0000     -88.729586     -2414.4548
   6   1.0000     -88.729524     -2414.4531
   7   1.0000     -88.729109     -2414.4418
   8   1.0000     -88.728923     -2414.4367
   9   1.0000     -88.639281     -2411.9975
  10   1.0000     -88.639051     -2411.9912
  11   1.0000     -88.638796     -2411.9843
  12   1.0000     -88.638676     -2411.9810
  13   1.0000     -22.049583      -599.9997
  14   1.0000     -18.889498      -514.0094
  15   1.0000     -18.556034      -504.9353
  16   1.0000     -18.550856      -504.7945
  17   1.0000     -18.550758      -504.7918
  18   1.0000     -10.075345      -274.1641
  19   1.0000     -10.074682      -274.1460
  20   1.0000     -10.074647      -274.1451
  21   1.0000     -10.074381      -274.1379
  22   1.0000     -10.063253      -273.8350
  23   1.0000     -10.063206      -273.8338
  24   1.0000     -10.050184      -273.4794
  25   1.0000     -10.049535      -273.4618
  26   1.0000     -10.048516      -273.4340
  27   1.0000     -10.048031      -273.4208
  28   1.0000     -10.017353      -272.5860
  29   1.0000     -10.017268      -272.5837
  30   1.0000     -10.016559      -272.5644
  31   1.0000     -10.016324      -272.5580
  32   1.0000      -7.791689      -212.0226
  33   1.0000      -7.791669      -212.0221
  34   1.0000      -7.786711      -211.8872
  35   1.0000      -7.786616      -211.8846
  36   1.0000      -7.782854      -211.7822
  37   1.0000      -7.782816      -211.7812
  38   1.0000      -7.782352      -211.7686
  39   1.0000      -7.782211      -211.7647
  40   1.0000      -7.693530      -209.3516
  41   1.0000      -7.693344      -209.3465
  42   1.0000      -7.693064      -209.3389
  43   1.0000      -7.693039      -209.3382
  44   1.0000      -5.756721      -156.6483
  45   1.0000      -5.756702      -156.6478
  46   1.0000      -5.753262      -156.5542
  47   1.0000      -5.753257      -156.5541
  48   1.0000      -5.751712      -156.5120
  49   1.0000      -5.751607      -156.5092
  50   1.0000      -5.748271      -156.4184
  51   1.0000      -5.748191      -156.4162
  52   1.0000      -5.747801      -156.4056
  53   1.0000      -5.747771      -156.4048
  54   1.0000      -5.747328      -156.3928
  55   1.0000      -5.747182      -156.3888
  56   1.0000      -5.746494      -156.3700
  57   1.0000      -5.746477      -156.3696
  58   1.0000      -5.743377      -156.2852
  59   1.0000      -5.743330      -156.2840
  60   1.0000      -5.742869      -156.2714
  61   1.0000      -5.742729      -156.2676
  62   1.0000      -5.741515      -156.2346
  63   1.0000      -5.741413      -156.2318
  64   1.0000      -5.738659      -156.1569
  65   1.0000      -5.738629      -156.1560
  66   1.0000      -5.738146      -156.1429
  67   1.0000      -5.738001      -156.1389
  68   1.0000      -5.658853      -153.9852
  69   1.0000      -5.658659      -153.9799
  70   1.0000      -5.658382      -153.9724
  71   1.0000      -5.658346      -153.9714
  72   1.0000      -5.652211      -153.8045
  73   1.0000      -5.652001      -153.7988
  74   1.0000      -5.651733      -153.7915
  75   1.0000      -5.651702      -153.7906
  76   1.0000      -5.650856      -153.7676
  77   1.0000      -5.650663      -153.7624
  78   1.0000      -5.650368      -153.7543
  79   1.0000      -5.650320      -153.7530
  80   1.0000      -2.443224       -66.4835
  81   1.0000      -1.484538       -40.3963
  82   1.0000      -1.472858       -40.0785
  83   1.0000      -1.472048       -40.0565
  84   1.0000      -0.715698       -19.4751
  85   1.0000      -0.709423       -19.3044
  86   1.0000      -0.692016       -18.8307
  87   1.0000      -0.685621       -18.6567
  88   1.0000      -0.649118       -17.6634
  89   1.0000      -0.637367       -17.3436
  90   1.0000      -0.631276       -17.1779
  91   1.0000      -0.619620       -16.8607
  92   1.0000      -0.617151       -16.7935
  93   1.0000      -0.575190       -15.6517
  94   1.0000      -0.573987       -15.6190
  95   1.0000      -0.573125       -15.5955
  96   1.0000      -0.572552       -15.5799
  97   1.0000      -0.499200       -13.5839
  98   1.0000      -0.497510       -13.5379
  99   1.0000      -0.495751       -13.4901
 100   1.0000      -0.495552       -13.4846
 101   1.0000      -0.479456       -13.0466
 102   1.0000      -0.476722       -12.9723
 103   1.0000      -0.446086       -12.1386
 104   1.0000      -0.441167       -12.0048
 105   1.0000      -0.416153       -11.3241
 106   1.0000      -0.411064       -11.1856
 107   1.0000      -0.372795       -10.1443
 108   1.0000      -0.356572        -9.7028
 109   1.0000      -0.334536        -9.1032
 110   1.0000      -0.326880        -8.8949
 111   1.0000      -0.324900        -8.8410
 112   1.0000      -0.316321        -8.6075
 113   1.0000      -0.307951        -8.3798
 114   1.0000      -0.303944        -8.2707
 115   1.0000      -0.296062        -8.0563
 116   1.0000      -0.289736        -7.8841
 117   1.0000      -0.262534        -7.1439
 118   1.0000      -0.259191        -7.0529
 119   1.0000      -0.256393        -6.9768
 120   1.0000      -0.251820        -6.8524
 121   1.0000      -0.232148        -6.3171
 122   1.0000      -0.231285        -6.2936
 123   1.0000      -0.226709        -6.1691
 124   1.0000      -0.221397        -6.0245
 125   1.0000      -0.218816        -5.9543
 126   1.0000      -0.215787        -5.8719
 127   1.0000      -0.210936        -5.7399
 128   1.0000      -0.193068        -5.2537
 129   1.0000      -0.188150        -5.1198
 130   1.0000      -0.187357        -5.0982
 131   1.0000      -0.186678        -5.0798
 132   1.0000      -0.181576        -4.9409
 133   1.0000      -0.178767        -4.8645
 134   1.0000      -0.158699        -4.3184
 135   1.0000      -0.153390        -4.1740
 136   1.0000      -0.147479        -4.0131
 137   1.0000      -0.134132        -3.6499
 138   1.0000      -0.132617        -3.6087
 139   1.0000      -0.132204        -3.5975
 140   1.0000      -0.124178        -3.3791
 141   1.0000      -0.120249        -3.2722
 142   1.0000      -0.112770        -3.0686
 143   1.0000      -0.109014        -2.9664
 144   1.0000      -0.098857        -2.6900
 145   1.0000      -0.098728        -2.6865
 146   1.0000      -0.097205        -2.6451
 147   1.0000      -0.095603        -2.6015
 148   1.0000      -0.073890        -2.0106
 149   1.0000      -0.071622        -1.9489
 150   1.0000      -0.067361        -1.8330
 151   1.0000      -0.051627        -1.4048
 152   1.0000      -0.044955        -1.2233
 153   1.0000      -0.037521        -1.0210
 154   1.0000      -0.036411        -0.9908
 155   1.0000      -0.031172        -0.8482
 156   1.0000      -0.024210        -0.6588
 157   1.0000      -0.018424        -0.5013
 158   1.0000      -0.014621        -0.3979
 159   1.0000       0.021052         0.5729
 160   1.0000       0.041904         1.1403
 161   0.0000       0.133261         3.6262
 162   0.0000       0.137659         3.7459
 163   0.0000       0.161470         4.3938
 164   0.0000       0.162770         4.4292
 165   0.0000       0.164640         4.4801

                 SPIN DOWN ORBITALS
  NO   OCC          E(Eh)            E(eV)
   0   1.0000    -196.674333     -5351.7807
   1   1.0000     -88.738580     -2414.6995
   2   1.0000     -88.738576     -2414.6994
   3   1.0000     -88.733285     -2414.5554
   4   1.0000     -88.733187     -2414.5528
   5   1.0000     -88.729594     -2414.4550
   6   1.0000     -88.729532     -2414.4533
   7   1.0000     -88.729118     -2414.4420
   8   1.0000     -88.728932     -2414.4370
   9   1.0000     -88.639417     -2412.0012
  10   1.0000     -88.639191     -2411.9950
  11   1.0000     -88.638937     -2411.9881
  12   1.0000     -88.638815     -2411.9848
  13   1.0000     -22.034657      -599.5935
  14   1.0000     -18.893274      -514.1121
  15   1.0000     -18.550771      -504.7921
  16   1.0000     -18.534828      -504.3583
  17   1.0000     -18.534645      -504.3533
  18   1.0000     -10.075344      -274.1641
  19   1.0000     -10.074681      -274.1460
  20   1.0000     -10.074646      -274.1451
  21   1.0000     -10.074377      -274.1377
  22   1.0000     -10.063253      -273.8350
  23   1.0000     -10.063206      -273.8338
  24   1.0000     -10.050184      -273.4794
  25   1.0000     -10.049535      -273.4618
  26   1.0000     -10.048505      -273.4337
  27   1.0000     -10.048027      -273.4207
  28   1.0000     -10.017139      -272.5802
  29   1.0000     -10.017029      -272.5772
  30   1.0000     -10.016347      -272.5587
  31   1.0000     -10.016100      -272.5519
  32   1.0000      -7.791690      -212.0227
  33   1.0000      -7.791670      -212.0221
  34   1.0000      -7.786712      -211.8872
  35   1.0000      -7.786617      -211.8846
  36   1.0000      -7.782863      -211.7825
  37   1.0000      -7.782825      -211.7814
  38   1.0000      -7.782361      -211.7688
  39   1.0000      -7.782220      -211.7650
  40   1.0000      -7.693658      -209.3551
  41   1.0000      -7.693474      -209.3501
  42   1.0000      -7.693193      -209.3424
  43   1.0000      -7.693171      -209.3418
  44   1.0000      -5.756722      -156.6484
  45   1.0000      -5.756703      -156.6479
  46   1.0000      -5.753264      -156.5543
  47   1.0000      -5.753259      -156.5541
  48   1.0000      -5.751713      -156.5121
  49   1.0000      -5.751608      -156.5092
  50   1.0000      -5.748271      -156.4184
  51   1.0000      -5.748192      -156.4162
  52   1.0000      -5.747812      -156.4059
  53   1.0000      -5.747781      -156.4051
  54   1.0000      -5.747339      -156.3930
  55   1.0000      -5.747192      -156.3891
  56   1.0000      -5.746494      -156.3701
  57   1.0000      -5.746478      -156.3696
  58   1.0000      -5.743391      -156.2856
  59   1.0000      -5.743344      -156.2843
  60   1.0000      -5.742883      -156.2718
  61   1.0000      -5.742743      -156.2680
  62   1.0000      -5.741515      -156.2346
  63   1.0000      -5.741414      -156.2318
  64   1.0000      -5.738665      -156.1570
  65   1.0000      -5.738635      -156.1562
  66   1.0000      -5.738153      -156.1431
  67   1.0000      -5.738010      -156.1392
  68   1.0000      -5.658995      -153.9891
  69   1.0000      -5.658797      -153.9837
  70   1.0000      -5.658523      -153.9762
  71   1.0000      -5.658488      -153.9753
  72   1.0000      -5.652561      -153.8140
  73   1.0000      -5.652387      -153.8093
  74   1.0000      -5.652093      -153.8013
  75   1.0000      -5.652084      -153.8010
  76   1.0000      -5.650961      -153.7705
  77   1.0000      -5.650749      -153.7647
  78   1.0000      -5.650474      -153.7572
  79   1.0000      -5.650413      -153.7556
  80   1.0000      -2.398356       -65.2626
  81   1.0000      -1.465262       -39.8718
  82   1.0000      -1.410499       -38.3816
  83   1.0000      -1.410339       -38.3773
  84   1.0000      -0.715686       -19.4748
  85   1.0000      -0.709409       -19.3040
  86   1.0000      -0.691955       -18.8290
  87   1.0000      -0.685578       -18.6555
  88   1.0000      -0.657208       -17.8835
  89   1.0000      -0.637295       -17.3417
  90   1.0000      -0.631218       -17.1763
  91   1.0000      -0.619620       -16.8607
  92   1.0000      -0.617153       -16.7936
  93   1.0000      -0.575103       -15.6493
  94   1.0000      -0.573964       -15.6184
  95   1.0000      -0.573094       -15.5947
  96   1.0000      -0.572487       -15.5782
  97   1.0000      -0.499214       -13.5843
  98   1.0000      -0.497542       -13.5388
  99   1.0000      -0.495793       -13.4912
 100   1.0000      -0.495580       -13.4854
 101   1.0000      -0.479654       -13.0520
 102   1.0000      -0.476981       -12.9793
 103   1.0000      -0.446114       -12.1394
 104   1.0000      -0.441206       -12.0058
 105   1.0000      -0.416151       -11.3240
 106   1.0000      -0.411172       -11.1886
 107   1.0000      -0.372789       -10.1441
 108   1.0000      -0.356568        -9.7027
 109   1.0000      -0.334531        -9.1031
 110   1.0000      -0.326870        -8.8946
 111   1.0000      -0.324881        -8.8405
 112   1.0000      -0.316307        -8.6072
 113   1.0000      -0.307889        -8.3781
 114   1.0000      -0.303911        -8.2698
 115   1.0000      -0.296015        -8.0550
 116   1.0000      -0.289731        -7.8840
 117   1.0000      -0.262519        -7.1435
 118   1.0000      -0.259148        -7.0518
 119   1.0000      -0.256261        -6.9732
 120   1.0000      -0.251751        -6.8505
 121   1.0000      -0.232110        -6.3160
 122   1.0000      -0.231231        -6.2921
 123   1.0000      -0.226680        -6.1683
 124   1.0000      -0.221324        -6.0225
 125   1.0000      -0.218469        -5.9448
 126   1.0000      -0.215484        -5.8636
 127   1.0000      -0.210799        -5.7361
 128   1.0000      -0.191558        -5.2126
 129   1.0000      -0.188007        -5.1159
 130   1.0000      -0.187217        -5.0944
 131   1.0000      -0.186187        -5.0664
 132   1.0000      -0.181443        -4.9373
 133   1.0000      -0.178713        -4.8630
 134   1.0000      -0.158094        -4.3019
 135   1.0000      -0.153197        -4.1687
 136   1.0000      -0.147388        -4.0106
 137   1.0000      -0.133460        -3.6316
 138   1.0000      -0.132267        -3.5992
 139   1.0000      -0.131935        -3.5901
 140   1.0000      -0.123678        -3.3654
 141   1.0000      -0.119923        -3.2633
 142   1.0000      -0.114559        -3.1173
 143   1.0000      -0.110516        -3.0073
 144   1.0000      -0.098891        -2.6909
 145   1.0000      -0.098793        -2.6883
 146   1.0000      -0.097521        -2.6537
 147   1.0000      -0.095863        -2.6086
 148   1.0000      -0.071627        -1.9491
 149   1.0000      -0.070045        -1.9060
 150   1.0000      -0.067353        -1.8328
 151   1.0000      -0.049034        -1.3343
 152   1.0000      -0.044007        -1.1975
 153   1.0000      -0.037578        -1.0226
 154   1.0000      -0.035845        -0.9754
 155   1.0000      -0.031238        -0.8500
 156   1.0000      -0.025241        -0.6868
 157   1.0000      -0.014833        -0.4036
 158   1.0000       0.021344         0.5808
 159   1.0000       0.040802         1.1103
 160   0.0000       0.133280         3.6267
 161   0.0000       0.137647         3.7456
 162   0.0000       0.156471         4.2578
 163   0.0000       0.161628         4.3981
 164   0.0000       0.163305         4.4438

MULLIKEN ATOMIC CHARGES AND SPIN POPULATIONS
--------------------------------------------
   0 V :    0.471622    1.210361
   1 S :   -0.291446   -0.022433
   2 S :   -0.290807   -0.025223
   3 S :   -0.289386   -0.023363
   4 S :   -0.286535   -0.025674
   5 O :   -0.467781   -0.146507
   6 C :   -0.075314    0.009737
   7 C :   -0.082398    0.008102
   8 C :   -0.083972    0.007749
   9 C :   -0.084582    0.007390
  10 S :    0.095592   -0.000568
  11 S :    0.097410   -0.000614
  12 S :    0.099636   -0.000392
  13 S :    0.098792   -0.000345
  14 C :   -0.255262    0.001613
  15 C :   -0.216577    0.001005
  16 C :   -0.109923   -0.000196
  17 C :   -0.182648   -0.000413
  18 S :   -0.002480   -0.000124
  19 S :   -0.002516   -0.000124
  20 S :    0.007161   -0.000069
  21 S :    0.007195   -0.000072
  22 C :   -0.298223   -0.000000
  23 C :   -0.298153   -0.000001
  24 C :   -0.159091   -0.000012
  25 H :    0.140539   -0.000001
  26 H :    0.114754   -0.000004
  27 H :    0.084072   -0.000001
  28 H :    0.090052   -0.000001
  29 H :    0.114520   -0.000005
  30 H :    0.140321   -0.000001
  31 C :   -0.255854    0.000213
  32 C :   -0.256491    0.000206
  33 C :   -0.173201   -0.000278
  34 H :    0.096309   -0.000018
  35 H :    0.119715    0.000024
  36 H :    0.071739    0.000032
  37 H :    0.097555    0.000001
  38 H :    0.119530    0.000025
  39 H :    0.096126   -0.000018
Sum of atomic charges         :   -2.0000000

LOEWDIN ATOMIC CHARGES AND SPIN POPULATIONS
-------------------------------------------
   0 V :   -0.155900    1.163747
   1 S :    0.079742   -0.014449
   2 S :    0.078570   -0.016071
   3 S :    0.081120   -0.015241
   4 S :    0.082522   -0.016282
   5 O :   -0.318927   -0.131427
   6 C :   -0.549424    0.009079
   7 C :   -0.551563    0.007980
   8 C :   -0.552460    0.008135
   9 C :   -0.552468    0.007666
  10 S :    0.466996   -0.000882
  11 S :    0.468132   -0.000933
  12 S :    0.470886   -0.000823
  13 S :    0.470134   -0.000829
  14 C :   -0.463703    0.000139
  15 C :   -0.465101   -0.000081
  16 C :   -0.615436    0.000455
  17 C :   -0.621601    0.000084
  18 S :    0.361824   -0.000099
  19 S :    0.363088   -0.000097
  20 S :    0.359272   -0.000073
  21 S :    0.358852   -0.000075
  22 C :   -0.282752   -0.000008
  23 C :   -0.282897   -0.000009
  24 C :   -0.176886   -0.000002
  25 H :    0.062220   -0.000002
  26 H :    0.053799   -0.000002
  27 H :    0.058308   -0.000002
  28 H :    0.059214   -0.000001
  29 H :    0.053758   -0.000002
  30 H :    0.062069   -0.000002
  31 C :   -0.293268    0.000048
  32 C :   -0.293042    0.000040
  33 C :   -0.191224    0.000004
  34 H :    0.062896   -0.000002
  35 H :    0.069543    0.000006
  36 H :    0.047966    0.000004
  37 H :    0.063342   -0.000000
  38 H :    0.069661    0.000006
  39 H :    0.062739   -0.000002

  Mayer bond orders larger than 0.100000
B(  0-V ,  1-S ) :   0.7715 B(  0-V ,  2-S ) :   0.7709 B(  0-V ,  3-S ) :   0.7648
B(  0-V ,  4-S ) :   0.7783 B(  0-V ,  5-O ) :   2.1487 B(  1-S ,  8-C ) :   1.1034
B(  2-S ,  6-C ) :   1.1032 B(  3-S ,  9-C ) :   1.1061 B(  4-S ,  7-C ) :   1.1037
B(  6-C ,  7-C ) :   1.6893 B(  6-C , 10-S ) :   0.9342 B(  7-C , 11-S ) :   0.9381
B(  8-C ,  9-C ) :   1.6990 B(  8-C , 13-S ) :   0.9335 B(  9-C , 12-S ) :   0.9352
B( 10-S , 14-C ) :   1.2494 B( 11-S , 14-C ) :   1.2501 B( 12-S , 15-C ) :   1.2470
B( 13-S , 15-C ) :   1.2470 B( 14-C , 16-C ) :   1.4727 B( 15-C , 17-C ) :   1.4556
B( 16-C , 18-S ) :   1.0507 B( 16-C , 19-S ) :   1.0517 B( 17-C , 20-S ) :   1.0846
B( 17-C , 21-S ) :   1.0852 B( 18-S , 32-C ) :   0.9962 B( 19-S , 31-C ) :   0.9962
B( 20-S , 23-C ) :   0.9923 B( 21-S , 22-C ) :   0.9915 B( 22-C , 24-C ) :   0.9154
B( 22-C , 25-H ) :   0.9656 B( 22-C , 26-H ) :   0.9655 B( 23-C , 24-C ) :   0.9160
B( 23-C , 29-H ) :   0.9656 B( 23-C , 30-H ) :   0.9654 B( 24-C , 27-H ) :   0.9623
B( 24-C , 28-H ) :   0.9720 B( 31-C , 33-C ) :   0.9139 B( 31-C , 38-H ) :   0.9628
B( 31-C , 39-H ) :   0.9565 B( 32-C , 33-C ) :   0.9133 B( 32-C , 34-H ) :   0.9567
B( 32-C , 35-H ) :   0.9627 B( 33-C , 36-H ) :   0.9703 B( 33-C , 37-H ) :   0.9691

FINAL SINGLE POINT ENERGY     -6337.647389151260

DIPOLE MOMENT
-------------
                                X             Y             Z
Electronic contribution:    -10.91225       5.72636       5.37486
Nuclear contribution   :     12.27319      -6.39288      -5.99571
                        -----------------------------------------
Total Dipole Moment    :      1.36094      -0.66653      -0.62085
                        -----------------------------------------
Magnitude (a.u.)       :      1.63764
Magnitude (Debye)      :      4.16256

Rotational constants in cm-1:     0.010747     0.000805     0.000784
Rotational constants in MHz :   322.175178    24.118769    23.488868

                             ****ORCA TERMINATED NORMALLY****
TOTAL RUN TIME: 0 days 1 hours 6 minutes 23 seconds 559 msec
