                         Program Version 5.0.4 -  RELEASE  -
|  1> ! nofrozencore ReducedPop printbasis
|  2> ! B3LYP TZVP
|  3>
|  4> %basis
|  5> newgto V "CP(PPP)" end
|  6> end
|  7>
|  8> %pal
|  9> nprocs 8
| 10> end
| 11>
| 12> % sym SymThresh 1e-2 end
| 13> * xyz -2 2
| 14> V 0.9348239278737214 0.056601603761551426 -0.6005871490294872
| 15> S 0.9607849643328552 -2.307965138092159 0.1012208492957642
| 16> S -0.9029066337303037 -0.6030121267495524 -2.133195217463417
| 17> S 1.621105424434044 0.6616381404256594 1.6933498574888752
| 18> S -0.2978675159587366 2.199933154886607 -0.5140198728154706
| 19> O 2.2071595090824214 0.27393988060815666 -1.5285269341085985
| 20> C -1.3521549428340158 0.8038105402436281 -2.4029829207981868
| 21> C -1.1167492598896132 1.9326683245173817 -1.757683633825831
| 22> C 1.8061340765209828 -2.2731765382179168 1.9143130423977957
| 23> C 2.0629482242395416 -1.084773854580921 2.544294385649305
| 24> S -2.640459159514722 1.0413112626335779 -4.013597350346105
| 25> S -2.1072476212885216 3.5774602504942843 -2.526901516318995
| 26> S 2.676679785597345 -1.0950568094040085 3.9710559663355878
| 27> S 2.131234666093715 -3.609696987498734 2.620947740229473
| 28> C -2.9794378140109945 2.785464435158174 -3.8659846539366067
| 29> C 2.6911987047184565 -2.8435593390370677 4.097138764156491
| 30> C -3.8185090371866046 3.4627882454810326 -4.714147116936066
| 31> C 3.1012255464841325 -3.5261580441761247 5.204017580164886
| 32> S -4.605131582752252 2.6451116974019784 -6.053272418880714
| 33> S -4.106910034103379 5.18380878285771 -4.506310178058237
| 34> S 3.1019601700126715 -5.328798960777663 5.298237170544167
| 35> S 3.653134537488727 -2.6990884752116315 6.712111863434398
| 36> C 2.3230699537755846 -3.317761043997094 7.851285112213695
| 37> C 1.8657661017881 -5.523153373486893 6.670610905943833
| 38> C 2.2528138353462177 -4.824247372087283 7.953677549461672
| 39> H 1.3673755649309953 -2.894155726743879 7.534695705486668
| 40> H 2.5763299226674135 -2.89952829126443 8.82902436974996
| 41> H 1.5043158693461343 -5.078367907696988 8.717558096197335
| 42> H 3.215953812683174 -5.209750249658724 8.302583769093113
| 43> H 1.8118451065489387 -6.600661912994088 6.846425365111703
| 44> H 0.8908787505614422 -5.185315271581679 6.3123923859851985
| 45> C -3.408420451944538 5.780174028283593 -6.107455288628073
| 46> C -3.8330788890526044 3.5868701461260737 -7.441365179689193
| 47> C -4.059658174922203 5.116317175993865 -7.346586692233372
| 48> H -2.7637604459694844 3.361418546263367 -7.433451367482889
| 49> H -4.260856190103933 3.1773169315360987 -8.360265133358395
| 50> H -5.134706193371212 5.322303876039077 -7.342100998714791
| 51> H -3.6401802802661796 5.583810097895506 -8.248208779685104
| 52> H -3.5566802475755552 6.863188821446186 -6.115598996471237
| 53> H -2.3336526730736096 5.58344904481086 -6.089697329975529
| 54> *
| 55>
| 56> % eprnmr
| 57> gtensor true
| 58> Nuclei = all H {aiso,adip,aorb,fgrad,rho}
| 59> Nuclei = all V {aiso,adip,aorb,fgrad,rho}
| 60> end
| 61>
| 62>                          ****END OF INPUT****

CARTESIAN COORDINATES (ANGSTROEM)
---------------------------------
  V      0.931076    0.057408   -0.600545
  S      0.957037   -2.307159    0.101263
  S     -0.906655   -0.602206   -2.133153
  S      1.617358    0.662444    1.693392
  S     -0.301615    2.200739   -0.513978
  O      2.203412    0.274746   -1.528485
  C     -1.355903    0.804617   -2.402941
  C     -1.120497    1.933475   -1.757642
  C      1.802386   -2.272370    1.914355
  C      2.059200   -1.083968    2.544337
  S     -2.644207    1.042118   -4.013555
  S     -2.110996    3.578267   -2.526859
  S      2.672932   -1.094251    3.971098
  S      2.127487   -3.608891    2.620990
  C     -2.983186    2.786271   -3.865943
  C      2.687451   -2.842753    4.097181
  C     -3.822257    3.463595   -4.714105
  C      3.097478   -3.525352    5.204060
  S     -4.608879    2.645918   -6.053230
  S     -4.110658    5.184615   -4.506268
  S      3.098212   -5.327993    5.298279
  S      3.649387   -2.698282    6.712154
  C      2.319322   -3.316955    7.851327
  C      1.862018   -5.522347    6.670653
  C      2.249066   -4.823441    7.953720
  H      1.363628   -2.893349    7.534738
  H      2.572582   -2.898722    8.829066
  H      1.500568   -5.077562    8.717600
  H      3.212206   -5.208944    8.302626
  H      1.808097   -6.599856    6.846467
  H      0.887131   -5.184509    6.312435
  C     -3.412168    5.780980   -6.107413
  C     -3.836827    3.587676   -7.441323
  C     -4.063406    5.117123   -7.346545
  H     -2.767508    3.362225   -7.433409
  H     -4.264604    3.178123   -8.360223
  H     -5.138454    5.323110   -7.342059
  H     -3.643928    5.584616   -8.248167
  H     -3.560428    6.863995   -6.115557
  H     -2.337401    5.584255   -6.089655

 Total Charge           Charge          ....   -2
 Multiplicity           Mult            ....    2
 Number of Electrons    NEL             ....  321
 Basis Dimension        Dim             ....  681

ORBITAL ENERGIES
----------------
                 SPIN UP ORBITALS
  NO   OCC          E(Eh)            E(eV)
   0   1.0000    -196.683410     -5352.0277
   1   1.0000     -88.741357     -2414.7751
   2   1.0000     -88.741180     -2414.7703
   3   1.0000     -88.738279     -2414.6913
   4   1.0000     -88.738131     -2414.6873
   5   1.0000     -88.720897     -2414.2183
   6   1.0000     -88.720719     -2414.2135
   7   1.0000     -88.702794     -2413.7257
   8   1.0000     -88.701678     -2413.6954
   9   1.0000     -88.650433     -2412.3009
  10   1.0000     -88.649968     -2412.2883
  11   1.0000     -88.640416     -2412.0284
  12   1.0000     -88.640013     -2412.0174
  13   1.0000     -22.058268      -600.2360
  14   1.0000     -18.897838      -514.2363
  15   1.0000     -18.564514      -505.1661
  16   1.0000     -18.559702      -505.0352
  17   1.0000     -18.559603      -505.0325
  18   1.0000     -10.075640      -274.1721
  19   1.0000     -10.065687      -273.9013
  20   1.0000     -10.065644      -273.9001
  21   1.0000     -10.063843      -273.8511
  22   1.0000     -10.054911      -273.6080
  23   1.0000     -10.054892      -273.6075
  24   1.0000     -10.052130      -273.5324
  25   1.0000     -10.051356      -273.5113
  26   1.0000     -10.044799      -273.3329
  27   1.0000     -10.034151      -273.0431
  28   1.0000     -10.020739      -272.6782
  29   1.0000     -10.020018      -272.6586
  30   1.0000     -10.005587      -272.2659
  31   1.0000     -10.004486      -272.2359
  32   1.0000      -7.800680      -212.2673
  33   1.0000      -7.800307      -212.2571
  34   1.0000      -7.791140      -212.0077
  35   1.0000      -7.790986      -212.0035
  36   1.0000      -7.774969      -211.5677
  37   1.0000      -7.774822      -211.5636
  38   1.0000      -7.754428      -211.0087
  39   1.0000      -7.753403      -210.9808
  40   1.0000      -7.703679      -209.6278
  41   1.0000      -7.702705      -209.6013
  42   1.0000      -7.701047      -209.5562
  43   1.0000      -7.700681      -209.5462
  44   1.0000      -5.765083      -156.8759
  45   1.0000      -5.764725      -156.8662
  46   1.0000      -5.760143      -156.7415
  47   1.0000      -5.759785      -156.7317
  48   1.0000      -5.756820      -156.6510
  49   1.0000      -5.756472      -156.6416
  50   1.0000      -5.756148      -156.6328
  51   1.0000      -5.755988      -156.6284
  52   1.0000      -5.752792      -156.5414
  53   1.0000      -5.752646      -156.5374
  54   1.0000      -5.745974      -156.3559
  55   1.0000      -5.745819      -156.3517
  56   1.0000      -5.739950      -156.1920
  57   1.0000      -5.739810      -156.1882
  58   1.0000      -5.736417      -156.0958
  59   1.0000      -5.736266      -156.0917
  60   1.0000      -5.729774      -155.9151
  61   1.0000      -5.729612      -155.9107
  62   1.0000      -5.719272      -155.6293
  63   1.0000      -5.718227      -155.6009
  64   1.0000      -5.715368      -155.5231
  65   1.0000      -5.714302      -155.4940
  66   1.0000      -5.710249      -155.3838
  67   1.0000      -5.709272      -155.3572
  68   1.0000      -5.667853      -154.2301
  69   1.0000      -5.667470      -154.2197
  70   1.0000      -5.667057      -154.2085
  71   1.0000      -5.666119      -154.1829
  72   1.0000      -5.662312      -154.0794
  73   1.0000      -5.661340      -154.0529
  74   1.0000      -5.661061      -154.0453
  75   1.0000      -5.660154      -154.0206
  76   1.0000      -5.659601      -154.0056
  77   1.0000      -5.659233      -153.9955
  78   1.0000      -5.657674      -153.9531
  79   1.0000      -5.657280      -153.9424
  80   1.0000      -2.451874       -66.7189
  81   1.0000      -1.492909       -40.6241
  82   1.0000      -1.481534       -40.3146
  83   1.0000      -1.481112       -40.3031
  84   1.0000      -0.753062       -20.4919
  85   1.0000      -0.701936       -19.1006
  86   1.0000      -0.694880       -18.9087
  87   1.0000      -0.670020       -18.2322
  88   1.0000      -0.656693       -17.8695
  89   1.0000      -0.640649       -17.4329
  90   1.0000      -0.639015       -17.3885
  91   1.0000      -0.636668       -17.3246
  92   1.0000      -0.618041       -16.8178
  93   1.0000      -0.608439       -16.5565
  94   1.0000      -0.582461       -15.8496
  95   1.0000      -0.580110       -15.7856
  96   1.0000      -0.559269       -15.2185
  97   1.0000      -0.506764       -13.7898
  98   1.0000      -0.496809       -13.5189
  99   1.0000      -0.487281       -13.2596
 100   1.0000      -0.483161       -13.1475
 101   1.0000      -0.476744       -12.9729
 102   1.0000      -0.450597       -12.2614
 103   1.0000      -0.448117       -12.1939
 104   1.0000      -0.438671       -11.9369
 105   1.0000      -0.418203       -11.3799
 106   1.0000      -0.414151       -11.2696
 107   1.0000      -0.369745       -10.0613
 108   1.0000      -0.354452        -9.6451
 109   1.0000      -0.341623        -9.2960
 110   1.0000      -0.339677        -9.2431
 111   1.0000      -0.319070        -8.6823
 112   1.0000      -0.312632        -8.5071
 113   1.0000      -0.298141        -8.1128
 114   1.0000      -0.285984        -7.7820
 115   1.0000      -0.284100        -7.7308
 116   1.0000      -0.275122        -7.4865
 117   1.0000      -0.264354        -7.1934
 118   1.0000      -0.260980        -7.1016
 119   1.0000      -0.249075        -6.7777
 120   1.0000      -0.246920        -6.7190
 121   1.0000      -0.242920        -6.6102
 122   1.0000      -0.232655        -6.3309
 123   1.0000      -0.231035        -6.2868
 124   1.0000      -0.230543        -6.2734
 125   1.0000      -0.225858        -6.1459
 126   1.0000      -0.222924        -6.0661
 127   1.0000      -0.211194        -5.7469
 128   1.0000      -0.204688        -5.5698
 129   1.0000      -0.201339        -5.4787
 130   1.0000      -0.198297        -5.3959
 131   1.0000      -0.187149        -5.0926
 132   1.0000      -0.184573        -5.0225
 133   1.0000      -0.182986        -4.9793
 134   1.0000      -0.158403        -4.3104
 135   1.0000      -0.154232        -4.1969
 136   1.0000      -0.146176        -3.9777
 137   1.0000      -0.143487        -3.9045
 138   1.0000      -0.135001        -3.6736
 139   1.0000      -0.133915        -3.6440
 140   1.0000      -0.130548        -3.5524
 141   1.0000      -0.125802        -3.4233
 142   1.0000      -0.120289        -3.2732
 143   1.0000      -0.115420        -3.1407
 144   1.0000      -0.098280        -2.6743
 145   1.0000      -0.095884        -2.6091
 146   1.0000      -0.089705        -2.4410
 147   1.0000      -0.087380        -2.3777
 148   1.0000      -0.075900        -2.0653
 149   1.0000      -0.072410        -1.9704
 150   1.0000      -0.065157        -1.7730
 151   1.0000      -0.048497        -1.3197
 152   1.0000      -0.045245        -1.2312
 153   1.0000      -0.040901        -1.1130
 154   1.0000      -0.037554        -1.0219
 155   1.0000      -0.033549        -0.9129
 156   1.0000      -0.026798        -0.7292
 157   1.0000      -0.022477        -0.6116
 158   1.0000      -0.011901        -0.3238
 159   1.0000       0.017718         0.4821
 160   1.0000       0.049711         1.3527
 161   0.0000       0.132251         3.5987
 162   0.0000       0.141585         3.8527
 163   0.0000       0.150524         4.0960
 164   0.0000       0.160236         4.3602
 165   0.0000       0.161423         4.3925

                 SPIN DOWN ORBITALS
  NO   OCC          E(Eh)            E(eV)
   0   1.0000    -196.683551     -5352.0315
   1   1.0000     -88.741362     -2414.7752
   2   1.0000     -88.741185     -2414.7704
   3   1.0000     -88.738279     -2414.6913
   4   1.0000     -88.738131     -2414.6873
   5   1.0000     -88.720898     -2414.2184
   6   1.0000     -88.720720     -2414.2135
   7   1.0000     -88.702824     -2413.7265
   8   1.0000     -88.701709     -2413.6962
   9   1.0000     -88.650595     -2412.3053
  10   1.0000     -88.650131     -2412.2927
  11   1.0000     -88.640501     -2412.0306
  12   1.0000     -88.640097     -2412.0197
  13   1.0000     -22.043560      -599.8358
  14   1.0000     -18.901599      -514.3387
  15   1.0000     -18.559269      -505.0234
  16   1.0000     -18.543868      -504.6043
  17   1.0000     -18.543822      -504.6031
  18   1.0000     -10.075575      -274.1703
  19   1.0000     -10.065687      -273.9013
  20   1.0000     -10.065644      -273.9001
  21   1.0000     -10.063852      -273.8513
  22   1.0000     -10.054911      -273.6081
  23   1.0000     -10.054893      -273.6075
  24   1.0000     -10.052131      -273.5324
  25   1.0000     -10.051341      -273.5109
  26   1.0000     -10.044797      -273.3328
  27   1.0000     -10.034141      -273.0429
  28   1.0000     -10.020402      -272.6690
  29   1.0000     -10.019670      -272.6491
  30   1.0000     -10.005348      -272.2594
  31   1.0000     -10.004262      -272.2298
  32   1.0000      -7.800685      -212.2674
  33   1.0000      -7.800312      -212.2573
  34   1.0000      -7.791140      -212.0077
  35   1.0000      -7.790986      -212.0035
  36   1.0000      -7.774970      -211.5677
  37   1.0000      -7.774823      -211.5637
  38   1.0000      -7.754459      -211.0095
  39   1.0000      -7.753435      -210.9817
  40   1.0000      -7.703758      -209.6299
  41   1.0000      -7.702785      -209.6034
  42   1.0000      -7.701195      -209.5602
  43   1.0000      -7.700830      -209.5502
  44   1.0000      -5.765092      -156.8761
  45   1.0000      -5.764734      -156.8664
  46   1.0000      -5.760150      -156.7416
  47   1.0000      -5.759791      -156.7319
  48   1.0000      -5.756825      -156.6512
  49   1.0000      -5.756477      -156.6417
  50   1.0000      -5.756148      -156.6328
  51   1.0000      -5.755988      -156.6284
  52   1.0000      -5.752792      -156.5414
  53   1.0000      -5.752645      -156.5374
  54   1.0000      -5.745974      -156.3559
  55   1.0000      -5.745818      -156.3517
  56   1.0000      -5.739952      -156.1920
  57   1.0000      -5.739812      -156.1882
  58   1.0000      -5.736420      -156.0959
  59   1.0000      -5.736269      -156.0918
  60   1.0000      -5.729775      -155.9151
  61   1.0000      -5.729614      -155.9107
  62   1.0000      -5.719315      -155.6305
  63   1.0000      -5.718271      -155.6021
  64   1.0000      -5.715425      -155.5246
  65   1.0000      -5.714365      -155.4958
  66   1.0000      -5.710268      -155.3843
  67   1.0000      -5.709291      -155.3577
  68   1.0000      -5.668060      -154.2357
  69   1.0000      -5.667668      -154.2251
  70   1.0000      -5.667137      -154.2106
  71   1.0000      -5.666197      -154.1851
  72   1.0000      -5.662580      -154.0866
  73   1.0000      -5.661624      -154.0606
  74   1.0000      -5.661079      -154.0458
  75   1.0000      -5.660158      -154.0207
  76   1.0000      -5.660014      -154.0168
  77   1.0000      -5.659654      -154.0070
  78   1.0000      -5.657773      -153.9558
  79   1.0000      -5.657381      -153.9452
  80   1.0000      -2.407622       -65.5147
  81   1.0000      -1.473656       -40.1002
  82   1.0000      -1.420423       -38.6517
  83   1.0000      -1.420162       -38.6446
  84   1.0000      -0.752768       -20.4839
  85   1.0000      -0.701914       -19.1001
  86   1.0000      -0.694880       -18.9087
  87   1.0000      -0.670147       -18.2356
  88   1.0000      -0.664462       -18.0809
  89   1.0000      -0.640641       -17.4327
  90   1.0000      -0.638917       -17.3858
  91   1.0000      -0.636496       -17.3199
  92   1.0000      -0.618030       -16.8174
  93   1.0000      -0.608442       -16.5566
  94   1.0000      -0.582444       -15.8491
  95   1.0000      -0.580140       -15.7864
  96   1.0000      -0.559069       -15.2130
  97   1.0000      -0.506895       -13.7933
  98   1.0000      -0.496803       -13.5187
  99   1.0000      -0.487256       -13.2589
 100   1.0000      -0.483182       -13.1480
 101   1.0000      -0.476790       -12.9741
 102   1.0000      -0.451037       -12.2734
 103   1.0000      -0.448182       -12.1957
 104   1.0000      -0.438626       -11.9356
 105   1.0000      -0.418144       -11.3783
 106   1.0000      -0.414150       -11.2696
 107   1.0000      -0.369640       -10.0584
 108   1.0000      -0.354360        -9.6426
 109   1.0000      -0.341627        -9.2961
 110   1.0000      -0.339591        -9.2407
 111   1.0000      -0.319001        -8.6805
 112   1.0000      -0.312628        -8.5070
 113   1.0000      -0.298138        -8.1127
 114   1.0000      -0.285980        -7.7819
 115   1.0000      -0.284062        -7.7297
 116   1.0000      -0.275061        -7.4848
 117   1.0000      -0.264113        -7.1869
 118   1.0000      -0.260938        -7.1005
 119   1.0000      -0.248960        -6.7745
 120   1.0000      -0.246709        -6.7133
 121   1.0000      -0.242800        -6.6069
 122   1.0000      -0.232319        -6.3217
 123   1.0000      -0.231008        -6.2861
 124   1.0000      -0.230449        -6.2708
 125   1.0000      -0.225781        -6.1438
 126   1.0000      -0.222883        -6.0650
 127   1.0000      -0.210874        -5.7382
 128   1.0000      -0.203391        -5.5346
 129   1.0000      -0.200866        -5.4658
 130   1.0000      -0.198245        -5.3945
 131   1.0000      -0.187093        -5.0911
 132   1.0000      -0.183908        -5.0044
 133   1.0000      -0.182879        -4.9764
 134   1.0000      -0.158297        -4.3075
 135   1.0000      -0.152731        -4.1560
 136   1.0000      -0.146153        -3.9770
 137   1.0000      -0.143143        -3.8951
 138   1.0000      -0.134932        -3.6717
 139   1.0000      -0.133066        -3.6209
 140   1.0000      -0.130146        -3.5414
 141   1.0000      -0.124801        -3.3960
 142   1.0000      -0.122252        -3.3266
 143   1.0000      -0.117333        -3.1928
 144   1.0000      -0.098307        -2.6751
 145   1.0000      -0.095828        -2.6076
 146   1.0000      -0.089722        -2.4415
 147   1.0000      -0.087378        -2.3777
 148   1.0000      -0.072813        -1.9813
 149   1.0000      -0.072375        -1.9694
 150   1.0000      -0.064422        -1.7530
 151   1.0000      -0.047354        -1.2886
 152   1.0000      -0.044269        -1.2046
 153   1.0000      -0.041071        -1.1176
 154   1.0000      -0.036710        -0.9989
 155   1.0000      -0.033271        -0.9053
 156   1.0000      -0.022644        -0.6162
 157   1.0000      -0.012561        -0.3418
 158   1.0000       0.018031         0.4906
 159   1.0000       0.048684         1.3248
 160   0.0000       0.130209         3.5432
 161   0.0000       0.132375         3.6021
 162   0.0000       0.147434         4.0119
 163   0.0000       0.154641         4.2080
 164   0.0000       0.160506         4.3676

MULLIKEN ATOMIC CHARGES AND SPIN POPULATIONS
--------------------------------------------
   0 V :    0.443138    1.192246
   1 S :   -0.314480   -0.029132
   2 S :   -0.194629   -0.013688
   3 S :   -0.310315   -0.029692
   4 S :   -0.198493   -0.014898
   5 O :   -0.459915   -0.145645
   6 C :   -0.037526    0.007543
   7 C :   -0.058685    0.005294
   8 C :   -0.138977    0.016789
   9 C :   -0.143302    0.015139
  10 S :   -0.035018   -0.003577
  11 S :   -0.028505   -0.003371
  12 S :    0.202714   -0.000334
  13 S :    0.204463   -0.000294
  14 C :   -0.162401    0.000984
  15 C :   -0.270443    0.002987
  16 C :   -0.198561    0.000260
  17 C :   -0.161891   -0.000410
  18 S :    0.013170   -0.000246
  19 S :    0.012192   -0.000230
  20 S :   -0.001888    0.000001
  21 S :   -0.001842    0.000017
  22 C :   -0.302390    0.000013
  23 C :   -0.301460    0.000007
  24 C :   -0.146856    0.000032
  25 H :    0.142260   -0.000001
  26 H :    0.111518   -0.000006
  27 H :    0.083959   -0.000003
  28 H :    0.092249   -0.000014
  29 H :    0.111237   -0.000007
  30 H :    0.141628   -0.000001
  31 C :   -0.298515    0.000292
  32 C :   -0.299116    0.000286
  33 C :   -0.162800   -0.000498
  34 H :    0.140065   -0.000023
  35 H :    0.111311    0.000037
  36 H :    0.088481    0.000070
  37 H :    0.078420    0.000060
  38 H :    0.110906    0.000037
  39 H :    0.140299   -0.000022
Sum of atomic charges         :   -2.0000000

LOEWDIN ATOMIC CHARGES AND SPIN POPULATIONS
-------------------------------------------
   0 V :   -0.156619    1.145796
   1 S :   -0.005284   -0.019666
   2 S :    0.245479   -0.006749
   3 S :   -0.001369   -0.020170
   4 S :    0.237657   -0.007587
   5 O :   -0.314217   -0.130541
   6 C :   -0.556068    0.008228
   7 C :   -0.558265    0.006961
   8 C :   -0.578613    0.015323
   9 C :   -0.577686    0.013815
  10 S :    0.297644   -0.003720
  11 S :    0.303672   -0.003540
  12 S :    0.610794   -0.000020
  13 S :    0.613101    0.000040
  14 C :   -0.468275   -0.000353
  15 C :   -0.466580    0.001598
  16 C :   -0.642039    0.000635
  17 C :   -0.612327    0.000255
  18 S :    0.368931   -0.000221
  19 S :    0.369216   -0.000199
  20 S :    0.345881   -0.000002
  21 S :    0.345271    0.000016
  22 C :   -0.282634    0.000003
  23 C :   -0.282746   -0.000002
  24 C :   -0.178354   -0.000005
  25 H :    0.062334   -0.000000
  26 H :    0.053292    0.000001
  27 H :    0.059348    0.000001
  28 H :    0.060871   -0.000004
  29 H :    0.053256   -0.000001
  30 H :    0.062150   -0.000001
  31 C :   -0.286484    0.000015
  32 C :   -0.286254    0.000003
  33 C :   -0.175066    0.000042
  34 H :    0.061198    0.000004
  35 H :    0.052166    0.000014
  36 H :    0.058514    0.000019
  37 H :    0.054930   -0.000009
  38 H :    0.052143    0.000015
  39 H :    0.061033    0.000005

  Mayer bond orders larger than 0.100000
B(  0-V ,  1-S ) :   0.7917 B(  0-V ,  2-S ) :   0.7414 B(  0-V ,  3-S ) :   0.7845
B(  0-V ,  4-S ) :   0.7584 B(  0-V ,  5-O ) :   2.1498 B(  1-S ,  8-C ) :   0.8923
B(  2-S ,  6-C ) :   1.3704 B(  3-S ,  9-C ) :   0.9004 B(  4-S ,  7-C ) :   1.3551
B(  6-C ,  7-C ) :   1.6563 B(  6-C , 10-S ) :   0.6585 B(  7-C , 11-S ) :   0.6771
B(  8-C ,  9-C ) :   1.7544 B(  8-C , 13-S ) :   1.1754 B(  9-C , 12-S ) :   1.1700
B( 10-S , 14-C ) :   1.2594 B( 11-S , 14-C ) :   1.2542 B( 12-S , 15-C ) :   1.2360
B( 13-S , 15-C ) :   1.2319 B( 14-C , 16-C ) :   1.4664 B( 15-C , 17-C ) :   1.3910
B( 16-C , 18-S ) :   1.0972 B( 16-C , 19-S ) :   1.0960 B( 17-C , 20-S ) :   1.0735
B( 17-C , 21-S ) :   1.0734 B( 18-S , 32-C ) :   0.9894 B( 19-S , 31-C ) :   0.9906
B( 20-S , 23-C ) :   0.9947 B( 21-S , 22-C ) :   0.9947 B( 22-C , 24-C ) :   0.9147
B( 22-C , 25-H ) :   0.9651 B( 22-C , 26-H ) :   0.9672 B( 23-C , 24-C ) :   0.9156
B( 23-C , 29-H ) :   0.9672 B( 23-C , 30-H ) :   0.9651 B( 24-C , 27-H ) :   0.9637
B( 24-C , 28-H ) :   0.9714 B( 31-C , 33-C ) :   0.9131 B( 31-C , 38-H ) :   0.9639
B( 31-C , 39-H ) :   0.9668 B( 32-C , 33-C ) :   0.9129 B( 32-C , 34-H ) :   0.9671
B( 32-C , 35-H ) :   0.9637 B( 33-C , 36-H ) :   0.9715 B( 33-C , 37-H ) :   0.9612

FINAL SINGLE POINT ENERGY     -6337.518977770277

DIPOLE MOMENT
-------------
                                X             Y             Z
Electronic contribution:     13.46498      -2.34986      -3.79378
Nuclear contribution   :    -13.98317       1.65571       5.50646
                        -----------------------------------------
Total Dipole Moment    :     -0.51820      -0.69415       1.71269
                        -----------------------------------------
Magnitude (a.u.)       :      1.91929
Magnitude (Debye)      :      4.87844

Rotational constants in cm-1:     0.010761     0.000804     0.000783
Rotational constants in MHz :   322.595492    24.112245    23.483703

                             ****ORCA TERMINATED NORMALLY****
TOTAL RUN TIME: 0 days 1 hours 4 minutes 43 seconds 891 msec
