                         Program Version 5.0.4 -  RELEASE  -
|  1> ! nofrozencore ReducedPop printbasis
|  2> ! B3LYP TZVP
|  3>
|  4> %basis
|  5> newgto V "CP(PPP)" end
|  6> end
|  7>
|  8> %pal
|  9> nprocs 6
| 10> end
| 11>
| 12> % sym SymThresh 1e-2 end
| 13> * xyz -2 2
| 14> V 0.27763091191302497 -1.0262695838204419 0.32982676558514595
| 15> S 0.02996962842331752 -1.3613135410909114 -2.108322444646618
| 16> S 2.366859668954547 0.17394886317522407 -0.23691182300049898
| 17> S -2.1971927828791142 -0.9955867144724483 0.39701507287115684
| 18> S 0.07629079877841803 0.5804318039909023 2.190550312864011
| 19> O 0.7449209296710898 -2.4119206502713832 0.9502937773206898
| 20> C 2.597882520093854 0.9849873289979663 1.3737891811530831
| 21> C 1.8088720304899784 1.1270743467766153 2.207103609895813
| 22> C -1.674564325733377 -1.6403772778472412 -2.270345805195454
| 23> C -2.6148304763694568 -1.4826130371805464 -1.2124267773786415
| 24> S 4.275405665900347 1.6975861611181113 1.6040178194314045
| 25> S 2.2573970802836407 2.0705970411338455 3.7164733970472144
| 26> S -4.31422118824243 -1.7765984740264276 -1.6535919251741176
| 27> S -2.3706685673679426 -2.1098634533187366 -3.8408303673779405
| 28> C 4.060906094421072 2.524039994430575 3.307738431105262
| 29> C -4.004342631846249 -2.099544138406955 -3.3110357629540403
| 30> C 4.6616678197883665 3.024566200512566 3.7963170635001693
| 31> C -5.1658437991726975 -2.3769903387376905 -4.299677962490525
| 32> S 6.485730431821715 3.3986428336939962 3.371563737002631
| 33> S 4.383273648320549 3.827244259900982 5.505667947513511
| 34> S -4.806422256194307 -2.6997230177768015 -5.9663086441114626
| 35> S -6.802062023369976 -2.3385085946265805 -3.720801403308107
| 36> C -7.381093062876466 -0.9168054654945629 -4.761586635981142
| 37> C -5.680619088108689 -1.22912256548577 -6.682241061070821
| 38> C -7.154429207647617 -1.1337377113716363 -6.264360415104442
| 39> H -6.786913680327801 -0.04580583486654515 -4.464348344790482
| 40> H -8.461963940004766 -0.9179366688362856 -4.577138362240513
| 41> H -7.629505222284788 -0.30923945022550553 -6.819346035551018
| 42> H -7.698552069668968 -2.0241703055958604 -6.600675895454088
| 43> H -5.6438472791861365 -1.4370012222729525 -7.757941109711667
| 44> H -5.172097065804381 -0.33938040767620886 -6.295980803636891
| 45> C 5.587783369291265 2.8929349563006443 6.5443433030885325
| 46> C 7.353429370591123 2.527886738027764 4.746804898838817
| 47> C 7.041693743870333 3.064411005679087 6.133225964867535
| 48> H 7.331572630000441 1.4156097170546278 4.579713873406933
| 49> H 8.453155890093738 2.3768269877294665 4.530815372510608
| 50> H 7.261388941366677 4.135490924202777 6.130210165251284
| 51> H 7.630343888489913 2.457979116171484 6.8351391669492365
| 52> H 5.394492731149203 3.0377782277735923 7.6431640265473915
| 53> H 5.211124643680932 1.8555860211474544 6.73128360169518
| 54> *
| 55>
| 56> % eprnmr
| 57> gtensor true
| 58> Nuclei = all H {aiso,adip,aorb,fgrad,rho}
| 59> Nuclei = all V {aiso,adip,aorb,fgrad,rho}
| 60> end
| 61>
| 62>                          ****END OF INPUT****

CARTESIAN COORDINATES (ANGSTROEM)
---------------------------------
  V      0.278512   -1.022546    0.330061
  S      0.030851   -1.357590   -2.108088
  S      2.367741    0.177673   -0.236677
  S     -2.196312   -0.991863    0.397249
  S      0.077172    0.584156    2.190785
  O      0.745802   -2.408197    0.950528
  C      2.598763    0.988711    1.374024
  C      1.809753    1.130798    2.207338
  C     -1.673683   -1.636653   -2.270111
  C     -2.613950   -1.478889   -1.212192
  S      4.276287    1.701310    1.604252
  S      2.258278    2.074321    3.716708
  S     -4.313340   -1.772874   -1.653358
  S     -2.369788   -2.106139   -3.840596
  C      4.061787    2.527764    3.307973
  C     -4.003462   -2.095820   -3.310801
  C      4.662549    3.028290    3.796551
  C     -5.164963   -2.373266   -4.299444
  S      6.486611    3.402367    3.371798
  S      4.384155    3.830968    5.505902
  S     -4.805541   -2.695999   -5.966074
  S     -6.801181   -2.334785   -3.720567
  C     -7.380212   -0.913081   -4.761352
  C     -5.679738   -1.225399   -6.682007
  C     -7.153548   -1.130014   -6.264126
  H     -6.786033   -0.042082   -4.464114
  H     -8.461083   -0.914213   -4.576904
  H     -7.628624   -0.305515   -6.819112
  H     -7.697671   -2.020446   -6.600441
  H     -5.642966   -1.433277   -7.757707
  H     -5.171216   -0.335656   -6.295746
  C      5.588664    2.896659    6.544578
  C      7.354310    2.531611    4.747039
  C      7.042575    3.068135    6.133460
  H      7.332454    1.419334    4.579948
  H      8.454037    2.380551    4.531050
  H      7.262270    4.139215    6.130445
  H      7.631225    2.461703    6.835374
  H      5.395374    3.041502    7.643398
  H      5.212006    1.859310    6.731518

 Total Charge           Charge          ....   -2
 Multiplicity           Mult            ....    2
 Number of Electrons    NEL             ....  321
 Basis Dimension        Dim             ....  681

ORBITAL ENERGIES
----------------
                 SPIN UP ORBITALS
  NO   OCC          E(Eh)            E(eV)
   0   1.0000    -196.676340     -5351.8353
   1   1.0000     -88.743917     -2414.8447
   2   1.0000     -88.743614     -2414.8365
   3   1.0000     -88.737724     -2414.6762
   4   1.0000     -88.737657     -2414.6744
   5   1.0000     -88.721808     -2414.2431
   6   1.0000     -88.721768     -2414.2420
   7   1.0000     -88.721263     -2414.2283
   8   1.0000     -88.721146     -2414.2251
   9   1.0000     -88.643200     -2412.1041
  10   1.0000     -88.642802     -2412.0933
  11   1.0000     -88.639781     -2412.0111
  12   1.0000     -88.639437     -2412.0017
  13   1.0000     -22.051701      -600.0573
  14   1.0000     -18.891478      -514.0633
  15   1.0000     -18.558157      -504.9931
  16   1.0000     -18.552979      -504.8522
  17   1.0000     -18.552870      -504.8493
  18   1.0000     -10.082332      -274.3542
  19   1.0000     -10.081305      -274.3262
  20   1.0000     -10.078767      -274.2572
  21   1.0000     -10.067077      -273.9391
  22   1.0000     -10.051952      -273.5275
  23   1.0000     -10.051896      -273.5260
  24   1.0000     -10.040077      -273.2044
  25   1.0000     -10.039455      -273.1875
  26   1.0000     -10.037833      -273.1433
  27   1.0000     -10.027338      -272.8578
  28   1.0000     -10.026890      -272.8455
  29   1.0000     -10.012335      -272.4495
  30   1.0000      -9.997986      -272.0590
  31   1.0000      -9.994355      -271.9602
  32   1.0000      -7.796814      -212.1621
  33   1.0000      -7.796579      -212.1557
  34   1.0000      -7.791488      -212.0172
  35   1.0000      -7.791452      -212.0162
  36   1.0000      -7.775071      -211.5704
  37   1.0000      -7.774965      -211.5675
  38   1.0000      -7.773510      -211.5280
  39   1.0000      -7.773496      -211.5276
  40   1.0000      -7.697862      -209.4695
  41   1.0000      -7.697519      -209.4601
  42   1.0000      -7.693229      -209.3434
  43   1.0000      -7.692803      -209.3318
  44   1.0000      -5.761887      -156.7889
  45   1.0000      -5.761658      -156.7827
  46   1.0000      -5.758830      -156.7057
  47   1.0000      -5.758575      -156.6988
  48   1.0000      -5.755937      -156.6270
  49   1.0000      -5.755905      -156.6261
  50   1.0000      -5.751799      -156.5144
  51   1.0000      -5.751761      -156.5134
  52   1.0000      -5.751037      -156.4937
  53   1.0000      -5.750799      -156.4872
  54   1.0000      -5.747942      -156.4095
  55   1.0000      -5.747918      -156.4088
  56   1.0000      -5.739979      -156.1928
  57   1.0000      -5.739863      -156.1896
  58   1.0000      -5.739808      -156.1881
  59   1.0000      -5.739797      -156.1878
  60   1.0000      -5.736409      -156.0956
  61   1.0000      -5.736310      -156.0929
  62   1.0000      -5.734383      -156.0405
  63   1.0000      -5.734372      -156.0402
  64   1.0000      -5.730187      -155.9263
  65   1.0000      -5.730071      -155.9232
  66   1.0000      -5.727784      -155.8609
  67   1.0000      -5.727778      -155.8608
  68   1.0000      -5.662961      -154.0970
  69   1.0000      -5.662607      -154.0874
  70   1.0000      -5.659007      -153.9894
  71   1.0000      -5.658615      -153.9787
  72   1.0000      -5.656432      -153.9193
  73   1.0000      -5.656090      -153.9100
  74   1.0000      -5.655428      -153.8920
  75   1.0000      -5.655084      -153.8826
  76   1.0000      -5.652047      -153.8000
  77   1.0000      -5.651659      -153.7895
  78   1.0000      -5.650050      -153.7457
  79   1.0000      -5.649592      -153.7332
  80   1.0000      -2.445362       -66.5417
  81   1.0000      -1.486692       -40.4549
  82   1.0000      -1.475026       -40.1375
  83   1.0000      -1.474166       -40.1141
  84   1.0000      -0.737047       -20.0561
  85   1.0000      -0.704710       -19.1761
  86   1.0000      -0.692659       -18.8482
  87   1.0000      -0.683698       -18.6044
  88   1.0000      -0.665699       -18.1146
  89   1.0000      -0.650936       -17.7129
  90   1.0000      -0.624084       -16.9822
  91   1.0000      -0.614408       -16.7189
  92   1.0000      -0.608046       -16.5458
  93   1.0000      -0.587883       -15.9971
  94   1.0000      -0.572914       -15.5898
  95   1.0000      -0.572491       -15.5783
  96   1.0000      -0.550136       -14.9699
  97   1.0000      -0.526039       -14.3142
  98   1.0000      -0.502448       -13.6723
  99   1.0000      -0.496136       -13.5005
 100   1.0000      -0.479435       -13.0461
 101   1.0000      -0.471735       -12.8366
 102   1.0000      -0.467610       -12.7243
 103   1.0000      -0.461625       -12.5614
 104   1.0000      -0.444440       -12.0938
 105   1.0000      -0.433466       -11.7952
 106   1.0000      -0.392996       -10.6940
 107   1.0000      -0.354836        -9.6556
 108   1.0000      -0.351870        -9.5749
 109   1.0000      -0.336107        -9.1459
 110   1.0000      -0.335158        -9.1201
 111   1.0000      -0.319580        -8.6962
 112   1.0000      -0.315195        -8.5769
 113   1.0000      -0.301126        -8.1941
 114   1.0000      -0.298661        -8.1270
 115   1.0000      -0.291777        -7.9397
 116   1.0000      -0.291077        -7.9206
 117   1.0000      -0.279972        -7.6184
 118   1.0000      -0.269800        -7.3416
 119   1.0000      -0.251086        -6.8324
 120   1.0000      -0.248356        -6.7581
 121   1.0000      -0.243403        -6.6233
 122   1.0000      -0.235900        -6.4192
 123   1.0000      -0.227206        -6.1826
 124   1.0000      -0.224187        -6.1004
 125   1.0000      -0.213886        -5.8201
 126   1.0000      -0.210298        -5.7225
 127   1.0000      -0.209695        -5.7061
 128   1.0000      -0.206768        -5.6264
 129   1.0000      -0.193660        -5.2698
 130   1.0000      -0.192405        -5.2356
 131   1.0000      -0.188144        -5.1196
 132   1.0000      -0.183017        -4.9801
 133   1.0000      -0.182366        -4.9624
 134   1.0000      -0.176877        -4.8131
 135   1.0000      -0.161317        -4.3897
 136   1.0000      -0.153247        -4.1701
 137   1.0000      -0.142088        -3.8664
 138   1.0000      -0.130000        -3.5375
 139   1.0000      -0.121189        -3.2977
 140   1.0000      -0.115528        -3.1437
 141   1.0000      -0.109188        -2.9712
 142   1.0000      -0.107315        -2.9202
 143   1.0000      -0.106614        -2.9011
 144   1.0000      -0.105153        -2.8614
 145   1.0000      -0.099414        -2.7052
 146   1.0000      -0.088488        -2.4079
 147   1.0000      -0.083877        -2.2824
 148   1.0000      -0.076558        -2.0833
 149   1.0000      -0.070587        -1.9208
 150   1.0000      -0.059701        -1.6245
 151   1.0000      -0.053148        -1.4462
 152   1.0000      -0.053061        -1.4439
 153   1.0000      -0.046777        -1.2729
 154   1.0000      -0.037805        -1.0287
 155   1.0000      -0.027975        -0.7612
 156   1.0000      -0.021632        -0.5886
 157   1.0000      -0.018087        -0.4922
 158   1.0000      -0.011064        -0.3011
 159   1.0000       0.010478         0.2851
 160   1.0000       0.039463         1.0738
 161   0.0000       0.096720         2.6319
 162   0.0000       0.131347         3.5741
 163   0.0000       0.139264         3.7896
 164   0.0000       0.146161         3.9773
 165   0.0000       0.160477         4.3668

                 SPIN DOWN ORBITALS
  NO   OCC          E(Eh)            E(eV)
   0   1.0000    -196.676489     -5351.8393
   1   1.0000     -88.743922     -2414.8449
   2   1.0000     -88.743619     -2414.8366
   3   1.0000     -88.737732     -2414.6764
   4   1.0000     -88.737664     -2414.6746
   5   1.0000     -88.721815     -2414.2433
   6   1.0000     -88.721775     -2414.2422
   7   1.0000     -88.721263     -2414.2283
   8   1.0000     -88.721146     -2414.2251
   9   1.0000     -88.643332     -2412.1077
  10   1.0000     -88.642936     -2412.0969
  11   1.0000     -88.639926     -2412.0150
  12   1.0000     -88.639584     -2412.0057
  13   1.0000     -22.036768      -599.6509
  14   1.0000     -18.895291      -514.1670
  15   1.0000     -18.552883      -504.8496
  16   1.0000     -18.536952      -504.4161
  17   1.0000     -18.536751      -504.4106
  18   1.0000     -10.082332      -274.3542
  19   1.0000     -10.081304      -274.3262
  20   1.0000     -10.078769      -274.2572
  21   1.0000     -10.067077      -273.9391
  22   1.0000     -10.051952      -273.5275
  23   1.0000     -10.051896      -273.5260
  24   1.0000     -10.040074      -273.2043
  25   1.0000     -10.039455      -273.1875
  26   1.0000     -10.037828      -273.1432
  27   1.0000     -10.027131      -272.8521
  28   1.0000     -10.026683      -272.8399
  29   1.0000     -10.012334      -272.4495
  30   1.0000      -9.997732      -272.0521
  31   1.0000      -9.994106      -271.9534
  32   1.0000      -7.796819      -212.1622
  33   1.0000      -7.796584      -212.1558
  34   1.0000      -7.791496      -212.0174
  35   1.0000      -7.791461      -212.0164
  36   1.0000      -7.775072      -211.5705
  37   1.0000      -7.774965      -211.5676
  38   1.0000      -7.773518      -211.5282
  39   1.0000      -7.773505      -211.5278
  40   1.0000      -7.697985      -209.4728
  41   1.0000      -7.697644      -209.4635
  42   1.0000      -7.693363      -209.3470
  43   1.0000      -7.692938      -209.3355
  44   1.0000      -5.761896      -156.7891
  45   1.0000      -5.761667      -156.7829
  46   1.0000      -5.758838      -156.7059
  47   1.0000      -5.758583      -156.6990
  48   1.0000      -5.755949      -156.6273
  49   1.0000      -5.755917      -156.6265
  50   1.0000      -5.751812      -156.5148
  51   1.0000      -5.751773      -156.5137
  52   1.0000      -5.751041      -156.4938
  53   1.0000      -5.750802      -156.4873
  54   1.0000      -5.747947      -156.4096
  55   1.0000      -5.747923      -156.4089
  56   1.0000      -5.739979      -156.1928
  57   1.0000      -5.739864      -156.1896
  58   1.0000      -5.739810      -156.1882
  59   1.0000      -5.739799      -156.1879
  60   1.0000      -5.736409      -156.0956
  61   1.0000      -5.736310      -156.0929
  62   1.0000      -5.734401      -156.0410
  63   1.0000      -5.734389      -156.0407
  64   1.0000      -5.730187      -155.9263
  65   1.0000      -5.730072      -155.9232
  66   1.0000      -5.727789      -155.8611
  67   1.0000      -5.727785      -155.8609
  68   1.0000      -5.663098      -154.1007
  69   1.0000      -5.662744      -154.0911
  70   1.0000      -5.659156      -153.9935
  71   1.0000      -5.658768      -153.9829
  72   1.0000      -5.656763      -153.9283
  73   1.0000      -5.656431      -153.9193
  74   1.0000      -5.655536      -153.8950
  75   1.0000      -5.655192      -153.8856
  76   1.0000      -5.652444      -153.8108
  77   1.0000      -5.652053      -153.8002
  78   1.0000      -5.650139      -153.7481
  79   1.0000      -5.649690      -153.7359
  80   1.0000      -2.400456       -65.3197
  81   1.0000      -1.467367       -39.9291
  82   1.0000      -1.412561       -38.4377
  83   1.0000      -1.412488       -38.4358
  84   1.0000      -0.737059       -20.0564
  85   1.0000      -0.704677       -19.1752
  86   1.0000      -0.692641       -18.8477
  87   1.0000      -0.683679       -18.6039
  88   1.0000      -0.665471       -18.1084
  89   1.0000      -0.659080       -17.9345
  90   1.0000      -0.624099       -16.9826
  91   1.0000      -0.614372       -16.7179
  92   1.0000      -0.608046       -16.5458
  93   1.0000      -0.587860       -15.9965
  94   1.0000      -0.572892       -15.5892
  95   1.0000      -0.572443       -15.5770
  96   1.0000      -0.550111       -14.9693
  97   1.0000      -0.525988       -14.3129
  98   1.0000      -0.502476       -13.6731
  99   1.0000      -0.496308       -13.5052
 100   1.0000      -0.479479       -13.0473
 101   1.0000      -0.471766       -12.8374
 102   1.0000      -0.467617       -12.7245
 103   1.0000      -0.461953       -12.5704
 104   1.0000      -0.444517       -12.0959
 105   1.0000      -0.433550       -11.7975
 106   1.0000      -0.393006       -10.6942
 107   1.0000      -0.354830        -9.6554
 108   1.0000      -0.351872        -9.5749
 109   1.0000      -0.336134        -9.1467
 110   1.0000      -0.335165        -9.1203
 111   1.0000      -0.319557        -8.6956
 112   1.0000      -0.315174        -8.5763
 113   1.0000      -0.301125        -8.1940
 114   1.0000      -0.298548        -8.1239
 115   1.0000      -0.291758        -7.9391
 116   1.0000      -0.291073        -7.9205
 117   1.0000      -0.279964        -7.6182
 118   1.0000      -0.269769        -7.3408
 119   1.0000      -0.251034        -6.8310
 120   1.0000      -0.248110        -6.7514
 121   1.0000      -0.243171        -6.6170
 122   1.0000      -0.235902        -6.4192
 123   1.0000      -0.226835        -6.1725
 124   1.0000      -0.223832        -6.0908
 125   1.0000      -0.213826        -5.8185
 126   1.0000      -0.210250        -5.7212
 127   1.0000      -0.209641        -5.7046
 128   1.0000      -0.206636        -5.6228
 129   1.0000      -0.192821        -5.2469
 130   1.0000      -0.192216        -5.2305
 131   1.0000      -0.187070        -5.0904
 132   1.0000      -0.182814        -4.9746
 133   1.0000      -0.182302        -4.9607
 134   1.0000      -0.176667        -4.8074
 135   1.0000      -0.160713        -4.3732
 136   1.0000      -0.153173        -4.1681
 137   1.0000      -0.141785        -3.8582
 138   1.0000      -0.128547        -3.4979
 139   1.0000      -0.121553        -3.3076
 140   1.0000      -0.116992        -3.1835
 141   1.0000      -0.110250        -3.0001
 142   1.0000      -0.107874        -2.9354
 143   1.0000      -0.107163        -2.9160
 144   1.0000      -0.104994        -2.8570
 145   1.0000      -0.099369        -2.7040
 146   1.0000      -0.088478        -2.4076
 147   1.0000      -0.083886        -2.2826
 148   1.0000      -0.072942        -1.9849
 149   1.0000      -0.070601        -1.9211
 150   1.0000      -0.059702        -1.6246
 151   1.0000      -0.053182        -1.4472
 152   1.0000      -0.050443        -1.3726
 153   1.0000      -0.045898        -1.2489
 154   1.0000      -0.037391        -1.0175
 155   1.0000      -0.028651        -0.7796
 156   1.0000      -0.018689        -0.5086
 157   1.0000      -0.011542        -0.3141
 158   1.0000       0.010152         0.2763
 159   1.0000       0.038799         1.0558
 160   0.0000       0.097223         2.6456
 161   0.0000       0.131346         3.5741
 162   0.0000       0.139260         3.7895
 163   0.0000       0.146166         3.9774
 164   0.0000       0.153838         4.1861

MULLIKEN ATOMIC CHARGES AND SPIN POPULATIONS
--------------------------------------------
   0 V :    0.472739    1.212297
   1 S :   -0.272789   -0.021172
   2 S :   -0.312425   -0.026735
   3 S :   -0.270538   -0.022126
   4 S :   -0.308255   -0.027049
   5 O :   -0.465447   -0.147642
   6 C :   -0.010561    0.010985
   7 C :   -0.023778    0.009719
   8 C :   -0.112530    0.007034
   9 C :   -0.113009    0.006738
  10 S :    0.009187   -0.000608
  11 S :    0.010742   -0.000643
  12 S :    0.156233   -0.000222
  13 S :    0.155293   -0.000181
  14 C :   -0.780677    0.003516
  15 C :   -0.178356    0.000501
  16 C :    0.509088   -0.002961
  17 C :   -0.300922    0.000071
  18 S :   -0.002738   -0.000708
  19 S :   -0.004842   -0.000711
  20 S :    0.007087   -0.000030
  21 S :    0.006898   -0.000031
  22 C :   -0.291830   -0.000009
  23 C :   -0.291812   -0.000011
  24 C :   -0.153243    0.000008
  25 H :    0.137769    0.000002
  26 H :    0.101552   -0.000007
  27 H :    0.081059   -0.000001
  28 H :    0.077833   -0.000005
  29 H :    0.101253   -0.000007
  30 H :    0.137238    0.000002
  31 C :   -0.324862    0.000061
  32 C :   -0.328587    0.000059
  33 C :   -0.138552   -0.000020
  34 H :    0.138144   -0.000027
  35 H :    0.126780   -0.000035
  36 H :    0.117133    0.000000
  37 H :    0.071096    0.000005
  38 H :    0.127443   -0.000032
  39 H :    0.141185   -0.000026
Sum of atomic charges         :   -2.0000000

LOEWDIN ATOMIC CHARGES AND SPIN POPULATIONS
-------------------------------------------
   0 V :   -0.154786    1.165250
   1 S :    0.099239   -0.013465
   2 S :    0.049553   -0.017416
   3 S :    0.100815   -0.014292
   4 S :    0.053736   -0.017493
   5 O :   -0.317142   -0.132529
   6 C :   -0.508895    0.010117
   7 C :   -0.510925    0.009449
   8 C :   -0.566364    0.007704
   9 C :   -0.566319    0.007262
  10 S :    0.385181   -0.000747
  11 S :    0.386574   -0.000784
  12 S :    0.526128   -0.000759
  13 S :    0.525329   -0.000774
  14 C :   -0.435591   -0.000096
  15 C :   -0.503764   -0.000172
  16 C :   -0.448723    0.000041
  17 C :   -0.696245    0.000164
  18 S :    0.332557   -0.000634
  19 S :    0.333286   -0.000634
  20 S :    0.360262   -0.000037
  21 S :    0.359659   -0.000039
  22 C :   -0.285650   -0.000008
  23 C :   -0.285859   -0.000009
  24 C :   -0.182503   -0.000003
  25 H :    0.062906   -0.000001
  26 H :    0.050636   -0.000002
  27 H :    0.054177   -0.000002
  28 H :    0.054653   -0.000002
  29 H :    0.050499   -0.000003
  30 H :    0.062548   -0.000001
  31 C :   -0.312739    0.000005
  32 C :   -0.317142    0.000004
  33 C :   -0.167749    0.000001
  34 H :    0.069012   -0.000019
  35 H :    0.070968   -0.000031
  36 H :    0.070201    0.000001
  37 H :    0.065320    0.000001
  38 H :    0.069243   -0.000030
  39 H :    0.067914   -0.000018

  Mayer bond orders larger than 0.100000
B(  0-V ,  1-S ) :   0.7632 B(  0-V ,  2-S ) :   0.7754 B(  0-V ,  3-S ) :   0.7565
B(  0-V ,  4-S ) :   0.7822 B(  0-V ,  5-O ) :   2.1499 B(  1-S ,  8-C ) :   1.1304
B(  2-S ,  6-C ) :   1.0526 B(  3-S ,  9-C ) :   1.1340 B(  4-S ,  7-C ) :   1.0539
B(  6-C ,  7-C ) :   1.9565 B(  6-C , 10-S ) :   0.8725 B(  7-C , 11-S ) :   0.8772
B(  8-C ,  9-C ) :   1.5731 B(  8-C , 13-S ) :   0.9670 B(  9-C , 12-S ) :   0.9687
B( 10-S , 14-C ) :   1.1992 B( 10-S , 16-C ) :  -0.2428 B( 11-S , 14-C ) :   1.2028
B( 11-S , 16-C ) :  -0.2468 B( 12-S , 15-C ) :   1.2715 B( 13-S , 15-C ) :   1.2714
B( 14-C , 16-C ) :   1.7400 B( 14-C , 18-S ) :  -0.1079 B( 14-C , 19-S ) :  -0.1144
B( 15-C , 17-C ) :   1.2459 B( 16-C , 18-S ) :   0.9566 B( 16-C , 19-S ) :   0.9663
B( 17-C , 20-S ) :   1.1380 B( 17-C , 21-S ) :   1.1384 B( 18-S , 32-C ) :   1.0292
B( 19-S , 31-C ) :   1.0249 B( 20-S , 23-C ) :   0.9809 B( 21-S , 22-C ) :   0.9805
B( 22-C , 24-C ) :   0.9181 B( 22-C , 25-H ) :   0.9643 B( 22-C , 26-H ) :   0.9622
B( 23-C , 24-C ) :   0.9190 B( 23-C , 29-H ) :   0.9625 B( 23-C , 30-H ) :   0.9641
B( 24-C , 27-H ) :   0.9647 B( 24-C , 28-H ) :   0.9646 B( 31-C , 33-C ) :   0.9228
B( 31-C , 38-H ) :   0.9553 B( 31-C , 39-H ) :   0.9532 B( 32-C , 33-C ) :   0.9269
B( 32-C , 34-H ) :   0.9497 B( 32-C , 35-H ) :   0.9535 B( 33-C , 36-H ) :   0.9817
B( 33-C , 37-H ) :   0.9518

FINAL SINGLE POINT ENERGY     -6337.154572458873

DIPOLE MOMENT
-------------
                                X             Y             Z
Electronic contribution:      2.41242     -12.51155       2.44687
Nuclear contribution   :     -1.35320      14.29407      -1.54905
                        -----------------------------------------
Total Dipole Moment    :      1.05922       1.78251       0.89781
                        -----------------------------------------
Magnitude (a.u.)       :      2.25951
Magnitude (Debye)      :      5.74322

Rotational constants in cm-1:     0.010766     0.000804     0.000783
Rotational constants in MHz :   322.752208    24.116954    23.488629

                             ****ORCA TERMINATED NORMALLY****
TOTAL RUN TIME: 0 days 1 hours 9 minutes 25 seconds 930 msec
