                         Program Version 5.0.4 -  RELEASE  -
|  1> ! nofrozencore ReducedPop printbasis
|  2> ! B3LYP TZVP
|  3>
|  4> %basis
|  5> newgto V "CP(PPP)" end
|  6> end
|  7>
|  8> %pal
|  9> nprocs 6
| 10> end
| 11>
| 12> % sym SymThresh 1e-2 end
| 13> * xyz -2 2
| 14> V -0.053132194013525466 -0.9974018398776423 0.4878563304959799
| 15> S 1.4749019877452625 0.3699692864830206 2.065768137227244
| 16> S -1.6429107211232339 0.6522846467270531 1.6871825842416996
| 17> S 1.889961484107149 -1.20374115460825 -0.8999275790511698
| 18> S -1.5852291294255252 -0.8475306201814983 -1.3209518675427034
| 19> O -0.29891626591274045 -2.3252139712897755 1.3362413258845172
| 20> C -2.9836194028025136 0.26351633136633285 0.44266707448443
| 21> C -3.0671917890436746 -0.3587240618819161 -0.764014880205878
| 22> C 2.983430375796046 -0.050664899534144284 1.0274681057914448
| 23> C 3.2622002098816565 -0.6942684135485059 -0.1397546984037299
| 24> S -4.537578286853859 0.7559035029303721 0.830513570530304
| 25> S -4.637016798377159 -0.4986406413125375 -1.856736404519627
| 26> S 4.9941290011939214 -0.8958967493470368 -0.9660451476749002
| 27> S 4.458012287878132 0.4295418340661246 1.6413584578929428
| 28> C -5.547800342906371 0.31504211132835447 -0.5991751622953994
| 29> C 5.680125403121234 -0.02453789519951968 0.39228360144164104
| 30> C -6.883652132653775 0.5298531647274047 -0.8021872505247707
| 31> C 7.025011547394771 0.219660525968623 0.38085143139197675
| 32> S -7.936364536955646 1.280773039044289 0.38556424219325125
| 33> S -7.6683558558077065 0.0038835182007246347 -2.345611087216092
| 34> S 7.8658146533684095 1.0788197612676433 1.651150176167585
| 35> S 8.037652845351733 -0.31735681711234975 -1.018281812717136
| 36> C 8.585069569034657 1.3649081929070188 -1.5758469959143897
| 37> C 8.453690337824328 2.551444375205248 0.6984090176924176
| 38> C 9.318306811397097 2.180935196145936 -0.5059946286942029
| 39> H 7.700618476542514 1.9006039636382288 -1.9277444465106586
| 40> H 9.23966928576215 1.1885990487736477 -2.4331130932617913
| 41> H 9.676550008242788 3.1077761341028447 -0.9756271189011037
| 42> H 10.198614657104798 1.6273485509933665 -0.1645278526936832
| 43> H 9.028391641034066 3.1453883018637017 1.4138592376934793
| 44> H 7.5822370499196765 3.1343143225493644 0.3911180673713306
| 45> C -8.846635262305695 -1.2204463183085776 -1.604610427622694
| 46> C -9.07926921641355 -0.13433078062648876 0.7169277214458697
| 47> C -9.78409611261632 -0.6352416982999186 -0.5431144024542528
| 48> H -8.511892700138459 -0.9356869545764157 1.1962489609688807
| 49> H -9.809117079255689 0.24701807270305698 1.4359523543549282
| 50> H -10.363584406452063 0.1835813917424566 -0.9811283086750441
| 51> H -10.496018245158899 -1.4211356770968497 -0.25414018061300025
| 52> H -9.426110538478722 -1.6156389232838528 -2.4430225319592487
| 53> H -8.253485260250873 -2.036538822404102 -1.1859312572398588
| 54> *
| 55>
| 56> % eprnmr
| 57> gtensor true
| 58> Nuclei = all H {aiso,adip,aorb,fgrad,rho}
| 59> Nuclei = all V {aiso,adip,aorb,fgrad,rho}
| 60> end
| 61>
| 62>                          ****END OF INPUT****

CARTESIAN COORDINATES (ANGSTROEM)
---------------------------------
  V     -0.055167   -0.994590    0.486229
  S      1.472867    0.372781    2.064141
  S     -1.644946    0.655097    1.685555
  S      1.887927   -1.200929   -0.901555
  S     -1.587264   -0.844719   -1.322579
  O     -0.300951   -2.322402    1.334614
  C     -2.985654    0.266328    0.441040
  C     -3.069227   -0.355912   -0.765642
  C      2.981395   -0.047853    1.025841
  C      3.260165   -0.691456   -0.141382
  S     -4.539613    0.758716    0.828886
  S     -4.639052   -0.495829   -1.858364
  S      4.992094   -0.893085   -0.967673
  S      4.455977    0.432354    1.639731
  C     -5.549835    0.317854   -0.600803
  C      5.678090   -0.021726    0.390656
  C     -6.885687    0.532665   -0.803815
  C      7.022977    0.222473    0.379224
  S     -7.938400    1.283585    0.383937
  S     -7.670391    0.006696   -2.347239
  S      7.863780    1.081632    1.649523
  S      8.035618   -0.314545   -1.019909
  C      8.583035    1.367720   -1.577474
  C      8.451655    2.554256    0.696782
  C      9.316272    2.183747   -0.507622
  H      7.698584    1.903416   -1.929372
  H      9.237634    1.191411   -2.434741
  H      9.674515    3.110588   -0.977255
  H     10.196580    1.630161   -0.166155
  H      9.026357    3.148200    1.412232
  H      7.580202    3.137126    0.389491
  C     -8.848670   -1.217634   -1.606238
  C     -9.081304   -0.131519    0.715300
  C     -9.786131   -0.632430   -0.544742
  H     -8.513928   -0.932875    1.194621
  H     -9.811152    0.249830    1.434325
  H    -10.365619    0.186394   -0.982756
  H    -10.498053   -1.418324   -0.255768
  H     -9.428146   -1.612827   -2.444650
  H     -8.255520   -2.033727   -1.187559

 Total Charge           Charge          ....   -2
 Multiplicity           Mult            ....    2
 Number of Electrons    NEL             ....  321
 Basis Dimension        Dim             ....  681

ORBITAL ENERGIES
----------------
                 SPIN UP ORBITALS
  NO   OCC          E(Eh)            E(eV)
   0   1.0000    -196.677432     -5351.8650
   1   1.0000     -88.739943     -2414.7366
   2   1.0000     -88.739744     -2414.7312
   3   1.0000     -88.736324     -2414.6381
   4   1.0000     -88.735495     -2414.6156
   5   1.0000     -88.730023     -2414.4667
   6   1.0000     -88.729066     -2414.4406
   7   1.0000     -88.719054     -2414.1682
   8   1.0000     -88.717638     -2414.1297
   9   1.0000     -88.653685     -2412.3894
  10   1.0000     -88.652909     -2412.3683
  11   1.0000     -88.630663     -2411.7629
  12   1.0000     -88.628882     -2411.7145
  13   1.0000     -22.052048      -600.0667
  14   1.0000     -18.890831      -514.0456
  15   1.0000     -18.558532      -505.0033
  16   1.0000     -18.553481      -504.8659
  17   1.0000     -18.553170      -504.8574
  18   1.0000     -10.074582      -274.1433
  19   1.0000     -10.073658      -274.1182
  20   1.0000     -10.064757      -273.8760
  21   1.0000     -10.064219      -273.8613
  22   1.0000     -10.061518      -273.7878
  23   1.0000     -10.060488      -273.7598
  24   1.0000     -10.051080      -273.5038
  25   1.0000     -10.050549      -273.4893
  26   1.0000     -10.047427      -273.4044
  27   1.0000     -10.046197      -273.3709
  28   1.0000     -10.020907      -272.6828
  29   1.0000     -10.020833      -272.6807
  30   1.0000     -10.017776      -272.5975
  31   1.0000     -10.016392      -272.5599
  32   1.0000      -7.791386      -212.0144
  33   1.0000      -7.791335      -212.0130
  34   1.0000      -7.789366      -211.9594
  35   1.0000      -7.788576      -211.9379
  36   1.0000      -7.783855      -211.8095
  37   1.0000      -7.783022      -211.7868
  38   1.0000      -7.774284      -211.5490
  39   1.0000      -7.773051      -211.5155
  40   1.0000      -7.704619      -209.6534
  41   1.0000      -7.703946      -209.6350
  42   1.0000      -7.689072      -209.2303
  43   1.0000      -7.687507      -209.1877
  44   1.0000      -5.755986      -156.6283
  45   1.0000      -5.755934      -156.6269
  46   1.0000      -5.754273      -156.5817
  47   1.0000      -5.753471      -156.5599
  48   1.0000      -5.752903      -156.5445
  49   1.0000      -5.752769      -156.5408
  50   1.0000      -5.750982      -156.4922
  51   1.0000      -5.750179      -156.4703
  52   1.0000      -5.748880      -156.4350
  53   1.0000      -5.748055      -156.4125
  54   1.0000      -5.746908      -156.3813
  55   1.0000      -5.746907      -156.3813
  56   1.0000      -5.745341      -156.3387
  57   1.0000      -5.744455      -156.3146
  58   1.0000      -5.744287      -156.3100
  59   1.0000      -5.743513      -156.2889
  60   1.0000      -5.739450      -156.1784
  61   1.0000      -5.738624      -156.1559
  62   1.0000      -5.738202      -156.1444
  63   1.0000      -5.737811      -156.1338
  64   1.0000      -5.733878      -156.0268
  65   1.0000      -5.732608      -155.9922
  66   1.0000      -5.730308      -155.9296
  67   1.0000      -5.729088      -155.8964
  68   1.0000      -5.671320      -154.3245
  69   1.0000      -5.670587      -154.3045
  70   1.0000      -5.663218      -154.1040
  71   1.0000      -5.662537      -154.0855
  72   1.0000      -5.661151      -154.0477
  73   1.0000      -5.660538      -154.0311
  74   1.0000      -5.653272      -153.8333
  75   1.0000      -5.651659      -153.7894
  76   1.0000      -5.647594      -153.6788
  77   1.0000      -5.646939      -153.6610
  78   1.0000      -5.646022      -153.6361
  79   1.0000      -5.645402      -153.6192
  80   1.0000      -2.445763       -66.5526
  81   1.0000      -1.486757       -40.4567
  82   1.0000      -1.475667       -40.1549
  83   1.0000      -1.474499       -40.1231
  84   1.0000      -0.709772       -19.3139
  85   1.0000      -0.709665       -19.3110
  86   1.0000      -0.687734       -18.7142
  87   1.0000      -0.687424       -18.7057
  88   1.0000      -0.650206       -17.6930
  89   1.0000      -0.637520       -17.3478
  90   1.0000      -0.637012       -17.3340
  91   1.0000      -0.617319       -16.7981
  92   1.0000      -0.616441       -16.7742
  93   1.0000      -0.581914       -15.8347
  94   1.0000      -0.581658       -15.8277
  95   1.0000      -0.573653       -15.6099
  96   1.0000      -0.572890       -15.5891
  97   1.0000      -0.501647       -13.6505
  98   1.0000      -0.501056       -13.6344
  99   1.0000      -0.490972       -13.3600
 100   1.0000      -0.489815       -13.3285
 101   1.0000      -0.475665       -12.9435
 102   1.0000      -0.469575       -12.7778
 103   1.0000      -0.446384       -12.1467
 104   1.0000      -0.444191       -12.0870
 105   1.0000      -0.410459       -11.1692
 106   1.0000      -0.405592       -11.0367
 107   1.0000      -0.354617        -9.6496
 108   1.0000      -0.354025        -9.6335
 109   1.0000      -0.330202        -8.9852
 110   1.0000      -0.328313        -8.9339
 111   1.0000      -0.319450        -8.6927
 112   1.0000      -0.316705        -8.6180
 113   1.0000      -0.299005        -8.1363
 114   1.0000      -0.297358        -8.0915
 115   1.0000      -0.291903        -7.9431
 116   1.0000      -0.290703        -7.9104
 117   1.0000      -0.259592        -7.0639
 118   1.0000      -0.258038        -7.0216
 119   1.0000      -0.254028        -6.9125
 120   1.0000      -0.250849        -6.8259
 121   1.0000      -0.234317        -6.3761
 122   1.0000      -0.233685        -6.3589
 123   1.0000      -0.230969        -6.2850
 124   1.0000      -0.229335        -6.2405
 125   1.0000      -0.221412        -6.0249
 126   1.0000      -0.220227        -5.9927
 127   1.0000      -0.214246        -5.8299
 128   1.0000      -0.212672        -5.7871
 129   1.0000      -0.199074        -5.4171
 130   1.0000      -0.188324        -5.1246
 131   1.0000      -0.187998        -5.1157
 132   1.0000      -0.182082        -4.9547
 133   1.0000      -0.179207        -4.8765
 134   1.0000      -0.161431        -4.3928
 135   1.0000      -0.151601        -4.1253
 136   1.0000      -0.144020        -3.9190
 137   1.0000      -0.137965        -3.7542
 138   1.0000      -0.136202        -3.7062
 139   1.0000      -0.126351        -3.4382
 140   1.0000      -0.124275        -3.3817
 141   1.0000      -0.118152        -3.2151
 142   1.0000      -0.112329        -3.0566
 143   1.0000      -0.108345        -2.9482
 144   1.0000      -0.100514        -2.7351
 145   1.0000      -0.099637        -2.7113
 146   1.0000      -0.094724        -2.5776
 147   1.0000      -0.093012        -2.5310
 148   1.0000      -0.071316        -1.9406
 149   1.0000      -0.067223        -1.8292
 150   1.0000      -0.065934        -1.7942
 151   1.0000      -0.049369        -1.3434
 152   1.0000      -0.046579        -1.2675
 153   1.0000      -0.038494        -1.0475
 154   1.0000      -0.036688        -0.9983
 155   1.0000      -0.031565        -0.8589
 156   1.0000      -0.026538        -0.7221
 157   1.0000      -0.012944        -0.3522
 158   1.0000      -0.004966        -0.1351
 159   1.0000       0.026348         0.7170
 160   1.0000       0.044572         1.2129
 161   0.0000       0.135364         3.6834
 162   0.0000       0.136245         3.7074
 163   0.0000       0.146632         3.9901
 164   0.0000       0.150798         4.1034
 165   0.0000       0.160909         4.3786

                 SPIN DOWN ORBITALS
  NO   OCC          E(Eh)            E(eV)
   0   1.0000    -196.677547     -5351.8681
   1   1.0000     -88.739967     -2414.7373
   2   1.0000     -88.739767     -2414.7318
   3   1.0000     -88.736324     -2414.6381
   4   1.0000     -88.735495     -2414.6156
   5   1.0000     -88.730023     -2414.4667
   6   1.0000     -88.729066     -2414.4406
   7   1.0000     -88.719062     -2414.1684
   8   1.0000     -88.717645     -2414.1299
   9   1.0000     -88.653840     -2412.3936
  10   1.0000     -88.653059     -2412.3724
  11   1.0000     -88.630746     -2411.7652
  12   1.0000     -88.628965     -2411.7168
  13   1.0000     -22.037213      -599.6631
  14   1.0000     -18.894531      -514.1463
  15   1.0000     -18.553222      -504.8588
  16   1.0000     -18.537741      -504.4376
  17   1.0000     -18.537004      -504.4175
  18   1.0000     -10.074545      -274.1423
  19   1.0000     -10.073630      -274.1174
  20   1.0000     -10.064757      -273.8760
  21   1.0000     -10.064220      -273.8614
  22   1.0000     -10.061518      -273.7878
  23   1.0000     -10.060489      -273.7598
  24   1.0000     -10.051080      -273.5038
  25   1.0000     -10.050549      -273.4893
  26   1.0000     -10.047429      -273.4044
  27   1.0000     -10.046201      -273.3710
  28   1.0000     -10.020659      -272.6760
  29   1.0000     -10.020508      -272.6719
  30   1.0000     -10.017727      -272.5962
  31   1.0000     -10.016295      -272.5573
  32   1.0000      -7.791411      -212.0151
  33   1.0000      -7.791359      -212.0137
  34   1.0000      -7.789366      -211.9594
  35   1.0000      -7.788576      -211.9379
  36   1.0000      -7.783855      -211.8095
  37   1.0000      -7.783022      -211.7868
  38   1.0000      -7.774291      -211.5492
  39   1.0000      -7.773058      -211.5157
  40   1.0000      -7.704764      -209.6573
  41   1.0000      -7.704084      -209.6388
  42   1.0000      -7.689152      -209.2325
  43   1.0000      -7.687586      -209.1899
  44   1.0000      -5.756045      -156.6300
  45   1.0000      -5.755989      -156.6284
  46   1.0000      -5.754273      -156.5817
  47   1.0000      -5.753470      -156.5599
  48   1.0000      -5.752932      -156.5452
  49   1.0000      -5.752800      -156.5416
  50   1.0000      -5.750982      -156.4922
  51   1.0000      -5.750179      -156.4703
  52   1.0000      -5.748880      -156.4350
  53   1.0000      -5.748056      -156.4126
  54   1.0000      -5.746920      -156.3816
  55   1.0000      -5.746919      -156.3816
  56   1.0000      -5.745342      -156.3387
  57   1.0000      -5.744456      -156.3146
  58   1.0000      -5.744290      -156.3101
  59   1.0000      -5.743515      -156.2890
  60   1.0000      -5.739461      -156.1787
  61   1.0000      -5.738624      -156.1559
  62   1.0000      -5.738213      -156.1447
  63   1.0000      -5.737811      -156.1338
  64   1.0000      -5.733888      -156.0270
  65   1.0000      -5.732619      -155.9925
  66   1.0000      -5.730321      -155.9300
  67   1.0000      -5.729095      -155.8966
  68   1.0000      -5.671438      -154.3277
  69   1.0000      -5.670693      -154.3074
  70   1.0000      -5.663668      -154.1162
  71   1.0000      -5.662981      -154.0975
  72   1.0000      -5.661259      -154.0507
  73   1.0000      -5.660646      -154.0340
  74   1.0000      -5.653398      -153.8368
  75   1.0000      -5.651786      -153.7929
  76   1.0000      -5.647828      -153.6852
  77   1.0000      -5.646933      -153.6609
  78   1.0000      -5.646134      -153.6391
  79   1.0000      -5.645518      -153.6224
  80   1.0000      -2.401260       -65.3416
  81   1.0000      -1.467015       -39.9195
  82   1.0000      -1.414542       -38.4916
  83   1.0000      -1.413353       -38.4593
  84   1.0000      -0.709741       -19.3130
  85   1.0000      -0.709641       -19.3103
  86   1.0000      -0.687671       -18.7125
  87   1.0000      -0.687369       -18.7043
  88   1.0000      -0.658150       -17.9092
  89   1.0000      -0.637475       -17.3466
  90   1.0000      -0.636952       -17.3323
  91   1.0000      -0.617321       -16.7981
  92   1.0000      -0.616444       -16.7743
  93   1.0000      -0.581947       -15.8356
  94   1.0000      -0.581692       -15.8286
  95   1.0000      -0.573459       -15.6046
  96   1.0000      -0.572724       -15.5846
  97   1.0000      -0.501631       -13.6501
  98   1.0000      -0.501060       -13.6345
  99   1.0000      -0.491013       -13.3611
 100   1.0000      -0.489847       -13.3294
 101   1.0000      -0.476005       -12.9527
 102   1.0000      -0.469918       -12.7871
 103   1.0000      -0.446386       -12.1468
 104   1.0000      -0.444245       -12.0885
 105   1.0000      -0.410342       -11.1660
 106   1.0000      -0.405588       -11.0366
 107   1.0000      -0.354587        -9.6488
 108   1.0000      -0.354002        -9.6329
 109   1.0000      -0.330122        -8.9831
 110   1.0000      -0.328279        -8.9329
 111   1.0000      -0.319393        -8.6911
 112   1.0000      -0.316697        -8.6178
 113   1.0000      -0.298961        -8.1351
 114   1.0000      -0.297366        -8.0917
 115   1.0000      -0.291892        -7.9428
 116   1.0000      -0.290702        -7.9104
 117   1.0000      -0.259553        -7.0628
 118   1.0000      -0.258041        -7.0216
 119   1.0000      -0.253722        -6.9041
 120   1.0000      -0.250774        -6.8239
 121   1.0000      -0.234246        -6.3742
 122   1.0000      -0.233667        -6.3584
 123   1.0000      -0.230900        -6.2831
 124   1.0000      -0.229301        -6.2396
 125   1.0000      -0.221018        -6.0142
 126   1.0000      -0.220120        -5.9898
 127   1.0000      -0.214139        -5.8270
 128   1.0000      -0.212606        -5.7853
 129   1.0000      -0.197383        -5.3711
 130   1.0000      -0.188248        -5.1225
 131   1.0000      -0.187931        -5.1139
 132   1.0000      -0.181614        -4.9420
 133   1.0000      -0.178874        -4.8674
 134   1.0000      -0.161213        -4.3868
 135   1.0000      -0.151341        -4.1182
 136   1.0000      -0.143848        -3.9143
 137   1.0000      -0.137691        -3.7468
 138   1.0000      -0.135855        -3.6968
 139   1.0000      -0.125826        -3.4239
 140   1.0000      -0.123233        -3.3533
 141   1.0000      -0.117546        -3.1986
 142   1.0000      -0.113960        -3.1010
 143   1.0000      -0.110057        -2.9948
 144   1.0000      -0.100543        -2.7359
 145   1.0000      -0.099789        -2.7154
 146   1.0000      -0.094912        -2.5827
 147   1.0000      -0.093333        -2.5397
 148   1.0000      -0.069893        -1.9019
 149   1.0000      -0.067208        -1.8288
 150   1.0000      -0.065889        -1.7929
 151   1.0000      -0.045835        -1.2472
 152   1.0000      -0.039533        -1.0758
 153   1.0000      -0.035836        -0.9752
 154   1.0000      -0.031888        -0.8677
 155   1.0000      -0.030907        -0.8410
 156   1.0000      -0.027281        -0.7424
 157   1.0000      -0.013145        -0.3577
 158   1.0000       0.026645         0.7250
 159   1.0000       0.043588         1.1861
 160   0.0000       0.135510         3.6874
 161   0.0000       0.136421         3.7122
 162   0.0000       0.147149         4.0041
 163   0.0000       0.151768         4.1298
 164   0.0000       0.155741         4.2379

MULLIKEN ATOMIC CHARGES AND SPIN POPULATIONS
--------------------------------------------
   0 V :    0.462302    1.192838
   1 S :   -0.284852   -0.029446
   2 S :   -0.281600   -0.030024
   3 S :   -0.275618   -0.005698
   4 S :   -0.271633   -0.008322
   5 O :   -0.465490   -0.142878
   6 C :   -0.105728    0.004271
   7 C :   -0.077359    0.010809
   8 C :   -0.101299    0.006868
   9 C :   -0.091603    0.005572
  10 S :    0.120313   -0.001174
  11 S :    0.074594   -0.002305
  12 S :    0.070992   -0.002332
  13 S :    0.121709   -0.000843
  14 C :   -0.189048    0.002089
  15 C :   -0.184723    0.001627
  16 C :   -0.208007   -0.000340
  17 C :   -0.207430   -0.000443
  18 S :    0.020433   -0.000025
  19 S :   -0.000577   -0.000128
  20 S :    0.020720   -0.000100
  21 S :   -0.002911   -0.000014
  22 C :   -0.301048   -0.000022
  23 C :   -0.299900   -0.000003
  24 C :   -0.156238   -0.000021
  25 H :    0.144632   -0.000000
  26 H :    0.113590   -0.000004
  27 H :    0.083417   -0.000005
  28 H :    0.091336   -0.000000
  29 H :    0.112331   -0.000002
  30 H :    0.140567   -0.000001
  31 C :   -0.299829    0.000142
  32 C :   -0.297833    0.000044
  33 C :   -0.158610   -0.000117
  34 H :    0.139963    0.000002
  35 H :    0.112561   -0.000007
  36 H :    0.092069    0.000004
  37 H :    0.082822   -0.000008
  38 H :    0.113071    0.000025
  39 H :    0.143911   -0.000027
Sum of atomic charges         :   -2.0000000

LOEWDIN ATOMIC CHARGES AND SPIN POPULATIONS
-------------------------------------------
   0 V :   -0.144281    1.149601
   1 S :    0.024860   -0.021747
   2 S :    0.025697   -0.022095
   3 S :    0.150411   -0.000305
   4 S :    0.155602   -0.000068
   5 O :   -0.322169   -0.128718
   6 C :   -0.569558    0.001586
   7 C :   -0.550720    0.012814
   8 C :   -0.574689    0.004197
   9 C :   -0.550865    0.009447
  10 S :    0.507344   -0.000500
  11 S :    0.434425   -0.002597
  12 S :    0.430300   -0.002738
  13 S :    0.509936   -0.000192
  14 C :   -0.463566    0.001174
  15 C :   -0.463980    0.000853
  16 C :   -0.623563   -0.000129
  17 C :   -0.626651   -0.000216
  18 S :    0.372191   -0.000020
  19 S :    0.348390   -0.000128
  20 S :    0.374397   -0.000089
  21 S :    0.346373   -0.000059
  22 C :   -0.282137   -0.000040
  23 C :   -0.285148   -0.000012
  24 C :   -0.175941   -0.000007
  25 H :    0.063110   -0.000001
  26 H :    0.053097    0.000001
  27 H :    0.057943   -0.000007
  28 H :    0.059928   -0.000002
  29 H :    0.053435   -0.000002
  30 H :    0.061781   -0.000001
  31 C :   -0.282972    0.000016
  32 C :   -0.285226   -0.000008
  33 C :   -0.176526   -0.000010
  34 H :    0.061479    0.000002
  35 H :    0.053618   -0.000007
  36 H :    0.060171   -0.000003
  37 H :    0.057723   -0.000004
  38 H :    0.053006    0.000018
  39 H :    0.062775   -0.000009

  Mayer bond orders larger than 0.100000
B(  0-V ,  1-S ) :   0.6634 B(  0-V ,  2-S ) :   0.6687 B(  0-V ,  3-S ) :   0.8666
B(  0-V ,  4-S ) :   0.8849 B(  0-V ,  5-O ) :   2.1465 B(  1-S ,  8-C ) :   1.0744
B(  2-S ,  6-C ) :   1.0932 B(  3-S ,  9-C ) :   1.1565 B(  4-S ,  7-C ) :   1.1212
B(  6-C ,  7-C ) :   1.6368 B(  6-C , 10-S ) :   1.0015 B(  7-C , 11-S ) :   0.9036
B(  8-C ,  9-C ) :   1.6457 B(  8-C , 13-S ) :   1.0079 B(  9-C , 12-S ) :   0.8994
B( 10-S , 14-C ) :   1.2548 B( 11-S , 14-C ) :   1.2119 B( 12-S , 15-C ) :   1.2035
B( 13-S , 15-C ) :   1.2559 B( 14-C , 16-C ) :   1.4392 B( 15-C , 17-C ) :   1.4354
B( 16-C , 18-S ) :   1.1015 B( 16-C , 19-S ) :   1.0751 B( 17-C , 20-S ) :   1.1032
B( 17-C , 21-S ) :   1.0766 B( 18-S , 32-C ) :   0.9925 B( 19-S , 31-C ) :   0.9858
B( 20-S , 23-C ) :   0.9910 B( 21-S , 22-C ) :   0.9840 B( 22-C , 24-C ) :   0.9112
B( 22-C , 25-H ) :   0.9681 B( 22-C , 26-H ) :   0.9643 B( 23-C , 24-C ) :   0.9173
B( 23-C , 29-H ) :   0.9665 B( 23-C , 30-H ) :   0.9629 B( 24-C , 27-H ) :   0.9631
B( 24-C , 28-H ) :   0.9715 B( 31-C , 33-C ) :   0.9117 B( 31-C , 38-H ) :   0.9640
B( 31-C , 39-H ) :   0.9687 B( 32-C , 33-C ) :   0.9167 B( 32-C , 34-H ) :   0.9628
B( 32-C , 35-H ) :   0.9665 B( 33-C , 36-H ) :   0.9718 B( 33-C , 37-H ) :   0.9626

FINAL SINGLE POINT ENERGY     -6337.576476024027

DIPOLE MOMENT
-------------
                                X             Y             Z
Electronic contribution:      2.70967     -11.54019       6.55372
Nuclear contribution   :     -3.01404      12.57002      -7.80345
                        -----------------------------------------
Total Dipole Moment    :     -0.30438       1.02982      -1.24973
                        -----------------------------------------
Magnitude (a.u.)       :      1.64773
Magnitude (Debye)      :      4.18819

Rotational constants in cm-1:     0.010700     0.000804     0.000783
Rotational constants in MHz :   320.776342    24.114096    23.472669

                             ****ORCA TERMINATED NORMALLY****
TOTAL RUN TIME: 0 days 1 hours 6 minutes 26 seconds 208 msec
