                         Program Version 5.0.4 -  RELEASE  -
|  1> ! nofrozencore ReducedPop printbasis
|  2> ! B3LYP TZVP
|  3>
|  4> %basis
|  5> newgto V "CP(PPP)" end
|  6> end
|  7>
|  8> %pal
|  9> nprocs 8
| 10> end
| 11>
| 12> % sym SymThresh 1e-2 end
| 13> * xyz -2 2
| 14> V -0.2686895936743051 -0.4625393030958163 -1.0832148116499207
| 15> S 1.6439936728445592 1.4051295199938476 -1.609955375316321
| 16> S 1.8841630782144445 -1.7714231665380826 -0.034372049032035494
| 17> S -1.9733593478086842 1.5756244328890914 -0.6584493419793297
| 18> S -1.7262824692926668 -1.470438341908149 0.9628137568986148
| 19> O -0.6483551275676663 -1.1624265326480696 -2.452192553086625
| 20> C 0.747686195696429 -2.9352788219482675 0.7251263372275152
| 21> C -0.5541120709574853 -2.8251398051248033 1.0874585415925497
| 22> C 0.44113062386720087 2.723990913275976 -1.7153050967389
| 23> C -0.867240300255413 2.786958693821535 -1.370088240685052
| 24> S 1.6277639242239066 -4.342146392463485 1.4246369097484195
| 25> S -1.157744717966516 -4.092009544095613 2.2114004891520773
| 26> S -1.623974328224705 4.4222781618646225 -1.490350691132584
| 27> S 1.182127902728666 4.282927145705456 -2.2414343122587015
| 28> C 0.303447860890736 -5.0614404122446155 2.3298882196407797
| 29> C -0.20809386456043097 5.3270998736590105 -2.011859688287296
| 30> C 0.3841308444828697 -6.247222110055978 3.0050967008621545
| 31> C -0.19967844948996155 6.670315783731693 -2.2576558565279905
| 32> S 1.8810035420587319 -7.210000427835026 3.0544078410995223
| 33> S -0.9951230371439773 -6.907452808371491 3.917497740300451
| 34> S 1.2670846482890943 7.519543283177012 -2.8158301400286163
| 35> S -1.659173760303137 7.658387230751905 -2.0125544977338428
| 36> C -1.0004219841510642 8.74858305240591 -0.6707675314692152
| 37> C 1.4927571651641938 8.626992404224508 -1.3513788870903736
| 38> C 0.2740107758700083 9.506165156435873 -1.0568556681797454
| 39> H -0.8328631203406126 8.129398142702565 0.21351809547108944
| 40> H -1.802226482965694 9.45640108094143 -0.44487230506389075
| 41> H 0.5325108199181946 10.176700425108494 -0.22525472160126586
| 42> H 0.06723429462791175 10.135629599396967 -1.9282225637586499
| 43> H 2.3588306382692714 9.251817586729107 -1.584415204332565
| 44> H 1.7430704599660436 8.00309570238207 -0.4904966672765528
| 45> C -1.216435390050395 -8.493103599209272 2.9856986568733723
| 46> C 1.2478188355844575 -8.749296710777626 2.24022460508371
| 47> C 0.03415129943871391 -9.376091820272263 2.9334498635506274
| 48> H 1.0208069031667915 -8.511064784386623 1.1981685300119171
| 49> H 2.08845333875093 -9.448465578581564 2.254810703836234
| 50> H 0.3124490896705471 -9.66846319569938 3.9518553132537084
| 51> H -0.22613515952798502 -10.296661579325244 2.3907083226835995
| 52> H -2.023926511179737 -9.0193837527041 3.502015400851076
| 53> H -1.5604406516128329 -8.245504060378256 1.9785083333465687
| 54> *
| 55>
| 56> % eprnmr
| 57> gtensor true
| 58> Nuclei = all H {aiso,adip,aorb,fgrad,rho}
| 59> Nuclei = all V {aiso,adip,aorb,fgrad,rho}
| 60> end
| 61>
| 62>                          ****END OF INPUT****

CARTESIAN COORDINATES (ANGSTROEM)
---------------------------------
  V     -0.267783   -0.463425   -1.079597
  S      1.644901    1.404244   -1.606337
  S      1.885070   -1.772309   -0.030754
  S     -1.972452    1.574739   -0.654831
  S     -1.725376   -1.471324    0.966432
  O     -0.647448   -1.163312   -2.448574
  C      0.748593   -2.936164    0.728745
  C     -0.553205   -2.826025    1.091077
  C      0.442037    2.723105   -1.711687
  C     -0.866333    2.786073   -1.366470
  S      1.628671   -4.343032    1.428255
  S     -1.156838   -4.092895    2.215019
  S     -1.623067    4.421393   -1.486733
  S      1.183035    4.282042   -2.237816
  C      0.304355   -5.062326    2.333506
  C     -0.207187    5.326214   -2.008242
  C      0.385038   -6.248108    3.008715
  C     -0.198772    6.669430   -2.254038
  S      1.881910   -7.210886    3.058026
  S     -0.994216   -6.908338    3.921116
  S      1.267991    7.518658   -2.812212
  S     -1.658267    7.657502   -2.008936
  C     -0.999515    8.747698   -0.667149
  C      1.493664    8.626107   -1.347761
  C      0.274918    9.505280   -1.053238
  H     -0.831956    8.128513    0.217136
  H     -1.801320    9.455516   -0.441254
  H      0.533418   10.175815   -0.221637
  H      0.068141   10.134744   -1.924604
  H      2.359737    9.250932   -1.580797
  H      1.743977    8.002210   -0.486879
  C     -1.215529   -8.493989    2.989317
  C      1.248726   -8.750182    2.243843
  C      0.035058   -9.376977    2.937068
  H      1.021714   -8.511950    1.201787
  H      2.089360   -9.449351    2.258429
  H      0.313356   -9.669349    3.955473
  H     -0.225228  -10.297547    2.394326
  H     -2.023020   -9.020269    3.505634
  H     -1.559534   -8.246390    1.982126

 Total Charge           Charge          ....   -2
 Multiplicity           Mult            ....    2
 Number of Electrons    NEL             ....  321
 Basis Dimension        Dim             ....  681

ORBITAL ENERGIES
----------------
                 SPIN UP ORBITALS
  NO   OCC          E(Eh)            E(eV)
   0   1.0000    -196.713988     -5352.8597
   1   1.0000     -88.732637     -2414.5378
   2   1.0000     -88.731889     -2414.5175
   3   1.0000     -88.731813     -2414.5154
   4   1.0000     -88.731745     -2414.5135
   5   1.0000     -88.727916     -2414.4093
   6   1.0000     -88.727378     -2414.3947
   7   1.0000     -88.727307     -2414.3928
   8   1.0000     -88.727147     -2414.3884
   9   1.0000     -88.650089     -2412.2916
  10   1.0000     -88.649953     -2412.2879
  11   1.0000     -88.649137     -2412.2657
  12   1.0000     -88.649080     -2412.2641
  13   1.0000     -22.085803      -600.9853
  14   1.0000     -18.923277      -514.9285
  15   1.0000     -18.592611      -505.9307
  16   1.0000     -18.587084      -505.7803
  17   1.0000     -18.586990      -505.7777
  18   1.0000     -10.072488      -274.0863
  19   1.0000     -10.071762      -274.0666
  20   1.0000     -10.062842      -273.8238
  21   1.0000     -10.062794      -273.8226
  22   1.0000     -10.062527      -273.8153
  23   1.0000     -10.062199      -273.8064
  24   1.0000     -10.051423      -273.5131
  25   1.0000     -10.050421      -273.4859
  26   1.0000     -10.046822      -273.3879
  27   1.0000     -10.046535      -273.3801
  28   1.0000     -10.027465      -272.8612
  29   1.0000     -10.026582      -272.8372
  30   1.0000     -10.026130      -272.8249
  31   1.0000     -10.025389      -272.8047
  32   1.0000      -7.786047      -211.8691
  33   1.0000      -7.785430      -211.8523
  34   1.0000      -7.785275      -211.8481
  35   1.0000      -7.785189      -211.8458
  36   1.0000      -7.781398      -211.7426
  37   1.0000      -7.780972      -211.7310
  38   1.0000      -7.780959      -211.7307
  39   1.0000      -7.780792      -211.7261
  40   1.0000      -7.702374      -209.5922
  41   1.0000      -7.702350      -209.5916
  42   1.0000      -7.701445      -209.5670
  43   1.0000      -7.701329      -209.5638
  44   1.0000      -5.751019      -156.4932
  45   1.0000      -5.750395      -156.4762
  46   1.0000      -5.750269      -156.4728
  47   1.0000      -5.750183      -156.4704
  48   1.0000      -5.747642      -156.4013
  49   1.0000      -5.746999      -156.3838
  50   1.0000      -5.746826      -156.3791
  51   1.0000      -5.746751      -156.3770
  52   1.0000      -5.746423      -156.3681
  53   1.0000      -5.746000      -156.3566
  54   1.0000      -5.745970      -156.3558
  55   1.0000      -5.745832      -156.3520
  56   1.0000      -5.741813      -156.2427
  57   1.0000      -5.741362      -156.2304
  58   1.0000      -5.741314      -156.2291
  59   1.0000      -5.741137      -156.2243
  60   1.0000      -5.740854      -156.2166
  61   1.0000      -5.740241      -156.1999
  62   1.0000      -5.740078      -156.1955
  63   1.0000      -5.739991      -156.1931
  64   1.0000      -5.737170      -156.1163
  65   1.0000      -5.736761      -156.1052
  66   1.0000      -5.736753      -156.1050
  67   1.0000      -5.736581      -156.1003
  68   1.0000      -5.667853      -154.2301
  69   1.0000      -5.667771      -154.2279
  70   1.0000      -5.666875      -154.2035
  71   1.0000      -5.666827      -154.2022
  72   1.0000      -5.661637      -154.0610
  73   1.0000      -5.661635      -154.0609
  74   1.0000      -5.660749      -154.0368
  75   1.0000      -5.660611      -154.0331
  76   1.0000      -5.659243      -153.9958
  77   1.0000      -5.659230      -153.9955
  78   1.0000      -5.658315      -153.9706
  79   1.0000      -5.658162      -153.9664
  80   1.0000      -2.478283       -67.4375
  81   1.0000      -1.519842       -41.3570
  82   1.0000      -1.506790       -41.0018
  83   1.0000      -1.505766       -40.9740
  84   1.0000      -0.709325       -19.3017
  85   1.0000      -0.708633       -19.2829
  86   1.0000      -0.684844       -18.6355
  87   1.0000      -0.684657       -18.6305
  88   1.0000      -0.680087       -18.5061
  89   1.0000      -0.629893       -17.1403
  90   1.0000      -0.629154       -17.1202
  91   1.0000      -0.616946       -16.7880
  92   1.0000      -0.615946       -16.7607
  93   1.0000      -0.574580       -15.6351
  94   1.0000      -0.573941       -15.6177
  95   1.0000      -0.569317       -15.4919
  96   1.0000      -0.568763       -15.4768
  97   1.0000      -0.495992       -13.4966
  98   1.0000      -0.495353       -13.4792
  99   1.0000      -0.492149       -13.3921
 100   1.0000      -0.491003       -13.3609
 101   1.0000      -0.478434       -13.0189
 102   1.0000      -0.475956       -12.9514
 103   1.0000      -0.445343       -12.1184
 104   1.0000      -0.443222       -12.0607
 105   1.0000      -0.420459       -11.4413
 106   1.0000      -0.417737       -11.3672
 107   1.0000      -0.354046        -9.6341
 108   1.0000      -0.353577        -9.6213
 109   1.0000      -0.324822        -8.8389
 110   1.0000      -0.324343        -8.8258
 111   1.0000      -0.318099        -8.6559
 112   1.0000      -0.313977        -8.5438
 113   1.0000      -0.304180        -8.2771
 114   1.0000      -0.303098        -8.2477
 115   1.0000      -0.291798        -7.9402
 116   1.0000      -0.291518        -7.9326
 117   1.0000      -0.257701        -7.0124
 118   1.0000      -0.256732        -6.9860
 119   1.0000      -0.255846        -6.9619
 120   1.0000      -0.255384        -6.9494
 121   1.0000      -0.233123        -6.3436
 122   1.0000      -0.232753        -6.3335
 123   1.0000      -0.229926        -6.2566
 124   1.0000      -0.228541        -6.2189
 125   1.0000      -0.217830        -5.9275
 126   1.0000      -0.217329        -5.9138
 127   1.0000      -0.210954        -5.7403
 128   1.0000      -0.210220        -5.7204
 129   1.0000      -0.188540        -5.1304
 130   1.0000      -0.186105        -5.0642
 131   1.0000      -0.182511        -4.9664
 132   1.0000      -0.181516        -4.9393
 133   1.0000      -0.178429        -4.8553
 134   1.0000      -0.162942        -4.4339
 135   1.0000      -0.157005        -4.2723
 136   1.0000      -0.149497        -4.0680
 137   1.0000      -0.146414        -3.9841
 138   1.0000      -0.141478        -3.8498
 139   1.0000      -0.138442        -3.7672
 140   1.0000      -0.131767        -3.5856
 141   1.0000      -0.127914        -3.4807
 142   1.0000      -0.125231        -3.4077
 143   1.0000      -0.116444        -3.1686
 144   1.0000      -0.099800        -2.7157
 145   1.0000      -0.098790        -2.6882
 146   1.0000      -0.096193        -2.6175
 147   1.0000      -0.094983        -2.5846
 148   1.0000      -0.071000        -1.9320
 149   1.0000      -0.066951        -1.8218
 150   1.0000      -0.066065        -1.7977
 151   1.0000      -0.051362        -1.3976
 152   1.0000      -0.049333        -1.3424
 153   1.0000      -0.048924        -1.3313
 154   1.0000      -0.037135        -1.0105
 155   1.0000      -0.033793        -0.9195
 156   1.0000      -0.029289        -0.7970
 157   1.0000      -0.029023        -0.7898
 158   1.0000      -0.020524        -0.5585
 159   1.0000       0.018627         0.5069
 160   1.0000       0.032050         0.8721
 161   0.0000       0.129473         3.5231
 162   0.0000       0.138819         3.7775
 163   0.0000       0.139142         3.7863
 164   0.0000       0.142984         3.8908
 165   0.0000       0.143825         3.9137

                 SPIN DOWN ORBITALS
  NO   OCC          E(Eh)            E(eV)
   0   1.0000    -196.714146     -5352.8641
   1   1.0000     -88.732637     -2414.5378
   2   1.0000     -88.731890     -2414.5175
   3   1.0000     -88.731814     -2414.5154
   4   1.0000     -88.731746     -2414.5136
   5   1.0000     -88.727920     -2414.4095
   6   1.0000     -88.727380     -2414.3947
   7   1.0000     -88.727312     -2414.3929
   8   1.0000     -88.727149     -2414.3885
   9   1.0000     -88.650291     -2412.2971
  10   1.0000     -88.650169     -2412.2937
  11   1.0000     -88.649353     -2412.2715
  12   1.0000     -88.649283     -2412.2696
  13   1.0000     -22.069405      -600.5390
  14   1.0000     -18.927699      -515.0489
  15   1.0000     -18.586572      -505.7663
  16   1.0000     -18.570000      -505.3154
  17   1.0000     -18.569022      -505.2888
  18   1.0000     -10.072505      -274.0868
  19   1.0000     -10.071772      -274.0669
  20   1.0000     -10.062841      -273.8238
  21   1.0000     -10.062793      -273.8225
  22   1.0000     -10.062527      -273.8153
  23   1.0000     -10.062199      -273.8064
  24   1.0000     -10.051422      -273.5131
  25   1.0000     -10.050421      -273.4859
  26   1.0000     -10.046804      -273.3874
  27   1.0000     -10.046529      -273.3800
  28   1.0000     -10.027328      -272.8575
  29   1.0000     -10.026449      -272.8335
  30   1.0000     -10.026026      -272.8221
  31   1.0000     -10.025285      -272.8019
  32   1.0000      -7.786048      -211.8691
  33   1.0000      -7.785430      -211.8523
  34   1.0000      -7.785276      -211.8481
  35   1.0000      -7.785190      -211.8458
  36   1.0000      -7.781404      -211.7428
  37   1.0000      -7.780979      -211.7312
  38   1.0000      -7.780962      -211.7307
  39   1.0000      -7.780795      -211.7262
  40   1.0000      -7.702566      -209.5975
  41   1.0000      -7.702557      -209.5972
  42   1.0000      -7.701652      -209.5726
  43   1.0000      -7.701522      -209.5691
  44   1.0000      -5.751020      -156.4932
  45   1.0000      -5.750396      -156.4762
  46   1.0000      -5.750271      -156.4728
  47   1.0000      -5.750185      -156.4705
  48   1.0000      -5.747643      -156.4013
  49   1.0000      -5.747000      -156.3838
  50   1.0000      -5.746828      -156.3791
  51   1.0000      -5.746753      -156.3771
  52   1.0000      -5.746426      -156.3682
  53   1.0000      -5.745996      -156.3565
  54   1.0000      -5.745973      -156.3559
  55   1.0000      -5.745829      -156.3520
  56   1.0000      -5.741818      -156.2428
  57   1.0000      -5.741367      -156.2305
  58   1.0000      -5.741311      -156.2290
  59   1.0000      -5.741134      -156.2242
  60   1.0000      -5.740855      -156.2166
  61   1.0000      -5.740241      -156.1999
  62   1.0000      -5.740079      -156.1955
  63   1.0000      -5.739992      -156.1931
  64   1.0000      -5.737176      -156.1165
  65   1.0000      -5.736766      -156.1054
  66   1.0000      -5.736761      -156.1052
  67   1.0000      -5.736590      -156.1006
  68   1.0000      -5.667986      -154.2337
  69   1.0000      -5.667927      -154.2321
  70   1.0000      -5.667028      -154.2077
  71   1.0000      -5.666961      -154.2058
  72   1.0000      -5.662257      -154.0778
  73   1.0000      -5.662239      -154.0773
  74   1.0000      -5.661361      -154.0535
  75   1.0000      -5.661228      -154.0498
  76   1.0000      -5.659403      -154.0002
  77   1.0000      -5.659367      -153.9992
  78   1.0000      -5.658485      -153.9752
  79   1.0000      -5.658292      -153.9700
  80   1.0000      -2.429220       -66.1024
  81   1.0000      -1.497654       -40.7532
  82   1.0000      -1.439600       -39.1735
  83   1.0000      -1.438482       -39.1431
  84   1.0000      -0.709334       -19.3020
  85   1.0000      -0.708619       -19.2825
  86   1.0000      -0.689691       -18.7674
  87   1.0000      -0.684794       -18.6342
  88   1.0000      -0.684646       -18.6302
  89   1.0000      -0.629874       -17.1397
  90   1.0000      -0.629169       -17.1206
  91   1.0000      -0.616949       -16.7880
  92   1.0000      -0.615946       -16.7607
  93   1.0000      -0.574638       -15.6367
  94   1.0000      -0.574039       -15.6204
  95   1.0000      -0.569385       -15.4937
  96   1.0000      -0.568839       -15.4789
  97   1.0000      -0.496189       -13.5020
  98   1.0000      -0.495498       -13.4832
  99   1.0000      -0.492306       -13.3963
 100   1.0000      -0.491147       -13.3648
 101   1.0000      -0.478998       -13.0342
 102   1.0000      -0.476552       -12.9676
 103   1.0000      -0.445621       -12.1260
 104   1.0000      -0.443482       -12.0678
 105   1.0000      -0.420759       -11.4494
 106   1.0000      -0.418149       -11.3784
 107   1.0000      -0.354043        -9.6340
 108   1.0000      -0.353586        -9.6216
 109   1.0000      -0.324829        -8.8390
 110   1.0000      -0.324343        -8.8258
 111   1.0000      -0.318294        -8.6612
 112   1.0000      -0.314199        -8.5498
 113   1.0000      -0.304176        -8.2771
 114   1.0000      -0.303120        -8.2483
 115   1.0000      -0.291805        -7.9404
 116   1.0000      -0.291528        -7.9329
 117   1.0000      -0.257711        -7.0127
 118   1.0000      -0.256711        -6.9855
 119   1.0000      -0.255874        -6.9627
 120   1.0000      -0.255400        -6.9498
 121   1.0000      -0.233106        -6.3431
 122   1.0000      -0.232753        -6.3335
 123   1.0000      -0.229929        -6.2567
 124   1.0000      -0.228546        -6.2191
 125   1.0000      -0.217662        -5.9229
 126   1.0000      -0.217322        -5.9136
 127   1.0000      -0.210720        -5.7340
 128   1.0000      -0.210200        -5.7198
 129   1.0000      -0.188198        -5.1211
 130   1.0000      -0.186078        -5.0634
 131   1.0000      -0.182352        -4.9621
 132   1.0000      -0.180941        -4.9237
 133   1.0000      -0.178450        -4.8559
 134   1.0000      -0.162901        -4.4328
 135   1.0000      -0.156222        -4.2510
 136   1.0000      -0.149518        -4.0686
 137   1.0000      -0.146469        -3.9856
 138   1.0000      -0.143743        -3.9114
 139   1.0000      -0.141876        -3.8606
 140   1.0000      -0.131895        -3.5890
 141   1.0000      -0.128622        -3.5000
 142   1.0000      -0.125253        -3.4083
 143   1.0000      -0.116503        -3.1702
 144   1.0000      -0.099839        -2.7168
 145   1.0000      -0.098905        -2.6913
 146   1.0000      -0.096193        -2.6175
 147   1.0000      -0.095045        -2.5863
 148   1.0000      -0.069611        -1.8942
 149   1.0000      -0.066962        -1.8221
 150   1.0000      -0.066037        -1.7970
 151   1.0000      -0.050012        -1.3609
 152   1.0000      -0.046577        -1.2674
 153   1.0000      -0.037339        -1.0160
 154   1.0000      -0.033879        -0.9219
 155   1.0000      -0.029960        -0.8153
 156   1.0000      -0.029493        -0.8026
 157   1.0000      -0.021010        -0.5717
 158   1.0000       0.018332         0.4988
 159   1.0000       0.031231         0.8498
 160   0.0000       0.138590         3.7712
 161   0.0000       0.139149         3.7864
 162   0.0000       0.146312         3.9813
 163   0.0000       0.146824         3.9953
 164   0.0000       0.161367         4.3910

MULLIKEN ATOMIC CHARGES AND SPIN POPULATIONS
--------------------------------------------
   0 V :    0.686759    1.294440
   1 S :   -0.334326   -0.037594
   2 S :   -0.333024   -0.037237
   3 S :   -0.327216   -0.037639
   4 S :   -0.328844   -0.037312
   5 O :   -0.454825   -0.167885
   6 C :   -0.093201    0.007214
   7 C :   -0.094660    0.006139
   8 C :   -0.093918    0.004468
   9 C :   -0.088454    0.005042
  10 S :    0.102637   -0.000035
  11 S :    0.103312   -0.000057
  12 S :    0.100173   -0.000023
  13 S :    0.102217   -0.000100
  14 C :   -0.210298    0.001504
  15 C :   -0.228544    0.000218
  16 C :   -0.210675   -0.000502
  17 C :   -0.186468   -0.000422
  18 S :    0.008514   -0.000162
  19 S :    0.008676   -0.000158
  20 S :    0.007907   -0.000066
  21 S :    0.007954   -0.000064
  22 C :   -0.296950   -0.000012
  23 C :   -0.295191   -0.000012
  24 C :   -0.161206    0.000008
  25 H :    0.142096   -0.000001
  26 H :    0.112189   -0.000004
  27 H :    0.082961    0.000000
  28 H :    0.090796    0.000000
  29 H :    0.112591   -0.000004
  30 H :    0.142343   -0.000001
  31 C :   -0.295568    0.000253
  32 C :   -0.295988    0.000251
  33 C :   -0.156983   -0.000326
  34 H :    0.140183   -0.000017
  35 H :    0.111685    0.000020
  36 H :    0.088799    0.000044
  37 H :    0.082681    0.000022
  38 H :    0.111655    0.000021
  39 H :    0.140213   -0.000016
Sum of atomic charges         :   -2.0000000

LOEWDIN ATOMIC CHARGES AND SPIN POPULATIONS
-------------------------------------------
   0 V :    0.154092    1.254807
   1 S :   -0.004579   -0.030248
   2 S :   -0.013125   -0.029355
   3 S :    0.005509   -0.029982
   4 S :   -0.006854   -0.029192
   5 O :   -0.286070   -0.153066
   6 C :   -0.540217    0.005570
   7 C :   -0.542504    0.005226
   8 C :   -0.541851    0.003926
   9 C :   -0.542217    0.004272
  10 S :    0.470205   -0.000262
  11 S :    0.471028   -0.000319
  12 S :    0.465910   -0.000527
  13 S :    0.468807   -0.000585
  14 C :   -0.477805   -0.000380
  15 C :   -0.477071   -0.000673
  16 C :   -0.624660    0.000806
  17 C :   -0.623665    0.000166
  18 S :    0.357383   -0.000103
  19 S :    0.358523   -0.000096
  20 S :    0.358558   -0.000071
  21 S :    0.359730   -0.000070
  22 C :   -0.283700    0.000002
  23 C :   -0.283424    0.000002
  24 C :   -0.175869   -0.000001
  25 H :    0.062055   -0.000002
  26 H :    0.053253   -0.000003
  27 H :    0.058034    0.000001
  28 H :    0.060015    0.000001
  29 H :    0.053374   -0.000003
  30 H :    0.062183   -0.000002
  31 C :   -0.284399    0.000056
  32 C :   -0.284193    0.000053
  33 C :   -0.174593    0.000017
  34 H :    0.061341    0.000001
  35 H :    0.053629    0.000010
  36 H :    0.059925    0.000009
  37 H :    0.058275    0.000003
  38 H :    0.053656    0.000011
  39 H :    0.061313    0.000001

  Mayer bond orders larger than 0.100000
B(  0-V ,  1-S ) :   0.6743 B(  0-V ,  2-S ) :   0.6668 B(  0-V ,  3-S ) :   0.6905
B(  0-V ,  4-S ) :   0.6830 B(  0-V ,  5-O ) :   2.1882 B(  1-S ,  8-C ) :   1.1524
B(  2-S ,  6-C ) :   1.1615 B(  3-S ,  9-C ) :   1.1406 B(  4-S ,  7-C ) :   1.1519
B(  6-C ,  7-C ) :   1.6425 B(  6-C , 10-S ) :   0.9533 B(  7-C , 11-S ) :   0.9573
B(  8-C ,  9-C ) :   1.6826 B(  8-C , 13-S ) :   0.9375 B(  9-C , 12-S ) :   0.9353
B( 10-S , 14-C ) :   1.2442 B( 11-S , 14-C ) :   1.2431 B( 12-S , 15-C ) :   1.2487
B( 13-S , 15-C ) :   1.2510 B( 14-C , 16-C ) :   1.4581 B( 15-C , 17-C ) :   1.4541
B( 16-C , 18-S ) :   1.0942 B( 16-C , 19-S ) :   1.0937 B( 17-C , 20-S ) :   1.0844
B( 17-C , 21-S ) :   1.0837 B( 18-S , 32-C ) :   0.9928 B( 19-S , 31-C ) :   0.9928
B( 20-S , 23-C ) :   0.9931 B( 21-S , 22-C ) :   0.9936 B( 22-C , 24-C ) :   0.9156
B( 22-C , 25-H ) :   0.9657 B( 22-C , 26-H ) :   0.9651 B( 23-C , 24-C ) :   0.9157
B( 23-C , 29-H ) :   0.9653 B( 23-C , 30-H ) :   0.9657 B( 24-C , 27-H ) :   0.9623
B( 24-C , 28-H ) :   0.9718 B( 31-C , 33-C ) :   0.9154 B( 31-C , 38-H ) :   0.9661
B( 31-C , 39-H ) :   0.9651 B( 32-C , 33-C ) :   0.9152 B( 32-C , 34-H ) :   0.9648
B( 32-C , 35-H ) :   0.9661 B( 33-C , 36-H ) :   0.9720 B( 33-C , 37-H ) :   0.9643

FINAL SINGLE POINT ENERGY     -6337.667335523250

DIPOLE MOMENT
-------------
                                X             Y             Z
Electronic contribution:     -2.62842      -1.91134     -13.85915
Nuclear contribution   :      2.80232       2.05057      15.12196
                        -----------------------------------------
Total Dipole Moment    :      0.17389       0.13922       1.26281
                        -----------------------------------------
Magnitude (a.u.)       :      1.28230
Magnitude (Debye)      :      3.25936

Rotational constants in cm-1:     0.010131     0.000803     0.000780
Rotational constants in MHz :   303.723817    24.081828    23.381684

                             ****ORCA TERMINATED NORMALLY****
TOTAL RUN TIME: 0 days 1 hours 2 minutes 1 seconds 456 msec
