                         Program Version 5.0.4 -  RELEASE  -
|  1> ! nofrozencore ReducedPop printbasis
|  2> ! B3LYP TZVP
|  3>
|  4> %basis
|  5> newgto V "CP(PPP)" end
|  6> end
|  7>
|  8> %pal
|  9> nprocs 6
| 10> end
| 11>
| 12> % sym SymThresh 1e-2 end
| 13> * xyz -2 2
| 14> V -0.5413794850466217 -0.7121389878057995 -0.6623638784562353
| 15> S -0.19154181103628679 -2.1068546032837197 1.3504378979616727
| 16> S -2.2297689496044444 0.48958228458106123 0.6912290815853179
| 17> S 1.8551926562851326 -1.1113981126321886 -1.1399390314619127
| 18> S -0.10913248348576156 1.4741651298309335 -1.719829137010063
| 19> O -1.3750155435245628 -1.5820258139348848 -1.6980465469987909
| 20> C -2.4440728043073405 1.9137968267659957 -0.3181923476321513
| 21> C -1.5918486382849062 2.309802694377966 -1.282218710007298
| 22> C 1.4281100208427855 -2.7260182421475476 1.0587552469131931
| 23> C 2.244948263027626 -2.3262223236992523 0.0669302433694915
| 24> S -3.856681299029287 2.9822281540905973 -0.016520787486371407
| 25> S -1.9808897106213461 3.85222599211395 -2.113099482704299
| 26> S 3.875980973192782 -3.076719856897977 0.020846631651925084
| 27> S 2.0873571726891496 -3.957858508714555 2.1882335379819433
| 28> C -3.455373577811768 4.221971685910831 -1.211520488313989
| 29> C 3.6980457279471133 -4.074131918668116 1.4688416856672362
| 30> C -4.209450898188879 5.342704089444125 -1.426081248676549
| 31> C 4.697308314658238 -4.859940159708417 1.9727647021484636
| 32> S -5.721335835508821 5.649722535205863 -0.5341089994220534
| 33> S -3.752548460184231 6.5624932992850695 -2.6421436269623073
| 34> S 4.471087916045097 -5.84706362838032 3.4389363562127016
| 35> S 6.312347924125742 -4.925582624886168 1.2212964373258963
| 36> C 7.292792503447685 -4.234164286436425 2.631708000153434
| 37> C 5.73006407713421 -5.0228379470576385 4.517962784925403
| 38> C 7.143628895738962 -5.028701927180241 3.9312326011901235
| 39> H 6.99129233564135 -3.19487109876931 2.774974789237572
| 40> H 8.329267363937175 -4.245152114977595 2.2977161856500796
| 41> H 7.823445267161797 -4.597896796135169 4.674981050048829
| 42> H 7.463453275671216 -6.070899381907059 3.7597067106374276
| 43> H 5.708612027133487 -5.571516943097181 5.458301153127406
| 44> H 5.394323429344105 -4.002260462377746 4.710375830613428
| 45> C -5.222482550350431 6.39430021723262 -3.742825596842328
| 46> C -6.873360153551821 5.621473481720329 -1.974626881344986
| 47> C -6.5468121531975765 6.6791629622581805 -3.031309694956626
| 48> H -6.896091244359193 4.533632338922087 -2.404741841515081
| 49> H -8.095759792949003 5.875028395462352 -1.4490165376559405
| 50> H -6.561977405846612 7.191991667423862 -2.820904837659598
| 51> H -7.482546472639058 6.6057956597090195 -3.937302371170429
| 52> H -5.032312584010987 7.311414420913854 -4.721460736792653
| 53> H -5.186516388903503 5.336648874488705 -4.242293831372578
| 54> *
| 55>
| 56> % eprnmr
| 57> gtensor true
| 58> Nuclei = all H {aiso,adip,aorb,fgrad,rho}
| 59> Nuclei = all V {aiso,adip,aorb,fgrad,rho}
| 60> end
| 61>
| 62>                          ****END OF INPUT****

CARTESIAN COORDINATES (ANGSTROEM)
---------------------------------
  V     -0.541355   -0.708588   -0.660919
  S     -0.191518   -2.103303    1.351882
  S     -2.229745    0.493134    0.692674
  S      1.855217   -1.107847   -1.138494
  S     -0.109108    1.477716   -1.718385
  O     -1.374991   -1.578475   -1.696602
  C     -2.444048    1.917348   -0.316748
  C     -1.591824    2.313354   -1.280774
  C      1.428134   -2.722467    1.060200
  C      2.244973   -2.322671    0.068375
  S     -3.856657    2.985779   -0.015076
  S     -1.980865    3.855777   -2.111655
  S      3.876005   -3.073169    0.022291
  S      2.087381   -3.954307    2.189678
  C     -3.455349    4.225523   -1.210076
  C      3.698070   -4.070581    1.470286
  C     -4.209427    5.346255   -1.424637
  C      4.697333   -4.856389    1.974209
  S     -5.721312    5.653274   -0.532664
  S     -3.752524    6.566045   -2.640699
  S      4.471112   -5.843512    3.440381
  S      6.312372   -4.922031    1.222741
  C      7.292817   -4.230613    2.633153
  C      5.730088   -5.019287    4.519407
  C      7.143653   -5.025151    3.932677
  H      6.991317   -3.191320    2.776419
  H      8.329292   -4.241601    2.299161
  H      7.823470   -4.594346    4.676426
  H      7.463478   -6.067348    3.761151
  H      5.708636   -5.567966    5.459746
  H      5.394348   -3.998709    4.711820
  C     -5.222458    6.397851   -3.741381
  C     -6.873336    5.625025   -1.973182
  C     -6.546788    6.682714   -3.029865
  H     -6.896067    4.537184   -2.403297
  H     -8.095735    5.878580   -1.447572
  H     -6.561953    7.195543   -2.819460
  H     -7.482522    6.609347   -3.935858
  H     -5.032288    7.314966   -4.720016
  H     -5.186492    5.340200   -4.240849

 Total Charge           Charge          ....   -2
 Multiplicity           Mult            ....    2
 Number of Electrons    NEL             ....  321
 Basis Dimension        Dim             ....  681

ORBITAL ENERGIES
----------------
                 SPIN UP ORBITALS
  NO   OCC          E(Eh)            E(eV)
   0   1.0000    -196.676245     -5351.8327
   1   1.0000     -88.738290     -2414.6916
   2   1.0000     -88.738257     -2414.6907
   3   1.0000     -88.733712     -2414.5671
   4   1.0000     -88.733654     -2414.5655
   5   1.0000     -88.733625     -2414.5647
   6   1.0000     -88.733418     -2414.5590
   7   1.0000     -88.730790     -2414.4876
   8   1.0000     -88.730729     -2414.4859
   9   1.0000     -88.641669     -2412.0624
  10   1.0000     -88.641449     -2412.0565
  11   1.0000     -88.640870     -2412.0407
  12   1.0000     -88.640352     -2412.0266
  13   1.0000     -22.051631      -600.0554
  14   1.0000     -18.891527      -514.0646
  15   1.0000     -18.558077      -504.9909
  16   1.0000     -18.552909      -504.8503
  17   1.0000     -18.552807      -504.8476
  18   1.0000     -10.096705      -274.7453
  19   1.0000     -10.096688      -274.7449
  20   1.0000     -10.079451      -274.2758
  21   1.0000     -10.076497      -274.1954
  22   1.0000     -10.067445      -273.9491
  23   1.0000     -10.063318      -273.8368
  24   1.0000     -10.063291      -273.8361
  25   1.0000     -10.052115      -273.5320
  26   1.0000     -10.051814      -273.5238
  27   1.0000     -10.049017      -273.4476
  28   1.0000     -10.020886      -272.6822
  29   1.0000     -10.019958      -272.6569
  30   1.0000     -10.018765      -272.6244
  31   1.0000     -10.017970      -272.6028
  32   1.0000      -7.791586      -212.0198
  33   1.0000      -7.791555      -212.0190
  34   1.0000      -7.787171      -211.8997
  35   1.0000      -7.787077      -211.8971
  36   1.0000      -7.786849      -211.8909
  37   1.0000      -7.786689      -211.8866
  38   1.0000      -7.784054      -211.8149
  39   1.0000      -7.784019      -211.8139
  40   1.0000      -7.695963      -209.4178
  41   1.0000      -7.695674      -209.4099
  42   1.0000      -7.695139      -209.3954
  43   1.0000      -7.694707      -209.3836
  44   1.0000      -5.756661      -156.6467
  45   1.0000      -5.756628      -156.6458
  46   1.0000      -5.753110      -156.5501
  47   1.0000      -5.753091      -156.5496
  48   1.0000      -5.752159      -156.5242
  49   1.0000      -5.752061      -156.5215
  50   1.0000      -5.751790      -156.5142
  51   1.0000      -5.751622      -156.5096
  52   1.0000      -5.748991      -156.4380
  53   1.0000      -5.748973      -156.4375
  54   1.0000      -5.748738      -156.4311
  55   1.0000      -5.748652      -156.4288
  56   1.0000      -5.747338      -156.3930
  57   1.0000      -5.747172      -156.3885
  58   1.0000      -5.746343      -156.3659
  59   1.0000      -5.746300      -156.3648
  60   1.0000      -5.744586      -156.3181
  61   1.0000      -5.744535      -156.3167
  62   1.0000      -5.742717      -156.2673
  63   1.0000      -5.742548      -156.2627
  64   1.0000      -5.741969      -156.2469
  65   1.0000      -5.741879      -156.2445
  66   1.0000      -5.739866      -156.1897
  67   1.0000      -5.739829      -156.1887
  68   1.0000      -5.661294      -154.0517
  69   1.0000      -5.661026      -154.0444
  70   1.0000      -5.660454      -154.0288
  71   1.0000      -5.659989      -154.0161
  72   1.0000      -5.654600      -153.8695
  73   1.0000      -5.654332      -153.8622
  74   1.0000      -5.653812      -153.8481
  75   1.0000      -5.653381      -153.8363
  76   1.0000      -5.653284      -153.8337
  77   1.0000      -5.652965      -153.8250
  78   1.0000      -5.652462      -153.8113
  79   1.0000      -5.652024      -153.7994
  80   1.0000      -2.445280       -66.5394
  81   1.0000      -1.486576       -40.4518
  82   1.0000      -1.474924       -40.1347
  83   1.0000      -1.474110       -40.1126
  84   1.0000      -0.721176       -19.6242
  85   1.0000      -0.710107       -19.3230
  86   1.0000      -0.698456       -19.0060
  87   1.0000      -0.686097       -18.6696
  88   1.0000      -0.651150       -17.7187
  89   1.0000      -0.647549       -17.6207
  90   1.0000      -0.631841       -17.1933
  91   1.0000      -0.617891       -16.8137
  92   1.0000      -0.611381       -16.6365
  93   1.0000      -0.584603       -15.9078
  94   1.0000      -0.576752       -15.6942
  95   1.0000      -0.575246       -15.6532
  96   1.0000      -0.573665       -15.6102
  97   1.0000      -0.517786       -14.0897
  98   1.0000      -0.496787       -13.5183
  99   1.0000      -0.496632       -13.5140
 100   1.0000      -0.488215       -13.2850
 101   1.0000      -0.479373       -13.0444
 102   1.0000      -0.471139       -12.8203
 103   1.0000      -0.468516       -12.7490
 104   1.0000      -0.446701       -12.1554
 105   1.0000      -0.420449       -11.4410
 106   1.0000      -0.413320       -11.2470
 107   1.0000      -0.360365        -9.8060
 108   1.0000      -0.355606        -9.6765
 109   1.0000      -0.327365        -8.9080
 110   1.0000      -0.320649        -8.7253
 111   1.0000      -0.315763        -8.5923
 112   1.0000      -0.310200        -8.4410
 113   1.0000      -0.304532        -8.2867
 114   1.0000      -0.298366        -8.1189
 115   1.0000      -0.292903        -7.9703
 116   1.0000      -0.285266        -7.7625
 117   1.0000      -0.263550        -7.1716
 118   1.0000      -0.258196        -7.0259
 119   1.0000      -0.257518        -7.0074
 120   1.0000      -0.255491        -6.9523
 121   1.0000      -0.242564        -6.6005
 122   1.0000      -0.234476        -6.3804
 123   1.0000      -0.231357        -6.2956
 124   1.0000      -0.221979        -6.0404
 125   1.0000      -0.220009        -5.9868
 126   1.0000      -0.216335        -5.8868
 127   1.0000      -0.212563        -5.7841
 128   1.0000      -0.212170        -5.7734
 129   1.0000      -0.194459        -5.2915
 130   1.0000      -0.187922        -5.1136
 131   1.0000      -0.186673        -5.0796
 132   1.0000      -0.185923        -5.0592
 133   1.0000      -0.180269        -4.9054
 134   1.0000      -0.161010        -4.3813
 135   1.0000      -0.151820        -4.1312
 136   1.0000      -0.147223        -4.0061
 137   1.0000      -0.137642        -3.7454
 138   1.0000      -0.135266        -3.6808
 139   1.0000      -0.134677        -3.6648
 140   1.0000      -0.126494        -3.4421
 141   1.0000      -0.122592        -3.3359
 142   1.0000      -0.114828        -3.1246
 143   1.0000      -0.111169        -3.0251
 144   1.0000      -0.101921        -2.7734
 145   1.0000      -0.099364        -2.7038
 146   1.0000      -0.099239        -2.7004
 147   1.0000      -0.096297        -2.6204
 148   1.0000      -0.075922        -2.0659
 149   1.0000      -0.071222        -1.9380
 150   1.0000      -0.067843        -1.8461
 151   1.0000      -0.053807        -1.4642
 152   1.0000      -0.046992        -1.2787
 153   1.0000      -0.039413        -1.0725
 154   1.0000      -0.038397        -1.0448
 155   1.0000      -0.032952        -0.8967
 156   1.0000      -0.026304        -0.7158
 157   1.0000      -0.020468        -0.5570
 158   1.0000      -0.016922        -0.4605
 159   1.0000       0.018802         0.5116
 160   1.0000       0.039788         1.0827
 161   0.0000       0.122517         3.3338
 162   0.0000       0.136789         3.7222
 163   0.0000       0.138356         3.7649
 164   0.0000       0.161441         4.3930
 165   0.0000       0.162040         4.4093

                 SPIN DOWN ORBITALS
  NO   OCC          E(Eh)            E(eV)
   0   1.0000    -196.676392     -5351.8367
   1   1.0000     -88.738291     -2414.6916
   2   1.0000     -88.738258     -2414.6907
   3   1.0000     -88.733713     -2414.5671
   4   1.0000     -88.733663     -2414.5657
   5   1.0000     -88.733626     -2414.5647
   6   1.0000     -88.733426     -2414.5593
   7   1.0000     -88.730798     -2414.4878
   8   1.0000     -88.730737     -2414.4861
   9   1.0000     -88.641808     -2412.0662
  10   1.0000     -88.641590     -2412.0603
  11   1.0000     -88.641007     -2412.0444
  12   1.0000     -88.640492     -2412.0304
  13   1.0000     -22.036699      -599.6491
  14   1.0000     -18.895321      -514.1678
  15   1.0000     -18.552806      -504.8475
  16   1.0000     -18.536875      -504.4140
  17   1.0000     -18.536691      -504.4090
  18   1.0000     -10.096704      -274.7453
  19   1.0000     -10.096687      -274.7448
  20   1.0000     -10.079445      -274.2756
  21   1.0000     -10.076496      -274.1954
  22   1.0000     -10.067445      -273.9491
  23   1.0000     -10.063318      -273.8368
  24   1.0000     -10.063291      -273.8361
  25   1.0000     -10.052115      -273.5320
  26   1.0000     -10.051803      -273.5235
  27   1.0000     -10.049012      -273.4475
  28   1.0000     -10.020648      -272.6757
  29   1.0000     -10.019735      -272.6508
  30   1.0000     -10.018551      -272.6186
  31   1.0000     -10.017758      -272.5970
  32   1.0000      -7.791587      -212.0199
  33   1.0000      -7.791556      -212.0190
  34   1.0000      -7.787171      -211.8997
  35   1.0000      -7.787078      -211.8972
  36   1.0000      -7.786859      -211.8912
  37   1.0000      -7.786699      -211.8868
  38   1.0000      -7.784063      -211.8151
  39   1.0000      -7.784028      -211.8142
  40   1.0000      -7.696092      -209.4213
  41   1.0000      -7.695805      -209.4135
  42   1.0000      -7.695267      -209.3989
  43   1.0000      -7.694838      -209.3872
  44   1.0000      -5.756662      -156.6467
  45   1.0000      -5.756629      -156.6458
  46   1.0000      -5.753111      -156.5501
  47   1.0000      -5.753092      -156.5496
  48   1.0000      -5.752160      -156.5242
  49   1.0000      -5.752062      -156.5216
  50   1.0000      -5.751801      -156.5145
  51   1.0000      -5.751633      -156.5099
  52   1.0000      -5.749002      -156.4383
  53   1.0000      -5.748984      -156.4378
  54   1.0000      -5.748738      -156.4311
  55   1.0000      -5.748653      -156.4288
  56   1.0000      -5.747352      -156.3934
  57   1.0000      -5.747186      -156.3889
  58   1.0000      -5.746344      -156.3660
  59   1.0000      -5.746301      -156.3648
  60   1.0000      -5.744600      -156.3185
  61   1.0000      -5.744549      -156.3171
  62   1.0000      -5.742725      -156.2675
  63   1.0000      -5.742558      -156.2629
  64   1.0000      -5.741970      -156.2470
  65   1.0000      -5.741879      -156.2445
  66   1.0000      -5.739872      -156.1899
  67   1.0000      -5.739835      -156.1888
  68   1.0000      -5.661432      -154.0554
  69   1.0000      -5.661167      -154.0482
  70   1.0000      -5.660596      -154.0327
  71   1.0000      -5.660131      -154.0200
  72   1.0000      -5.654984      -153.8799
  73   1.0000      -5.654713      -153.8726
  74   1.0000      -5.654165      -153.8576
  75   1.0000      -5.653744      -153.8462
  76   1.0000      -5.653370      -153.8360
  77   1.0000      -5.653058      -153.8275
  78   1.0000      -5.652568      -153.8142
  79   1.0000      -5.652131      -153.8023
  80   1.0000      -2.400389       -65.3179
  81   1.0000      -1.467270       -39.9264
  82   1.0000      -1.412542       -38.4372
  83   1.0000      -1.412385       -38.4329
  84   1.0000      -0.721168       -19.6240
  85   1.0000      -0.710092       -19.3226
  86   1.0000      -0.698397       -19.0044
  87   1.0000      -0.686054       -18.6685
  88   1.0000      -0.659230       -17.9386
  89   1.0000      -0.647541       -17.6205
  90   1.0000      -0.631783       -17.1917
  91   1.0000      -0.617893       -16.8137
  92   1.0000      -0.611381       -16.6365
  93   1.0000      -0.584503       -15.9051
  94   1.0000      -0.576721       -15.6934
  95   1.0000      -0.575224       -15.6526
  96   1.0000      -0.573601       -15.6085
  97   1.0000      -0.517784       -14.0896
  98   1.0000      -0.496835       -13.5196
  99   1.0000      -0.496658       -13.5148
 100   1.0000      -0.488401       -13.2901
 101   1.0000      -0.479592       -13.0504
 102   1.0000      -0.471216       -12.8224
 103   1.0000      -0.468548       -12.7498
 104   1.0000      -0.446738       -12.1564
 105   1.0000      -0.420466       -11.4415
 106   1.0000      -0.413423       -11.2498
 107   1.0000      -0.360349        -9.8056
 108   1.0000      -0.355601        -9.6764
 109   1.0000      -0.327354        -8.9078
 110   1.0000      -0.320570        -8.7232
 111   1.0000      -0.315788        -8.5930
 112   1.0000      -0.310160        -8.4399
 113   1.0000      -0.304497        -8.2858
 114   1.0000      -0.298347        -8.1184
 115   1.0000      -0.292899        -7.9702
 116   1.0000      -0.285264        -7.7624
 117   1.0000      -0.263491        -7.1699
 118   1.0000      -0.258113        -7.0236
 119   1.0000      -0.257432        -7.0051
 120   1.0000      -0.255437        -6.9508
 121   1.0000      -0.242467        -6.5979
 122   1.0000      -0.234442        -6.3795
 123   1.0000      -0.231316        -6.2944
 124   1.0000      -0.221778        -6.0349
 125   1.0000      -0.219826        -5.9818
 126   1.0000      -0.216078        -5.8798
 127   1.0000      -0.212415        -5.7801
 128   1.0000      -0.212158        -5.7731
 129   1.0000      -0.192656        -5.2424
 130   1.0000      -0.187855        -5.1118
 131   1.0000      -0.186407        -5.0724
 132   1.0000      -0.185668        -5.0523
 133   1.0000      -0.180148        -4.9021
 134   1.0000      -0.160384        -4.3643
 135   1.0000      -0.151655        -4.1267
 136   1.0000      -0.147156        -4.0043
 137   1.0000      -0.137082        -3.7302
 138   1.0000      -0.134902        -3.6709
 139   1.0000      -0.134433        -3.6581
 140   1.0000      -0.125883        -3.4255
 141   1.0000      -0.122264        -3.3270
 142   1.0000      -0.116618        -3.1733
 143   1.0000      -0.112730        -3.0675
 144   1.0000      -0.101996        -2.7754
 145   1.0000      -0.099500        -2.7075
 146   1.0000      -0.099447        -2.7061
 147   1.0000      -0.096551        -2.6273
 148   1.0000      -0.072092        -1.9617
 149   1.0000      -0.071221        -1.9380
 150   1.0000      -0.067834        -1.8459
 151   1.0000      -0.051229        -1.3940
 152   1.0000      -0.046051        -1.2531
 153   1.0000      -0.039484        -1.0744
 154   1.0000      -0.037814        -1.0290
 155   1.0000      -0.032976        -0.8973
 156   1.0000      -0.027343        -0.7441
 157   1.0000      -0.017127        -0.4660
 158   1.0000       0.019072         0.5190
 159   1.0000       0.038700         1.0531
 160   0.0000       0.122490         3.3331
 161   0.0000       0.136778         3.7219
 162   0.0000       0.138366         3.7651
 163   0.0000       0.154972         4.2170
 164   0.0000       0.161569         4.3965

MULLIKEN ATOMIC CHARGES AND SPIN POPULATIONS
--------------------------------------------
   0 V :    0.470830    1.210820
   1 S :   -0.290736   -0.022606
   2 S :   -0.287179   -0.024964
   3 S :   -0.288843   -0.023571
   4 S :   -0.283080   -0.025452
   5 O :   -0.466929   -0.146956
   6 C :   -0.077688    0.009604
   7 C :   -0.084890    0.008025
   8 C :   -0.083839    0.007779
   9 C :   -0.084452    0.007389
  10 S :    0.103363   -0.000608
  11 S :    0.104708   -0.000644
  12 S :    0.100240   -0.000397
  13 S :    0.099433   -0.000347
  14 C :   -0.190525    0.001588
  15 C :   -0.212234    0.001013
  16 C :   -0.235765   -0.000113
  17 C :   -0.189879   -0.000417
  18 S :    0.026574   -0.000112
  19 S :    0.026893   -0.000111
  20 S :    0.008376   -0.000068
  21 S :    0.008370   -0.000071
  22 C :   -0.300658   -0.000001
  23 C :   -0.300348   -0.000001
  24 C :   -0.158658   -0.000011
  25 H :    0.143133   -0.000001
  26 H :    0.114851   -0.000004
  27 H :    0.084839   -0.000001
  28 H :    0.090141   -0.000001
  29 H :    0.114554   -0.000005
  30 H :    0.142780   -0.000001
  31 C :   -0.276736    0.000182
  32 C :   -0.277410    0.000180
  33 C :   -0.234720   -0.000264
  34 H :    0.139003   -0.000017
  35 H :    0.055700    0.000066
  36 H :    0.270132    0.000045
  37 H :    0.025781    0.000005
  38 H :    0.055843    0.000066
  39 H :    0.139023   -0.000017
Sum of atomic charges         :   -2.0000000

LOEWDIN ATOMIC CHARGES AND SPIN POPULATIONS
-------------------------------------------
   0 V :   -0.155728    1.164196
   1 S :    0.080301   -0.014602
   2 S :    0.080739   -0.015895
   3 S :    0.081632   -0.015411
   4 S :    0.084576   -0.016130
   5 O :   -0.318372   -0.131857
   6 C :   -0.549274    0.009008
   7 C :   -0.551410    0.007939
   8 C :   -0.552295    0.008144
   9 C :   -0.552297    0.007660
  10 S :    0.474888   -0.000924
  11 S :    0.475869   -0.000964
  12 S :    0.471487   -0.000825
  13 S :    0.470734   -0.000828
  14 C :   -0.464189    0.000210
  15 C :   -0.465127   -0.000079
  16 C :   -0.626515    0.000462
  17 C :   -0.621827    0.000085
  18 S :    0.366079   -0.000088
  19 S :    0.367370   -0.000086
  20 S :    0.359167   -0.000073
  21 S :    0.358745   -0.000075
  22 C :   -0.282754   -0.000007
  23 C :   -0.282869   -0.000009
  24 C :   -0.176307   -0.000002
  25 H :    0.062496   -0.000001
  26 H :    0.053106   -0.000002
  27 H :    0.057584   -0.000002
  28 H :    0.061401   -0.000001
  29 H :    0.053046   -0.000002
  30 H :    0.062319   -0.000002
  31 C :   -0.285069    0.000042
  32 C :   -0.284779    0.000035
  33 C :    0.000469    0.000007
  34 H :    0.074860    0.000000
  35 H :    0.065247    0.000037
  36 H :   -0.214459    0.000003
  37 H :    0.080942   -0.000002
  38 H :    0.065403    0.000037
  39 H :    0.074808    0.000001

  Mayer bond orders larger than 0.100000
B(  0-V ,  1-S ) :   0.7737 B(  0-V ,  2-S ) :   0.7688 B(  0-V ,  3-S ) :   0.7669
B(  0-V ,  4-S ) :   0.7760 B(  0-V ,  5-O ) :   2.1494 B(  1-S ,  8-C ) :   1.1031
B(  2-S ,  6-C ) :   1.1071 B(  3-S ,  9-C ) :   1.1058 B(  4-S ,  7-C ) :   1.1077
B(  6-C ,  7-C ) :   1.6792 B(  6-C , 10-S ) :   0.9361 B(  7-C , 11-S ) :   0.9404
B(  8-C ,  9-C ) :   1.6986 B(  8-C , 13-S ) :   0.9338 B(  9-C , 12-S ) :   0.9355
B( 10-S , 14-C ) :   1.2507 B( 11-S , 14-C ) :   1.2505 B( 12-S , 15-C ) :   1.2462
B( 13-S , 15-C ) :   1.2462 B( 14-C , 16-C ) :   1.4213 B( 15-C , 17-C ) :   1.4545
B( 16-C , 18-S ) :   1.1039 B( 16-C , 19-S ) :   1.1055 B( 17-C , 20-S ) :   1.0880
B( 17-C , 21-S ) :   1.0885 B( 18-S , 32-C ) :   0.9928 B( 19-S , 31-C ) :   0.9929
B( 20-S , 23-C ) :   0.9914 B( 21-S , 22-C ) :   0.9905 B( 22-C , 24-C ) :   0.9136
B( 22-C , 25-H ) :   0.9657 B( 22-C , 26-H ) :   0.9658 B( 23-C , 24-C ) :   0.9143
B( 23-C , 29-H ) :   0.9658 B( 23-C , 30-H ) :   0.9655 B( 24-C , 27-H ) :   0.9628
B( 24-C , 28-H ) :   0.9711 B( 31-C , 33-C ) :   0.8774 B( 31-C , 38-H ) :   0.9432
B( 31-C , 39-H ) :   0.9545 B( 32-C , 33-C ) :   0.8768 B( 32-C , 34-H ) :   0.9543
B( 32-C , 35-H ) :   0.9431 B( 33-C , 36-H ) :   0.9594 B( 33-C , 37-H ) :   0.9359

FINAL SINGLE POINT ENERGY     -6337.000127600040

DIPOLE MOMENT
-------------
                                X             Y             Z
Electronic contribution:     -3.89891     -10.86556      -5.90213
Nuclear contribution   :      4.76431      11.89690       6.87172
                        -----------------------------------------
Total Dipole Moment    :      0.86539       1.03134       0.96959
                        -----------------------------------------
Magnitude (a.u.)       :      1.65912
Magnitude (Debye)      :      4.21714

Rotational constants in cm-1:     0.010757     0.000804     0.000783
Rotational constants in MHz :   322.498628    24.115625    23.485517

                             ****ORCA TERMINATED NORMALLY****
TOTAL RUN TIME: 0 days 1 hours 7 minutes 2 seconds 530 msec
