                         Program Version 5.0.4 -  RELEASE  -
|  1> ! nofrozencore ReducedPop printbasis
|  2> ! B3LYP TZVP
|  3>
|  4> %basis
|  5> newgto V "CP(PPP)" end
|  6> end
|  7>
|  8> %pal
|  9> nprocs 6
| 10> end
| 11>
| 12> % sym SymThresh 1e-2 end
| 13> * xyz -2 2
| 14> V 0.498930055442294 0.7479558224660906 0.6555940587844155
| 15> S -0.7233290172302462 -0.5921575377779722 2.3219049609485434
| 16> S 2.018865133381001 -1.2076593021137376 0.44430597993688353
| 17> S -1.7082906007152352 1.7575942386282377 0.11072067466741013
| 18> S 0.9258400020319565 1.1045998824950694 -1.7370166790720079
| 19> O 1.3312360349195955 1.843747380255222 1.454137416003921
| 20> C 2.6369295441162772 -0.8186304590863763 -0.7282803157519446
| 21> C 2.7319367895785867 -0.037029923821653266 -1.995038420940762
| 22> C -2.562701035435628 0.26988319899749685 2.2961934853652988
| 23> C -2.514474873689539 1.1864743844319319 1.2121364729950372
| 24> S 4.349987460224105 -1.687428539350391 -1.4265296781325136
| 25> S 3.417005461916358 0.3126507702292178 -3.3748431140855795
| 26> S -4.397052454121379 1.7232622035921934 1.4951594568984055
| 27> S -3.5711176441016557 -0.31690432616288133 3.452504237725436
| 28> C 4.682685062806611 -1.0305358994500045 -2.877552706366578
| 29> C -4.921425592040759 0.7556389799484632 2.764057713668387
| 30> C 5.6546733478143185 -1.1817736166629746 -3.860302370745552
| 31> C -6.150925858770211 0.6356662052813203 3.369871089245281
| 32> S 6.9219943859229325 -2.4797360095842373 -3.3088465246033483
| 33> S 5.9398564873612445 -0.4687383246982316 -5.344727005567042
| 34> S -6.636944183381562 -0.3749110278485146 4.6659762556922875
| 35> S -7.468284125469753 1.7086700358211262 2.6351932047446756
| 36> C -8.583820106853391 0.3525327670226991 2.0460702240628925
| 37> C -7.887608130612663 -1.4146191419644867 3.7817597381618078
| 38> C -9.023503799469687 -0.6110815684220835 3.159314667102968
| 39> H -8.081154743322838 -0.18517968946785424 1.238380612769921
| 40> H -9.462164657162406 0.8484357523469047 1.6249780266773404
| 41> H -9.74556694437645 -1.3249015546458769 2.7384819876829636
| 42> H -9.5434279639091 -0.042506722579816233 3.9367924132484258
| 43> H -8.263266510416466 -2.1082797475479476 4.538316908489184
| 44> H -7.357408833994639 -1.988403572424119 3.0189279668158133
| 45> C 7.567089474772631 0.34535579055133026 -5.00594625605898
| 46> C 8.391874099995487 -1.3533542055903562 -3.2585575570411263
| 47> C 8.659832890050554 -0.6251645745458325 -4.589995826997517
| 48> H 8.266974475424671 -0.6406543535560117 -2.439120750423134
| 49> H 9.25214045910905 -1.9856903111414257 -3.023033237967698
| 50> H 8.81560636292149 -1.3728654408205516 -5.374192528361887
| 51> H 9.59242496141472 -0.05109178281663854 -4.495756290814753
| 52> H 7.8157652279570256 0.86366079737137 -5.935908669516886
| 53> H 7.397707578388266 1.090293841070202 -4.225873361743725
| 54> *
| 55>
| 56> % eprnmr
| 57> gtensor true
| 58> Nuclei = all H {aiso,adip,aorb,fgrad,rho}
| 59> Nuclei = all V {aiso,adip,aorb,fgrad,rho}
| 60> end
| 61>
| 62>                          ****END OF INPUT****

CARTESIAN COORDINATES (ANGSTROEM)
---------------------------------
  V      0.499436    0.745435    0.652750
  S     -0.722823   -0.594678    2.319061
  S      2.019371   -1.210180    0.441462
  S     -1.707785    1.755074    0.107876
  S      0.926346    1.102079   -1.739861
  O      1.331742    1.841227    1.451293
  C      2.637435   -0.821151   -0.731125
  C      2.732443   -0.039550   -1.997883
  C     -2.562195    0.267363    2.293349
  C     -2.513969    1.183954    1.209292
  S      4.350493   -1.689949   -1.429374
  S      3.417511    0.310130   -3.377688
  S     -4.396547    1.720742    1.492315
  S     -3.570612   -0.319425    3.449660
  C      4.683191   -1.033056   -2.880397
  C     -4.920920    0.753119    2.761213
  C      5.655179   -1.184294   -3.863147
  C     -6.150420    0.633146    3.367027
  S      6.922500   -2.482256   -3.311691
  S      5.940362   -0.471259   -5.347571
  S     -6.636438   -0.377431    4.663132
  S     -7.467778    1.706150    2.632349
  C     -8.583314    0.350012    2.043226
  C     -7.887102   -1.417140    3.778915
  C     -9.022998   -0.613602    3.156470
  H     -8.080649   -0.187700    1.235536
  H     -9.461659    0.845915    1.622134
  H     -9.745061   -1.327422    2.735638
  H     -9.542922   -0.045027    3.933948
  H     -8.262761   -2.110800    4.535472
  H     -7.356903   -1.990924    3.016084
  C      7.567595    0.342835   -5.008791
  C      8.392380   -1.355875   -3.261402
  C      8.660339   -0.627685   -4.592840
  H      8.267480   -0.643175   -2.441965
  H      9.252646   -1.988211   -3.025878
  H      8.816112   -1.375386   -5.377037
  H      9.592931   -0.053612   -4.498601
  H      7.816271    0.861140   -5.938753
  H      7.398213    1.087773   -4.228718

 Total Charge           Charge          ....   -2
 Multiplicity           Mult            ....    2
 Number of Electrons    NEL             ....  321
 Basis Dimension        Dim             ....  681

ORBITAL ENERGIES
----------------
                 SPIN UP ORBITALS
  NO   OCC          E(Eh)            E(eV)
   0   1.0000    -196.689956     -5352.2058
   1   1.0000     -88.736183     -2414.6343
   2   1.0000     -88.734949     -2414.6007
   3   1.0000     -88.730568     -2414.4815
   4   1.0000     -88.730283     -2414.4737
   5   1.0000     -88.723641     -2414.2930
   6   1.0000     -88.713472     -2414.0163
   7   1.0000     -88.713292     -2414.0114
   8   1.0000     -88.702331     -2413.7132
   9   1.0000     -88.670661     -2412.8514
  10   1.0000     -88.661987     -2412.6153
  11   1.0000     -88.638680     -2411.9811
  12   1.0000     -88.631746     -2411.7924
  13   1.0000     -22.064240      -600.3985
  14   1.0000     -18.904756      -514.4246
  15   1.0000     -18.570560      -505.3306
  16   1.0000     -18.565821      -505.2017
  17   1.0000     -18.565386      -505.1898
  18   1.0000     -10.072838      -274.0959
  19   1.0000     -10.066526      -273.9241
  20   1.0000     -10.061183      -273.7787
  21   1.0000     -10.058962      -273.7183
  22   1.0000     -10.055026      -273.6112
  23   1.0000     -10.052724      -273.5485
  24   1.0000     -10.048443      -273.4320
  25   1.0000     -10.045654      -273.3561
  26   1.0000     -10.044742      -273.3313
  27   1.0000     -10.043095      -273.2865
  28   1.0000     -10.039245      -273.1817
  29   1.0000     -10.038121      -273.1512
  30   1.0000     -10.027303      -272.8568
  31   1.0000     -10.022109      -272.7155
  32   1.0000      -7.789947      -211.9752
  33   1.0000      -7.789140      -211.9533
  34   1.0000      -7.785342      -211.8499
  35   1.0000      -7.785112      -211.8437
  36   1.0000      -7.776598      -211.6120
  37   1.0000      -7.768492      -211.3914
  38   1.0000      -7.766198      -211.3290
  39   1.0000      -7.759457      -211.1456
  40   1.0000      -7.740685      -210.6348
  41   1.0000      -7.725491      -210.2213
  42   1.0000      -7.690143      -209.2594
  43   1.0000      -7.682922      -209.0629
  44   1.0000      -5.754830      -156.5969
  45   1.0000      -5.754085      -156.5766
  46   1.0000      -5.750825      -156.4879
  47   1.0000      -5.750473      -156.4783
  48   1.0000      -5.750227      -156.4716
  49   1.0000      -5.749462      -156.4508
  50   1.0000      -5.746503      -156.3703
  51   1.0000      -5.746271      -156.3640
  52   1.0000      -5.745374      -156.3396
  53   1.0000      -5.744092      -156.3047
  54   1.0000      -5.741578      -156.2363
  55   1.0000      -5.740522      -156.2075
  56   1.0000      -5.740422      -156.2048
  57   1.0000      -5.738315      -156.1475
  58   1.0000      -5.732572      -155.9912
  59   1.0000      -5.731344      -155.9578
  60   1.0000      -5.731148      -155.9525
  61   1.0000      -5.728690      -155.8856
  62   1.0000      -5.727957      -155.8656
  63   1.0000      -5.725006      -155.7853
  64   1.0000      -5.723019      -155.7313
  65   1.0000      -5.720982      -155.6758
  66   1.0000      -5.719284      -155.6296
  67   1.0000      -5.716452      -155.5526
  68   1.0000      -5.704106      -155.2166
  69   1.0000      -5.698325      -155.0593
  70   1.0000      -5.697329      -155.0322
  71   1.0000      -5.689335      -154.8147
  72   1.0000      -5.683690      -154.6611
  73   1.0000      -5.682724      -154.6348
  74   1.0000      -5.655733      -153.9003
  75   1.0000      -5.649232      -153.7234
  76   1.0000      -5.648324      -153.6987
  77   1.0000      -5.647333      -153.6717
  78   1.0000      -5.642149      -153.5307
  79   1.0000      -5.640147      -153.4762
  80   1.0000      -2.458656       -66.9034
  81   1.0000      -1.499602       -40.8062
  82   1.0000      -1.491505       -40.5859
  83   1.0000      -1.485173       -40.4136
  84   1.0000      -0.709615       -19.3096
  85   1.0000      -0.709332       -19.3019
  86   1.0000      -0.689452       -18.7609
  87   1.0000      -0.687487       -18.7075
  88   1.0000      -0.666665       -18.1409
  89   1.0000      -0.663033       -18.0421
  90   1.0000      -0.643222       -17.5030
  91   1.0000      -0.621298       -16.9064
  92   1.0000      -0.617491       -16.8028
  93   1.0000      -0.611133       -16.6298
  94   1.0000      -0.605942       -16.4885
  95   1.0000      -0.577097       -15.7036
  96   1.0000      -0.573434       -15.6039
  97   1.0000      -0.512747       -13.9525
  98   1.0000      -0.505205       -13.7473
  99   1.0000      -0.488429       -13.2908
 100   1.0000      -0.482878       -13.1398
 101   1.0000      -0.470191       -12.7946
 102   1.0000      -0.457232       -12.4419
 103   1.0000      -0.437551       -11.9064
 104   1.0000      -0.427872       -11.6430
 105   1.0000      -0.409114       -11.1325
 106   1.0000      -0.397858       -10.8263
 107   1.0000      -0.351537        -9.5658
 108   1.0000      -0.345018        -9.3884
 109   1.0000      -0.322881        -8.7860
 110   1.0000      -0.317852        -8.6492
 111   1.0000      -0.316687        -8.6175
 112   1.0000      -0.310195        -8.4408
 113   1.0000      -0.299636        -8.1535
 114   1.0000      -0.293590        -7.9890
 115   1.0000      -0.289558        -7.8793
 116   1.0000      -0.283882        -7.7248
 117   1.0000      -0.267972        -7.2919
 118   1.0000      -0.265570        -7.2265
 119   1.0000      -0.246119        -6.6972
 120   1.0000      -0.242200        -6.5906
 121   1.0000      -0.237017        -6.4496
 122   1.0000      -0.233819        -6.3625
 123   1.0000      -0.232548        -6.3280
 124   1.0000      -0.229226        -6.2376
 125   1.0000      -0.227720        -6.1966
 126   1.0000      -0.226711        -6.1691
 127   1.0000      -0.220441        -5.9985
 128   1.0000      -0.215298        -5.8586
 129   1.0000      -0.214105        -5.8261
 130   1.0000      -0.212964        -5.7950
 131   1.0000      -0.191192        -5.2026
 132   1.0000      -0.190335        -5.1793
 133   1.0000      -0.168956        -4.5975
 134   1.0000      -0.164344        -4.4720
 135   1.0000      -0.158543        -4.3142
 136   1.0000      -0.149413        -4.0657
 137   1.0000      -0.141465        -3.8495
 138   1.0000      -0.138853        -3.7784
 139   1.0000      -0.137339        -3.7372
 140   1.0000      -0.125366        -3.4114
 141   1.0000      -0.121355        -3.3022
 142   1.0000      -0.114932        -3.1275
 143   1.0000      -0.113564        -3.0902
 144   1.0000      -0.108394        -2.9496
 145   1.0000      -0.098187        -2.6718
 146   1.0000      -0.093778        -2.5518
 147   1.0000      -0.081838        -2.2269
 148   1.0000      -0.071564        -1.9474
 149   1.0000      -0.066842        -1.8189
 150   1.0000      -0.058587        -1.5942
 151   1.0000      -0.054880        -1.4934
 152   1.0000      -0.047639        -1.2963
 153   1.0000      -0.041392        -1.1263
 154   1.0000      -0.036689        -0.9984
 155   1.0000      -0.030443        -0.8284
 156   1.0000      -0.022108        -0.6016
 157   1.0000      -0.015858        -0.4315
 158   1.0000      -0.007176        -0.1953
 159   1.0000       0.027661         0.7527
 160   1.0000       0.045232         1.2308
 161   0.0000       0.131352         3.5743
 162   0.0000       0.139170         3.7870
 163   0.0000       0.141623         3.8538
 164   0.0000       0.143788         3.9127
 165   0.0000       0.161270         4.3884

                 SPIN DOWN ORBITALS
  NO   OCC          E(Eh)            E(eV)
   0   1.0000    -196.690100     -5352.2097
   1   1.0000     -88.736187     -2414.6344
   2   1.0000     -88.734950     -2414.6007
   3   1.0000     -88.730569     -2414.4815
   4   1.0000     -88.730290     -2414.4739
   5   1.0000     -88.723640     -2414.2930
   6   1.0000     -88.713469     -2414.0162
   7   1.0000     -88.713328     -2414.0124
   8   1.0000     -88.702376     -2413.7144
   9   1.0000     -88.670741     -2412.8535
  10   1.0000     -88.662087     -2412.6181
  11   1.0000     -88.638877     -2411.9865
  12   1.0000     -88.631988     -2411.7990
  13   1.0000     -22.049338      -599.9930
  14   1.0000     -18.908605      -514.5293
  15   1.0000     -18.565211      -505.1851
  16   1.0000     -18.549850      -504.7671
  17   1.0000     -18.549358      -504.7537
  18   1.0000     -10.072802      -274.0949
  19   1.0000     -10.066410      -273.9209
  20   1.0000     -10.061184      -273.7787
  21   1.0000     -10.058963      -273.7183
  22   1.0000     -10.055026      -273.6112
  23   1.0000     -10.052720      -273.5484
  24   1.0000     -10.048443      -273.4320
  25   1.0000     -10.045655      -273.3562
  26   1.0000     -10.044740      -273.3313
  27   1.0000     -10.043096      -273.2865
  28   1.0000     -10.039155      -273.1793
  29   1.0000     -10.038109      -273.1508
  30   1.0000     -10.026587      -272.8373
  31   1.0000     -10.021697      -272.7042
  32   1.0000      -7.789950      -211.9753
  33   1.0000      -7.789141      -211.9533
  34   1.0000      -7.785343      -211.8500
  35   1.0000      -7.785117      -211.8438
  36   1.0000      -7.776597      -211.6120
  37   1.0000      -7.768530      -211.3925
  38   1.0000      -7.766194      -211.3289
  39   1.0000      -7.759503      -211.1468
  40   1.0000      -7.740762      -210.6368
  41   1.0000      -7.725587      -210.2239
  42   1.0000      -7.690325      -209.2644
  43   1.0000      -7.683148      -209.0691
  44   1.0000      -5.754840      -156.5972
  45   1.0000      -5.754086      -156.5766
  46   1.0000      -5.750831      -156.4881
  47   1.0000      -5.750475      -156.4784
  48   1.0000      -5.750228      -156.4716
  49   1.0000      -5.749490      -156.4516
  50   1.0000      -5.746505      -156.3704
  51   1.0000      -5.746290      -156.3645
  52   1.0000      -5.745375      -156.3396
  53   1.0000      -5.744093      -156.3047
  54   1.0000      -5.741577      -156.2362
  55   1.0000      -5.740508      -156.2072
  56   1.0000      -5.740423      -156.2049
  57   1.0000      -5.738313      -156.1474
  58   1.0000      -5.732616      -155.9924
  59   1.0000      -5.731345      -155.9578
  60   1.0000      -5.731143      -155.9523
  61   1.0000      -5.728768      -155.8877
  62   1.0000      -5.727950      -155.8655
  63   1.0000      -5.725031      -155.7860
  64   1.0000      -5.723065      -155.7325
  65   1.0000      -5.720981      -155.6758
  66   1.0000      -5.719386      -155.6324
  67   1.0000      -5.716488      -155.5535
  68   1.0000      -5.704168      -155.2183
  69   1.0000      -5.698505      -155.0642
  70   1.0000      -5.697429      -155.0349
  71   1.0000      -5.689430      -154.8173
  72   1.0000      -5.683929      -154.6676
  73   1.0000      -5.682818      -154.6373
  74   1.0000      -5.656010      -153.9079
  75   1.0000      -5.649674      -153.7354
  76   1.0000      -5.648724      -153.7096
  77   1.0000      -5.647482      -153.6758
  78   1.0000      -5.642677      -153.5450
  79   1.0000      -5.640289      -153.4801
  80   1.0000      -2.413838       -65.6839
  81   1.0000      -1.479962       -40.2718
  82   1.0000      -1.429812       -38.9072
  83   1.0000      -1.423438       -38.7337
  84   1.0000      -0.709403       -19.3038
  85   1.0000      -0.709261       -19.3000
  86   1.0000      -0.689430       -18.7603
  87   1.0000      -0.687420       -18.7057
  88   1.0000      -0.672026       -18.2868
  89   1.0000      -0.665894       -18.1199
  90   1.0000      -0.643263       -17.5041
  91   1.0000      -0.621163       -16.9027
  92   1.0000      -0.617480       -16.8025
  93   1.0000      -0.611069       -16.6280
  94   1.0000      -0.605808       -16.4849
  95   1.0000      -0.577041       -15.7021
  96   1.0000      -0.573408       -15.6032
  97   1.0000      -0.512737       -13.9523
  98   1.0000      -0.505057       -13.7433
  99   1.0000      -0.488434       -13.2910
 100   1.0000      -0.482871       -13.1396
 101   1.0000      -0.470253       -12.7962
 102   1.0000      -0.457226       -12.4418
 103   1.0000      -0.437729       -11.9112
 104   1.0000      -0.428168       -11.6510
 105   1.0000      -0.409260       -11.1365
 106   1.0000      -0.398203       -10.8357
 107   1.0000      -0.351523        -9.5654
 108   1.0000      -0.344980        -9.3874
 109   1.0000      -0.322860        -8.7855
 110   1.0000      -0.317727        -8.6458
 111   1.0000      -0.316584        -8.6147
 112   1.0000      -0.309908        -8.4330
 113   1.0000      -0.299576        -8.1519
 114   1.0000      -0.293407        -7.9840
 115   1.0000      -0.289547        -7.8790
 116   1.0000      -0.283853        -7.7240
 117   1.0000      -0.267668        -7.2836
 118   1.0000      -0.265508        -7.2248
 119   1.0000      -0.245756        -6.6873
 120   1.0000      -0.241663        -6.5760
 121   1.0000      -0.236628        -6.4390
 122   1.0000      -0.233737        -6.3603
 123   1.0000      -0.232354        -6.3227
 124   1.0000      -0.229013        -6.2318
 125   1.0000      -0.227537        -6.1916
 126   1.0000      -0.226618        -6.1666
 127   1.0000      -0.220063        -5.9882
 128   1.0000      -0.215202        -5.8560
 129   1.0000      -0.214060        -5.8249
 130   1.0000      -0.212750        -5.7892
 131   1.0000      -0.191177        -5.2022
 132   1.0000      -0.190249        -5.1770
 133   1.0000      -0.168676        -4.5899
 134   1.0000      -0.164012        -4.4630
 135   1.0000      -0.158399        -4.3103
 136   1.0000      -0.148984        -4.0541
 137   1.0000      -0.140948        -3.8354
 138   1.0000      -0.138185        -3.7602
 139   1.0000      -0.137147        -3.7320
 140   1.0000      -0.127039        -3.4569
 141   1.0000      -0.122842        -3.3427
 142   1.0000      -0.114674        -3.1204
 143   1.0000      -0.113285        -3.0826
 144   1.0000      -0.107982        -2.9384
 145   1.0000      -0.097882        -2.6635
 146   1.0000      -0.093551        -2.5457
 147   1.0000      -0.081057        -2.2057
 148   1.0000      -0.070679        -1.9233
 149   1.0000      -0.065891        -1.7930
 150   1.0000      -0.056375        -1.5340
 151   1.0000      -0.052290        -1.4229
 152   1.0000      -0.042726        -1.1626
 153   1.0000      -0.040446        -1.1006
 154   1.0000      -0.035798        -0.9741
 155   1.0000      -0.026406        -0.7186
 156   1.0000      -0.016668        -0.4535
 157   1.0000      -0.008417        -0.2290
 158   1.0000       0.028132         0.7655
 159   1.0000       0.044463         1.2099
 160   0.0000       0.136467         3.7135
 161   0.0000       0.138056         3.7567
 162   0.0000       0.139299         3.7905
 163   0.0000       0.144249         3.9252
 164   0.0000       0.147437         4.0120

MULLIKEN ATOMIC CHARGES AND SPIN POPULATIONS
--------------------------------------------
   0 V :    0.439761    1.204371
   1 S :   -0.377361   -0.037446
   2 S :   -0.056147   -0.012076
   3 S :   -0.116004   -0.014106
   4 S :   -0.394199   -0.048176
   5 O :   -0.454337   -0.148823
   6 C :   -0.054047   -0.005051
   7 C :   -0.129466    0.040990
   8 C :   -0.132682    0.022235
   9 C :   -0.056340    0.000786
  10 S :   -0.001109   -0.005522
  11 S :    0.135037   -0.000575
  12 S :    0.025979   -0.004121
  13 S :    0.137698   -0.000480
  14 C :   -0.183079    0.005431
  15 C :   -0.198556    0.001943
  16 C :   -0.220258    0.000395
  17 C :   -0.200542   -0.000233
  18 S :   -0.049729    0.000225
  19 S :    0.046745   -0.000110
  20 S :    0.031696   -0.000130
  21 S :   -0.022667    0.000111
  22 C :   -0.301976    0.000011
  23 C :   -0.296165   -0.000003
  24 C :   -0.153868   -0.000007
  25 H :    0.138841    0.000004
  26 H :    0.111590    0.000005
  27 H :    0.081050   -0.000006
  28 H :    0.090008   -0.000003
  29 H :    0.110248   -0.000009
  30 H :    0.141774   -0.000000
  31 C :   -0.291711    0.000154
  32 C :   -0.299788    0.000353
  33 C :   -0.150552   -0.000157
  34 H :    0.133755   -0.000041
  35 H :    0.107434    0.000109
  36 H :    0.086999   -0.000013
  37 H :    0.077287   -0.000002
  38 H :    0.105799   -0.000024
  39 H :    0.138880   -0.000005
Sum of atomic charges         :   -2.0000000

LOEWDIN ATOMIC CHARGES AND SPIN POPULATIONS
-------------------------------------------
   0 V :   -0.157284    1.157410
   1 S :   -0.059425   -0.025940
   2 S :    0.405946   -0.007105
   3 S :    0.304809   -0.008661
   4 S :   -0.103524   -0.035051
   5 O :   -0.311717   -0.133551
   6 C :   -0.552690   -0.001899
   7 C :   -0.586578    0.035748
   8 C :   -0.584644    0.019657
   9 C :   -0.538196    0.002619
  10 S :    0.381995   -0.005184
  11 S :    0.500788    0.000552
  12 S :    0.399457   -0.004150
  13 S :    0.500456   -0.000339
  14 C :   -0.465736    0.004023
  15 C :   -0.465008    0.000969
  16 C :   -0.634763    0.000550
  17 C :   -0.627252   -0.000030
  18 S :    0.294155    0.000264
  19 S :    0.407290   -0.000048
  20 S :    0.388467   -0.000102
  21 S :    0.322633    0.000063
  22 C :   -0.286445   -0.000004
  23 C :   -0.283283   -0.000015
  24 C :   -0.176585   -0.000009
  25 H :    0.060208    0.000002
  26 H :    0.052436    0.000007
  27 H :    0.057086   -0.000005
  28 H :    0.059590   -0.000002
  29 H :    0.052497   -0.000004
  30 H :    0.062727   -0.000001
  31 C :   -0.285639    0.000012
  32 C :   -0.289958    0.000174
  33 C :   -0.177439   -0.000017
  34 H :    0.057786    0.000002
  35 H :    0.050583    0.000074
  36 H :    0.058705   -0.000006
  37 H :    0.055558    0.000002
  38 H :    0.050855   -0.000005
  39 H :    0.062139   -0.000001

  Mayer bond orders larger than 0.100000
B(  0-V ,  1-S ) :   0.8747 B(  0-V ,  2-S ) :   0.5726 B(  0-V ,  3-S ) :   0.6470
B(  0-V ,  4-S ) :   0.9165 B(  0-V ,  5-O ) :   2.1524 B(  1-S ,  8-C ) :   0.8671
B(  2-S ,  6-C ) :   1.5592 B(  2-S ,  7-C ) :   0.1940 B(  3-S ,  8-C ) :   0.1491
B(  3-S ,  9-C ) :   1.4128 B(  4-S ,  7-C ) :   0.7903 B(  6-C ,  7-C ) :   1.5555
B(  6-C , 10-S ) :   0.5396 B(  6-C , 11-S ) :   0.1101 B(  7-C , 11-S ) :   1.1773
B(  8-C ,  9-C ) :   1.6583 B(  8-C , 13-S ) :   1.0780 B(  9-C , 12-S ) :   0.6720
B( 10-S , 14-C ) :   1.5169 B( 11-S , 14-C ) :   0.9940 B( 12-S , 15-C ) :   1.4151
B( 13-S , 15-C ) :   1.0917 B( 14-C , 16-C ) :   1.4291 B( 15-C , 17-C ) :   1.4414
B( 16-C , 18-S ) :   0.9534 B( 16-C , 19-S ) :   1.2192 B( 17-C , 20-S ) :   1.1627
B( 17-C , 21-S ) :   1.0063 B( 18-S , 32-C ) :   1.0346 B( 19-S , 31-C ) :   0.9417
B( 20-S , 23-C ) :   0.9625 B( 21-S , 22-C ) :   1.0184 B( 22-C , 24-C ) :   0.9089
B( 22-C , 25-H ) :   0.9666 B( 22-C , 26-H ) :   0.9664 B( 23-C , 24-C ) :   0.9203
B( 23-C , 29-H ) :   0.9638 B( 23-C , 30-H ) :   0.9658 B( 24-C , 27-H ) :   0.9623
B( 24-C , 28-H ) :   0.9713 B( 31-C , 33-C ) :   0.9245 B( 31-C , 38-H ) :   0.9624
B( 31-C , 39-H ) :   0.9666 B( 32-C , 33-C ) :   0.9059 B( 32-C , 34-H ) :   0.9676
B( 32-C , 35-H ) :   0.9665 B( 33-C , 36-H ) :   0.9706 B( 33-C , 37-H ) :   0.9623

FINAL SINGLE POINT ENERGY     -6337.350579900175

DIPOLE MOMENT
-------------
                                X             Y             Z
Electronic contribution:      2.76932       8.99801      10.35055
Nuclear contribution   :     -3.48822      -9.90252     -10.90448
                        -----------------------------------------
Total Dipole Moment    :     -0.71890      -0.90451      -0.55393
                        -----------------------------------------
Magnitude (a.u.)       :      1.28133
Magnitude (Debye)      :      3.25688

Rotational constants in cm-1:     0.010752     0.000804     0.000783
Rotational constants in MHz :   322.343510    24.111368    23.481321

                             ****ORCA TERMINATED NORMALLY****
TOTAL RUN TIME: 0 days 1 hours 9 minutes 56 seconds 259 msec
