                         Program Version 5.0.4 -  RELEASE  -
|  1> ! nofrozencore ReducedPop printbasis
|  2> ! B3LYP TZVP
|  3>
|  4> %basis
|  5> newgto V "CP(PPP)" end
|  6> end
|  7>
|  8> %pal
|  9> nprocs 8
| 10> end
| 11>
| 12> % sym SymThresh 1e-2 end
| 13> * xyz -2 2
| 14> V -0.6004329886840912 -0.9136930353775058 0.20885824077715906
| 15> S -2.1577305618324583 0.8587587895295377 0.9516821764354672
| 16> S -1.1399515978791754 -0.16687700408138678 -2.0885477234438614
| 17> S 0.6251120283478679 -0.47482791351146314 2.3152408356726446
| 18> S 1.6482507406260227 -1.4010692503686477 -0.6805739397385148
| 19> O -1.350400085556068 -2.3030873193415653 0.38596718759921367
| 20> C 0.1589528168720058 -0.9687546282638069 -2.9620358312469666
| 21> C 1.2780104604984834 -1.4602643043434902 -2.397400717272287
| 22> C -1.6031076964425992 1.135323354830337 2.5972795356022598
| 23> C -0.4899685076464571 0.6051427802273807 3.136311233773106
| 24> S 0.05002455659908597 -1.0917425263054328 -4.75116041954545
| 25> S 2.502777317586909 -2.1506672064993775 -3.5127497025295784
| 26> S -0.11305122613500544 1.0910882755512248 4.8267310662554035
| 27> S -2.549065571740297 2.2457582608244695 3.6412444533203154
| 28> C 1.6251274626621173 -1.8497902721969357 -5.016828331890177
| 29> C -1.4642912393236798 2.196519917510034 5.045992543216412
| 30> C 2.110511956740707 -2.1799481801466305 -6.2522786568751
| 31> C -1.6701066819842918 2.9352433825122572 6.178170237864883
| 32> S 1.1686545469401914 -1.9100023652866105 -7.740557093106514
| 33> S 3.709440272644736 -2.939411753959619 -6.4606808339306925
| 34> S -3.087170333705206 3.9725105038144886 6.346021745802013
| 35> S -0.5088685023633802 2.9409015183670193 7.558037779323613
| 36> C -0.07052620857040154 4.482316183803938 7.520407318028258
| 37> C -2.057049896483592 5.79711539724992 6.487408127178815
| 38> C -1.07807069485041 5.628101618520786 7.676844666853529
| 39> H 0.5232918859411417 4.69397568445641 6.621641513171272
| 40> H 0.6292817622288721 4.548917332414962 8.361347668542784
| 41> H -0.4363600235931564 6.539441650154155 7.829275361118352
| 42> H -1.6737487404338125 5.482143278005028 8.586836680006293
| 43> H -2.7915925505026995 6.588614134174014 6.639999800212216
| 44> H -1.553289367968665 5.9159993107536835 5.5265713141942205
| 45> C 3.160126566178007 -4.545753748851615 -7.189079128257491
| 46> C 0.9946309739874308 -3.6786815974841156 -8.273460409643388
| 47> C 2.333493497749746 -4.394293182744584 -8.467596966043267
| 48> H 0.3802119192674867 -4.196197472082379 -7.533358959539522
| 49> H 0.44116783781929714 -3.6457627578402176 -9.215247673673026
| 50> H 2.9229229178378375 -3.861244114114118 -9.220285179953786
| 51> H 2.1308018111102105 -5.399506678976102 -8.863043867023954
| 52> H 4.0796319554148575 -5.09926750369788 -7.395678642677001
| 53> H 2.5987861508703602 -5.089782159909789 -6.42602828570848
| 54> *
| 55>
| 56> % eprnmr
| 57> gtensor true
| 58> Nuclei = all H {aiso,adip,aorb,fgrad,rho}
| 59> Nuclei = all V {aiso,adip,aorb,fgrad,rho}
| 60> end
| 61>
| 62>                          ****END OF INPUT****

CARTESIAN COORDINATES (ANGSTROEM)
---------------------------------
  V     -0.598288   -0.911868    0.206257
  S     -2.155586    0.860584    0.949081
  S     -1.137807   -0.165052   -2.091149
  S      0.627257   -0.473002    2.312640
  S      1.650396   -1.399244   -0.683175
  O     -1.348255   -2.301262    0.383366
  C      0.161098   -0.966929   -2.964637
  C      1.280155   -1.458439   -2.400002
  C     -1.600963    1.137149    2.594678
  C     -0.487824    0.606968    3.133710
  S      0.052169   -1.089917   -4.753762
  S      2.504922   -2.148842   -3.515351
  S     -0.110906    1.092914    4.824130
  S     -2.546921    2.247584    3.638643
  C      1.627272   -1.847965   -5.019429
  C     -1.462146    2.198345    5.043391
  C      2.112657   -2.178123   -6.254880
  C     -1.667962    2.937069    6.175569
  S      1.170799   -1.908177   -7.743158
  S      3.711585   -2.937586   -6.463282
  S     -3.085026    3.974336    6.343421
  S     -0.506724    2.942727    7.555437
  C     -0.068381    4.484142    7.517806
  C     -2.054905    5.798941    6.484807
  C     -1.075926    5.629927    7.674244
  H      0.525437    4.695801    6.619040
  H      0.631427    4.550743    8.358747
  H     -0.434215    6.541267    7.826674
  H     -1.671604    5.483969    8.584236
  H     -2.789448    6.590440    6.637399
  H     -1.551145    5.917825    5.523970
  C      3.162271   -4.543928   -7.191680
  C      0.996776   -3.676856   -8.276062
  C      2.335638   -4.392468   -8.470198
  H      0.382357   -4.194372   -7.535960
  H      0.443313   -3.643937   -9.217849
  H      2.925068   -3.859419   -9.222886
  H      2.132947   -5.397681   -8.865645
  H      4.081777   -5.097442   -7.398280
  H      2.600931   -5.087957   -6.428629

 Total Charge           Charge          ....   -2
 Multiplicity           Mult            ....    2
 Number of Electrons    NEL             ....  321
 Basis Dimension        Dim             ....  681

ORBITAL ENERGIES
----------------
                 SPIN UP ORBITALS
  NO   OCC          E(Eh)            E(eV)
   0   1.0000    -196.675301     -5351.8070
   1   1.0000     -88.734834     -2414.5976
   2   1.0000     -88.733373     -2414.5578
   3   1.0000     -88.733249     -2414.5545
   4   1.0000     -88.731998     -2414.5204
   5   1.0000     -88.730766     -2414.4869
   6   1.0000     -88.730389     -2414.4766
   7   1.0000     -88.730218     -2414.4720
   8   1.0000     -88.724327     -2414.3117
   9   1.0000     -88.640555     -2412.0321
  10   1.0000     -88.640061     -2412.0187
  11   1.0000     -88.640037     -2412.0180
  12   1.0000     -88.639797     -2412.0115
  13   1.0000     -22.050695      -600.0299
  14   1.0000     -18.890604      -514.0395
  15   1.0000     -18.557144      -504.9656
  16   1.0000     -18.551969      -504.8247
  17   1.0000     -18.551870      -504.8221
  18   1.0000     -10.076405      -274.1929
  19   1.0000     -10.075966      -274.1810
  20   1.0000     -10.069825      -274.0139
  21   1.0000     -10.063754      -273.8487
  22   1.0000     -10.063405      -273.8392
  23   1.0000     -10.053655      -273.5739
  24   1.0000     -10.051430      -273.5133
  25   1.0000     -10.051002      -273.5017
  26   1.0000     -10.048434      -273.4318
  27   1.0000     -10.047671      -273.4110
  28   1.0000     -10.019165      -272.6353
  29   1.0000     -10.018439      -272.6156
  30   1.0000     -10.018254      -272.6106
  31   1.0000     -10.017505      -272.5902
  32   1.0000      -7.786773      -211.8889
  33   1.0000      -7.786759      -211.8885
  34   1.0000      -7.785925      -211.8658
  35   1.0000      -7.785375      -211.8508
  36   1.0000      -7.783854      -211.8094
  37   1.0000      -7.783731      -211.8061
  38   1.0000      -7.783644      -211.8037
  39   1.0000      -7.783534      -211.8007
  40   1.0000      -7.694846      -209.3874
  41   1.0000      -7.694399      -209.3752
  42   1.0000      -7.694341      -209.3737
  43   1.0000      -7.694035      -209.3653
  44   1.0000      -5.751770      -156.5136
  45   1.0000      -5.751744      -156.5129
  46   1.0000      -5.750970      -156.4918
  47   1.0000      -5.750241      -156.4720
  48   1.0000      -5.748832      -156.4337
  49   1.0000      -5.748588      -156.4270
  50   1.0000      -5.748484      -156.4242
  51   1.0000      -5.748476      -156.4240
  52   1.0000      -5.748358      -156.4208
  53   1.0000      -5.748327      -156.4199
  54   1.0000      -5.747938      -156.4094
  55   1.0000      -5.745853      -156.3526
  56   1.0000      -5.744397      -156.3130
  57   1.0000      -5.744380      -156.3125
  58   1.0000      -5.744161      -156.3066
  59   1.0000      -5.744042      -156.3033
  60   1.0000      -5.741557      -156.2357
  61   1.0000      -5.741554      -156.2356
  62   1.0000      -5.741311      -156.2290
  63   1.0000      -5.740670      -156.2116
  64   1.0000      -5.739653      -156.1839
  65   1.0000      -5.739466      -156.1788
  66   1.0000      -5.739350      -156.1757
  67   1.0000      -5.738402      -156.1499
  68   1.0000      -5.660155      -154.0207
  69   1.0000      -5.659710      -154.0085
  70   1.0000      -5.659648      -154.0068
  71   1.0000      -5.659371      -153.9993
  72   1.0000      -5.653487      -153.8392
  73   1.0000      -5.653069      -153.8278
  74   1.0000      -5.652993      -153.8257
  75   1.0000      -5.652707      -153.8180
  76   1.0000      -5.652183      -153.8037
  77   1.0000      -5.651715      -153.7910
  78   1.0000      -5.651667      -153.7897
  79   1.0000      -5.651329      -153.7805
  80   1.0000      -2.444351       -66.5142
  81   1.0000      -1.485659       -40.4268
  82   1.0000      -1.473984       -40.1092
  83   1.0000      -1.473174       -40.0871
  84   1.0000      -0.720840       -19.6151
  85   1.0000      -0.709683       -19.3114
  86   1.0000      -0.692907       -18.8550
  87   1.0000      -0.685818       -18.6620
  88   1.0000      -0.650168       -17.6920
  89   1.0000      -0.631525       -17.1847
  90   1.0000      -0.629886       -17.1401
  91   1.0000      -0.620437       -16.8830
  92   1.0000      -0.617431       -16.8011
  93   1.0000      -0.576931       -15.6991
  94   1.0000      -0.574612       -15.6360
  95   1.0000      -0.573423       -15.6036
  96   1.0000      -0.568838       -15.4789
  97   1.0000      -0.498309       -13.5597
  98   1.0000      -0.496397       -13.5077
  99   1.0000      -0.496060       -13.4985
 100   1.0000      -0.492286       -13.3958
 101   1.0000      -0.480073       -13.0635
 102   1.0000      -0.477515       -12.9938
 103   1.0000      -0.446800       -12.1581
 104   1.0000      -0.442340       -12.0367
 105   1.0000      -0.416527       -11.3343
 106   1.0000      -0.411460       -11.1964
 107   1.0000      -0.360724        -9.8158
 108   1.0000      -0.355529        -9.6744
 109   1.0000      -0.326854        -8.8941
 110   1.0000      -0.325416        -8.8550
 111   1.0000      -0.319084        -8.6827
 112   1.0000      -0.314525        -8.5587
 113   1.0000      -0.304142        -8.2761
 114   1.0000      -0.300619        -8.1802
 115   1.0000      -0.294722        -8.0198
 116   1.0000      -0.292599        -7.9620
 117   1.0000      -0.266028        -7.2390
 118   1.0000      -0.257257        -7.0003
 119   1.0000      -0.256950        -6.9920
 120   1.0000      -0.247694        -6.7401
 121   1.0000      -0.237366        -6.4590
 122   1.0000      -0.234576        -6.3831
 123   1.0000      -0.230936        -6.2841
 124   1.0000      -0.230029        -6.2594
 125   1.0000      -0.219651        -5.9770
 126   1.0000      -0.217981        -5.9316
 127   1.0000      -0.214284        -5.8310
 128   1.0000      -0.211558        -5.7568
 129   1.0000      -0.193604        -5.2682
 130   1.0000      -0.188737        -5.1358
 131   1.0000      -0.186179        -5.0662
 132   1.0000      -0.181640        -4.9427
 133   1.0000      -0.175191        -4.7672
 134   1.0000      -0.159792        -4.3482
 135   1.0000      -0.150833        -4.1044
 136   1.0000      -0.145913        -3.9705
 137   1.0000      -0.135972        -3.7000
 138   1.0000      -0.133954        -3.6451
 139   1.0000      -0.131193        -3.5700
 140   1.0000      -0.124861        -3.3976
 141   1.0000      -0.121451        -3.3049
 142   1.0000      -0.113864        -3.0984
 143   1.0000      -0.109660        -2.9840
 144   1.0000      -0.100150        -2.7252
 145   1.0000      -0.098482        -2.6798
 146   1.0000      -0.096337        -2.6214
 147   1.0000      -0.093117        -2.5338
 148   1.0000      -0.074877        -2.0375
 149   1.0000      -0.067660        -1.8411
 150   1.0000      -0.064920        -1.7666
 151   1.0000      -0.052720        -1.4346
 152   1.0000      -0.045992        -1.2515
 153   1.0000      -0.037648        -1.0245
 154   1.0000      -0.037487        -1.0201
 155   1.0000      -0.031402        -0.8545
 156   1.0000      -0.025434        -0.6921
 157   1.0000      -0.019515        -0.5310
 158   1.0000      -0.015815        -0.4303
 159   1.0000       0.019939         0.5426
 160   1.0000       0.040760         1.1091
 161   0.0000       0.118997         3.2381
 162   0.0000       0.136723         3.7204
 163   0.0000       0.153621         4.1802
 164   0.0000       0.161856         4.4043
 165   0.0000       0.166809         4.5391

                 SPIN DOWN ORBITALS
  NO   OCC          E(Eh)            E(eV)
   0   1.0000    -196.675448     -5351.8110
   1   1.0000     -88.734835     -2414.5976
   2   1.0000     -88.733374     -2414.5579
   3   1.0000     -88.733250     -2414.5545
   4   1.0000     -88.732006     -2414.5206
   5   1.0000     -88.730774     -2414.4871
   6   1.0000     -88.730397     -2414.4769
   7   1.0000     -88.730226     -2414.4722
   8   1.0000     -88.724328     -2414.3117
   9   1.0000     -88.640692     -2412.0359
  10   1.0000     -88.640200     -2412.0225
  11   1.0000     -88.640178     -2412.0219
  12   1.0000     -88.639939     -2412.0154
  13   1.0000     -22.035759      -599.6235
  14   1.0000     -18.894404      -514.1429
  15   1.0000     -18.551871      -504.8221
  16   1.0000     -18.535932      -504.3884
  17   1.0000     -18.535750      -504.3834
  18   1.0000     -10.076405      -274.1929
  19   1.0000     -10.075960      -274.1808
  20   1.0000     -10.069826      -274.0139
  21   1.0000     -10.063754      -273.8487
  22   1.0000     -10.063404      -273.8391
  23   1.0000     -10.053655      -273.5739
  24   1.0000     -10.051430      -273.5133
  25   1.0000     -10.051002      -273.5017
  26   1.0000     -10.048423      -273.4315
  27   1.0000     -10.047666      -273.4109
  28   1.0000     -10.018954      -272.6296
  29   1.0000     -10.018200      -272.6091
  30   1.0000     -10.018039      -272.6047
  31   1.0000     -10.017281      -272.5841
  32   1.0000      -7.786774      -211.8889
  33   1.0000      -7.786759      -211.8885
  34   1.0000      -7.785926      -211.8658
  35   1.0000      -7.785385      -211.8511
  36   1.0000      -7.783863      -211.8097
  37   1.0000      -7.783731      -211.8061
  38   1.0000      -7.783653      -211.8040
  39   1.0000      -7.783544      -211.8010
  40   1.0000      -7.694974      -209.3909
  41   1.0000      -7.694528      -209.3788
  42   1.0000      -7.694472      -209.3772
  43   1.0000      -7.694167      -209.3689
  44   1.0000      -5.751772      -156.5137
  45   1.0000      -5.751745      -156.5129
  46   1.0000      -5.750970      -156.4919
  47   1.0000      -5.750251      -156.4723
  48   1.0000      -5.748843      -156.4340
  49   1.0000      -5.748598      -156.4273
  50   1.0000      -5.748487      -156.4243
  51   1.0000      -5.748485      -156.4242
  52   1.0000      -5.748359      -156.4208
  53   1.0000      -5.748329      -156.4200
  54   1.0000      -5.747939      -156.4094
  55   1.0000      -5.745867      -156.3530
  56   1.0000      -5.744398      -156.3130
  57   1.0000      -5.744394      -156.3129
  58   1.0000      -5.744175      -156.3069
  59   1.0000      -5.744056      -156.3037
  60   1.0000      -5.741557      -156.2357
  61   1.0000      -5.741555      -156.2357
  62   1.0000      -5.741317      -156.2292
  63   1.0000      -5.740671      -156.2116
  64   1.0000      -5.739658      -156.1840
  65   1.0000      -5.739474      -156.1790
  66   1.0000      -5.739359      -156.1759
  67   1.0000      -5.738402      -156.1499
  68   1.0000      -5.660298      -154.0245
  69   1.0000      -5.659852      -154.0124
  70   1.0000      -5.659787      -154.0106
  71   1.0000      -5.659513      -154.0032
  72   1.0000      -5.653838      -153.8487
  73   1.0000      -5.653428      -153.8376
  74   1.0000      -5.653381      -153.8363
  75   1.0000      -5.653091      -153.8284
  76   1.0000      -5.652288      -153.8066
  77   1.0000      -5.651820      -153.7939
  78   1.0000      -5.651754      -153.7920
  79   1.0000      -5.651423      -153.7830
  80   1.0000      -2.399447       -65.2923
  81   1.0000      -1.466339       -39.9011
  82   1.0000      -1.411595       -38.4114
  83   1.0000      -1.411434       -38.4071
  84   1.0000      -0.720837       -19.6150
  85   1.0000      -0.709656       -19.3107
  86   1.0000      -0.692854       -18.8535
  87   1.0000      -0.685762       -18.6605
  88   1.0000      -0.658323       -17.9139
  89   1.0000      -0.631450       -17.1826
  90   1.0000      -0.629820       -17.1383
  91   1.0000      -0.620437       -16.8830
  92   1.0000      -0.617431       -16.8011
  93   1.0000      -0.576899       -15.6982
  94   1.0000      -0.574583       -15.6352
  95   1.0000      -0.573340       -15.6014
  96   1.0000      -0.568788       -15.4775
  97   1.0000      -0.498329       -13.5602
  98   1.0000      -0.496418       -13.5082
  99   1.0000      -0.496104       -13.4997
 100   1.0000      -0.492353       -13.3976
 101   1.0000      -0.480255       -13.0684
 102   1.0000      -0.477760       -13.0005
 103   1.0000      -0.446825       -12.1587
 104   1.0000      -0.442384       -12.0379
 105   1.0000      -0.416524       -11.3342
 106   1.0000      -0.411567       -11.1993
 107   1.0000      -0.360722        -9.8158
 108   1.0000      -0.355520        -9.6742
 109   1.0000      -0.326838        -8.8937
 110   1.0000      -0.325403        -8.8547
 111   1.0000      -0.319004        -8.6805
 112   1.0000      -0.314549        -8.5593
 113   1.0000      -0.304098        -8.2749
 114   1.0000      -0.300585        -8.1793
 115   1.0000      -0.294718        -8.0197
 116   1.0000      -0.292594        -7.9619
 117   1.0000      -0.265970        -7.2374
 118   1.0000      -0.257200        -6.9988
 119   1.0000      -0.256844        -6.9891
 120   1.0000      -0.247599        -6.7375
 121   1.0000      -0.237355        -6.4588
 122   1.0000      -0.234549        -6.3824
 123   1.0000      -0.230889        -6.2828
 124   1.0000      -0.229970        -6.2578
 125   1.0000      -0.219189        -5.9644
 126   1.0000      -0.217924        -5.9300
 127   1.0000      -0.214105        -5.8261
 128   1.0000      -0.211466        -5.7543
 129   1.0000      -0.191892        -5.2216
 130   1.0000      -0.188535        -5.1303
 131   1.0000      -0.185813        -5.0562
 132   1.0000      -0.181499        -4.9388
 133   1.0000      -0.175081        -4.7642
 134   1.0000      -0.159165        -4.3311
 135   1.0000      -0.150667        -4.0999
 136   1.0000      -0.145834        -3.9683
 137   1.0000      -0.135382        -3.6839
 138   1.0000      -0.133689        -3.6379
 139   1.0000      -0.130707        -3.5567
 140   1.0000      -0.124474        -3.3871
 141   1.0000      -0.121129        -3.2961
 142   1.0000      -0.115684        -3.1479
 143   1.0000      -0.111279        -3.0281
 144   1.0000      -0.100144        -2.7251
 145   1.0000      -0.098807        -2.6887
 146   1.0000      -0.096459        -2.6248
 147   1.0000      -0.093245        -2.5373
 148   1.0000      -0.071060        -1.9336
 149   1.0000      -0.067660        -1.8411
 150   1.0000      -0.064914        -1.7664
 151   1.0000      -0.050121        -1.3639
 152   1.0000      -0.045061        -1.2262
 153   1.0000      -0.037630        -1.0240
 154   1.0000      -0.036985        -1.0064
 155   1.0000      -0.031438        -0.8555
 156   1.0000      -0.026469        -0.7203
 157   1.0000      -0.016029        -0.4362
 158   1.0000       0.020239         0.5507
 159   1.0000       0.039652         1.0790
 160   0.0000       0.119002         3.2382
 161   0.0000       0.136732         3.7207
 162   0.0000       0.153553         4.1784
 163   0.0000       0.155702         4.2369
 164   0.0000       0.162457         4.4207

MULLIKEN ATOMIC CHARGES AND SPIN POPULATIONS
--------------------------------------------
   0 V :    0.470774    1.211072
   1 S :   -0.288592   -0.022436
   2 S :   -0.289517   -0.025307
   3 S :   -0.288718   -0.023346
   4 S :   -0.285539   -0.025762
   5 O :   -0.467335   -0.147034
   6 C :   -0.077328    0.009706
   7 C :   -0.084275    0.008068
   8 C :   -0.083422    0.007797
   9 C :   -0.085865    0.007359
  10 S :    0.099798   -0.000584
  11 S :    0.100963   -0.000629
  12 S :    0.102186   -0.000397
  13 S :    0.105269   -0.000330
  14 C :   -0.213538    0.001543
  15 C :   -0.217872    0.000967
  16 C :   -0.191546   -0.000103
  17 C :   -0.184125   -0.000370
  18 S :    0.008491   -0.000113
  19 S :    0.009946   -0.000112
  20 S :   -0.032220   -0.000072
  21 S :    0.052403   -0.000070
  22 C :   -0.293914    0.000006
  23 C :   -0.315053   -0.000016
  24 C :   -0.135640   -0.000012
  25 H :    0.130283   -0.000005
  26 H :    0.101973   -0.000004
  27 H :    0.076085   -0.000002
  28 H :    0.086607   -0.000001
  29 H :    0.117660   -0.000004
  30 H :    0.144533    0.000000
  31 C :   -0.299935    0.000194
  32 C :   -0.301055    0.000192
  33 C :   -0.157517   -0.000240
  34 H :    0.142099   -0.000018
  35 H :    0.113699    0.000019
  36 H :    0.092373    0.000023
  37 H :    0.082648    0.000015
  38 H :    0.113231    0.000021
  39 H :    0.141986   -0.000018
Sum of atomic charges         :   -2.0000000

LOEWDIN ATOMIC CHARGES AND SPIN POPULATIONS
-------------------------------------------
   0 V :   -0.155865    1.164372
   1 S :    0.081809   -0.014452
   2 S :    0.079534   -0.016145
   3 S :    0.081287   -0.015214
   4 S :    0.083286   -0.016367
   5 O :   -0.318789   -0.131923
   6 C :   -0.549897    0.009059
   7 C :   -0.552106    0.007958
   8 C :   -0.552316    0.008161
   9 C :   -0.550907    0.007657
  10 S :    0.471321   -0.000901
  11 S :    0.472284   -0.000949
  12 S :    0.476477   -0.000827
  13 S :    0.473079   -0.000818
  14 C :   -0.465044    0.000165
  15 C :   -0.465213   -0.000079
  16 C :   -0.622600    0.000467
  17 C :   -0.618392    0.000087
  18 S :    0.357871   -0.000089
  19 S :    0.361177   -0.000087
  20 S :    0.300599   -0.000074
  21 S :    0.436562   -0.000071
  22 C :   -0.371330   -0.000004
  23 C :   -0.225703   -0.000021
  24 C :   -0.178797   -0.000002
  25 H :    0.053088   -0.000003
  26 H :    0.056899   -0.000003
  27 H :    0.059716   -0.000002
  28 H :    0.058793   -0.000001
  29 H :    0.053082   -0.000002
  30 H :    0.064940   -0.000001
  31 C :   -0.285184    0.000042
  32 C :   -0.282662    0.000037
  33 C :   -0.176335    0.000007
  34 H :    0.062173   -0.000001
  35 H :    0.053531    0.000008
  36 H :    0.060264    0.000004
  37 H :    0.057821    0.000002
  38 H :    0.053627    0.000009
  39 H :    0.061922   -0.000001

  Mayer bond orders larger than 0.100000
B(  0-V ,  1-S ) :   0.7711 B(  0-V ,  2-S ) :   0.7721 B(  0-V ,  3-S ) :   0.7636
B(  0-V ,  4-S ) :   0.7792 B(  0-V ,  5-O ) :   2.1490 B(  1-S ,  8-C ) :   1.1056
B(  2-S ,  6-C ) :   1.1041 B(  3-S ,  9-C ) :   1.1083 B(  4-S ,  7-C ) :   1.1044
B(  6-C ,  7-C ) :   1.6845 B(  6-C , 10-S ) :   0.9352 B(  7-C , 11-S ) :   0.9389
B(  8-C ,  9-C ) :   1.6934 B(  8-C , 13-S ) :   0.9403 B(  9-C , 12-S ) :   0.9335
B( 10-S , 14-C ) :   1.2483 B( 11-S , 14-C ) :   1.2484 B( 12-S , 15-C ) :   1.2566
B( 13-S , 15-C ) :   1.2398 B( 14-C , 16-C ) :   1.4516 B( 15-C , 17-C ) :   1.4389
B( 16-C , 18-S ) :   1.0886 B( 16-C , 19-S ) :   1.0889 B( 17-C , 20-S ) :   1.1329
B( 17-C , 21-S ) :   1.0400 B( 18-S , 32-C ) :   0.9903 B( 19-S , 31-C ) :   0.9934
B( 20-S , 23-C ) :   0.9010 B( 21-S , 22-C ) :   1.1300 B( 22-C , 24-C ) :   0.8764
B( 22-C , 25-H ) :   0.9563 B( 22-C , 26-H ) :   0.9497 B( 23-C , 24-C ) :   0.9288
B( 23-C , 29-H ) :   0.9641 B( 23-C , 30-H ) :   0.9646 B( 24-C , 27-H ) :   0.9598
B( 24-C , 28-H ) :   0.9698 B( 31-C , 33-C ) :   0.9132 B( 31-C , 38-H ) :   0.9655
B( 31-C , 39-H ) :   0.9657 B( 32-C , 33-C ) :   0.9135 B( 32-C , 34-H ) :   0.9657
B( 32-C , 35-H ) :   0.9656 B( 33-C , 36-H ) :   0.9718 B( 33-C , 37-H ) :   0.9625

FINAL SINGLE POINT ENERGY     -6337.665009224034

DIPOLE MOMENT
-------------
                                X             Y             Z
Electronic contribution:     -8.52857      -9.35714       5.12420
Nuclear contribution   :      9.56819      10.25061      -5.76148
                        -----------------------------------------
Total Dipole Moment    :      1.03962       0.89347      -0.63728
                        -----------------------------------------
Magnitude (a.u.)       :      1.51170
Magnitude (Debye)      :      3.84243

Rotational constants in cm-1:     0.010753     0.000804     0.000783
Rotational constants in MHz :   322.375331    24.114985    23.486526

                             ****ORCA TERMINATED NORMALLY****
TOTAL RUN TIME: 0 days 1 hours 1 minutes 56 seconds 23 msec
