                         Program Version 5.0.4 -  RELEASE  -
|  1> ! nofrozencore ReducedPop printbasis
|  2> ! B3LYP TZVP
|  3>
|  4> %basis
|  5> newgto V "CP(PPP)" end
|  6> end
|  7>
|  8> %pal
|  9> nprocs 8
| 10> end
| 11>
| 12> % sym SymThresh 1e-2 end
| 13> * xyz -2 2
| 14> V 0.3812917827170386 -1.045038867015368 -0.04147590353082768
| 15> S 1.373426144837328 -0.1280472775829536 -2.1023113939949214
| 16> S 2.05391498868041 0.3284883811665327 1.1685759284349233
| 17> S -1.7633286447082297 -1.0765498645994376 -1.2978901958884546
| 18> S -1.0852346768470402 -0.6225302659660384 1.8905267241565127
| 19> O 0.88633471214126 -2.546375667122551 0.08122369071677425
| 20> C 1.4266489796277966 0.08949719385996688 2.805212750356942
| 21> C 0.07610740993664296 -0.0022094350635803424 3.061293417705405
| 22> C -0.04268162450583049 0.010839218573083901 -3.1860691553546463
| 23> C -1.1150625194529373 -1.0156276611311654 -2.9737775795169195
| 24> S 2.395104333141728 0.7390074931194441 4.176665143671808
| 25> S -0.3638060055856895 -0.07093528444133776 4.810003892688551
| 26> S -2.390503215314198 -0.7515827189196657 -4.257156684424924
| 27> S 0.34634046565000537 0.06803225606318361 -4.977432567263699
| 28> C 1.1753891974574313 0.5314360234981149 5.437650752385435
| 29> C -1.3100679379325284 -0.18751762597584418 -5.538938563852338
| 30> C 1.3953723278908903 0.7969614072163816 6.761341058687844
| 31> C -1.707462474440955 0.019689543214353344 -6.830847777125251
| 32> S 2.9792299530761492 1.3389889657093939 7.365881638607519
| 33> S 0.11667005603121262 0.5821370246443504 7.986896909999584
| 34> S -0.5870992842085598 0.6123920397123315 -8.078905134879836
| 35> S -3.3938102618452723 -0.252897336758091 -7.350846695813987
| 36> C -3.814128650799036 1.4839592627075346 -7.829562008740172
| 37> C -1.4291026344402147 2.2197328031718317 -8.455033022155027
| 38> C -2.886017728889351 2.065347091388144 -8.898398048993307
| 39> H -3.8034660021127777 2.099847339626197 -6.927448145014298
| 40> H -4.8409991148978335 1.4402488982745334 -8.201233255090564
| 41> H -3.2650670169526523 3.058422567730385 -9.177654825210709
| 42> H -2.9282803211812274 1.4373832584568802 -9.793881312003869
| 43> H -0.837658790237935 2.6807308993587107 -9.250024857256685
| 44> H -1.3575929545360221 2.8507461108543994 -7.5664045300333145
| 45> C 0.9212781400365537 -0.7422026185847116 8.998366674157749
| 46> C 3.355509426452654 -0.10343596318711193 8.465524251827109
| 47> C 2.2964261843672418 -0.34969797571609473 9.542465942115411
| 48> H 3.480221533401848 -0.9858180115857356 7.833866171412442
| 49> H 4.3194317480064415 0.12564792338875255 8.926839066175896
| 50> H 2.198194098865153 0.545092166450987 10.165211933987317
| 51> H 2.6516753667849637 -1.1622274894666365 10.19169264767045
| 52> H 0.22912162708181197 -0.9380049022031207 9.821208881212145
| 53> H 0.9882238281588567 -1.6444625622140425 8.386229883816057
| 54> *
| 55>
| 56> % eprnmr
| 57> gtensor true
| 58> Nuclei = all H {aiso,adip,aorb,fgrad,rho}
| 59> Nuclei = all V {aiso,adip,aorb,fgrad,rho}
| 60> end
| 61>
| 62>                          ****END OF INPUT****

CARTESIAN COORDINATES (ANGSTROEM)
---------------------------------
  V      0.380865   -1.041934   -0.039267
  S      1.372999   -0.124943   -2.100103
  S      2.053488    0.331593    1.170785
  S     -1.763756   -1.073445   -1.295682
  S     -1.085662   -0.619426    1.892735
  O      0.885907   -2.543271    0.083432
  C      1.426222    0.092602    2.807421
  C      0.075680    0.000895    3.063502
  C     -0.043109    0.013944   -3.183861
  C     -1.115490   -1.012523   -2.971569
  S      2.394677    0.742112    4.178874
  S     -0.364233   -0.067831    4.812212
  S     -2.390930   -0.748478   -4.254948
  S      0.345913    0.071137   -4.975224
  C      1.174962    0.534540    5.439859
  C     -1.310495   -0.184413   -5.536730
  C      1.394945    0.800066    6.763550
  C     -1.707890    0.022794   -6.828639
  S      2.978803    1.342093    7.368090
  S      0.116243    0.585241    7.989106
  S     -0.587527    0.615497   -8.076697
  S     -3.394238   -0.249793   -7.348638
  C     -3.814556    1.487064   -7.827353
  C     -1.429530    2.222837   -8.452824
  C     -2.886445    2.068452   -8.896189
  H     -3.803893    2.102952   -6.925240
  H     -4.841426    1.443353   -8.199025
  H     -3.265494    3.061527   -9.175446
  H     -2.928708    1.440488   -9.791673
  H     -0.838086    2.683835   -9.247816
  H     -1.358020    2.853851   -7.564196
  C      0.920851   -0.739098    9.000575
  C      3.355082   -0.100332    8.467733
  C      2.295999   -0.346594    9.544675
  H      3.479794   -0.982714    7.836075
  H      4.319004    0.128752    8.929048
  H      2.197767    0.548197   10.167421
  H      2.651248   -1.159123   10.193901
  H      0.228694   -0.934900    9.823417
  H      0.987797   -1.641358    8.388438

 Total Charge           Charge          ....   -2
 Multiplicity           Mult            ....    2
 Number of Electrons    NEL             ....  321
 Basis Dimension        Dim             ....  681

ORBITAL ENERGIES
----------------
                 SPIN UP ORBITALS
  NO   OCC          E(Eh)            E(eV)
   0   1.0000    -196.676968     -5351.8524
   1   1.0000     -88.733388     -2414.5583
   2   1.0000     -88.733308     -2414.5561
   3   1.0000     -88.730468     -2414.4788
   4   1.0000     -88.730331     -2414.4751
   5   1.0000     -88.730303     -2414.4743
   6   1.0000     -88.729859     -2414.4622
   7   1.0000     -88.724458     -2414.3152
   8   1.0000     -88.722693     -2414.2672
   9   1.0000     -88.646937     -2412.2058
  10   1.0000     -88.644679     -2412.1444
  11   1.0000     -88.643726     -2412.1184
  12   1.0000     -88.641961     -2412.0704
  13   1.0000     -22.052233      -600.0718
  14   1.0000     -18.893426      -514.1163
  15   1.0000     -18.558797      -505.0105
  16   1.0000     -18.553476      -504.8657
  17   1.0000     -18.553338      -504.8620
  18   1.0000     -10.075960      -274.1808
  19   1.0000     -10.071526      -274.0602
  20   1.0000     -10.063823      -273.8506
  21   1.0000     -10.063580      -273.8439
  22   1.0000     -10.061456      -273.7861
  23   1.0000     -10.060993      -273.7735
  24   1.0000     -10.051529      -273.5160
  25   1.0000     -10.049155      -273.4514
  26   1.0000     -10.048740      -273.4401
  27   1.0000     -10.046346      -273.3750
  28   1.0000     -10.037399      -273.1315
  29   1.0000     -10.035345      -273.0756
  30   1.0000     -10.024430      -272.7786
  31   1.0000     -10.022608      -272.7290
  32   1.0000      -7.786845      -211.8908
  33   1.0000      -7.786774      -211.8889
  34   1.0000      -7.783998      -211.8133
  35   1.0000      -7.783813      -211.8083
  36   1.0000      -7.783464      -211.7988
  37   1.0000      -7.783134      -211.7898
  38   1.0000      -7.777457      -211.6354
  39   1.0000      -7.775793      -211.5901
  40   1.0000      -7.700819      -209.5499
  41   1.0000      -7.698323      -209.4820
  42   1.0000      -7.697985      -209.4728
  43   1.0000      -7.695986      -209.4184
  44   1.0000      -5.751830      -156.5153
  45   1.0000      -5.751777      -156.5138
  46   1.0000      -5.749008      -156.4385
  47   1.0000      -5.748799      -156.4328
  48   1.0000      -5.748428      -156.4227
  49   1.0000      -5.748347      -156.4205
  50   1.0000      -5.748343      -156.4204
  51   1.0000      -5.748034      -156.4119
  52   1.0000      -5.745554      -156.3445
  53   1.0000      -5.745405      -156.3404
  54   1.0000      -5.744096      -156.3048
  55   1.0000      -5.743673      -156.2933
  56   1.0000      -5.742190      -156.2529
  57   1.0000      -5.741627      -156.2376
  58   1.0000      -5.741558      -156.2357
  59   1.0000      -5.740547      -156.2082
  60   1.0000      -5.739242      -156.1727
  61   1.0000      -5.738973      -156.1654
  62   1.0000      -5.738773      -156.1600
  63   1.0000      -5.738584      -156.1548
  64   1.0000      -5.738276      -156.1464
  65   1.0000      -5.736562      -156.0998
  66   1.0000      -5.733223      -156.0089
  67   1.0000      -5.731557      -155.9636
  68   1.0000      -5.665996      -154.1796
  69   1.0000      -5.663603      -154.1145
  70   1.0000      -5.663253      -154.1050
  71   1.0000      -5.661369      -154.0537
  72   1.0000      -5.659397      -154.0000
  73   1.0000      -5.658446      -153.9741
  74   1.0000      -5.657041      -153.9359
  75   1.0000      -5.656570      -153.9231
  76   1.0000      -5.655692      -153.8992
  77   1.0000      -5.655405      -153.8914
  78   1.0000      -5.654713      -153.8726
  79   1.0000      -5.653221      -153.8320
  80   1.0000      -2.446004       -66.5592
  81   1.0000      -1.487572       -40.4789
  82   1.0000      -1.475662       -40.1548
  83   1.0000      -1.474658       -40.1275
  84   1.0000      -0.709384       -19.3033
  85   1.0000      -0.704748       -19.1772
  86   1.0000      -0.685027       -18.6405
  87   1.0000      -0.677573       -18.4377
  88   1.0000      -0.652916       -17.7667
  89   1.0000      -0.630776       -17.1643
  90   1.0000      -0.623474       -16.9656
  91   1.0000      -0.617505       -16.8032
  92   1.0000      -0.614773       -16.7288
  93   1.0000      -0.574030       -15.6201
  94   1.0000      -0.572628       -15.5820
  95   1.0000      -0.566106       -15.4045
  96   1.0000      -0.563899       -15.3445
  97   1.0000      -0.496779       -13.5181
  98   1.0000      -0.496027       -13.4976
  99   1.0000      -0.493536       -13.4298
 100   1.0000      -0.491045       -13.3620
 101   1.0000      -0.479858       -13.0576
 102   1.0000      -0.475531       -12.9398
 103   1.0000      -0.446397       -12.1471
 104   1.0000      -0.441635       -12.0175
 105   1.0000      -0.410593       -11.1728
 106   1.0000      -0.391734       -10.6596
 107   1.0000      -0.354942        -9.6585
 108   1.0000      -0.349246        -9.5035
 109   1.0000      -0.326548        -8.8858
 110   1.0000      -0.322196        -8.7674
 111   1.0000      -0.318988        -8.6801
 112   1.0000      -0.313177        -8.5220
 113   1.0000      -0.303470        -8.2578
 114   1.0000      -0.296410        -8.0657
 115   1.0000      -0.292780        -7.9670
 116   1.0000      -0.290328        -7.9002
 117   1.0000      -0.258227        -7.0267
 118   1.0000      -0.257311        -7.0018
 119   1.0000      -0.255793        -6.9605
 120   1.0000      -0.253306        -6.8928
 121   1.0000      -0.234623        -6.3844
 122   1.0000      -0.231798        -6.3075
 123   1.0000      -0.231311        -6.2943
 124   1.0000      -0.229087        -6.2338
 125   1.0000      -0.217322        -5.9136
 126   1.0000      -0.213456        -5.8084
 127   1.0000      -0.212266        -5.7761
 128   1.0000      -0.200127        -5.4457
 129   1.0000      -0.189210        -5.1487
 130   1.0000      -0.187477        -5.1015
 131   1.0000      -0.183879        -5.0036
 132   1.0000      -0.182026        -4.9532
 133   1.0000      -0.174665        -4.7529
 134   1.0000      -0.155212        -4.2235
 135   1.0000      -0.151852        -4.1321
 136   1.0000      -0.147525        -4.0144
 137   1.0000      -0.136060        -3.7024
 138   1.0000      -0.131200        -3.5701
 139   1.0000      -0.129997        -3.5374
 140   1.0000      -0.125161        -3.4058
 141   1.0000      -0.118710        -3.2303
 142   1.0000      -0.115204        -3.1349
 143   1.0000      -0.111124        -3.0238
 144   1.0000      -0.100807        -2.7431
 145   1.0000      -0.096287        -2.6201
 146   1.0000      -0.093490        -2.5440
 147   1.0000      -0.091151        -2.4804
 148   1.0000      -0.069595        -1.8938
 149   1.0000      -0.067640        -1.8406
 150   1.0000      -0.064476        -1.7545
 151   1.0000      -0.054504        -1.4831
 152   1.0000      -0.044277        -1.2048
 153   1.0000      -0.039748        -1.0816
 154   1.0000      -0.036406        -0.9907
 155   1.0000      -0.031085        -0.8459
 156   1.0000      -0.026905        -0.7321
 157   1.0000      -0.023082        -0.6281
 158   1.0000      -0.011574        -0.3150
 159   1.0000       0.018754         0.5103
 160   1.0000       0.037485         1.0200
 161   0.0000       0.133080         3.6213
 162   0.0000       0.136461         3.7133
 163   0.0000       0.139391         3.7930
 164   0.0000       0.160406         4.3649
 165   0.0000       0.167191         4.5495

                 SPIN DOWN ORBITALS
  NO   OCC          E(Eh)            E(eV)
   0   1.0000    -196.677114     -5351.8564
   1   1.0000     -88.733389     -2414.5583
   2   1.0000     -88.733309     -2414.5561
   3   1.0000     -88.730469     -2414.4788
   4   1.0000     -88.730332     -2414.4751
   5   1.0000     -88.730313     -2414.4746
   6   1.0000     -88.729866     -2414.4624
   7   1.0000     -88.724464     -2414.3154
   8   1.0000     -88.722707     -2414.2676
   9   1.0000     -88.647032     -2412.2084
  10   1.0000     -88.644835     -2412.1486
  11   1.0000     -88.643878     -2412.1225
  12   1.0000     -88.642085     -2412.0738
  13   1.0000     -22.037357      -599.6670
  14   1.0000     -18.897109      -514.2165
  15   1.0000     -18.553589      -504.8688
  16   1.0000     -18.537475      -504.4303
  17   1.0000     -18.537267      -504.4247
  18   1.0000     -10.075954      -274.1807
  19   1.0000     -10.071514      -274.0598
  20   1.0000     -10.063822      -273.8505
  21   1.0000     -10.063579      -273.8439
  22   1.0000     -10.061456      -273.7861
  23   1.0000     -10.060993      -273.7735
  24   1.0000     -10.051529      -273.5160
  25   1.0000     -10.049155      -273.4514
  26   1.0000     -10.048727      -273.4398
  27   1.0000     -10.046341      -273.3748
  28   1.0000     -10.037091      -273.1231
  29   1.0000     -10.035238      -273.0727
  30   1.0000     -10.024232      -272.7732
  31   1.0000     -10.022361      -272.7223
  32   1.0000      -7.786845      -211.8908
  33   1.0000      -7.786775      -211.8889
  34   1.0000      -7.783998      -211.8134
  35   1.0000      -7.783814      -211.8083
  36   1.0000      -7.783475      -211.7991
  37   1.0000      -7.783143      -211.7901
  38   1.0000      -7.777464      -211.6356
  39   1.0000      -7.775809      -211.5905
  40   1.0000      -7.700907      -209.5523
  41   1.0000      -7.698470      -209.4860
  42   1.0000      -7.698125      -209.4766
  43   1.0000      -7.696104      -209.4216
  44   1.0000      -5.751832      -156.5153
  45   1.0000      -5.751778      -156.5138
  46   1.0000      -5.749009      -156.4385
  47   1.0000      -5.748799      -156.4328
  48   1.0000      -5.748430      -156.4227
  49   1.0000      -5.748361      -156.4209
  50   1.0000      -5.748344      -156.4204
  51   1.0000      -5.748043      -156.4122
  52   1.0000      -5.745555      -156.3445
  53   1.0000      -5.745406      -156.3404
  54   1.0000      -5.744112      -156.3052
  55   1.0000      -5.743685      -156.2936
  56   1.0000      -5.742202      -156.2533
  57   1.0000      -5.741628      -156.2376
  58   1.0000      -5.741559      -156.2358
  59   1.0000      -5.740566      -156.2087
  60   1.0000      -5.739252      -156.1730
  61   1.0000      -5.738980      -156.1656
  62   1.0000      -5.738774      -156.1600
  63   1.0000      -5.738585      -156.1548
  64   1.0000      -5.738290      -156.1468
  65   1.0000      -5.736584      -156.1004
  66   1.0000      -5.733221      -156.0089
  67   1.0000      -5.731574      -155.9641
  68   1.0000      -5.666108      -154.1826
  69   1.0000      -5.663753      -154.1185
  70   1.0000      -5.663402      -154.1090
  71   1.0000      -5.661493      -154.0570
  72   1.0000      -5.659725      -154.0089
  73   1.0000      -5.658423      -153.9735
  74   1.0000      -5.657433      -153.9466
  75   1.0000      -5.656952      -153.9335
  76   1.0000      -5.655827      -153.9029
  77   1.0000      -5.655538      -153.8950
  78   1.0000      -5.655093      -153.8829
  79   1.0000      -5.653258      -153.8330
  80   1.0000      -2.401333       -65.3436
  81   1.0000      -1.468525       -39.9606
  82   1.0000      -1.413690       -38.4684
  83   1.0000      -1.412959       -38.4486
  84   1.0000      -0.709361       -19.3027
  85   1.0000      -0.704737       -19.1769
  86   1.0000      -0.684973       -18.6391
  87   1.0000      -0.677523       -18.4363
  88   1.0000      -0.660796       -17.9812
  89   1.0000      -0.630700       -17.1622
  90   1.0000      -0.623394       -16.9634
  91   1.0000      -0.617505       -16.8032
  92   1.0000      -0.614774       -16.7289
  93   1.0000      -0.574000       -15.6193
  94   1.0000      -0.572548       -15.5798
  95   1.0000      -0.566064       -15.4034
  96   1.0000      -0.563790       -15.3415
  97   1.0000      -0.496826       -13.5193
  98   1.0000      -0.496047       -13.4981
  99   1.0000      -0.493555       -13.4303
 100   1.0000      -0.491073       -13.3628
 101   1.0000      -0.480052       -13.0629
 102   1.0000      -0.475731       -12.9453
 103   1.0000      -0.446420       -12.1477
 104   1.0000      -0.441661       -12.0182
 105   1.0000      -0.410619       -11.1735
 106   1.0000      -0.391754       -10.6602
 107   1.0000      -0.354934        -9.6583
 108   1.0000      -0.349240        -9.5033
 109   1.0000      -0.326534        -8.8855
 110   1.0000      -0.322189        -8.7672
 111   1.0000      -0.318898        -8.6777
 112   1.0000      -0.313157        -8.5214
 113   1.0000      -0.303429        -8.2567
 114   1.0000      -0.296373        -8.0647
 115   1.0000      -0.292774        -7.9668
 116   1.0000      -0.290321        -7.9000
 117   1.0000      -0.258156        -7.0248
 118   1.0000      -0.257189        -6.9985
 119   1.0000      -0.255738        -6.9590
 120   1.0000      -0.253249        -6.8913
 121   1.0000      -0.234602        -6.3838
 122   1.0000      -0.231777        -6.3070
 123   1.0000      -0.231268        -6.2931
 124   1.0000      -0.229048        -6.2327
 125   1.0000      -0.217119        -5.9081
 126   1.0000      -0.213093        -5.7986
 127   1.0000      -0.212222        -5.7748
 128   1.0000      -0.199473        -5.4279
 129   1.0000      -0.188855        -5.1390
 130   1.0000      -0.187347        -5.0980
 131   1.0000      -0.182647        -4.9701
 132   1.0000      -0.181732        -4.9452
 133   1.0000      -0.174477        -4.7478
 134   1.0000      -0.154627        -4.2076
 135   1.0000      -0.151680        -4.1274
 136   1.0000      -0.147375        -4.0103
 137   1.0000      -0.135301        -3.6817
 138   1.0000      -0.130595        -3.5537
 139   1.0000      -0.129744        -3.5305
 140   1.0000      -0.125166        -3.4059
 141   1.0000      -0.118776        -3.2320
 142   1.0000      -0.116641        -3.1740
 143   1.0000      -0.112650        -3.0654
 144   1.0000      -0.100700        -2.7402
 145   1.0000      -0.096160        -2.6167
 146   1.0000      -0.093768        -2.5516
 147   1.0000      -0.090835        -2.4718
 148   1.0000      -0.067921        -1.8482
 149   1.0000      -0.066566        -1.8113
 150   1.0000      -0.063695        -1.7332
 151   1.0000      -0.051904        -1.4124
 152   1.0000      -0.043419        -1.1815
 153   1.0000      -0.039153        -1.0654
 154   1.0000      -0.036495        -0.9931
 155   1.0000      -0.028948        -0.7877
 156   1.0000      -0.026511        -0.7214
 157   1.0000      -0.018028        -0.4906
 158   1.0000       0.019043         0.5182
 159   1.0000       0.036558         0.9948
 160   0.0000       0.133214         3.6249
 161   0.0000       0.136469         3.7135
 162   0.0000       0.139410         3.7935
 163   0.0000       0.154786         4.2119
 164   0.0000       0.161893         4.4053

MULLIKEN ATOMIC CHARGES AND SPIN POPULATIONS
--------------------------------------------
   0 V :    0.474751    1.204153
   1 S :   -0.265825   -0.017731
   2 S :   -0.293299   -0.023952
   3 S :   -0.282791   -0.028618
   4 S :   -0.272167   -0.026567
   5 O :   -0.467550   -0.144225
   6 C :   -0.051748    0.010010
   7 C :   -0.108045    0.008173
   8 C :   -0.096673    0.013805
   9 C :   -0.063533    0.005260
  10 S :    0.094623   -0.000346
  11 S :    0.094102   -0.001074
  12 S :    0.071804   -0.001448
  13 S :    0.069775   -0.000541
  14 C :   -0.203801    0.001357
  15 C :   -0.180218    0.002375
  16 C :   -0.194878    0.000098
  17 C :   -0.215597   -0.000509
  18 S :    0.009033   -0.000118
  19 S :    0.009771   -0.000122
  20 S :    0.008613   -0.000079
  21 S :    0.009008   -0.000022
  22 C :   -0.297736   -0.000021
  23 C :   -0.298148    0.000012
  24 C :   -0.161857   -0.000022
  25 H :    0.142342    0.000011
  26 H :    0.113544   -0.000001
  27 H :    0.082081   -0.000002
  28 H :    0.091481   -0.000000
  29 H :    0.112020   -0.000006
  30 H :    0.142844   -0.000004
  31 C :   -0.297573    0.000159
  32 C :   -0.299670    0.000141
  33 C :   -0.160127   -0.000181
  34 H :    0.141942   -0.000015
  35 H :    0.113383    0.000019
  36 H :    0.092416    0.000021
  37 H :    0.082849    0.000009
  38 H :    0.113537    0.000012
  39 H :    0.141320   -0.000010
Sum of atomic charges         :   -2.0000000

LOEWDIN ATOMIC CHARGES AND SPIN POPULATIONS
-------------------------------------------
   0 V :   -0.167581    1.157892
   1 S :    0.095844   -0.009004
   2 S :    0.075957   -0.014239
   3 S :    0.078277   -0.018696
   4 S :    0.090196   -0.017923
   5 O :   -0.316965   -0.129365
   6 C :   -0.547168    0.009219
   7 C :   -0.543859    0.007519
   8 C :   -0.527746    0.013629
   9 C :   -0.530124    0.004012
  10 S :    0.469561   -0.000759
  11 S :    0.465202   -0.001096
  12 S :    0.444069   -0.001614
  13 S :    0.443329   -0.000435
  14 C :   -0.465927    0.000160
  15 C :   -0.468741    0.000368
  16 C :   -0.622022    0.000499
  17 C :   -0.618592    0.000092
  18 S :    0.359454   -0.000085
  19 S :    0.359769   -0.000095
  20 S :    0.359009   -0.000093
  21 S :    0.358180   -0.000051
  22 C :   -0.283984   -0.000006
  23 C :   -0.283242   -0.000020
  24 C :   -0.176456   -0.000001
  25 H :    0.062023    0.000002
  26 H :    0.053607   -0.000002
  27 H :    0.057368   -0.000003
  28 H :    0.059938   -0.000001
  29 H :    0.053101   -0.000002
  30 H :    0.062345   -0.000003
  31 C :   -0.284185    0.000041
  32 C :   -0.283487    0.000035
  33 C :   -0.176387    0.000006
  34 H :    0.062203   -0.000002
  35 H :    0.053494    0.000009
  36 H :    0.060284    0.000004
  37 H :    0.057791    0.000001
  38 H :    0.053724    0.000005
  39 H :    0.061743    0.000000

  Mayer bond orders larger than 0.100000
B(  0-V ,  1-S ) :   0.7664 B(  0-V ,  2-S ) :   0.7803 B(  0-V ,  3-S ) :   0.7591
B(  0-V ,  4-S ) :   0.7825 B(  0-V ,  5-O ) :   2.1448 B(  1-S ,  8-C ) :   1.1027
B(  2-S ,  6-C ) :   1.0443 B(  3-S ,  9-C ) :   1.0626 B(  4-S ,  7-C ) :   1.1322
B(  6-C ,  7-C ) :   1.6498 B(  6-C , 10-S ) :   0.9355 B(  7-C , 11-S ) :   0.9234
B(  8-C ,  9-C ) :   1.5227 B(  8-C , 13-S ) :   0.8988 B(  9-C , 12-S ) :   0.9016
B( 10-S , 14-C ) :   1.2451 B( 11-S , 14-C ) :   1.2417 B( 12-S , 15-C ) :   1.2330
B( 13-S , 15-C ) :   1.2277 B( 14-C , 16-C ) :   1.4624 B( 15-C , 17-C ) :   1.5005
B( 16-C , 18-S ) :   1.0829 B( 16-C , 19-S ) :   1.0916 B( 17-C , 20-S ) :   1.0842
B( 17-C , 21-S ) :   1.0876 B( 18-S , 32-C ) :   0.9909 B( 19-S , 31-C ) :   0.9924
B( 20-S , 23-C ) :   0.9898 B( 21-S , 22-C ) :   0.9942 B( 22-C , 24-C ) :   0.9132
B( 22-C , 25-H ) :   0.9659 B( 22-C , 26-H ) :   0.9664 B( 23-C , 24-C ) :   0.9140
B( 23-C , 29-H ) :   0.9651 B( 23-C , 30-H ) :   0.9663 B( 24-C , 27-H ) :   0.9623
B( 24-C , 28-H ) :   0.9714 B( 31-C , 33-C ) :   0.9140 B( 31-C , 38-H ) :   0.9659
B( 31-C , 39-H ) :   0.9660 B( 32-C , 33-C ) :   0.9134 B( 32-C , 34-H ) :   0.9657
B( 32-C , 35-H ) :   0.9654 B( 33-C , 36-H ) :   0.9716 B( 33-C , 37-H ) :   0.9624

FINAL SINGLE POINT ENERGY     -6337.643163164458

DIPOLE MOMENT
-------------
                                X             Y             Z
Electronic contribution:      4.34533     -12.33730      -3.69227
Nuclear contribution   :     -4.71372      13.71131       4.36202
                        -----------------------------------------
Total Dipole Moment    :     -0.36838       1.37401       0.66975
                        -----------------------------------------
Magnitude (a.u.)       :      1.57231
Magnitude (Debye)      :      3.99650

Rotational constants in cm-1:     0.010739     0.000804     0.000783
Rotational constants in MHz :   321.956404    24.112372    23.486761

                             ****ORCA TERMINATED NORMALLY****
TOTAL RUN TIME: 0 days 1 hours 1 minutes 27 seconds 697 msec
