                         Program Version 5.0.4 -  RELEASE  -
|  1> ! nofrozencore ReducedPop printbasis
|  2> ! B3LYP TZVP
|  3>
|  4> %basis
|  5> newgto V "CP(PPP)" end
|  6> end
|  7>
|  8> %pal
|  9> nprocs 8
| 10> end
| 11>
| 12> % sym SymThresh 1e-2 end
| 13> * xyz -2 2
| 14> V 0.600845800935843 -0.7654569514096906 -0.5414828739206333
| 15> S 0.3416852921153715 0.9447869527500441 -2.2866680250336557
| 16> S 2.1737786213200665 0.7430365751726778 0.5981610113234466
| 17> S -1.7740778980082497 -1.358621089867286 -1.0201053936076698
| 18> S -0.08515567181446565 -1.4672980390714268 1.7398280032278977
| 19> O 1.4873258607555213 -1.940717286735892 -1.1397310665531268
| 20> C 2.4189156944633234 0.14352000891189953 2.1545302019969332
| 21> C 1.456457821718122 -0.7455869674304096 2.4979738820249957
| 22> C -1.0727211867541437 0.7640071916459688 -3.140995764414212
| 23> C -1.8063620440898511 -0.1938186278163935 -2.514018384212197
| 24> S 3.534067757156428 0.49118359158156194 3.231484741508518
| 25> S 1.6122903644541495 -1.437660436985351 4.369637169993911
| 26> S -3.6506697045038914 -0.5175869480296676 -3.4120459119274473
| 27> S -1.669629755654697 1.441779873930398 -4.3811391290447155
| 28> C 3.010080899965049 -0.5123223745871633 4.702408799584418
| 29> C -3.364817984454553 0.6821349621559079 -4.550147683359382
| 30> C 3.710477454578687 -0.48485539505187175 5.880373492634915
| 31> C -4.2218480519492605 1.108429524422455 -5.5318698809555205
| 32> S 5.186068582056209 0.4497185412066141 6.150231986453315
| 33> S 3.118946698480884 -1.47308694131723 7.219411492428924
| 34> S -3.8920947395638885 2.381800840787648 -6.724606767128346
| 35> S -5.8285709365078535 0.34560696914877603 -5.606614824432989
| 36> C -6.855408371691829 1.8520743296219675 -5.256706948231652
| 37> C -5.2024525394969094 3.5785950497951124 -6.210919554614846
| 38> C -6.617960584392173 2.997314690956086 -6.2453806806812375
| 39> H -6.642974751204509 2.172807949604135 -4.234272404650116
| 40> H -7.894858292238198 1.51785813335861 -5.301266463673362
| 41> H -7.3235052876940125 3.806401147828848 -6.009940793761455
| 42> H -6.843906103361433 2.653526052918241 -7.259662933304635
| 43> H -5.119569380030505 4.413932044598242 -6.9108396001537225
| 44> H -4.955287704144814 3.944392673507761 -5.211934412300631
| 45> C 4.581122326425924 -2.603176967418945 7.390946613957879
| 46> C 6.338009276286961 -0.9624543972260904 6.467007870387864
| 47> C 5.902099265248681 -1.8634608257445588 7.6268753606883735
| 48> H 6.432803398001218 -1.5368830137977505 5.542776880699145
| 49> H 7.305634349592422 -0.5038743158395294 6.685739801765289
| 50> H 5.827184221836785 -1.2659281010115675 8.540910878003626
| 51> H 6.689467465267148 -2.6126098952285908 7.789957470249435
| 52> H 4.352402578974618 -3.2593875643956216 8.234244296695312
| 53> H 4.637731722347136 -3.214127333727917 6.487044806796631
| 54> *
| 55>
| 56> % eprnmr
| 57> gtensor true
| 58> Nuclei = all H {aiso,adip,aorb,fgrad,rho}
| 59> Nuclei = all V {aiso,adip,aorb,fgrad,rho}
| 60> end
| 61>
| 62>                          ****END OF INPUT****

CARTESIAN COORDINATES (ANGSTROEM)
---------------------------------
  V      0.600523   -0.763430   -0.538245
  S      0.341362    0.946814   -2.283430
  S      2.173455    0.745064    0.601399
  S     -1.774401   -1.356594   -1.016867
  S     -0.085479   -1.465271    1.743066
  O      1.487003   -1.938690   -1.136493
  C      2.418593    0.145547    2.157768
  C      1.456135   -0.743560    2.501212
  C     -1.073044    0.766034   -3.137758
  C     -1.806685   -0.191791   -2.510780
  S      3.533745    0.493211    3.234723
  S      1.611967   -1.435633    4.372875
  S     -3.650993   -0.515560   -3.408808
  S     -1.669953    1.443807   -4.377901
  C      3.009758   -0.510295    4.705647
  C     -3.365141    0.684162   -4.546910
  C      3.710154   -0.482828    5.883612
  C     -4.222171    1.110457   -5.528632
  S      5.185745    0.451746    6.153470
  S      3.118624   -1.471060    7.222650
  S     -3.892418    2.383828   -6.721369
  S     -5.828894    0.347634   -5.603377
  C     -6.855732    1.854101   -5.253469
  C     -5.202776    3.580622   -6.207681
  C     -6.618284    2.999342   -6.242143
  H     -6.643298    2.174835   -4.231034
  H     -7.895181    1.519885   -5.298028
  H     -7.323828    3.808428   -6.006703
  H     -6.844229    2.655553   -7.256425
  H     -5.119893    4.415959   -6.907602
  H     -4.955611    3.946420   -5.208696
  C      4.580799   -2.601150    7.394185
  C      6.337686   -0.960427    6.470246
  C      5.901776   -1.861434    7.630113
  H      6.432480   -1.534856    5.546015
  H      7.305311   -0.501847    6.688978
  H      5.826861   -1.263901    8.544149
  H      6.689144   -2.610583    7.793196
  H      4.352079   -3.257360    8.237482
  H      4.637409   -3.212100    6.490283

 Total Charge           Charge          ....   -2
 Multiplicity           Mult            ....    2
 Number of Electrons    NEL             ....  321
 Basis Dimension        Dim             ....  681

ORBITAL ENERGIES
----------------
                 SPIN UP ORBITALS
  NO   OCC          E(Eh)            E(eV)
   0   1.0000    -196.679799     -5351.9294
   1   1.0000     -88.733011     -2414.5480
   2   1.0000     -88.731158     -2414.4975
   3   1.0000     -88.731002     -2414.4933
   4   1.0000     -88.728080     -2414.4138
   5   1.0000     -88.727540     -2414.3991
   6   1.0000     -88.722963     -2414.2746
   7   1.0000     -88.721691     -2414.2399
   8   1.0000     -88.713895     -2414.0278
   9   1.0000     -88.652730     -2412.3634
  10   1.0000     -88.650499     -2412.3027
  11   1.0000     -88.644187     -2412.1310
  12   1.0000     -88.642040     -2412.0725
  13   1.0000     -22.054719      -600.1394
  14   1.0000     -18.894829      -514.1544
  15   1.0000     -18.561279      -505.0781
  16   1.0000     -18.555989      -504.9341
  17   1.0000     -18.555877      -504.9311
  18   1.0000     -10.076547      -274.1968
  19   1.0000     -10.073386      -274.1108
  20   1.0000     -10.062934      -273.8263
  21   1.0000     -10.062542      -273.8157
  22   1.0000     -10.060423      -273.7580
  23   1.0000     -10.060045      -273.7477
  24   1.0000     -10.050930      -273.4997
  25   1.0000     -10.048428      -273.4316
  26   1.0000     -10.046429      -273.3772
  27   1.0000     -10.044155      -273.3154
  28   1.0000     -10.033549      -273.0267
  29   1.0000     -10.030119      -272.9334
  30   1.0000     -10.016877      -272.5731
  31   1.0000     -10.016656      -272.5671
  32   1.0000      -7.786605      -211.8843
  33   1.0000      -7.784814      -211.8355
  34   1.0000      -7.784697      -211.8324
  35   1.0000      -7.784540      -211.8281
  36   1.0000      -7.782433      -211.7708
  37   1.0000      -7.781670      -211.7500
  38   1.0000      -7.774396      -211.5521
  39   1.0000      -7.767354      -211.3604
  40   1.0000      -7.703765      -209.6301
  41   1.0000      -7.702118      -209.5853
  42   1.0000      -7.701579      -209.5706
  43   1.0000      -7.698644      -209.4907
  44   1.0000      -5.751608      -156.5092
  45   1.0000      -5.749772      -156.4592
  46   1.0000      -5.749574      -156.4539
  47   1.0000      -5.749457      -156.4507
  48   1.0000      -5.748172      -156.4157
  49   1.0000      -5.746941      -156.3822
  50   1.0000      -5.746643      -156.3741
  51   1.0000      -5.746313      -156.3651
  52   1.0000      -5.746115      -156.3597
  53   1.0000      -5.744751      -156.3226
  54   1.0000      -5.743204      -156.2805
  55   1.0000      -5.742308      -156.2561
  56   1.0000      -5.741365      -156.2305
  57   1.0000      -5.740281      -156.2010
  58   1.0000      -5.739631      -156.1833
  59   1.0000      -5.739316      -156.1747
  60   1.0000      -5.738736      -156.1590
  61   1.0000      -5.737908      -156.1364
  62   1.0000      -5.736489      -156.0978
  63   1.0000      -5.735095      -156.0599
  64   1.0000      -5.731346      -155.9579
  65   1.0000      -5.730765      -155.9420
  66   1.0000      -5.728006      -155.8670
  67   1.0000      -5.723986      -155.7576
  68   1.0000      -5.669978      -154.2880
  69   1.0000      -5.668073      -154.2361
  70   1.0000      -5.666912      -154.2045
  71   1.0000      -5.663976      -154.1246
  72   1.0000      -5.662562      -154.0861
  73   1.0000      -5.660920      -154.0415
  74   1.0000      -5.660619      -154.0333
  75   1.0000      -5.659921      -154.0143
  76   1.0000      -5.659136      -153.9929
  77   1.0000      -5.658465      -153.9747
  78   1.0000      -5.657007      -153.9350
  79   1.0000      -5.655711      -153.8997
  80   1.0000      -2.448566       -66.6289
  81   1.0000      -1.490143       -40.5489
  82   1.0000      -1.478138       -40.2222
  83   1.0000      -1.477449       -40.2034
  84   1.0000      -0.717095       -19.5132
  85   1.0000      -0.713107       -19.4046
  86   1.0000      -0.694210       -18.8904
  87   1.0000      -0.692791       -18.8518
  88   1.0000      -0.654209       -17.8019
  89   1.0000      -0.645887       -17.5755
  90   1.0000      -0.643483       -17.5101
  91   1.0000      -0.616757       -16.7828
  92   1.0000      -0.613876       -16.7044
  93   1.0000      -0.588897       -16.0247
  94   1.0000      -0.588376       -16.0105
  95   1.0000      -0.558985       -15.2108
  96   1.0000      -0.557413       -15.1680
  97   1.0000      -0.502911       -13.6849
  98   1.0000      -0.501689       -13.6517
  99   1.0000      -0.494576       -13.4581
 100   1.0000      -0.491022       -13.3614
 101   1.0000      -0.478545       -13.0219
 102   1.0000      -0.474859       -12.9216
 103   1.0000      -0.445385       -12.1196
 104   1.0000      -0.441526       -12.0145
 105   1.0000      -0.418204       -11.3799
 106   1.0000      -0.412356       -11.2208
 107   1.0000      -0.359182        -9.7739
 108   1.0000      -0.358438        -9.7536
 109   1.0000      -0.335631        -9.1330
 110   1.0000      -0.334214        -9.0944
 111   1.0000      -0.317754        -8.6465
 112   1.0000      -0.315592        -8.5877
 113   1.0000      -0.295245        -8.0340
 114   1.0000      -0.291302        -7.9267
 115   1.0000      -0.289741        -7.8842
 116   1.0000      -0.284927        -7.7533
 117   1.0000      -0.258403        -7.0315
 118   1.0000      -0.255715        -6.9584
 119   1.0000      -0.254403        -6.9226
 120   1.0000      -0.250900        -6.8273
 121   1.0000      -0.234549        -6.3824
 122   1.0000      -0.232860        -6.3364
 123   1.0000      -0.231021        -6.2864
 124   1.0000      -0.228066        -6.2060
 125   1.0000      -0.223041        -6.0693
 126   1.0000      -0.218150        -5.9362
 127   1.0000      -0.216906        -5.9023
 128   1.0000      -0.213393        -5.8067
 129   1.0000      -0.197351        -5.3702
 130   1.0000      -0.193932        -5.2771
 131   1.0000      -0.192005        -5.2247
 132   1.0000      -0.181967        -4.9516
 133   1.0000      -0.179046        -4.8721
 134   1.0000      -0.169891        -4.6230
 135   1.0000      -0.152615        -4.1529
 136   1.0000      -0.147321        -4.0088
 137   1.0000      -0.144856        -3.9417
 138   1.0000      -0.143301        -3.8994
 139   1.0000      -0.131223        -3.5708
 140   1.0000      -0.122867        -3.3434
 141   1.0000      -0.117066        -3.1855
 142   1.0000      -0.115974        -3.1558
 143   1.0000      -0.111542        -3.0352
 144   1.0000      -0.100144        -2.7250
 145   1.0000      -0.097314        -2.6480
 146   1.0000      -0.086857        -2.3635
 147   1.0000      -0.080400        -2.1878
 148   1.0000      -0.074167        -2.0182
 149   1.0000      -0.066898        -1.8204
 150   1.0000      -0.062390        -1.6977
 151   1.0000      -0.053815        -1.4644
 152   1.0000      -0.042478        -1.1559
 153   1.0000      -0.038474        -1.0469
 154   1.0000      -0.036716        -0.9991
 155   1.0000      -0.031082        -0.8458
 156   1.0000      -0.026916        -0.7324
 157   1.0000      -0.018935        -0.5152
 158   1.0000      -0.016667        -0.4535
 159   1.0000       0.020455         0.5566
 160   1.0000       0.039550         1.0762
 161   0.0000       0.137031         3.7288
 162   0.0000       0.139807         3.8043
 163   0.0000       0.154627         4.2076
 164   0.0000       0.158582         4.3152
 165   0.0000       0.165058         4.4915

                 SPIN DOWN ORBITALS
  NO   OCC          E(Eh)            E(eV)
   0   1.0000    -196.679938     -5351.9332
   1   1.0000     -88.733012     -2414.5480
   2   1.0000     -88.731158     -2414.4976
   3   1.0000     -88.731002     -2414.4933
   4   1.0000     -88.728079     -2414.4138
   5   1.0000     -88.727549     -2414.3994
   6   1.0000     -88.722973     -2414.2748
   7   1.0000     -88.721695     -2414.2401
   8   1.0000     -88.713897     -2414.0279
   9   1.0000     -88.652903     -2412.3681
  10   1.0000     -88.650669     -2412.3073
  11   1.0000     -88.644283     -2412.1336
  12   1.0000     -88.642149     -2412.0755
  13   1.0000     -22.039796      -599.7333
  14   1.0000     -18.898608      -514.2573
  15   1.0000     -18.555991      -504.9342
  16   1.0000     -18.540039      -504.5001
  17   1.0000     -18.539708      -504.4911
  18   1.0000     -10.076533      -274.1964
  19   1.0000     -10.073370      -274.1103
  20   1.0000     -10.062933      -273.8263
  21   1.0000     -10.062541      -273.8157
  22   1.0000     -10.060424      -273.7580
  23   1.0000     -10.060045      -273.7477
  24   1.0000     -10.050930      -273.4997
  25   1.0000     -10.048428      -273.4316
  26   1.0000     -10.046415      -273.3769
  27   1.0000     -10.044151      -273.3152
  28   1.0000     -10.033350      -273.0213
  29   1.0000     -10.029954      -272.9289
  30   1.0000     -10.016672      -272.5675
  31   1.0000     -10.016396      -272.5600
  32   1.0000      -7.786606      -211.8843
  33   1.0000      -7.784814      -211.8356
  34   1.0000      -7.784707      -211.8327
  35   1.0000      -7.784541      -211.8281
  36   1.0000      -7.782445      -211.7711
  37   1.0000      -7.781670      -211.7500
  38   1.0000      -7.774401      -211.5522
  39   1.0000      -7.767357      -211.3605
  40   1.0000      -7.703928      -209.6346
  41   1.0000      -7.702278      -209.5896
  42   1.0000      -7.701667      -209.5730
  43   1.0000      -7.698744      -209.4935
  44   1.0000      -5.751610      -156.5093
  45   1.0000      -5.749773      -156.4593
  46   1.0000      -5.749575      -156.4539
  47   1.0000      -5.749471      -156.4511
  48   1.0000      -5.748173      -156.4157
  49   1.0000      -5.746958      -156.3827
  50   1.0000      -5.746643      -156.3741
  51   1.0000      -5.746314      -156.3652
  52   1.0000      -5.746115      -156.3597
  53   1.0000      -5.744769      -156.3231
  54   1.0000      -5.743204      -156.2805
  55   1.0000      -5.742325      -156.2566
  56   1.0000      -5.741365      -156.2305
  57   1.0000      -5.740285      -156.2011
  58   1.0000      -5.739631      -156.1833
  59   1.0000      -5.739316      -156.1747
  60   1.0000      -5.738742      -156.1591
  61   1.0000      -5.737914      -156.1366
  62   1.0000      -5.736490      -156.0978
  63   1.0000      -5.735098      -156.0600
  64   1.0000      -5.731351      -155.9580
  65   1.0000      -5.730772      -155.9422
  66   1.0000      -5.728007      -155.8670
  67   1.0000      -5.723988      -155.7576
  68   1.0000      -5.670132      -154.2921
  69   1.0000      -5.668217      -154.2400
  70   1.0000      -5.667020      -154.2075
  71   1.0000      -5.664093      -154.1278
  72   1.0000      -5.663036      -154.0990
  73   1.0000      -5.661394      -154.0544
  74   1.0000      -5.660745      -154.0367
  75   1.0000      -5.660153      -154.0206
  76   1.0000      -5.659254      -153.9961
  77   1.0000      -5.658549      -153.9770
  78   1.0000      -5.657306      -153.9431
  79   1.0000      -5.655773      -153.9014
  80   1.0000      -2.403723       -65.4086
  81   1.0000      -1.470607       -40.0173
  82   1.0000      -1.416153       -38.5355
  83   1.0000      -1.415743       -38.5243
  84   1.0000      -0.717013       -19.5109
  85   1.0000      -0.713041       -19.4028
  86   1.0000      -0.694180       -18.8896
  87   1.0000      -0.692719       -18.8499
  88   1.0000      -0.662299       -18.0221
  89   1.0000      -0.645861       -17.5748
  90   1.0000      -0.643431       -17.5086
  91   1.0000      -0.616756       -16.7828
  92   1.0000      -0.613877       -16.7045
  93   1.0000      -0.588876       -16.0241
  94   1.0000      -0.588340       -16.0096
  95   1.0000      -0.558971       -15.2104
  96   1.0000      -0.557400       -15.1676
  97   1.0000      -0.502944       -13.6858
  98   1.0000      -0.501741       -13.6531
  99   1.0000      -0.494589       -13.4584
 100   1.0000      -0.491036       -13.3618
 101   1.0000      -0.478754       -13.0276
 102   1.0000      -0.475067       -12.9272
 103   1.0000      -0.445428       -12.1207
 104   1.0000      -0.441586       -12.0162
 105   1.0000      -0.418198       -11.3798
 106   1.0000      -0.412486       -11.2243
 107   1.0000      -0.359153        -9.7730
 108   1.0000      -0.358419        -9.7531
 109   1.0000      -0.335573        -9.1314
 110   1.0000      -0.334190        -9.0938
 111   1.0000      -0.317733        -8.6460
 112   1.0000      -0.315584        -8.5875
 113   1.0000      -0.295228        -8.0336
 114   1.0000      -0.291295        -7.9266
 115   1.0000      -0.289720        -7.8837
 116   1.0000      -0.284906        -7.7527
 117   1.0000      -0.258260        -7.0276
 118   1.0000      -0.255573        -6.9545
 119   1.0000      -0.254318        -6.9203
 120   1.0000      -0.250838        -6.8256
 121   1.0000      -0.234444        -6.3795
 122   1.0000      -0.232759        -6.3337
 123   1.0000      -0.230956        -6.2846
 124   1.0000      -0.227986        -6.2038
 125   1.0000      -0.222152        -6.0451
 126   1.0000      -0.218074        -5.9341
 127   1.0000      -0.216755        -5.8982
 128   1.0000      -0.213108        -5.7990
 129   1.0000      -0.196571        -5.3490
 130   1.0000      -0.193820        -5.2741
 131   1.0000      -0.191538        -5.2120
 132   1.0000      -0.181550        -4.9402
 133   1.0000      -0.178894        -4.8679
 134   1.0000      -0.169326        -4.6076
 135   1.0000      -0.152199        -4.1416
 136   1.0000      -0.147133        -4.0037
 137   1.0000      -0.144649        -3.9361
 138   1.0000      -0.143042        -3.8924
 139   1.0000      -0.130086        -3.5398
 140   1.0000      -0.121619        -3.3094
 141   1.0000      -0.118670        -3.2292
 142   1.0000      -0.117360        -3.1935
 143   1.0000      -0.111749        -3.0408
 144   1.0000      -0.100135        -2.7248
 145   1.0000      -0.097293        -2.6475
 146   1.0000      -0.086827        -2.3627
 147   1.0000      -0.080452        -2.1892
 148   1.0000      -0.072899        -1.9837
 149   1.0000      -0.066830        -1.8185
 150   1.0000      -0.062113        -1.6902
 151   1.0000      -0.051157        -1.3920
 152   1.0000      -0.039044        -1.0624
 153   1.0000      -0.037062        -1.0085
 154   1.0000      -0.036399        -0.9905
 155   1.0000      -0.031013        -0.8439
 156   1.0000      -0.027769        -0.7556
 157   1.0000      -0.016869        -0.4590
 158   1.0000       0.020672         0.5625
 159   1.0000       0.038588         1.0500
 160   0.0000       0.137019         3.7285
 161   0.0000       0.139781         3.8036
 162   0.0000       0.150422         4.0932
 163   0.0000       0.156066         4.2468
 164   0.0000       0.159235         4.3330

MULLIKEN ATOMIC CHARGES AND SPIN POPULATIONS
--------------------------------------------
   0 V :    0.457871    1.206927
   1 S :   -0.259834   -0.011932
   2 S :   -0.270524   -0.016417
   3 S :   -0.279549   -0.032359
   4 S :   -0.281250   -0.032721
   5 O :   -0.461510   -0.146171
   6 C :   -0.054962    0.009618
   7 C :   -0.102578    0.006233
   8 C :   -0.052277    0.005786
   9 C :   -0.111790    0.008268
  10 S :    0.128878   -0.000022
  11 S :    0.053672   -0.000419
  12 S :    0.035434   -0.000057
  13 S :    0.137376    0.000129
  14 C :   -0.221291    0.001987
  15 C :   -0.214553    0.001885
  16 C :   -0.190668   -0.000067
  17 C :   -0.198422   -0.000638
  18 S :    0.016578   -0.000108
  19 S :    0.008249   -0.000080
  20 S :    0.014106   -0.000046
  21 S :    0.002413    0.000019
  22 C :   -0.302958   -0.000005
  23 C :   -0.296087   -0.000010
  24 C :   -0.157139    0.000001
  25 H :    0.141899   -0.000002
  26 H :    0.112428   -0.000002
  27 H :    0.081384   -0.000004
  28 H :    0.090465   -0.000004
  29 H :    0.111330   -0.000007
  30 H :    0.140857   -0.000001
  31 C :   -0.302818    0.000212
  32 C :   -0.298720    0.000191
  33 C :   -0.158463   -0.000232
  34 H :    0.140892   -0.000013
  35 H :    0.113094    0.000013
  36 H :    0.091300    0.000024
  37 H :    0.082327    0.000013
  38 H :    0.113436    0.000033
  39 H :    0.141405   -0.000021
Sum of atomic charges         :   -2.0000000

LOEWDIN ATOMIC CHARGES AND SPIN POPULATIONS
-------------------------------------------
   0 V :   -0.157210    1.161318
   1 S :    0.152445   -0.006093
   2 S :    0.130876   -0.008604
   3 S :    0.040068   -0.022875
   4 S :    0.047094   -0.022987
   5 O :   -0.314988   -0.131269
   6 C :   -0.646810    0.009312
   7 C :   -0.458167    0.006151
   8 C :   -0.672061    0.006785
   9 C :   -0.434187    0.008204
  10 S :    0.525720   -0.000347
  11 S :    0.398048   -0.000551
  12 S :    0.372900   -0.000256
  13 S :    0.543565   -0.000344
  14 C :   -0.458623    0.000483
  15 C :   -0.465224    0.000510
  16 C :   -0.633718    0.000576
  17 C :   -0.629437    0.000067
  18 S :    0.365416   -0.000076
  19 S :    0.366608   -0.000052
  20 S :    0.361893   -0.000054
  21 S :    0.358762   -0.000004
  22 C :   -0.282172   -0.000012
  23 C :   -0.285723   -0.000009
  24 C :   -0.176447   -0.000002
  25 H :    0.062064   -0.000001
  26 H :    0.052935    0.000001
  27 H :    0.057110   -0.000003
  28 H :    0.059661   -0.000002
  29 H :    0.052849   -0.000004
  30 H :    0.061592   -0.000001
  31 C :   -0.282165    0.000059
  32 C :   -0.284337    0.000045
  33 C :   -0.175944    0.000006
  34 H :    0.061694   -0.000001
  35 H :    0.053275    0.000007
  36 H :    0.060000    0.000005
  37 H :    0.057472    0.000002
  38 H :    0.053284    0.000015
  39 H :    0.061880    0.000001

  Mayer bond orders larger than 0.100000
B(  0-V ,  1-S ) :   0.7736 B(  0-V ,  2-S ) :   0.7814 B(  0-V ,  3-S ) :   0.7574
B(  0-V ,  4-S ) :   0.7737 B(  0-V ,  5-O ) :   2.1550 B(  1-S ,  8-C ) :   1.0740
B(  2-S ,  6-C ) :   1.0720 B(  3-S ,  9-C ) :   1.0741 B(  4-S ,  7-C ) :   1.0873
B(  6-C ,  7-C ) :   1.6101 B(  6-C , 10-S ) :   1.1027 B(  7-C , 11-S ) :   0.7998
B(  8-C ,  9-C ) :   1.5683 B(  8-C , 13-S ) :   1.1595 B(  9-C , 12-S ) :   0.7401
B( 10-S , 14-C ) :   1.1377 B( 11-S , 14-C ) :   1.3585 B( 12-S , 15-C ) :   1.4113
B( 13-S , 15-C ) :   1.1076 B( 14-C , 16-C ) :   1.4375 B( 15-C , 17-C ) :   1.4374
B( 16-C , 18-S ) :   1.0977 B( 16-C , 19-S ) :   1.0932 B( 17-C , 20-S ) :   1.0933
B( 17-C , 21-S ) :   1.0823 B( 18-S , 32-C ) :   0.9900 B( 19-S , 31-C ) :   0.9906
B( 20-S , 23-C ) :   0.9902 B( 21-S , 22-C ) :   0.9932 B( 22-C , 24-C ) :   0.9129
B( 22-C , 25-H ) :   0.9671 B( 22-C , 26-H ) :   0.9656 B( 23-C , 24-C ) :   0.9157
B( 23-C , 29-H ) :   0.9654 B( 23-C , 30-H ) :   0.9648 B( 24-C , 27-H ) :   0.9622
B( 24-C , 28-H ) :   0.9715 B( 31-C , 33-C ) :   0.9143 B( 31-C , 38-H ) :   0.9650
B( 31-C , 39-H ) :   0.9671 B( 32-C , 33-C ) :   0.9153 B( 32-C , 34-H ) :   0.9648
B( 32-C , 35-H ) :   0.9655 B( 33-C , 36-H ) :   0.9712 B( 33-C , 37-H ) :   0.9626

FINAL SINGLE POINT ENERGY     -6337.559544927039

DIPOLE MOMENT
-------------
                                X             Y             Z
Electronic contribution:      5.65236      -8.32780      -9.21832
Nuclear contribution   :     -6.04740       9.24545      10.34702
                        -----------------------------------------
Total Dipole Moment    :     -0.39504       0.91765       1.12871
                        -----------------------------------------
Magnitude (a.u.)       :      1.50735
Magnitude (Debye)      :      3.83139

Rotational constants in cm-1:     0.010741     0.000804     0.000783
Rotational constants in MHz :   321.992296    24.114756    23.482193

                             ****ORCA TERMINATED NORMALLY****
TOTAL RUN TIME: 0 days 1 hours 2 minutes 31 seconds 672 msec
