                         Program Version 5.0.4 -  RELEASE  -
|  1> ! nofrozencore ReducedPop printbasis
|  2> ! B3LYP TZVP
|  3>
|  4> %basis
|  5> newgto V "CP(PPP)" end
|  6> end
|  7>
|  8> %pal
|  9> nprocs 8
| 10> end
| 11>
| 12> % sym SymThresh 1e-2 end
| 13> * xyz -2 2
| 14> V -0.7454908546238325 -0.5102372078343285 -0.6605725432627795
| 15> S 0.8527669471255706 -2.288056750071261 -0.4179428597744837
| 16> S -1.5891793959588674 -0.6947044863656259 1.5842728891773294
| 17> S 0.9874576311108163 0.576452208977322 -2.2020704255754815
| 18> S -1.0834530187107763 2.0080899137485746 -0.3561310538520196
| 19> O -1.9089974680385948 -0.9279988040204226 -1.6647517706132349
| 20> C -2.4638975846390654 0.6974807154223597 1.910752773662698
| 21> C -2.180215251088996 1.750191299123424 1.1060209137998296
| 22> C 2.0866147521533547 -2.1041267663331364 -1.527468511878216
| 23> C 2.0821732793458985 -0.915295442082837 -2.178518054702401
| 24> S -3.6283555072965217 0.7885524173838716 3.403546618623587
| 25> S -3.0896888943808563 3.0870357767617596 1.6229784730329995
| 26> S 3.416643009752502 -0.8886459988703868 -3.216358826217469
| 27> S 3.426226200323381 -3.4400523178535196 -1.720924109232664
| 28> C -3.9539978053039446 2.4795656514527873 3.0733728254203236
| 29> C 4.282121054897807 -2.424812046419554 -2.868302579826701
| 30> C -4.806943302587833 3.1744851854322067 3.8863684013277005
| 31> C 5.4681392283375425 -2.8609820754396504 -3.393370112088296
| 32> S -5.629063637265993 2.3646698930004098 5.272096214404018
| 33> S -5.200338259139743 4.871511419768621 3.635276258675859
| 34> S 6.161509222396895 -4.455515008848886 -2.895949989400771
| 35> S 6.417486757188804 -1.919712144409589 -4.54038737216404
| 36> C 7.933195203072867 -1.653002399033023 -3.5152450356624785
| 37> C 7.713689695664708 -3.80660417136621 -2.118371217491044
| 38> C 8.58085796447171 -2.9596460287999755 -3.0558970020282064
| 39> H 7.665481336097415 -1.0246977306262333 -2.6625831732226937
| 40> H 8.620799226876644 -1.0909383278168046 -4.152541641519366
| 41> H 9.511935989271079 -2.7165702986377407 -2.524937156119118
| 42> H 8.85303395171837 -3.554092559680995 -3.933739723289155
| 43> H 8.267116167617239 -4.689621464938226 -1.7887933996863152
| 44> H 7.428500660675092 -3.2333546689663906 -1.233555297394072
| 45> C -7.013140294502065 4.7240248393335404 3.300233676682484
| 46> C -7.372581437141884 2.5835962388592026 4.6793447275726034
| 47> C -7.778971331482117 4.040041226606673 4.432291964525104
| 48> H -7.490141711653142 1.9921870701985969 3.768576969277434
| 49> H -8.002590976121656 2.142261575737139 5.4558425929176595
| 50> H -7.651368508376638 4.6148552670570755 5.355019899341535
| 51> H -8.849558817617607 4.053777835915919 4.1840498531161545
| 52> H -7.364709642830043 5.750485519456323 3.1671203877624112
| 53> H -7.148061842433754 4.190431266451351 2.356398776040145
| 54> *
| 55>
| 56> % eprnmr
| 57> gtensor true
| 58> Nuclei = all H {aiso,adip,aorb,fgrad,rho}
| 59> Nuclei = all V {aiso,adip,aorb,fgrad,rho}
| 60> end
| 61>
| 62>                          ****END OF INPUT****

CARTESIAN COORDINATES (ANGSTROEM)
---------------------------------
  V     -0.745038   -0.508157   -0.657385
  S      0.853220   -2.285976   -0.414755
  S     -1.588726   -0.692624    1.587461
  S      0.987911    0.578533   -2.198883
  S     -1.083000    2.010171   -0.352943
  O     -1.908544   -0.925918   -1.661564
  C     -2.463444    0.699561    1.913941
  C     -2.179762    1.752272    1.109209
  C      2.087068   -2.102046   -1.524281
  C      2.082627   -0.913215   -2.175330
  S     -3.627902    0.790633    3.406735
  S     -3.089236    3.089116    1.626166
  S      3.417096   -0.886565   -3.213171
  S      3.426679   -3.437972   -1.717736
  C     -3.953545    2.481646    3.076561
  C      4.282574   -2.422731   -2.865115
  C     -4.806490    3.176566    3.889556
  C      5.468593   -2.858901   -3.390182
  S     -5.628610    2.366751    5.275284
  S     -5.199885    4.873592    3.638464
  S      6.161963   -4.453434   -2.892762
  S      6.417940   -1.917631   -4.537199
  C      7.933649   -1.650922   -3.512057
  C      7.714143   -3.804524   -2.115183
  C      8.581311   -2.957565   -3.052709
  H      7.665935   -1.022617   -2.659395
  H      8.621253   -1.088858   -4.149354
  H      9.512389   -2.714490   -2.521749
  H      8.853487   -3.552012   -3.930552
  H      8.267569   -4.687541   -1.785606
  H      7.428954   -3.231274   -1.230367
  C     -7.012687    4.726106    3.303422
  C     -7.372128    2.585677    4.682533
  C     -7.778518    4.042122    4.435480
  H     -7.489688    1.994268    3.771765
  H     -8.002138    2.144342    5.459030
  H     -7.650915    4.616936    5.358208
  H     -8.849106    4.055859    4.187238
  H     -7.364256    5.752566    3.170308
  H     -7.147609    4.192512    2.359587

 Total Charge           Charge          ....   -2
 Multiplicity           Mult            ....    2
 Number of Electrons    NEL             ....  321
 Basis Dimension        Dim             ....  681

ORBITAL ENERGIES
----------------
                 SPIN UP ORBITALS
  NO   OCC          E(Eh)            E(eV)
   0   1.0000    -196.676774     -5351.8471
   1   1.0000     -88.738631     -2414.7009
   2   1.0000     -88.737811     -2414.6786
   3   1.0000     -88.735662     -2414.6201
   4   1.0000     -88.735130     -2414.6056
   5   1.0000     -88.730536     -2414.4806
   6   1.0000     -88.730133     -2414.4697
   7   1.0000     -88.720458     -2414.2064
   8   1.0000     -88.719997     -2414.1939
   9   1.0000     -88.651126     -2412.3198
  10   1.0000     -88.650195     -2412.2944
  11   1.0000     -88.631238     -2411.7786
  12   1.0000     -88.631157     -2411.7764
  13   1.0000     -22.051597      -600.0545
  14   1.0000     -18.890786      -514.0444
  15   1.0000     -18.558085      -504.9912
  16   1.0000     -18.552978      -504.8522
  17   1.0000     -18.552732      -504.8455
  18   1.0000     -10.074924      -274.1526
  19   1.0000     -10.074411      -274.1387
  20   1.0000     -10.064365      -273.8653
  21   1.0000     -10.064171      -273.8600
  22   1.0000     -10.061510      -273.7876
  23   1.0000     -10.061343      -273.7831
  24   1.0000     -10.050839      -273.4972
  25   1.0000     -10.050779      -273.4956
  26   1.0000     -10.047887      -273.4169
  27   1.0000     -10.047110      -273.3958
  28   1.0000     -10.020384      -272.6685
  29   1.0000     -10.020073      -272.6601
  30   1.0000     -10.016570      -272.5647
  31   1.0000     -10.016383      -272.5596
  32   1.0000      -7.790406      -211.9877
  33   1.0000      -7.789714      -211.9689
  34   1.0000      -7.788701      -211.9413
  35   1.0000      -7.788234      -211.9286
  36   1.0000      -7.784268      -211.8207
  37   1.0000      -7.783899      -211.8107
  38   1.0000      -7.775356      -211.5782
  39   1.0000      -7.775039      -211.5696
  40   1.0000      -7.702694      -209.6010
  41   1.0000      -7.701823      -209.5773
  42   1.0000      -7.688914      -209.2260
  43   1.0000      -7.688701      -209.2202
  44   1.0000      -5.755077      -156.6036
  45   1.0000      -5.754374      -156.5845
  46   1.0000      -5.753624      -156.5641
  47   1.0000      -5.753172      -156.5518
  48   1.0000      -5.751728      -156.5125
  49   1.0000      -5.750982      -156.4922
  50   1.0000      -5.750331      -156.4745
  51   1.0000      -5.749855      -156.4615
  52   1.0000      -5.749298      -156.4463
  53   1.0000      -5.748921      -156.4361
  54   1.0000      -5.745994      -156.3564
  55   1.0000      -5.745765      -156.3502
  56   1.0000      -5.745395      -156.3402
  57   1.0000      -5.745346      -156.3388
  58   1.0000      -5.743598      -156.2912
  59   1.0000      -5.743109      -156.2779
  60   1.0000      -5.740494      -156.2068
  61   1.0000      -5.740184      -156.1983
  62   1.0000      -5.739043      -156.1673
  63   1.0000      -5.738677      -156.1573
  64   1.0000      -5.735106      -156.0602
  65   1.0000      -5.734739      -156.0502
  66   1.0000      -5.731350      -155.9580
  67   1.0000      -5.731038      -155.9495
  68   1.0000      -5.669107      -154.2643
  69   1.0000      -5.668184      -154.2391
  70   1.0000      -5.661344      -154.0530
  71   1.0000      -5.660447      -154.0286
  72   1.0000      -5.659374      -153.9994
  73   1.0000      -5.658546      -153.9769
  74   1.0000      -5.653264      -153.8331
  75   1.0000      -5.653136      -153.8297
  76   1.0000      -5.647464      -153.6753
  77   1.0000      -5.647278      -153.6703
  78   1.0000      -5.646726      -153.6552
  79   1.0000      -5.646445      -153.6476
  80   1.0000      -2.445239       -66.5383
  81   1.0000      -1.486382       -40.4465
  82   1.0000      -1.475077       -40.1389
  83   1.0000      -1.473917       -40.1073
  84   1.0000      -0.709235       -19.2993
  85   1.0000      -0.709214       -19.2987
  86   1.0000      -0.686882       -18.6910
  87   1.0000      -0.686497       -18.6805
  88   1.0000      -0.650188       -17.6925
  89   1.0000      -0.635094       -17.2818
  90   1.0000      -0.634680       -17.2705
  91   1.0000      -0.617053       -16.7909
  92   1.0000      -0.616656       -16.7801
  93   1.0000      -0.580555       -15.7977
  94   1.0000      -0.580095       -15.7852
  95   1.0000      -0.572428       -15.5765
  96   1.0000      -0.571524       -15.5520
  97   1.0000      -0.500929       -13.6310
  98   1.0000      -0.500327       -13.6146
  99   1.0000      -0.491726       -13.3805
 100   1.0000      -0.490665       -13.3517
 101   1.0000      -0.477620       -12.9967
 102   1.0000      -0.471962       -12.8427
 103   1.0000      -0.446597       -12.1525
 104   1.0000      -0.444346       -12.0913
 105   1.0000      -0.412494       -11.2245
 106   1.0000      -0.407596       -11.0913
 107   1.0000      -0.354528        -9.6472
 108   1.0000      -0.354306        -9.6411
 109   1.0000      -0.329121        -8.9558
 110   1.0000      -0.327476        -8.9111
 111   1.0000      -0.319311        -8.6889
 112   1.0000      -0.316038        -8.5998
 113   1.0000      -0.300285        -8.1712
 114   1.0000      -0.299347        -8.1456
 115   1.0000      -0.291843        -7.9415
 116   1.0000      -0.291450        -7.9308
 117   1.0000      -0.259241        -7.0543
 118   1.0000      -0.257407        -7.0044
 119   1.0000      -0.254644        -6.9292
 120   1.0000      -0.252053        -6.8587
 121   1.0000      -0.234029        -6.3682
 122   1.0000      -0.233456        -6.3526
 123   1.0000      -0.230962        -6.2848
 124   1.0000      -0.229551        -6.2464
 125   1.0000      -0.220950        -6.0123
 126   1.0000      -0.218975        -5.9586
 127   1.0000      -0.214088        -5.8256
 128   1.0000      -0.212452        -5.7811
 129   1.0000      -0.197791        -5.3822
 130   1.0000      -0.188137        -5.1195
 131   1.0000      -0.187085        -5.0908
 132   1.0000      -0.181279        -4.9328
 133   1.0000      -0.180815        -4.9202
 134   1.0000      -0.160535        -4.3684
 135   1.0000      -0.151642        -4.1264
 136   1.0000      -0.143690        -3.9100
 137   1.0000      -0.137069        -3.7298
 138   1.0000      -0.135887        -3.6977
 139   1.0000      -0.126878        -3.4525
 140   1.0000      -0.125807        -3.4234
 141   1.0000      -0.119422        -3.2496
 142   1.0000      -0.113075        -3.0769
 143   1.0000      -0.109243        -2.9726
 144   1.0000      -0.100156        -2.7254
 145   1.0000      -0.099137        -2.6976
 146   1.0000      -0.095099        -2.5878
 147   1.0000      -0.093213        -2.5365
 148   1.0000      -0.072619        -1.9761
 149   1.0000      -0.067197        -1.8285
 150   1.0000      -0.066684        -1.8146
 151   1.0000      -0.049095        -1.3360
 152   1.0000      -0.046424        -1.2633
 153   1.0000      -0.039592        -1.0774
 154   1.0000      -0.037995        -1.0339
 155   1.0000      -0.031760        -0.8642
 156   1.0000      -0.026595        -0.7237
 157   1.0000      -0.013233        -0.3601
 158   1.0000      -0.008166        -0.2222
 159   1.0000       0.024559         0.6683
 160   1.0000       0.043438         1.1820
 161   0.0000       0.136589         3.7168
 162   0.0000       0.136776         3.7219
 163   0.0000       0.152892         4.1604
 164   0.0000       0.155173         4.2225
 165   0.0000       0.163613         4.4521

                 SPIN DOWN ORBITALS
  NO   OCC          E(Eh)            E(eV)
   0   1.0000    -196.676897     -5351.8504
   1   1.0000     -88.738651     -2414.7015
   2   1.0000     -88.737830     -2414.6791
   3   1.0000     -88.735662     -2414.6201
   4   1.0000     -88.735131     -2414.6057
   5   1.0000     -88.730537     -2414.4807
   6   1.0000     -88.730134     -2414.4697
   7   1.0000     -88.720465     -2414.2066
   8   1.0000     -88.720003     -2414.1940
   9   1.0000     -88.651282     -2412.3240
  10   1.0000     -88.650347     -2412.2986
  11   1.0000     -88.631338     -2411.7813
  12   1.0000     -88.631251     -2411.7790
  13   1.0000     -22.036739      -599.6502
  14   1.0000     -18.894506      -514.1457
  15   1.0000     -18.552790      -504.8471
  16   1.0000     -18.537219      -504.4234
  17   1.0000     -18.536522      -504.4044
  18   1.0000     -10.074904      -274.1521
  19   1.0000     -10.074388      -274.1380
  20   1.0000     -10.064366      -273.8653
  21   1.0000     -10.064171      -273.8600
  22   1.0000     -10.061509      -273.7876
  23   1.0000     -10.061343      -273.7831
  24   1.0000     -10.050840      -273.4972
  25   1.0000     -10.050779      -273.4956
  26   1.0000     -10.047889      -273.4170
  27   1.0000     -10.047108      -273.3957
  28   1.0000     -10.020121      -272.6614
  29   1.0000     -10.019752      -272.6513
  30   1.0000     -10.016460      -272.5617
  31   1.0000     -10.016317      -272.5578
  32   1.0000      -7.790427      -211.9883
  33   1.0000      -7.789735      -211.9695
  34   1.0000      -7.788701      -211.9413
  35   1.0000      -7.788235      -211.9286
  36   1.0000      -7.784269      -211.8207
  37   1.0000      -7.783899      -211.8107
  38   1.0000      -7.775363      -211.5784
  39   1.0000      -7.775045      -211.5697
  40   1.0000      -7.702839      -209.6049
  41   1.0000      -7.701964      -209.5811
  42   1.0000      -7.689003      -209.2284
  43   1.0000      -7.688796      -209.2228
  44   1.0000      -5.755122      -156.6048
  45   1.0000      -5.754417      -156.5856
  46   1.0000      -5.753623      -156.5640
  47   1.0000      -5.753172      -156.5518
  48   1.0000      -5.751756      -156.5132
  49   1.0000      -5.751010      -156.4929
  50   1.0000      -5.750330      -156.4744
  51   1.0000      -5.749855      -156.4615
  52   1.0000      -5.749299      -156.4464
  53   1.0000      -5.748922      -156.4361
  54   1.0000      -5.746004      -156.3567
  55   1.0000      -5.745766      -156.3503
  56   1.0000      -5.745396      -156.3402
  57   1.0000      -5.745356      -156.3391
  58   1.0000      -5.743599      -156.2913
  59   1.0000      -5.743112      -156.2780
  60   1.0000      -5.740504      -156.2071
  61   1.0000      -5.740193      -156.1986
  62   1.0000      -5.739044      -156.1673
  63   1.0000      -5.738677      -156.1574
  64   1.0000      -5.735115      -156.0604
  65   1.0000      -5.734748      -156.0504
  66   1.0000      -5.731362      -155.9583
  67   1.0000      -5.731044      -155.9496
  68   1.0000      -5.669229      -154.2676
  69   1.0000      -5.668296      -154.2422
  70   1.0000      -5.661789      -154.0651
  71   1.0000      -5.660894      -154.0407
  72   1.0000      -5.659485      -154.0024
  73   1.0000      -5.658651      -153.9797
  74   1.0000      -5.653398      -153.8368
  75   1.0000      -5.653271      -153.8333
  76   1.0000      -5.647622      -153.6796
  77   1.0000      -5.647526      -153.6770
  78   1.0000      -5.646841      -153.6583
  79   1.0000      -5.646492      -153.6489
  80   1.0000      -2.400643       -65.3248
  81   1.0000      -1.466751       -39.9123
  82   1.0000      -1.413662       -38.4677
  83   1.0000      -1.412607       -38.4390
  84   1.0000      -0.709213       -19.2987
  85   1.0000      -0.709190       -19.2980
  86   1.0000      -0.686832       -18.6897
  87   1.0000      -0.686444       -18.6791
  88   1.0000      -0.658168       -17.9097
  89   1.0000      -0.635043       -17.2804
  90   1.0000      -0.634618       -17.2688
  91   1.0000      -0.617056       -16.7909
  92   1.0000      -0.616658       -16.7801
  93   1.0000      -0.580582       -15.7984
  94   1.0000      -0.580125       -15.7860
  95   1.0000      -0.572274       -15.5724
  96   1.0000      -0.571369       -15.5478
  97   1.0000      -0.500921       -13.6307
  98   1.0000      -0.500335       -13.6148
  99   1.0000      -0.491782       -13.3821
 100   1.0000      -0.490695       -13.3525
 101   1.0000      -0.477922       -13.0049
 102   1.0000      -0.472282       -12.8514
 103   1.0000      -0.446605       -12.1527
 104   1.0000      -0.444399       -12.0927
 105   1.0000      -0.412415       -11.2224
 106   1.0000      -0.407633       -11.0923
 107   1.0000      -0.354507        -9.6466
 108   1.0000      -0.354290        -9.6407
 109   1.0000      -0.329063        -8.9543
 110   1.0000      -0.327455        -8.9105
 111   1.0000      -0.319254        -8.6873
 112   1.0000      -0.316041        -8.5999
 113   1.0000      -0.300232        -8.1697
 114   1.0000      -0.299356        -8.1459
 115   1.0000      -0.291831        -7.9411
 116   1.0000      -0.291451        -7.9308
 117   1.0000      -0.259191        -7.0529
 118   1.0000      -0.257407        -7.0044
 119   1.0000      -0.254390        -6.9223
 120   1.0000      -0.251987        -6.8569
 121   1.0000      -0.233968        -6.3666
 122   1.0000      -0.233438        -6.3522
 123   1.0000      -0.230895        -6.2830
 124   1.0000      -0.229521        -6.2456
 125   1.0000      -0.220605        -6.0030
 126   1.0000      -0.218810        -5.9541
 127   1.0000      -0.213974        -5.8225
 128   1.0000      -0.212358        -5.7785
 129   1.0000      -0.196085        -5.3358
 130   1.0000      -0.188070        -5.1176
 131   1.0000      -0.186993        -5.0883
 132   1.0000      -0.180883        -4.9221
 133   1.0000      -0.180508        -4.9119
 134   1.0000      -0.160236        -4.3603
 135   1.0000      -0.151400        -4.1198
 136   1.0000      -0.143544        -3.9060
 137   1.0000      -0.136720        -3.7203
 138   1.0000      -0.135500        -3.6871
 139   1.0000      -0.126645        -3.4462
 140   1.0000      -0.124732        -3.3941
 141   1.0000      -0.118878        -3.2348
 142   1.0000      -0.114644        -3.1196
 143   1.0000      -0.110953        -3.0192
 144   1.0000      -0.100169        -2.7257
 145   1.0000      -0.099304        -2.7022
 146   1.0000      -0.095226        -2.5912
 147   1.0000      -0.093539        -2.5453
 148   1.0000      -0.070722        -1.9244
 149   1.0000      -0.067148        -1.8272
 150   1.0000      -0.066684        -1.8146
 151   1.0000      -0.046331        -1.2607
 152   1.0000      -0.039180        -1.0662
 153   1.0000      -0.038135        -1.0377
 154   1.0000      -0.034458        -0.9376
 155   1.0000      -0.031356        -0.8532
 156   1.0000      -0.027504        -0.7484
 157   1.0000      -0.013442        -0.3658
 158   1.0000       0.024894         0.6774
 159   1.0000       0.042470         1.1557
 160   0.0000       0.136651         3.7185
 161   0.0000       0.136861         3.7242
 162   0.0000       0.152468         4.1489
 163   0.0000       0.155671         4.2360
 164   0.0000       0.157828         4.2947

MULLIKEN ATOMIC CHARGES AND SPIN POPULATIONS
--------------------------------------------
   0 V :    0.466425    1.197500
   1 S :   -0.281969   -0.008301
   2 S :   -0.283655   -0.011685
   3 S :   -0.282440   -0.029424
   4 S :   -0.281872   -0.030038
   5 O :   -0.466312   -0.143720
   6 C :   -0.069762    0.010998
   7 C :   -0.104301    0.004263
   8 C :   -0.086458    0.006253
   9 C :   -0.097146    0.007042
  10 S :    0.079486   -0.001686
  11 S :    0.117044   -0.001068
  12 S :    0.117797   -0.000721
  13 S :    0.077908   -0.001640
  14 C :   -0.198249    0.001725
  15 C :   -0.198244    0.001418
  16 C :   -0.201618   -0.000241
  17 C :   -0.197791   -0.000424
  18 S :    0.000235   -0.000098
  19 S :    0.017797   -0.000057
  20 S :   -0.001724   -0.000004
  21 S :    0.017857   -0.000113
  22 C :   -0.299452   -0.000002
  23 C :   -0.298512   -0.000021
  24 C :   -0.158340   -0.000014
  25 H :    0.141836   -0.000001
  26 H :    0.112696   -0.000003
  27 H :    0.083209   -0.000004
  28 H :    0.091892   -0.000001
  29 H :    0.112983   -0.000005
  30 H :    0.144085   -0.000001
  31 C :   -0.298362    0.000073
  32 C :   -0.301588    0.000126
  33 C :   -0.157320   -0.000128
  34 H :    0.143604   -0.000020
  35 H :    0.113084    0.000021
  36 H :    0.091882    0.000008
  37 H :    0.082527   -0.000003
  38 H :    0.112628   -0.000001
  39 H :    0.140143   -0.000002
Sum of atomic charges         :   -2.0000000

LOEWDIN ATOMIC CHARGES AND SPIN POPULATIONS
-------------------------------------------
   0 V :   -0.144900    1.153917
   1 S :    0.136169   -0.002506
   2 S :    0.133147   -0.003721
   3 S :    0.039255   -0.021353
   4 S :    0.037005   -0.021813
   5 O :   -0.321223   -0.129308
   6 C :   -0.547412    0.012470
   7 C :   -0.566908    0.002283
   8 C :   -0.550575    0.009759
   9 C :   -0.569656    0.004618
  10 S :    0.441833   -0.002181
  11 S :    0.500834   -0.000596
  12 S :    0.502365   -0.000221
  13 S :    0.439028   -0.002254
  14 C :   -0.465313    0.000749
  15 C :   -0.464690    0.000577
  16 C :   -0.624456    0.000040
  17 C :   -0.621398   -0.000132
  18 S :    0.348727   -0.000103
  19 S :    0.370675   -0.000045
  20 S :    0.347318   -0.000042
  21 S :    0.369761   -0.000099
  22 C :   -0.284581   -0.000009
  23 C :   -0.282406   -0.000033
  24 C :   -0.176277   -0.000005
  25 H :    0.062128   -0.000001
  26 H :    0.053539   -0.000002
  27 H :    0.057902   -0.000005
  28 H :    0.060105   -0.000002
  29 H :    0.053169   -0.000000
  30 H :    0.062803   -0.000002
  31 C :   -0.285279    0.000008
  32 C :   -0.283043    0.000012
  33 C :   -0.176294   -0.000005
  34 H :    0.062640   -0.000006
  35 H :    0.053041    0.000014
  36 H :    0.060118   -0.000001
  37 H :    0.057738   -0.000002
  38 H :    0.053692   -0.000003
  39 H :    0.061421    0.000001

  Mayer bond orders larger than 0.100000
B(  0-V ,  1-S ) :   0.8574 B(  0-V ,  2-S ) :   0.8533 B(  0-V ,  3-S ) :   0.6808
B(  0-V ,  4-S ) :   0.6945 B(  0-V ,  5-O ) :   2.1474 B(  1-S ,  8-C ) :   1.1412
B(  2-S ,  6-C ) :   1.1169 B(  3-S ,  9-C ) :   1.0827 B(  4-S ,  7-C ) :   1.0940
B(  6-C ,  7-C ) :   1.6536 B(  6-C , 10-S ) :   0.9068 B(  7-C , 11-S ) :   0.9870
B(  8-C ,  9-C ) :   1.6617 B(  8-C , 13-S ) :   0.9063 B(  9-C , 12-S ) :   0.9918
B( 10-S , 14-C ) :   1.2237 B( 11-S , 14-C ) :   1.2573 B( 12-S , 15-C ) :   1.2538
B( 13-S , 15-C ) :   1.2147 B( 14-C , 16-C ) :   1.4427 B( 15-C , 17-C ) :   1.4437
B( 16-C , 18-S ) :   1.0768 B( 16-C , 19-S ) :   1.0996 B( 17-C , 20-S ) :   1.0726
B( 17-C , 21-S ) :   1.0938 B( 18-S , 32-C ) :   0.9876 B( 19-S , 31-C ) :   0.9928
B( 20-S , 23-C ) :   0.9877 B( 21-S , 22-C ) :   0.9926 B( 22-C , 24-C ) :   0.9163
B( 22-C , 25-H ) :   0.9637 B( 22-C , 26-H ) :   0.9661 B( 23-C , 24-C ) :   0.9127
B( 23-C , 29-H ) :   0.9645 B( 23-C , 30-H ) :   0.9677 B( 24-C , 27-H ) :   0.9624
B( 24-C , 28-H ) :   0.9718 B( 31-C , 33-C ) :   0.9165 B( 31-C , 38-H ) :   0.9665
B( 31-C , 39-H ) :   0.9634 B( 32-C , 33-C ) :   0.9118 B( 32-C , 34-H ) :   0.9678
B( 32-C , 35-H ) :   0.9643 B( 33-C , 36-H ) :   0.9716 B( 33-C , 37-H ) :   0.9626

FINAL SINGLE POINT ENERGY     -6337.622692776870

DIPOLE MOMENT
-------------
                                X             Y             Z
Electronic contribution:     -6.29436      -7.91000      -9.28223
Nuclear contribution   :      6.99427       8.39512      10.54161
                        -----------------------------------------
Total Dipole Moment    :      0.69991       0.48512       1.25938
                        -----------------------------------------
Magnitude (a.u.)       :      1.52028
Magnitude (Debye)      :      3.86425

Rotational constants in cm-1:     0.010751     0.000804     0.000783
Rotational constants in MHz :   322.294239    24.107747    23.478448

                             ****ORCA TERMINATED NORMALLY****
TOTAL RUN TIME: 0 days 1 hours 1 minutes 56 seconds 242 msec
