                         Program Version 5.0.4 -  RELEASE  -
|  1> ! nofrozencore ReducedPop printbasis
|  2> ! B3LYP TZVP
|  3>
|  4> %basis
|  5> newgto V "CP(PPP)" end
|  6> end
|  7>
|  8> %pal
|  9> nprocs 8
| 10> end
| 11>
| 12> % sym SymThresh 1e-2 end
| 13> * xyz -2 2
| 14> V -0.15694905004165757 0.6341901561441589 -0.9012802948416595
| 15> S -2.0235721208366404 1.3835622219907326 0.5384365984577656
| 16> S 1.3024767698406288 1.8872641257256733 0.6567466493888128
| 17> S -1.5212234172798071 -1.3902169954449024 -1.3150596022955363
| 18> S 1.739015509533499 -0.9287071490321408 -1.1208751899955405
| 19> O -0.20506747490295793 1.5085372517877744 -2.2266064614166807
| 20> C 2.8622662818307907 1.2289631707729747 0.17698554349770584
| 21> C 3.036244204023415 0.10115395806276477 -0.530844543761598
| 22> C -3.2455686966338146 0.17471685540654253 0.16986065187834293
| 23> C -3.0433084627543217 -0.9341684007610287 -0.5678990923522516
| 24> S 4.3560260034446445 2.065979234453757 0.7231502417512937
| 25> S 4.731749533639743 -0.415844684404876 -0.8153239541294526
| 26> S -4.445402265022259 -2.0411518368371424 -0.7500382217422933
| 27> S -4.891433024959884 0.38594452755844677 0.8576841640601122
| 28> C 5.519900886634089 0.9116632033505513 0.05173945440207295
| 29> C -5.57351679571723 -1.128849977811424 0.25681673751354933
| 30> C 6.864976776473736 1.0343184107396484 0.17561187221337074
| 31> C -6.849836837849632 -1.548321412958147 0.5342971178796047
| 32> S 7.61985545485433 2.4217786717353533 1.0105035642705493
| 33> S 7.989972694588944 -0.16650356559711674 -0.5200637998808788
| 34> S -7.95133004948177 -0.5950518341489489 1.5576849667224821
| 35> S -7.484013722881836 -3.095375535594539 -0.07882568511714606
| 36> C -7.749133717474331 -3.934015169494789 1.5302281220763643
| 37> C -8.154846317852504 -1.7948620200713654 2.9295951797317987
| 38> C -8.689536996695475 -3.1799513022023307 2.4983564342225706
| 39> H -6.819264899154992 -4.1084534306529426 2.0922285210188525
| 40> H -8.19738910304701 -4.926160367021185 1.3816812618725975
| 41> H -8.882424785499552 -3.7968799709798087 3.3868606056571906
| 42> H -9.645960637026452 -3.026982003567585 1.9859883075341176
| 43> H -8.866105489836901 -1.412996018534289 3.6748620471532343
| 44> H -7.223351630311592 -1.9931872713008967 3.4807284915482786
| 45> C 8.886590576828263 0.975520328595816 -1.7452635699049714
| 46> C 8.571420802364269 3.1384643971877395 -0.470815258215034
| 47> C 9.510131692168938 2.1351621755546857 -1.0480770941450586
| 48> H 7.63393085055313 3.4836761211095553 -0.9858590916846476
| 49> H 8.954700242964414 3.987341089120333 0.1583750996456181
| 50> H 10.30577018842281 1.8404581050949211 -0.353143151308528
| 51> H 10.002379992206249 2.690481652311993 -1.8645772245347414
| 52> H 9.51781461351569 0.12248430928379904 -2.114410963726649
| 53> H 7.990841303664902 1.0621091179194517 -2.41792457460554
| 54> *
| 55>
| 56> % eprnmr
| 57> gtensor true
| 58> Nuclei = all H {aiso,adip,aorb,fgrad,rho}
| 59> Nuclei = all V {aiso,adip,aorb,fgrad,rho}
| 60> end
| 61>
| 62>                          ****END OF INPUT****

CARTESIAN COORDINATES (ANGSTROEM)
---------------------------------
  V     -0.154381    0.632948   -0.898719
  S     -2.021004    1.382320    0.540998
  S      1.305045    1.886022    0.659308
  S     -1.518655   -1.391459   -1.312498
  S      1.741583   -0.929949   -1.118314
  O     -0.202499    1.507295   -2.224045
  C      2.864834    1.227721    0.179547
  C      3.038812    0.099912   -0.528283
  C     -3.243001    0.173475    0.172422
  C     -3.040740   -0.935410   -0.565338
  S      4.358594    2.064737    0.725712
  S      4.734318   -0.417087   -0.812763
  S     -4.442834   -2.042394   -0.747477
  S     -4.888865    0.384702    0.860246
  C      5.522469    0.910421    0.054301
  C     -5.570949   -1.130092    0.259378
  C      6.867545    1.033076    0.178173
  C     -6.847269   -1.549563    0.536858
  S      7.622423    2.420537    1.013065
  S      7.992541   -0.167746   -0.517502
  S     -7.948762   -0.596294    1.560246
  S     -7.481446   -3.096618   -0.076264
  C     -7.746566   -3.935257    1.532789
  C     -8.152278   -1.796104    2.932157
  C     -8.686969   -3.181193    2.500918
  H     -6.816697   -4.109696    2.094790
  H     -8.194821   -4.927402    1.384243
  H     -8.879857   -3.798122    3.389422
  H     -9.643393   -3.028224    1.988550
  H     -8.863538   -1.414238    3.677423
  H     -7.220784   -1.994429    3.483290
  C      8.889159    0.974278   -1.742702
  C      8.573989    3.137222   -0.468254
  C      9.512700    2.133920   -1.045516
  H      7.636499    3.482434   -0.983298
  H      8.957268    3.986099    0.160936
  H     10.308338    1.839216   -0.350582
  H     10.004948    2.689240   -1.862016
  H      9.520383    0.121242   -2.111850
  H      7.993409    1.060867   -2.415363

 Total Charge           Charge          ....   -2
 Multiplicity           Mult            ....    2
 Number of Electrons    NEL             ....  321
 Basis Dimension        Dim             ....  681

ORBITAL ENERGIES
----------------
                 SPIN UP ORBITALS
  NO   OCC          E(Eh)            E(eV)
   0   1.0000    -196.674233     -5351.7780
   1   1.0000     -88.735476     -2414.6151
   2   1.0000     -88.735386     -2414.6126
   3   1.0000     -88.730835     -2414.4888
   4   1.0000     -88.730781     -2414.4873
   5   1.0000     -88.729046     -2414.4401
   6   1.0000     -88.728998     -2414.4388
   7   1.0000     -88.728116     -2414.4148
   8   1.0000     -88.727956     -2414.4104
   9   1.0000     -88.639627     -2412.0069
  10   1.0000     -88.639122     -2411.9931
  11   1.0000     -88.638759     -2411.9832
  12   1.0000     -88.638507     -2411.9764
  13   1.0000     -22.049632      -600.0010
  14   1.0000     -18.889624      -514.0128
  15   1.0000     -18.556085      -504.9367
  16   1.0000     -18.550904      -504.7958
  17   1.0000     -18.550806      -504.7931
  18   1.0000     -10.077100      -274.2118
  19   1.0000     -10.075629      -274.1718
  20   1.0000     -10.075440      -274.1667
  21   1.0000     -10.072437      -274.0849
  22   1.0000     -10.064622      -273.8723
  23   1.0000     -10.061525      -273.7880
  24   1.0000     -10.061504      -273.7874
  25   1.0000     -10.049156      -273.4514
  26   1.0000     -10.047293      -273.4007
  27   1.0000     -10.046017      -273.3660
  28   1.0000     -10.018190      -272.6088
  29   1.0000     -10.017405      -272.5874
  30   1.0000     -10.016593      -272.5653
  31   1.0000     -10.015643      -272.5395
  32   1.0000      -7.788831      -211.9449
  33   1.0000      -7.788751      -211.9427
  34   1.0000      -7.784087      -211.8158
  35   1.0000      -7.784056      -211.8149
  36   1.0000      -7.782723      -211.7786
  37   1.0000      -7.782635      -211.7763
  38   1.0000      -7.781378      -211.7421
  39   1.0000      -7.781258      -211.7388
  40   1.0000      -7.693891      -209.3614
  41   1.0000      -7.693465      -209.3498
  42   1.0000      -7.693069      -209.3390
  43   1.0000      -7.692753      -209.3305
  44   1.0000      -5.753904      -156.5717
  45   1.0000      -5.753819      -156.5694
  46   1.0000      -5.750374      -156.4756
  47   1.0000      -5.750302      -156.4737
  48   1.0000      -5.749028      -156.4390
  49   1.0000      -5.748988      -156.4379
  50   1.0000      -5.747526      -156.3981
  51   1.0000      -5.747440      -156.3958
  52   1.0000      -5.746343      -156.3659
  53   1.0000      -5.746216      -156.3625
  54   1.0000      -5.744589      -156.3182
  55   1.0000      -5.744558      -156.3174
  56   1.0000      -5.744375      -156.3124
  57   1.0000      -5.744296      -156.3103
  58   1.0000      -5.743601      -156.2913
  59   1.0000      -5.743513      -156.2889
  60   1.0000      -5.741912      -156.2454
  61   1.0000      -5.741789      -156.2420
  62   1.0000      -5.739926      -156.1913
  63   1.0000      -5.739908      -156.1908
  64   1.0000      -5.737532      -156.1262
  65   1.0000      -5.737448      -156.1239
  66   1.0000      -5.737163      -156.1161
  67   1.0000      -5.737045      -156.1129
  68   1.0000      -5.659208      -153.9949
  69   1.0000      -5.658777      -153.9832
  70   1.0000      -5.658372      -153.9721
  71   1.0000      -5.658073      -153.9640
  72   1.0000      -5.652560      -153.8140
  73   1.0000      -5.652129      -153.8023
  74   1.0000      -5.651724      -153.7912
  75   1.0000      -5.651424      -153.7831
  76   1.0000      -5.651222      -153.7776
  77   1.0000      -5.650785      -153.7657
  78   1.0000      -5.650384      -153.7548
  79   1.0000      -5.650047      -153.7456
  80   1.0000      -2.443285       -66.4852
  81   1.0000      -1.484632       -40.3989
  82   1.0000      -1.472910       -40.0799
  83   1.0000      -1.472102       -40.0579
  84   1.0000      -0.711955       -19.3733
  85   1.0000      -0.709280       -19.3005
  86   1.0000      -0.689549       -18.7636
  87   1.0000      -0.683934       -18.6108
  88   1.0000      -0.649267       -17.6674
  89   1.0000      -0.634300       -17.2602
  90   1.0000      -0.629931       -17.1413
  91   1.0000      -0.618861       -16.8401
  92   1.0000      -0.616292       -16.7702
  93   1.0000      -0.575047       -15.6478
  94   1.0000      -0.573718       -15.6117
  95   1.0000      -0.572804       -15.5868
  96   1.0000      -0.572342       -15.5742
  97   1.0000      -0.502191       -13.6653
  98   1.0000      -0.496552       -13.5119
  99   1.0000      -0.494218       -13.4483
 100   1.0000      -0.491090       -13.3632
 101   1.0000      -0.479421       -13.0457
 102   1.0000      -0.474625       -12.9152
 103   1.0000      -0.448979       -12.2173
 104   1.0000      -0.442020       -12.0280
 105   1.0000      -0.415608       -11.3093
 106   1.0000      -0.410367       -11.1666
 107   1.0000      -0.362145        -9.8545
 108   1.0000      -0.352248        -9.5852
 109   1.0000      -0.325570        -8.8592
 110   1.0000      -0.324659        -8.8344
 111   1.0000      -0.319001        -8.6804
 112   1.0000      -0.313334        -8.5263
 113   1.0000      -0.310284        -8.4433
 114   1.0000      -0.305570        -8.3150
 115   1.0000      -0.302524        -8.2321
 116   1.0000      -0.282215        -7.6795
 117   1.0000      -0.272364        -7.4114
 118   1.0000      -0.258812        -7.0426
 119   1.0000      -0.254940        -6.9373
 120   1.0000      -0.253601        -6.9008
 121   1.0000      -0.249909        -6.8004
 122   1.0000      -0.230250        -6.2654
 123   1.0000      -0.226570        -6.1653
 124   1.0000      -0.218580        -5.9479
 125   1.0000      -0.217419        -5.9163
 126   1.0000      -0.215447        -5.8626
 127   1.0000      -0.213497        -5.8095
 128   1.0000      -0.208621        -5.6769
 129   1.0000      -0.192139        -5.2284
 130   1.0000      -0.190478        -5.1832
 131   1.0000      -0.183942        -5.0053
 132   1.0000      -0.175201        -4.7675
 133   1.0000      -0.174125        -4.7382
 134   1.0000      -0.158816        -4.3216
 135   1.0000      -0.150805        -4.1036
 136   1.0000      -0.144815        -3.9406
 137   1.0000      -0.135306        -3.6819
 138   1.0000      -0.132057        -3.5935
 139   1.0000      -0.131242        -3.5713
 140   1.0000      -0.124176        -3.3790
 141   1.0000      -0.120106        -3.2683
 142   1.0000      -0.112920        -3.0727
 143   1.0000      -0.109041        -2.9672
 144   1.0000      -0.099426        -2.7055
 145   1.0000      -0.097395        -2.6502
 146   1.0000      -0.096997        -2.6394
 147   1.0000      -0.092974        -2.5300
 148   1.0000      -0.073883        -2.0105
 149   1.0000      -0.067677        -1.8416
 150   1.0000      -0.066141        -1.7998
 151   1.0000      -0.051589        -1.4038
 152   1.0000      -0.044954        -1.2233
 153   1.0000      -0.036993        -1.0066
 154   1.0000      -0.036481        -0.9927
 155   1.0000      -0.029916        -0.8140
 156   1.0000      -0.024400        -0.6639
 157   1.0000      -0.018460        -0.5023
 158   1.0000      -0.014618        -0.3978
 159   1.0000       0.021054         0.5729
 160   1.0000       0.041859         1.1390
 161   0.0000       0.134735         3.6663
 162   0.0000       0.137098         3.7306
 163   0.0000       0.161378         4.3913
 164   0.0000       0.163287         4.4433
 165   0.0000       0.163889         4.4596

                 SPIN DOWN ORBITALS
  NO   OCC          E(Eh)            E(eV)
   0   1.0000    -196.674380     -5351.7820
   1   1.0000     -88.735477     -2414.6151
   2   1.0000     -88.735386     -2414.6126
   3   1.0000     -88.730843     -2414.4890
   4   1.0000     -88.730789     -2414.4875
   5   1.0000     -88.729047     -2414.4401
   6   1.0000     -88.728999     -2414.4388
   7   1.0000     -88.728124     -2414.4150
   8   1.0000     -88.727964     -2414.4107
   9   1.0000     -88.639763     -2412.0106
  10   1.0000     -88.639260     -2411.9969
  11   1.0000     -88.638899     -2411.9871
  12   1.0000     -88.638649     -2411.9803
  13   1.0000     -22.034709      -599.5949
  14   1.0000     -18.893392      -514.1153
  15   1.0000     -18.550826      -504.7936
  16   1.0000     -18.534876      -504.3596
  17   1.0000     -18.534696      -504.3547
  18   1.0000     -10.077100      -274.2118
  19   1.0000     -10.075628      -274.1718
  20   1.0000     -10.075439      -274.1666
  21   1.0000     -10.072432      -274.0848
  22   1.0000     -10.064621      -273.8723
  23   1.0000     -10.061525      -273.7880
  24   1.0000     -10.061504      -273.7874
  25   1.0000     -10.049151      -273.4513
  26   1.0000     -10.047293      -273.4007
  27   1.0000     -10.046006      -273.3657
  28   1.0000     -10.017976      -272.6030
  29   1.0000     -10.017193      -272.5817
  30   1.0000     -10.016354      -272.5589
  31   1.0000     -10.015419      -272.5334
  32   1.0000      -7.788832      -211.9449
  33   1.0000      -7.788751      -211.9427
  34   1.0000      -7.784097      -211.8160
  35   1.0000      -7.784065      -211.8152
  36   1.0000      -7.782723      -211.7787
  37   1.0000      -7.782636      -211.7763
  38   1.0000      -7.781387      -211.7423
  39   1.0000      -7.781268      -211.7391
  40   1.0000      -7.694017      -209.3649
  41   1.0000      -7.693594      -209.3533
  42   1.0000      -7.693199      -209.3426
  43   1.0000      -7.692885      -209.3340
  44   1.0000      -5.753905      -156.5717
  45   1.0000      -5.753820      -156.5694
  46   1.0000      -5.750375      -156.4757
  47   1.0000      -5.750302      -156.4737
  48   1.0000      -5.749039      -156.4393
  49   1.0000      -5.748999      -156.4382
  50   1.0000      -5.747527      -156.3982
  51   1.0000      -5.747442      -156.3958
  52   1.0000      -5.746353      -156.3662
  53   1.0000      -5.746227      -156.3628
  54   1.0000      -5.744604      -156.3186
  55   1.0000      -5.744572      -156.3178
  56   1.0000      -5.744376      -156.3124
  57   1.0000      -5.744298      -156.3103
  58   1.0000      -5.743602      -156.2913
  59   1.0000      -5.743514      -156.2890
  60   1.0000      -5.741926      -156.2457
  61   1.0000      -5.741803      -156.2424
  62   1.0000      -5.739932      -156.1915
  63   1.0000      -5.739914      -156.1910
  64   1.0000      -5.737533      -156.1262
  65   1.0000      -5.737449      -156.1239
  66   1.0000      -5.737170      -156.1163
  67   1.0000      -5.737054      -156.1132
  68   1.0000      -5.659349      -153.9987
  69   1.0000      -5.658918      -153.9870
  70   1.0000      -5.658511      -153.9759
  71   1.0000      -5.658215      -153.9679
  72   1.0000      -5.652908      -153.8234
  73   1.0000      -5.652487      -153.8120
  74   1.0000      -5.652113      -153.8018
  75   1.0000      -5.651808      -153.7935
  76   1.0000      -5.651326      -153.7804
  77   1.0000      -5.650890      -153.7685
  78   1.0000      -5.650471      -153.7571
  79   1.0000      -5.650141      -153.7481
  80   1.0000      -2.398429       -65.2646
  81   1.0000      -1.465372       -39.8748
  82   1.0000      -1.410562       -38.3834
  83   1.0000      -1.410400       -38.3789
  84   1.0000      -0.711940       -19.3729
  85   1.0000      -0.709262       -19.3000
  86   1.0000      -0.689489       -18.7619
  87   1.0000      -0.683892       -18.6096
  88   1.0000      -0.657340       -17.8871
  89   1.0000      -0.634222       -17.2581
  90   1.0000      -0.629874       -17.1398
  91   1.0000      -0.618861       -16.8401
  92   1.0000      -0.616294       -16.7702
  93   1.0000      -0.575023       -15.6472
  94   1.0000      -0.573642       -15.6096
  95   1.0000      -0.572733       -15.5848
  96   1.0000      -0.572310       -15.5733
  97   1.0000      -0.502201       -13.6656
  98   1.0000      -0.496592       -13.5130
  99   1.0000      -0.494246       -13.4491
 100   1.0000      -0.491168       -13.3654
 101   1.0000      -0.479622       -13.0512
 102   1.0000      -0.474837       -12.9210
 103   1.0000      -0.449013       -12.2183
 104   1.0000      -0.442059       -12.0290
 105   1.0000      -0.415605       -11.3092
 106   1.0000      -0.410472       -11.1695
 107   1.0000      -0.362140        -9.8543
 108   1.0000      -0.352241        -9.5850
 109   1.0000      -0.325554        -8.8588
 110   1.0000      -0.324653        -8.8343
 111   1.0000      -0.318937        -8.6787
 112   1.0000      -0.313345        -8.5265
 113   1.0000      -0.310282        -8.4432
 114   1.0000      -0.305518        -8.3136
 115   1.0000      -0.302491        -8.2312
 116   1.0000      -0.282206        -7.6792
 117   1.0000      -0.272332        -7.4105
 118   1.0000      -0.258708        -7.0398
 119   1.0000      -0.254865        -6.9352
 120   1.0000      -0.253593        -6.9006
 121   1.0000      -0.249814        -6.7978
 122   1.0000      -0.230171        -6.2633
 123   1.0000      -0.226560        -6.1650
 124   1.0000      -0.218468        -5.9448
 125   1.0000      -0.216988        -5.9045
 126   1.0000      -0.215361        -5.8603
 127   1.0000      -0.213300        -5.8042
 128   1.0000      -0.208536        -5.6745
 129   1.0000      -0.190958        -5.1962
 130   1.0000      -0.189643        -5.1605
 131   1.0000      -0.183737        -4.9997
 132   1.0000      -0.175069        -4.7639
 133   1.0000      -0.174016        -4.7352
 134   1.0000      -0.158185        -4.3044
 135   1.0000      -0.150647        -4.0993
 136   1.0000      -0.144721        -3.9381
 137   1.0000      -0.134829        -3.6689
 138   1.0000      -0.131844        -3.5877
 139   1.0000      -0.130587        -3.5535
 140   1.0000      -0.123759        -3.3677
 141   1.0000      -0.119779        -3.2593
 142   1.0000      -0.114702        -3.1212
 143   1.0000      -0.110603        -3.0097
 144   1.0000      -0.099492        -2.7073
 145   1.0000      -0.097424        -2.6510
 146   1.0000      -0.097233        -2.6458
 147   1.0000      -0.093241        -2.5372
 148   1.0000      -0.070045        -1.9060
 149   1.0000      -0.067665        -1.8413
 150   1.0000      -0.066146        -1.7999
 151   1.0000      -0.048986        -1.3330
 152   1.0000      -0.044014        -1.1977
 153   1.0000      -0.037018        -1.0073
 154   1.0000      -0.035930        -0.9777
 155   1.0000      -0.029972        -0.8156
 156   1.0000      -0.025423        -0.6918
 157   1.0000      -0.014837        -0.4037
 158   1.0000       0.021358         0.5812
 159   1.0000       0.040752         1.1089
 160   0.0000       0.134750         3.6667
 161   0.0000       0.137091         3.7304
 162   0.0000       0.156367         4.2550
 163   0.0000       0.162167         4.4128
 164   0.0000       0.163751         4.4559

MULLIKEN ATOMIC CHARGES AND SPIN POPULATIONS
--------------------------------------------
   0 V :    0.471106    1.210033
   1 S :   -0.290254   -0.022257
   2 S :   -0.290899   -0.025320
   3 S :   -0.288355   -0.023215
   4 S :   -0.286759   -0.025770
   5 O :   -0.468096   -0.146226
   6 C :   -0.075669    0.009743
   7 C :   -0.082887    0.008074
   8 C :   -0.084896    0.007731
   9 C :   -0.085384    0.007367
  10 S :    0.091386   -0.000569
  11 S :    0.092390   -0.000613
  12 S :    0.103675   -0.000389
  13 S :    0.102760   -0.000341
  14 C :   -0.194821    0.001503
  15 C :   -0.216055    0.000980
  16 C :   -0.217434   -0.000115
  17 C :   -0.187789   -0.000389
  18 S :   -0.032180   -0.000126
  19 S :   -0.031254   -0.000126
  20 S :    0.022294   -0.000067
  21 S :    0.022330   -0.000070
  22 C :   -0.287832   -0.000000
  23 C :   -0.287692   -0.000001
  24 C :   -0.189372   -0.000011
  25 H :    0.131679   -0.000002
  26 H :    0.110190   -0.000003
  27 H :    0.084868   -0.000000
  28 H :    0.089019   -0.000001
  29 H :    0.109963   -0.000004
  30 H :    0.131338   -0.000001
  31 C :   -0.312814    0.000230
  32 C :   -0.315040    0.000224
  33 C :   -0.073331   -0.000285
  34 H :    0.165167   -0.000019
  35 H :    0.106975    0.000009
  36 H :    0.109274    0.000017
  37 H :    0.083047    0.000018
  38 H :    0.106926    0.000010
  39 H :    0.164426   -0.000020
Sum of atomic charges         :   -2.0000000

LOEWDIN ATOMIC CHARGES AND SPIN POPULATIONS
-------------------------------------------
   0 V :   -0.156131    1.163464
   1 S :    0.080487   -0.014318
   2 S :    0.078228   -0.016182
   3 S :    0.081795   -0.015126
   4 S :    0.082114   -0.016392
   5 O :   -0.319186   -0.131173
   6 C :   -0.549667    0.009089
   7 C :   -0.551841    0.007985
   8 C :   -0.552483    0.008127
   9 C :   -0.552475    0.007661
  10 S :    0.464155   -0.000881
  11 S :    0.464955   -0.000934
  12 S :    0.474643   -0.000822
  13 S :    0.473888   -0.000828
  14 C :   -0.467988    0.000131
  15 C :   -0.463690   -0.000083
  16 C :   -0.623318    0.000449
  17 C :   -0.622736    0.000086
  18 S :    0.324487   -0.000101
  19 S :    0.326312   -0.000098
  20 S :    0.372591   -0.000071
  21 S :    0.372244   -0.000073
  22 C :   -0.296813   -0.000007
  23 C :   -0.296912   -0.000008
  24 C :   -0.179861   -0.000002
  25 H :    0.060238   -0.000002
  26 H :    0.054788   -0.000002
  27 H :    0.056813   -0.000001
  28 H :    0.055562   -0.000001
  29 H :    0.054727   -0.000002
  30 H :    0.060073   -0.000002
  31 C :   -0.271989    0.000051
  32 C :   -0.271828    0.000043
  33 C :   -0.176251    0.000007
  34 H :    0.080224    0.000000
  35 H :    0.059414    0.000003
  36 H :    0.072782    0.000005
  37 H :    0.063357    0.000003
  38 H :    0.059386    0.000004
  39 H :    0.079907    0.000000

  Mayer bond orders larger than 0.100000
B(  0-V ,  1-S ) :   0.7702 B(  0-V ,  2-S ) :   0.7728 B(  0-V ,  3-S ) :   0.7635
B(  0-V ,  4-S ) :   0.7801 B(  0-V ,  5-O ) :   2.1483 B(  1-S ,  8-C ) :   1.1049
B(  2-S ,  6-C ) :   1.1020 B(  3-S ,  9-C ) :   1.1079 B(  4-S ,  7-C ) :   1.1027
B(  6-C ,  7-C ) :   1.6916 B(  6-C , 10-S ) :   0.9337 B(  7-C , 11-S ) :   0.9376
B(  8-C ,  9-C ) :   1.6945 B(  8-C , 13-S ) :   0.9346 B(  9-C , 12-S ) :   0.9364
B( 10-S , 14-C ) :   1.2382 B( 11-S , 14-C ) :   1.2376 B( 12-S , 15-C ) :   1.2513
B( 13-S , 15-C ) :   1.2516 B( 14-C , 16-C ) :   1.4681 B( 15-C , 17-C ) :   1.4418
B( 16-C , 18-S ) :   1.1040 B( 16-C , 19-S ) :   1.1062 B( 17-C , 20-S ) :   1.0837
B( 17-C , 21-S ) :   1.0844 B( 18-S , 32-C ) :   0.9612 B( 19-S , 31-C ) :   0.9612
B( 20-S , 23-C ) :   0.9938 B( 21-S , 22-C ) :   0.9931 B( 22-C , 24-C ) :   0.9064
B( 22-C , 25-H ) :   0.9648 B( 22-C , 26-H ) :   0.9641 B( 23-C , 24-C ) :   0.9069
B( 23-C , 29-H ) :   0.9642 B( 23-C , 30-H ) :   0.9646 B( 24-C , 27-H ) :   0.9619
B( 24-C , 28-H ) :   0.9748 B( 31-C , 33-C ) :   0.9281 B( 31-C , 38-H ) :   0.9693
B( 31-C , 39-H ) :   0.9655 B( 32-C , 33-C ) :   0.9273 B( 32-C , 34-H ) :   0.9654
B( 32-C , 35-H ) :   0.9693 B( 33-C , 36-H ) :   0.9536 B( 33-C , 37-H ) :   0.9646

FINAL SINGLE POINT ENERGY     -6337.666261646797

DIPOLE MOMENT
-------------
                                X             Y             Z
Electronic contribution:     -4.42012       7.87409     -10.97416
Nuclear contribution   :      5.23152      -8.60592      12.03274
                        -----------------------------------------
Total Dipole Moment    :      0.81141      -0.73184       1.05857
                        -----------------------------------------
Magnitude (a.u.)       :      1.52136
Magnitude (Debye)      :      3.86700

Rotational constants in cm-1:     0.010760     0.000804     0.000783
Rotational constants in MHz :   322.579934    24.116695    23.487022

                             ****ORCA TERMINATED NORMALLY****
TOTAL RUN TIME: 0 days 1 hours 1 minutes 49 seconds 947 msec
