                         Program Version 5.0.4 -  RELEASE  -
|  1> ! nofrozencore ReducedPop printbasis
|  2> ! B3LYP TZVP
|  3>
|  4> %basis
|  5> newgto V "CP(PPP)" end
|  6> end
|  7>
|  8> %pal
|  9> nprocs 6
| 10> end
| 11>
| 12> % sym SymThresh 1e-2 end
| 13> * xyz -2 2
| 14> V 0.3488879433984293 -1.0573692862350428 0.04021625043449918
| 15> S 0.3865163047705872 -0.41474770186778526 2.4998085697174655
| 16> S -2.065669458705723 -1.0684596784429852 0.28394360735350144
| 17> S 2.375680932862569 0.2274504301743973 -0.14767493102323195
| 18> S -0.08265225605564498 -0.23301138626427959 -2.293694338949964
| 19> O 0.794324984566249 -2.576483209263507 -0.10543881990542418
| 20> C -2.5538686340492305 -1.0656923776216543 -1.4044819015322425
| 21> C -1.7632583946407867 -0.7305487392205765 -2.441764484341195
| 22> C 1.9854767067249508 0.3207836718332684 2.5880679092140935
| 23> C 2.765202308690536 0.5863060644075928 1.5234320359400377
| 24> S -4.265250563557721 -1.4585808408505918 -1.7871798921611468
| 25> S -2.539410582173476 -0.7328920387873376 -4.060764586524132
| 26> S 4.321700328683849 1.4306742067600948 1.8355157728394176
| 27> S 2.6558838688617716 0.8043735892758913 4.184244752622897
| 28> C -4.161999040988374 -1.19663006976491 -3.5332622666669224
| 29> C 4.132200704297754 1.5742380045341515 3.588250001560994
| 30> C -5.19513090310408 -1.3365251908817068 -4.419096425152613
| 31> C 5.0008695340635585 2.191522827048359 4.445387206045148
| 32> S -6.837353592697647 -1.8319995345771483 -3.939357271624737
| 33> S -4.937951468251176 -1.0556573771015605 -6.1634195675187575
| 34> S 4.6188934603883 2.2915598181855894 6.188525837753724
| 35> S 6.52266165065276 2.960646661013134 3.9284146274374594
| 36> C 5.989890807573261 4.694784214979606 4.320274345544006
| 37> C 4.625849508326294 4.137644992543386 6.437631185673891
| 38> C 5.8227521081101195 4.884666441291633 5.832244624033486
| 39> H 5.048411754343885 4.886995538458556 3.7754876350684388
| 40> H 6.766990193571349 5.372112409987363 3.923987382645997
| 41> H 5.679584408373931 5.953857059595272 6.042815034563386
| 42> H 6.750707635774844 4.575400381401367 6.330983365618131
| 43> H 4.614412909634496 4.268023236062102 7.534591711068191
| 44> H 3.6805714027178826 4.546360582063938 6.034331102523342
| 45> C -5.395165018774883 -2.724970208251225 -6.835459077383763
| 46> C -6.840030724664171 -3.4555261668210746 -4.833135939774816
| 47> C -6.741244016347678 -3.273637295140929 -6.350246591984441
| 48> H -6.005818646160088 -4.054187700299178 -4.445306410568306
| 49> H -7.779412940894667 -3.956589599631332 -4.564808335284928
| 50> H -7.552293889523862 -2.615697254109729 -6.6829561995144315
| 51> H -6.894121124848608 -4.2497911681604625 -6.831625149793531
| 52> H -5.412339818726661 -2.5909732383742985 -7.9252108755903174
| 53> H -4.586783849111073 -3.4272436310493073 -6.590656715110778
| 54> *
| 55>
| 56> % eprnmr
| 57> gtensor true
| 58> Nuclei = all H {aiso,adip,aorb,fgrad,rho}
| 59> Nuclei = all V {aiso,adip,aorb,fgrad,rho}
| 60> end
| 61>
| 62>                          ****END OF INPUT****

CARTESIAN COORDINATES (ANGSTROEM)
---------------------------------
  V      0.346222   -1.054990    0.038827
  S      0.383850   -0.412369    2.498420
  S     -2.068336   -1.066081    0.282555
  S      2.373015    0.229830   -0.149064
  S     -0.085318   -0.230632   -2.295083
  O      0.791659   -2.574104   -0.106828
  C     -2.556535   -1.063313   -1.405871
  C     -1.765925   -0.728170   -2.443153
  C      1.982810    0.323163    2.586679
  C      2.762536    0.588685    1.522043
  S     -4.267917   -1.456202   -1.788569
  S     -2.542077   -0.730513   -4.062153
  S      4.319034    1.433053    1.834127
  S      2.653218    0.806753    4.182856
  C     -4.164665   -1.194251   -3.534651
  C      4.129534    1.576617    3.586861
  C     -5.197797   -1.334146   -4.420485
  C      4.998203    2.193902    4.443998
  S     -6.840020   -1.829620   -3.940746
  S     -4.940618   -1.053278   -6.164808
  S      4.616227    2.293939    6.187137
  S      6.519995    2.963026    3.927026
  C      5.987225    4.697163    4.318885
  C      4.623183    4.140024    6.436242
  C      5.820086    4.887046    5.830856
  H      5.045746    4.889375    3.774099
  H      6.764324    5.374492    3.922599
  H      5.676918    5.956236    6.041426
  H      6.748041    4.577780    6.329595
  H      4.611747    4.270402    7.533203
  H      3.677905    4.548740    6.032942
  C     -5.397831   -2.722591   -6.836848
  C     -6.842697   -3.453147   -4.834525
  C     -6.743910   -3.271258   -6.351635
  H     -6.008485   -4.051809   -4.446695
  H     -7.782079   -3.954210   -4.566197
  H     -7.554960   -2.613318   -6.684345
  H     -6.896787   -4.247412   -6.833014
  H     -5.415006   -2.588594   -7.926600
  H     -4.589450   -3.424865   -6.592046

 Total Charge           Charge          ....   -2
 Multiplicity           Mult            ....    2
 Number of Electrons    NEL             ....  321
 Basis Dimension        Dim             ....  681

ORBITAL ENERGIES
----------------
                 SPIN UP ORBITALS
  NO   OCC          E(Eh)            E(eV)
   0   1.0000    -196.674204     -5351.7772
   1   1.0000     -88.734586     -2414.5908
   2   1.0000     -88.734059     -2414.5765
   3   1.0000     -88.732602     -2414.5368
   4   1.0000     -88.732452     -2414.5328
   5   1.0000     -88.731196     -2414.4986
   6   1.0000     -88.730949     -2414.4919
   7   1.0000     -88.728994     -2414.4387
   8   1.0000     -88.728475     -2414.4246
   9   1.0000     -88.639362     -2411.9997
  10   1.0000     -88.639352     -2411.9994
  11   1.0000     -88.639248     -2411.9966
  12   1.0000     -88.639034     -2411.9907
  13   1.0000     -22.049630      -600.0009
  14   1.0000     -18.889447      -514.0080
  15   1.0000     -18.556068      -504.9363
  16   1.0000     -18.550915      -504.7960
  17   1.0000     -18.550802      -504.7930
  18   1.0000     -10.075691      -274.1735
  19   1.0000     -10.075558      -274.1699
  20   1.0000     -10.067255      -273.9439
  21   1.0000     -10.065373      -273.8927
  22   1.0000     -10.065331      -273.8916
  23   1.0000     -10.064154      -273.8596
  24   1.0000     -10.052329      -273.5378
  25   1.0000     -10.051801      -273.5234
  26   1.0000     -10.048830      -273.4426
  27   1.0000     -10.048505      -273.4337
  28   1.0000     -10.017947      -272.6022
  29   1.0000     -10.017720      -272.5960
  30   1.0000     -10.017132      -272.5800
  31   1.0000     -10.016927      -272.5744
  32   1.0000      -7.787942      -211.9207
  33   1.0000      -7.787439      -211.9070
  34   1.0000      -7.785948      -211.8664
  35   1.0000      -7.785702      -211.8597
  36   1.0000      -7.784321      -211.8221
  37   1.0000      -7.784095      -211.8160
  38   1.0000      -7.782324      -211.7678
  39   1.0000      -7.781807      -211.7537
  40   1.0000      -7.694005      -209.3645
  41   1.0000      -7.693886      -209.3613
  42   1.0000      -7.693325      -209.3460
  43   1.0000      -7.693089      -209.3396
  44   1.0000      -5.752850      -156.5430
  45   1.0000      -5.752381      -156.5303
  46   1.0000      -5.750997      -156.4926
  47   1.0000      -5.750800      -156.4872
  48   1.0000      -5.749671      -156.4565
  49   1.0000      -5.749293      -156.4462
  50   1.0000      -5.749115      -156.4414
  51   1.0000      -5.749056      -156.4398
  52   1.0000      -5.747465      -156.3965
  53   1.0000      -5.747261      -156.3909
  54   1.0000      -5.747192      -156.3890
  55   1.0000      -5.746739      -156.3767
  56   1.0000      -5.744849      -156.3253
  57   1.0000      -5.744608      -156.3187
  58   1.0000      -5.742832      -156.2704
  59   1.0000      -5.742704      -156.2669
  60   1.0000      -5.742336      -156.2569
  61   1.0000      -5.742211      -156.2535
  62   1.0000      -5.740745      -156.2136
  63   1.0000      -5.740485      -156.2065
  64   1.0000      -5.740145      -156.1973
  65   1.0000      -5.739941      -156.1917
  66   1.0000      -5.738135      -156.1426
  67   1.0000      -5.737600      -156.1280
  68   1.0000      -5.659232      -153.9955
  69   1.0000      -5.659179      -153.9941
  70   1.0000      -5.658678      -153.9805
  71   1.0000      -5.658474      -153.9749
  72   1.0000      -5.652571      -153.8143
  73   1.0000      -5.652457      -153.8112
  74   1.0000      -5.652054      -153.8002
  75   1.0000      -5.651860      -153.7949
  76   1.0000      -5.651365      -153.7815
  77   1.0000      -5.651241      -153.7781
  78   1.0000      -5.650585      -153.7602
  79   1.0000      -5.650366      -153.7543
  80   1.0000      -2.443380       -66.4877
  81   1.0000      -1.484549       -40.3966
  82   1.0000      -1.473145       -40.0863
  83   1.0000      -1.472277       -40.0627
  84   1.0000      -0.708922       -19.2908
  85   1.0000      -0.708459       -19.2781
  86   1.0000      -0.684911       -18.6374
  87   1.0000      -0.684015       -18.6130
  88   1.0000      -0.649107       -17.6631
  89   1.0000      -0.630916       -17.1681
  90   1.0000      -0.630384       -17.1536
  91   1.0000      -0.616041       -16.7633
  92   1.0000      -0.614557       -16.7229
  93   1.0000      -0.574003       -15.6194
  94   1.0000      -0.573747       -15.6125
  95   1.0000      -0.573069       -15.5940
  96   1.0000      -0.572001       -15.5649
  97   1.0000      -0.496773       -13.5179
  98   1.0000      -0.496008       -13.4971
  99   1.0000      -0.494543       -13.4572
 100   1.0000      -0.493592       -13.4313
 101   1.0000      -0.479262       -13.0414
 102   1.0000      -0.476689       -12.9714
 103   1.0000      -0.446225       -12.1424
 104   1.0000      -0.443786       -12.0760
 105   1.0000      -0.416016       -11.3204
 106   1.0000      -0.410771       -11.1776
 107   1.0000      -0.354461        -9.6454
 108   1.0000      -0.353160        -9.6100
 109   1.0000      -0.326200        -8.8763
 110   1.0000      -0.325383        -8.8541
 111   1.0000      -0.318437        -8.6651
 112   1.0000      -0.313869        -8.5408
 113   1.0000      -0.305042        -8.3006
 114   1.0000      -0.304259        -8.2793
 115   1.0000      -0.290625        -7.9083
 116   1.0000      -0.288424        -7.8484
 117   1.0000      -0.257363        -7.0032
 118   1.0000      -0.256859        -6.9895
 119   1.0000      -0.255001        -6.9389
 120   1.0000      -0.254540        -6.9264
 121   1.0000      -0.234723        -6.3871
 122   1.0000      -0.234304        -6.3757
 123   1.0000      -0.230248        -6.2654
 124   1.0000      -0.228826        -6.2267
 125   1.0000      -0.219418        -5.9707
 126   1.0000      -0.217692        -5.9237
 127   1.0000      -0.213674        -5.8144
 128   1.0000      -0.211016        -5.7420
 129   1.0000      -0.193013        -5.2521
 130   1.0000      -0.187614        -5.1052
 131   1.0000      -0.185724        -5.0538
 132   1.0000      -0.183507        -4.9935
 133   1.0000      -0.178959        -4.8697
 134   1.0000      -0.159290        -4.3345
 135   1.0000      -0.151681        -4.1275
 136   1.0000      -0.146796        -3.9945
 137   1.0000      -0.135894        -3.6979
 138   1.0000      -0.133904        -3.6437
 139   1.0000      -0.132066        -3.5937
 140   1.0000      -0.124551        -3.3892
 141   1.0000      -0.120741        -3.2855
 142   1.0000      -0.112996        -3.0748
 143   1.0000      -0.108998        -2.9660
 144   1.0000      -0.099587        -2.7099
 145   1.0000      -0.098113        -2.6698
 146   1.0000      -0.096443        -2.6243
 147   1.0000      -0.093964        -2.5569
 148   1.0000      -0.074685        -2.0323
 149   1.0000      -0.067635        -1.8405
 150   1.0000      -0.067012        -1.8235
 151   1.0000      -0.051802        -1.4096
 152   1.0000      -0.045498        -1.2381
 153   1.0000      -0.036997        -1.0067
 154   1.0000      -0.036127        -0.9831
 155   1.0000      -0.030839        -0.8392
 156   1.0000      -0.024561        -0.6683
 157   1.0000      -0.018481        -0.5029
 158   1.0000      -0.014946        -0.4067
 159   1.0000       0.020794         0.5658
 160   1.0000       0.041625         1.1327
 161   0.0000       0.136624         3.7177
 162   0.0000       0.136717         3.7202
 163   0.0000       0.161482         4.3942
 164   0.0000       0.161788         4.4025
 165   0.0000       0.169817         4.6209

                 SPIN DOWN ORBITALS
  NO   OCC          E(Eh)            E(eV)
   0   1.0000    -196.674350     -5351.7812
   1   1.0000     -88.734587     -2414.5909
   2   1.0000     -88.734060     -2414.5765
   3   1.0000     -88.732603     -2414.5369
   4   1.0000     -88.732453     -2414.5328
   5   1.0000     -88.731202     -2414.4988
   6   1.0000     -88.730956     -2414.4921
   7   1.0000     -88.729004     -2414.4389
   8   1.0000     -88.728484     -2414.4248
   9   1.0000     -88.639502     -2412.0035
  10   1.0000     -88.639497     -2412.0033
  11   1.0000     -88.639382     -2412.0002
  12   1.0000     -88.639167     -2411.9944
  13   1.0000     -22.034730      -599.5955
  14   1.0000     -18.893214      -514.1105
  15   1.0000     -18.550814      -504.7933
  16   1.0000     -18.534913      -504.3606
  17   1.0000     -18.534717      -504.3553
  18   1.0000     -10.075686      -274.1734
  19   1.0000     -10.075558      -274.1699
  20   1.0000     -10.067255      -273.9439
  21   1.0000     -10.065372      -273.8927
  22   1.0000     -10.065331      -273.8916
  23   1.0000     -10.064153      -273.8595
  24   1.0000     -10.052329      -273.5378
  25   1.0000     -10.051801      -273.5234
  26   1.0000     -10.048826      -273.4425
  27   1.0000     -10.048493      -273.4334
  28   1.0000     -10.017701      -272.5955
  29   1.0000     -10.017509      -272.5903
  30   1.0000     -10.016908      -272.5739
  31   1.0000     -10.016702      -272.5683
  32   1.0000      -7.787942      -211.9207
  33   1.0000      -7.787439      -211.9070
  34   1.0000      -7.785949      -211.8664
  35   1.0000      -7.785703      -211.8598
  36   1.0000      -7.784328      -211.8223
  37   1.0000      -7.784103      -211.8162
  38   1.0000      -7.782334      -211.7681
  39   1.0000      -7.781817      -211.7540
  40   1.0000      -7.694128      -209.3679
  41   1.0000      -7.694010      -209.3646
  42   1.0000      -7.693461      -209.3497
  43   1.0000      -7.693221      -209.3432
  44   1.0000      -5.752851      -156.5430
  45   1.0000      -5.752382      -156.5303
  46   1.0000      -5.750999      -156.4926
  47   1.0000      -5.750801      -156.4873
  48   1.0000      -5.749672      -156.4565
  49   1.0000      -5.749301      -156.4464
  50   1.0000      -5.749116      -156.4414
  51   1.0000      -5.749065      -156.4400
  52   1.0000      -5.747466      -156.3965
  53   1.0000      -5.747273      -156.3912
  54   1.0000      -5.747192      -156.3891
  55   1.0000      -5.746752      -156.3771
  56   1.0000      -5.744860      -156.3256
  57   1.0000      -5.744620      -156.3191
  58   1.0000      -5.742847      -156.2708
  59   1.0000      -5.742704      -156.2669
  60   1.0000      -5.742352      -156.2573
  61   1.0000      -5.742211      -156.2535
  62   1.0000      -5.740746      -156.2136
  63   1.0000      -5.740485      -156.2065
  64   1.0000      -5.740149      -156.1974
  65   1.0000      -5.739948      -156.1919
  66   1.0000      -5.738144      -156.1428
  67   1.0000      -5.737607      -156.1282
  68   1.0000      -5.659384      -153.9997
  69   1.0000      -5.659325      -153.9981
  70   1.0000      -5.658813      -153.9841
  71   1.0000      -5.658606      -153.9785
  72   1.0000      -5.652907      -153.8234
  73   1.0000      -5.652813      -153.8209
  74   1.0000      -5.652462      -153.8113
  75   1.0000      -5.652229      -153.8050
  76   1.0000      -5.651462      -153.7841
  77   1.0000      -5.651328      -153.7805
  78   1.0000      -5.650675      -153.7627
  79   1.0000      -5.650476      -153.7573
  80   1.0000      -2.398577       -65.2686
  81   1.0000      -1.465296       -39.8727
  82   1.0000      -1.410970       -38.3945
  83   1.0000      -1.410583       -38.3839
  84   1.0000      -0.708895       -19.2900
  85   1.0000      -0.708441       -19.2777
  86   1.0000      -0.684855       -18.6358
  87   1.0000      -0.683970       -18.6118
  88   1.0000      -0.657193       -17.8831
  89   1.0000      -0.630840       -17.1660
  90   1.0000      -0.630319       -17.1519
  91   1.0000      -0.616041       -16.7633
  92   1.0000      -0.614558       -16.7230
  93   1.0000      -0.573977       -15.6187
  94   1.0000      -0.573721       -15.6117
  95   1.0000      -0.572979       -15.5916
  96   1.0000      -0.571925       -15.5629
  97   1.0000      -0.496771       -13.5178
  98   1.0000      -0.496025       -13.4975
  99   1.0000      -0.494589       -13.4584
 100   1.0000      -0.493645       -13.4328
 101   1.0000      -0.479446       -13.0464
 102   1.0000      -0.476932       -12.9780
 103   1.0000      -0.446242       -12.1429
 104   1.0000      -0.443829       -12.0772
 105   1.0000      -0.416008       -11.3201
 106   1.0000      -0.410875       -11.1805
 107   1.0000      -0.354451        -9.6451
 108   1.0000      -0.353155        -9.6098
 109   1.0000      -0.326183        -8.8759
 110   1.0000      -0.325372        -8.8538
 111   1.0000      -0.318351        -8.6628
 112   1.0000      -0.313886        -8.5413
 113   1.0000      -0.304993        -8.2993
 114   1.0000      -0.304232        -8.2786
 115   1.0000      -0.290619        -7.9081
 116   1.0000      -0.288418        -7.8483
 117   1.0000      -0.257191        -6.9985
 118   1.0000      -0.256776        -6.9872
 119   1.0000      -0.254977        -6.9383
 120   1.0000      -0.254502        -6.9254
 121   1.0000      -0.234669        -6.3857
 122   1.0000      -0.234293        -6.3754
 123   1.0000      -0.230205        -6.2642
 124   1.0000      -0.228791        -6.2257
 125   1.0000      -0.219013        -5.9596
 126   1.0000      -0.217591        -5.9210
 127   1.0000      -0.213472        -5.8089
 128   1.0000      -0.210870        -5.7381
 129   1.0000      -0.191268        -5.2047
 130   1.0000      -0.187506        -5.1023
 131   1.0000      -0.185365        -5.0440
 132   1.0000      -0.183299        -4.9878
 133   1.0000      -0.178853        -4.8668
 134   1.0000      -0.158640        -4.3168
 135   1.0000      -0.151511        -4.1228
 136   1.0000      -0.146711        -3.9922
 137   1.0000      -0.135269        -3.6809
 138   1.0000      -0.133726        -3.6389
 139   1.0000      -0.131670        -3.5829
 140   1.0000      -0.123908        -3.3717
 141   1.0000      -0.120408        -3.2765
 142   1.0000      -0.114662        -3.1201
 143   1.0000      -0.110610        -3.0098
 144   1.0000      -0.099589        -2.7100
 145   1.0000      -0.098404        -2.6777
 146   1.0000      -0.096488        -2.6256
 147   1.0000      -0.094256        -2.5648
 148   1.0000      -0.070840        -1.9276
 149   1.0000      -0.067621        -1.8401
 150   1.0000      -0.066899        -1.8204
 151   1.0000      -0.049307        -1.3417
 152   1.0000      -0.044494        -1.2107
 153   1.0000      -0.037012        -1.0071
 154   1.0000      -0.035612        -0.9690
 155   1.0000      -0.030859        -0.8397
 156   1.0000      -0.025492        -0.6937
 157   1.0000      -0.015207        -0.4138
 158   1.0000       0.021101         0.5742
 159   1.0000       0.040489         1.1018
 160   0.0000       0.136611         3.7174
 161   0.0000       0.136731         3.7207
 162   0.0000       0.155817         4.2400
 163   0.0000       0.161691         4.3998
 164   0.0000       0.163066         4.4373

MULLIKEN ATOMIC CHARGES AND SPIN POPULATIONS
--------------------------------------------
   0 V :    0.470652    1.208909
   1 S :   -0.306739   -0.023435
   2 S :   -0.282711   -0.023685
   3 S :   -0.272684   -0.021954
   4 S :   -0.291139   -0.026828
   5 O :   -0.468522   -0.146242
   6 C :   -0.084313    0.010948
   7 C :   -0.078151    0.006942
   8 C :   -0.077256    0.005809
   9 C :   -0.092422    0.009519
  10 S :    0.100170   -0.000369
  11 S :    0.099299   -0.000800
  12 S :    0.100023   -0.000065
  13 S :    0.097291   -0.000567
  14 C :   -0.212166    0.001521
  15 C :   -0.209419    0.000981
  16 C :   -0.191095   -0.000068
  17 C :   -0.188601   -0.000411
  18 S :    0.008714   -0.000119
  19 S :    0.008681   -0.000115
  20 S :    0.007584   -0.000074
  21 S :    0.007143   -0.000072
  22 C :   -0.314030    0.000004
  23 C :   -0.288348   -0.000003
  24 C :   -0.160627   -0.000014
  25 H :    0.154673   -0.000003
  26 H :    0.117557   -0.000004
  27 H :    0.084521   -0.000000
  28 H :    0.094426   -0.000001
  29 H :    0.107639   -0.000004
  30 H :    0.132850    0.000000
  31 C :   -0.292323    0.000191
  32 C :   -0.309238    0.000205
  33 C :   -0.158763   -0.000242
  34 H :    0.149437   -0.000022
  35 H :    0.116189    0.000025
  36 H :    0.093204    0.000024
  37 H :    0.083208    0.000016
  38 H :    0.109847    0.000018
  39 H :    0.135438   -0.000014
Sum of atomic charges         :   -2.0000000

LOEWDIN ATOMIC CHARGES AND SPIN POPULATIONS
-------------------------------------------
   0 V :   -0.158587    1.162085
   1 S :    0.054863   -0.016140
   2 S :    0.094015   -0.014114
   3 S :    0.107848   -0.013083
   4 S :    0.070241   -0.017890
   5 O :   -0.320288   -0.131192
   6 C :   -0.550300    0.010479
   7 C :   -0.551177    0.006739
   8 C :   -0.551721    0.006140
   9 C :   -0.551894    0.009988
  10 S :    0.471616   -0.000796
  11 S :    0.470521   -0.001036
  12 S :    0.470674   -0.000650
  13 S :    0.468895   -0.000933
  14 C :   -0.465008    0.000163
  15 C :   -0.465515   -0.000088
  16 C :   -0.621775    0.000491
  17 C :   -0.620380    0.000083
  18 S :    0.357353   -0.000088
  19 S :    0.358733   -0.000092
  20 S :    0.355950   -0.000080
  21 S :    0.355718   -0.000071
  22 C :   -0.282586   -0.000009
  23 C :   -0.285405   -0.000008
  24 C :   -0.178046   -0.000002
  25 H :    0.069898   -0.000002
  26 H :    0.054509   -0.000002
  27 H :    0.057710   -0.000002
  28 H :    0.060595   -0.000001
  29 H :    0.055716   -0.000003
  30 H :    0.060335   -0.000001
  31 C :   -0.285226    0.000047
  32 C :   -0.283183    0.000038
  33 C :   -0.177169    0.000006
  34 H :    0.066407   -0.000001
  35 H :    0.053758    0.000010
  36 H :    0.060405    0.000005
  37 H :    0.057679    0.000002
  38 H :    0.054730    0.000008
  39 H :    0.060091   -0.000000

  Mayer bond orders larger than 0.100000
B(  0-V ,  1-S ) :   0.7285 B(  0-V ,  2-S ) :   0.7967 B(  0-V ,  3-S ) :   0.8086
B(  0-V ,  4-S ) :   0.7540 B(  0-V ,  5-O ) :   2.1469 B(  1-S ,  8-C ) :   1.1177
B(  2-S ,  6-C ) :   1.0926 B(  3-S ,  9-C ) :   1.0903 B(  4-S ,  7-C ) :   1.1149
B(  6-C ,  7-C ) :   1.6854 B(  6-C , 10-S ) :   0.9365 B(  7-C , 11-S ) :   0.9368
B(  8-C ,  9-C ) :   1.6983 B(  8-C , 13-S ) :   0.9314 B(  9-C , 12-S ) :   0.9366
B( 10-S , 14-C ) :   1.2451 B( 11-S , 14-C ) :   1.2485 B( 12-S , 15-C ) :   1.2407
B( 13-S , 15-C ) :   1.2451 B( 14-C , 16-C ) :   1.4544 B( 15-C , 17-C ) :   1.4591
B( 16-C , 18-S ) :   1.0938 B( 16-C , 19-S ) :   1.0820 B( 17-C , 20-S ) :   1.0753
B( 17-C , 21-S ) :   1.0959 B( 18-S , 32-C ) :   0.9814 B( 19-S , 31-C ) :   0.9967
B( 20-S , 23-C ) :   0.9959 B( 21-S , 22-C ) :   0.9738 B( 22-C , 24-C ) :   0.9019
B( 22-C , 25-H ) :   0.9688 B( 22-C , 26-H ) :   0.9623 B( 23-C , 24-C ) :   0.9204
B( 23-C , 29-H ) :   0.9655 B( 23-C , 30-H ) :   0.9614 B( 24-C , 27-H ) :   0.9619
B( 24-C , 28-H ) :   0.9726 B( 31-C , 33-C ) :   0.9182 B( 31-C , 38-H ) :   0.9659
B( 31-C , 39-H ) :   0.9632 B( 32-C , 33-C ) :   0.9063 B( 32-C , 34-H ) :   0.9680
B( 32-C , 35-H ) :   0.9638 B( 33-C , 36-H ) :   0.9722 B( 33-C , 37-H ) :   0.9622

FINAL SINGLE POINT ENERGY     -6337.700997777411

DIPOLE MOMENT
-------------
                                X             Y             Z
Electronic contribution:      6.29051     -11.68013       3.04653
Nuclear contribution   :     -6.96089      13.00896      -3.39982
                        -----------------------------------------
Total Dipole Moment    :     -0.67039       1.32883      -0.35328
                        -----------------------------------------
Magnitude (a.u.)       :      1.52971
Magnitude (Debye)      :      3.88822

Rotational constants in cm-1:     0.010757     0.000804     0.000783
Rotational constants in MHz :   322.489268    24.111822    23.484055

                             ****ORCA TERMINATED NORMALLY****
TOTAL RUN TIME: 0 days 1 hours 6 minutes 17 seconds 974 msec
