                         Program Version 5.0.4 -  RELEASE  -
|  1> ! nofrozencore ReducedPop printbasis
|  2> ! B3LYP TZVP
|  3>
|  4> %basis
|  5> newgto V "CP(PPP)" end
|  6> end
|  7>
|  8> %pal
|  9> nprocs 6
| 10> end
| 11>
| 12> % sym SymThresh 1e-2 end
| 13> * xyz -2 2
| 14> V -0.22232458815767414 1.1087612728028475 -0.03231956186475647
| 15> S -2.009497717708677 0.5337008082139195 1.151605485782535
| 16> S 0.8950834249397108 0.8637232482989705 1.9070060492405556
| 17> S -1.4619421805282664 -0.12519270411229289 -2.135458818987224
| 18> S 2.028190547017403 0.2418126796271851 -1.2329897827012877
| 19> O -0.25024717378799954 2.6384761931311878 -0.5049943652735873
| 20> C 2.6638532444895757 0.8713850069953365 1.3903148290768892
| 21> C 3.0132348539847156 0.5735280371299113 0.12176603916371723
| 22> C -3.26528102621877 -0.111579545185131 -0.05208373758645437
| 23> C -2.9187624870140567 -0.354543436678089 -1.330137728460482
| 24> S 4.185408691988018 1.0471381819440635 2.4151173193994175
| 25> S 4.717539218696157 0.48351733942448166 -0.41873734778322336
| 26> S -4.001267320610939 -0.9957760660945261 -2.596917952236125
| 27> S -5.020075246974837 -0.6360661869397867 0.1564566421773519
| 28> C 5.4105631519129105 0.8072133211407412 1.2268076615089953
| 29> C -5.374508237086703 -1.22692196548396 -1.4098560730220493
| 30> C 6.706043563087258 0.8810092824781752 1.68471281534309
| 31> C -6.6506697947647275 -1.7389520556163447 -1.497859627557198
| 32> S 7.2872398998984815 1.237386993561316 3.408912644505115
| 33> S 7.910214816444728 0.6114355845254457 0.46756853458645314
| 34> S -8.004668995224703 -1.8734301210064623 -0.22773819540880744
| 35> S -7.024488957707575 -2.3351873004752814 -3.043341549249494
| 36> C -7.326586338049254 -4.11786775413434 -2.672340900002585
| 37> C -8.029362331518131 -3.7347436973068318 -0.23467276652955926
| 38> C -8.392091379276788 -4.331923904537432 -1.5979275483323272
| 39> H -6.3807791239569145 -4.584092418858545 -2.3760649577499446
| 40> H -7.647568992084888 -4.560812167053499 -3.621424499566366
| 41> H -8.543848190334828 -5.413336237154585 -1.471726629199294
| 42> H -9.342438688898923 -3.9062873300843193 -1.935693196087972
| 43> H -8.760767327828583 -4.03423320173224 0.5265508275688696
| 44> H -7.039025100823284 -4.0722760736365275 0.08918922995643001
| 45> C 8.76700650704581 2.2429025858550706 0.5071384253426695
| 46> C 8.144566460299721 2.8214697994564593 2.9588964142945264
| 47> C 9.24425153052219 2.6399581480809853 1.9059642567246522
| 48> H 7.379717039523008 3.522015842618397 2.613973499943103
| 49> H 8.57476582480288 3.212051714005672 3.8877791753333724
| 50> H 9.95778490145838 1.8923383549648976 2.2671261030920364
| 51> H 9.787609130315206 3.591453764164353 1.818418587069857
| 52> H 9.626785009086879 2.1401709455499685 -0.1626890387331498
| 53> H 8.096838726630114 3.0026746846120336 0.09247371102019585
| 54> *
| 55>
| 56> % eprnmr
| 57> gtensor true
| 58> Nuclei = all H {aiso,adip,aorb,fgrad,rho}
| 59> Nuclei = all V {aiso,adip,aorb,fgrad,rho}
| 60> end
| 61>
| 62>                          ****END OF INPUT****

CARTESIAN COORDINATES (ANGSTROEM)
---------------------------------
  V     -0.219762    1.106152   -0.031171
  S     -2.006935    0.531091    1.152754
  S      0.897646    0.861114    1.908155
  S     -1.459379   -0.127802   -2.134310
  S      2.030753    0.239203   -1.231841
  O     -0.247684    2.635867   -0.503846
  C      2.666416    0.868775    1.391463
  C      3.015798    0.570918    0.122915
  C     -3.262718   -0.114189   -0.050935
  C     -2.916200   -0.357153   -1.328989
  S      4.187972    1.044528    2.416266
  S      4.720102    0.480908   -0.417589
  S     -3.998704   -0.998386   -2.595769
  S     -5.017512   -0.638676    0.157605
  C      5.413126    0.804604    1.227956
  C     -5.371945   -1.229532   -1.408707
  C      6.708606    0.878400    1.685861
  C     -6.648107   -1.741562   -1.496711
  S      7.289803    1.234777    3.410061
  S      7.912778    0.608826    0.468717
  S     -8.002106   -1.876040   -0.226590
  S     -7.021926   -2.337797   -3.042193
  C     -7.324023   -4.120477   -2.671192
  C     -8.026799   -3.737353   -0.233524
  C     -8.389529   -4.334534   -1.596779
  H     -6.378216   -4.586702   -2.374916
  H     -7.645006   -4.563422   -3.620276
  H     -8.541285   -5.415946   -1.470578
  H     -9.339876   -3.908897   -1.934545
  H     -8.758204   -4.036843    0.527699
  H     -7.036462   -4.074886    0.090338
  C      8.769569    2.240293    0.508287
  C      8.147129    2.818860    2.960045
  C      9.246814    2.637348    1.907113
  H      7.382280    3.519406    2.615122
  H      8.577329    3.209442    3.888928
  H      9.960348    1.889729    2.268275
  H      9.790172    3.588844    1.819567
  H      9.629348    2.137561   -0.161540
  H      8.099402    3.000065    0.093622

 Total Charge           Charge          ....   -2
 Multiplicity           Mult            ....    2
 Number of Electrons    NEL             ....  321
 Basis Dimension        Dim             ....  681

ORBITAL ENERGIES
----------------
                 SPIN UP ORBITALS
  NO   OCC          E(Eh)            E(eV)
   0   1.0000    -196.673275     -5351.7519
   1   1.0000     -88.739810     -2414.7330
   2   1.0000     -88.739311     -2414.7194
   3   1.0000     -88.737724     -2414.6762
   4   1.0000     -88.735049     -2414.6034
   5   1.0000     -88.727441     -2414.3964
   6   1.0000     -88.724709     -2414.3221
   7   1.0000     -88.722779     -2414.2696
   8   1.0000     -88.722330     -2414.2573
   9   1.0000     -88.653788     -2412.3922
  10   1.0000     -88.652728     -2412.3634
  11   1.0000     -88.632335     -2411.8085
  12   1.0000     -88.630732     -2411.7648
  13   1.0000     -22.048926      -599.9818
  14   1.0000     -18.886810      -513.9362
  15   1.0000     -18.554949      -504.9058
  16   1.0000     -18.550473      -504.7840
  17   1.0000     -18.550231      -504.7775
  18   1.0000     -10.075020      -274.1552
  19   1.0000     -10.073751      -274.1207
  20   1.0000     -10.066299      -273.9179
  21   1.0000     -10.065841      -273.9055
  22   1.0000     -10.060074      -273.7485
  23   1.0000     -10.057183      -273.6699
  24   1.0000     -10.050575      -273.4900
  25   1.0000     -10.049094      -273.4498
  26   1.0000     -10.048905      -273.4446
  27   1.0000     -10.046212      -273.3713
  28   1.0000     -10.021397      -272.6961
  29   1.0000     -10.020260      -272.6651
  30   1.0000     -10.020102      -272.6608
  31   1.0000     -10.017689      -272.5952
  32   1.0000      -7.791806      -212.0258
  33   1.0000      -7.791212      -212.0097
  34   1.0000      -7.789146      -211.9535
  35   1.0000      -7.786976      -211.8944
  36   1.0000      -7.782070      -211.7609
  37   1.0000      -7.778638      -211.6675
  38   1.0000      -7.777902      -211.6475
  39   1.0000      -7.777120      -211.6262
  40   1.0000      -7.708074      -209.7473
  41   1.0000      -7.706830      -209.7135
  42   1.0000      -7.687529      -209.1883
  43   1.0000      -7.686892      -209.1710
  44   1.0000      -5.756842      -156.6516
  45   1.0000      -5.756254      -156.6356
  46   1.0000      -5.755167      -156.6060
  47   1.0000      -5.753772      -156.5681
  48   1.0000      -5.753243      -156.5537
  49   1.0000      -5.752668      -156.5381
  50   1.0000      -5.749490      -156.4516
  51   1.0000      -5.747350      -156.3934
  52   1.0000      -5.747021      -156.3844
  53   1.0000      -5.746439      -156.3685
  54   1.0000      -5.745787      -156.3508
  55   1.0000      -5.744356      -156.3119
  56   1.0000      -5.743378      -156.2853
  57   1.0000      -5.743352      -156.2845
  58   1.0000      -5.742838      -156.2706
  59   1.0000      -5.742390      -156.2584
  60   1.0000      -5.741842      -156.2435
  61   1.0000      -5.739152      -156.1703
  62   1.0000      -5.739022      -156.1667
  63   1.0000      -5.737584      -156.1276
  64   1.0000      -5.736953      -156.1104
  65   1.0000      -5.734570      -156.0456
  66   1.0000      -5.733002      -156.0029
  67   1.0000      -5.732789      -155.9971
  68   1.0000      -5.673973      -154.3967
  69   1.0000      -5.672712      -154.3623
  70   1.0000      -5.666233      -154.1860
  71   1.0000      -5.665205      -154.1581
  72   1.0000      -5.665038      -154.1535
  73   1.0000      -5.663959      -154.1242
  74   1.0000      -5.652415      -153.8100
  75   1.0000      -5.651488      -153.7848
  76   1.0000      -5.646382      -153.6459
  77   1.0000      -5.645861      -153.6317
  78   1.0000      -5.644884      -153.6051
  79   1.0000      -5.644239      -153.5875
  80   1.0000      -2.444045       -66.5059
  81   1.0000      -1.483761       -40.3752
  82   1.0000      -1.475243       -40.1434
  83   1.0000      -1.474147       -40.1136
  84   1.0000      -0.710562       -19.3354
  85   1.0000      -0.708469       -19.2784
  86   1.0000      -0.684403       -18.6235
  87   1.0000      -0.683647       -18.6030
  88   1.0000      -0.646515       -17.5926
  89   1.0000      -0.635464       -17.2919
  90   1.0000      -0.631770       -17.1913
  91   1.0000      -0.616622       -16.7791
  92   1.0000      -0.613779       -16.7018
  93   1.0000      -0.584427       -15.9031
  94   1.0000      -0.579807       -15.7773
  95   1.0000      -0.563653       -15.3378
  96   1.0000      -0.562183       -15.2978
  97   1.0000      -0.500815       -13.6279
  98   1.0000      -0.499099       -13.5812
  99   1.0000      -0.490836       -13.3563
 100   1.0000      -0.489870       -13.3301
 101   1.0000      -0.479924       -13.0594
 102   1.0000      -0.474843       -12.9211
 103   1.0000      -0.447697       -12.1825
 104   1.0000      -0.444013       -12.0822
 105   1.0000      -0.417539       -11.3618
 106   1.0000      -0.411929       -11.2092
 107   1.0000      -0.353136        -9.6093
 108   1.0000      -0.353018        -9.6061
 109   1.0000      -0.325477        -8.8567
 110   1.0000      -0.325029        -8.8445
 111   1.0000      -0.314220        -8.5504
 112   1.0000      -0.309155        -8.4125
 113   1.0000      -0.302054        -8.2193
 114   1.0000      -0.299771        -8.1572
 115   1.0000      -0.292045        -7.9470
 116   1.0000      -0.289144        -7.8680
 117   1.0000      -0.259246        -7.0544
 118   1.0000      -0.255257        -6.9459
 119   1.0000      -0.254154        -6.9159
 120   1.0000      -0.252843        -6.8802
 121   1.0000      -0.234456        -6.3799
 122   1.0000      -0.232714        -6.3325
 123   1.0000      -0.231613        -6.3025
 124   1.0000      -0.230469        -6.2714
 125   1.0000      -0.216845        -5.9006
 126   1.0000      -0.215995        -5.8775
 127   1.0000      -0.210987        -5.7412
 128   1.0000      -0.208043        -5.6611
 129   1.0000      -0.200534        -5.4568
 130   1.0000      -0.188668        -5.1339
 131   1.0000      -0.186280        -5.0689
 132   1.0000      -0.180626        -4.9151
 133   1.0000      -0.177730        -4.8363
 134   1.0000      -0.162514        -4.4222
 135   1.0000      -0.151463        -4.1215
 136   1.0000      -0.148752        -4.0477
 137   1.0000      -0.135435        -3.6854
 138   1.0000      -0.134370        -3.6564
 139   1.0000      -0.128117        -3.4862
 140   1.0000      -0.123991        -3.3740
 141   1.0000      -0.117828        -3.2063
 142   1.0000      -0.109960        -2.9922
 143   1.0000      -0.107446        -2.9238
 144   1.0000      -0.098004        -2.6668
 145   1.0000      -0.096534        -2.6268
 146   1.0000      -0.094013        -2.5582
 147   1.0000      -0.091603        -2.4926
 148   1.0000      -0.079078        -2.1518
 149   1.0000      -0.069035        -1.8785
 150   1.0000      -0.065577        -1.7844
 151   1.0000      -0.062892        -1.7114
 152   1.0000      -0.040380        -1.0988
 153   1.0000      -0.038889        -1.0582
 154   1.0000      -0.035708        -0.9717
 155   1.0000      -0.027788        -0.7561
 156   1.0000      -0.026479        -0.7205
 157   1.0000      -0.017906        -0.4872
 158   1.0000      -0.012613        -0.3432
 159   1.0000       0.019214         0.5228
 160   1.0000       0.037865         1.0304
 161   0.0000       0.135061         3.6752
 162   0.0000       0.136155         3.7050
 163   0.0000       0.150782         4.1030
 164   0.0000       0.158963         4.3256
 165   0.0000       0.162198         4.4136

                 SPIN DOWN ORBITALS
  NO   OCC          E(Eh)            E(eV)
   0   1.0000    -196.673405     -5351.7554
   1   1.0000     -88.739811     -2414.7330
   2   1.0000     -88.739312     -2414.7194
   3   1.0000     -88.737728     -2414.6763
   4   1.0000     -88.735057     -2414.6037
   5   1.0000     -88.727441     -2414.3964
   6   1.0000     -88.724709     -2414.3221
   7   1.0000     -88.722775     -2414.2694
   8   1.0000     -88.722329     -2414.2573
   9   1.0000     -88.653913     -2412.3956
  10   1.0000     -88.652849     -2412.3667
  11   1.0000     -88.632474     -2411.8122
  12   1.0000     -88.630871     -2411.7686
  13   1.0000     -22.034634      -599.5929
  14   1.0000     -18.890429      -514.0347
  15   1.0000     -18.549843      -504.7669
  16   1.0000     -18.535131      -504.3666
  17   1.0000     -18.534862      -504.3592
  18   1.0000     -10.075011      -274.1550
  19   1.0000     -10.073756      -274.1208
  20   1.0000     -10.066299      -273.9179
  21   1.0000     -10.065842      -273.9055
  22   1.0000     -10.060072      -273.7485
  23   1.0000     -10.057182      -273.6698
  24   1.0000     -10.050574      -273.4900
  25   1.0000     -10.049081      -273.4494
  26   1.0000     -10.048905      -273.4446
  27   1.0000     -10.046207      -273.3712
  28   1.0000     -10.020821      -272.6804
  29   1.0000     -10.019956      -272.6569
  30   1.0000     -10.019477      -272.6438
  31   1.0000     -10.017666      -272.5945
  32   1.0000      -7.791807      -212.0258
  33   1.0000      -7.791213      -212.0097
  34   1.0000      -7.789153      -211.9536
  35   1.0000      -7.786986      -211.8947
  36   1.0000      -7.782070      -211.7609
  37   1.0000      -7.778637      -211.6675
  38   1.0000      -7.777901      -211.6475
  39   1.0000      -7.777115      -211.6261
  40   1.0000      -7.708172      -209.7500
  41   1.0000      -7.706933      -209.7163
  42   1.0000      -7.687659      -209.1918
  43   1.0000      -7.687024      -209.1746
  44   1.0000      -5.756844      -156.6517
  45   1.0000      -5.756256      -156.6357
  46   1.0000      -5.755166      -156.6060
  47   1.0000      -5.753774      -156.5682
  48   1.0000      -5.753244      -156.5537
  49   1.0000      -5.752675      -156.5382
  50   1.0000      -5.749490      -156.4516
  51   1.0000      -5.747358      -156.3936
  52   1.0000      -5.747022      -156.3844
  53   1.0000      -5.746440      -156.3686
  54   1.0000      -5.745789      -156.3509
  55   1.0000      -5.744365      -156.3121
  56   1.0000      -5.743378      -156.2853
  57   1.0000      -5.743354      -156.2846
  58   1.0000      -5.742837      -156.2705
  59   1.0000      -5.742402      -156.2587
  60   1.0000      -5.741838      -156.2434
  61   1.0000      -5.739151      -156.1702
  62   1.0000      -5.739021      -156.1667
  63   1.0000      -5.737580      -156.1275
  64   1.0000      -5.736953      -156.1104
  65   1.0000      -5.734567      -156.0455
  66   1.0000      -5.732993      -156.0027
  67   1.0000      -5.732786      -155.9970
  68   1.0000      -5.674217      -154.4033
  69   1.0000      -5.672916      -154.3679
  70   1.0000      -5.666441      -154.1917
  71   1.0000      -5.665340      -154.1617
  72   1.0000      -5.665331      -154.1615
  73   1.0000      -5.663998      -154.1252
  74   1.0000      -5.652521      -153.8129
  75   1.0000      -5.651600      -153.7878
  76   1.0000      -5.646776      -153.6566
  77   1.0000      -5.646238      -153.6420
  78   1.0000      -5.644990      -153.6080
  79   1.0000      -5.644350      -153.5906
  80   1.0000      -2.400870       -65.3310
  81   1.0000      -1.464838       -39.8603
  82   1.0000      -1.415473       -38.5170
  83   1.0000      -1.415055       -38.5056
  84   1.0000      -0.710524       -19.3343
  85   1.0000      -0.708429       -19.2773
  86   1.0000      -0.684323       -18.6214
  87   1.0000      -0.683565       -18.6007
  88   1.0000      -0.654363       -17.8061
  89   1.0000      -0.635416       -17.2905
  90   1.0000      -0.631688       -17.1891
  91   1.0000      -0.616619       -16.7791
  92   1.0000      -0.613783       -16.7019
  93   1.0000      -0.584462       -15.9040
  94   1.0000      -0.579831       -15.7780
  95   1.0000      -0.563260       -15.3271
  96   1.0000      -0.561753       -15.2861
  97   1.0000      -0.500694       -13.6246
  98   1.0000      -0.499027       -13.5792
  99   1.0000      -0.490976       -13.3601
 100   1.0000      -0.490015       -13.3340
 101   1.0000      -0.479818       -13.0565
 102   1.0000      -0.474796       -12.9198
 103   1.0000      -0.447629       -12.1806
 104   1.0000      -0.444006       -12.0820
 105   1.0000      -0.417371       -11.3572
 106   1.0000      -0.411874       -11.2077
 107   1.0000      -0.353118        -9.6088
 108   1.0000      -0.353000        -9.6056
 109   1.0000      -0.325423        -8.8552
 110   1.0000      -0.324995        -8.8436
 111   1.0000      -0.314080        -8.5466
 112   1.0000      -0.309152        -8.4125
 113   1.0000      -0.301931        -8.2160
 114   1.0000      -0.299626        -8.1532
 115   1.0000      -0.292038        -7.9468
 116   1.0000      -0.289141        -7.8679
 117   1.0000      -0.258646        -7.0381
 118   1.0000      -0.255085        -6.9412
 119   1.0000      -0.254083        -6.9139
 120   1.0000      -0.252858        -6.8806
 121   1.0000      -0.234172        -6.3721
 122   1.0000      -0.232611        -6.3297
 123   1.0000      -0.231598        -6.3021
 124   1.0000      -0.230389        -6.2692
 125   1.0000      -0.216586        -5.8936
 126   1.0000      -0.215848        -5.8735
 127   1.0000      -0.210414        -5.7257
 128   1.0000      -0.207781        -5.6540
 129   1.0000      -0.198037        -5.3889
 130   1.0000      -0.188577        -5.1314
 131   1.0000      -0.185998        -5.0613
 132   1.0000      -0.180490        -4.9114
 133   1.0000      -0.177527        -4.8308
 134   1.0000      -0.160941        -4.3794
 135   1.0000      -0.151388        -4.1195
 136   1.0000      -0.148581        -4.0431
 137   1.0000      -0.134458        -3.6588
 138   1.0000      -0.134243        -3.6529
 139   1.0000      -0.127889        -3.4800
 140   1.0000      -0.122993        -3.3468
 141   1.0000      -0.117432        -3.1955
 142   1.0000      -0.111414        -3.0317
 143   1.0000      -0.108268        -2.9461
 144   1.0000      -0.097885        -2.6636
 145   1.0000      -0.096626        -2.6293
 146   1.0000      -0.093771        -2.5516
 147   1.0000      -0.091483        -2.4894
 148   1.0000      -0.073651        -2.0041
 149   1.0000      -0.068852        -1.8736
 150   1.0000      -0.065236        -1.7752
 151   1.0000      -0.060924        -1.6578
 152   1.0000      -0.040135        -1.0921
 153   1.0000      -0.037681        -1.0254
 154   1.0000      -0.034303        -0.9334
 155   1.0000      -0.028149        -0.7660
 156   1.0000      -0.026461        -0.7200
 157   1.0000      -0.015520        -0.4223
 158   1.0000       0.019557         0.5322
 159   1.0000       0.036894         1.0039
 160   0.0000       0.135033         3.6744
 161   0.0000       0.136159         3.7051
 162   0.0000       0.139513         3.7964
 163   0.0000       0.157824         4.2946
 164   0.0000       0.162284         4.4160

MULLIKEN ATOMIC CHARGES AND SPIN POPULATIONS
--------------------------------------------
   0 V :    0.490758    1.172291
   1 S :   -0.229093   -0.019258
   2 S :   -0.237139   -0.022115
   3 S :   -0.339508   -0.023750
   4 S :   -0.326698   -0.025778
   5 O :   -0.479114   -0.140103
   6 C :    0.021325    0.027674
   7 C :   -0.192565   -0.000410
   8 C :    0.035094    0.033484
   9 C :   -0.211764   -0.003542
  10 S :    0.081363    0.000376
  11 S :    0.110673   -0.000687
  12 S :    0.109507   -0.000344
  13 S :    0.083012    0.000674
  14 C :   -0.215692    0.001466
  15 C :   -0.188888    0.000615
  16 C :   -0.184085   -0.000196
  17 C :   -0.205692   -0.000256
  18 S :    0.006568   -0.000196
  19 S :    0.006515   -0.000076
  20 S :    0.005116   -0.000167
  21 S :    0.006617    0.000095
  22 C :   -0.295842    0.000036
  23 C :   -0.307707   -0.000030
  24 C :   -0.157779    0.000022
  25 H :    0.133230    0.000001
  26 H :    0.106576    0.000011
  27 H :    0.082430   -0.000005
  28 H :    0.092519   -0.000004
  29 H :    0.119299   -0.000024
  30 H :    0.151667    0.000002
  31 C :   -0.290370    0.000243
  32 C :   -0.298079    0.000159
  33 C :   -0.162298   -0.000226
  34 H :    0.148775   -0.000019
  35 H :    0.116139    0.000002
  36 H :    0.091843    0.000013
  37 H :    0.081830    0.000013
  38 H :    0.106796    0.000032
  39 H :    0.134662   -0.000022
Sum of atomic charges         :   -2.0000000

LOEWDIN ATOMIC CHARGES AND SPIN POPULATIONS
-------------------------------------------
   0 V :   -0.187133    1.122705
   1 S :    0.163516   -0.005799
   2 S :    0.151338   -0.007637
   3 S :    0.033999   -0.018325
   4 S :    0.030148   -0.019392
   5 O :   -0.332320   -0.126006
   6 C :   -0.527676    0.024785
   7 C :   -0.551870    0.000989
   8 C :   -0.528298    0.029841
   9 C :   -0.561085   -0.000776
  10 S :    0.468496    0.000079
  11 S :    0.458653   -0.000844
  12 S :    0.457666   -0.000575
  13 S :    0.475447    0.000620
  14 C :   -0.471980    0.000174
  15 C :   -0.470464   -0.000271
  16 C :   -0.617914    0.000458
  17 C :   -0.630805    0.000112
  18 S :    0.334367   -0.000157
  19 S :    0.381792   -0.000044
  20 S :    0.328534   -0.000140
  21 S :    0.390387    0.000095
  22 C :   -0.289086    0.000049
  23 C :   -0.279671   -0.000029
  24 C :   -0.178068   -0.000002
  25 H :    0.058811    0.000003
  26 H :    0.052785    0.000007
  27 H :    0.057050   -0.000002
  28 H :    0.059851   -0.000002
  29 H :    0.053946   -0.000013
  30 H :    0.066855   -0.000003
  31 C :   -0.288182    0.000089
  32 C :   -0.280537   -0.000012
  33 C :   -0.177220    0.000007
  34 H :    0.065023   -0.000003
  35 H :    0.053751    0.000000
  36 H :    0.060250    0.000002
  37 H :    0.057499    0.000002
  38 H :    0.053007    0.000015
  39 H :    0.059140   -0.000001

  Mayer bond orders larger than 0.100000
B(  0-V ,  1-S ) :   0.9647 B(  0-V ,  2-S ) :   0.9443 B(  0-V ,  3-S ) :   0.5753
B(  0-V ,  4-S ) :   0.6053 B(  0-V ,  5-O ) :   2.1165 B(  1-S ,  8-C ) :   0.9348
B(  2-S ,  6-C ) :   0.9513 B(  3-S ,  9-C ) :   1.2281 B(  4-S ,  7-C ) :   1.2272
B(  6-C ,  7-C ) :   1.6641 B(  6-C , 10-S ) :   0.8920 B(  7-C , 11-S ) :   0.9721
B(  8-C ,  9-C ) :   1.6521 B(  8-C , 13-S ) :   0.8857 B(  9-C , 12-S ) :   0.9852
B( 10-S , 14-C ) :   1.2510 B( 11-S , 14-C ) :   1.1882 B( 12-S , 15-C ) :   1.1598
B( 13-S , 15-C ) :   1.2419 B( 14-C , 16-C ) :   1.4230 B( 15-C , 17-C ) :   1.3983
B( 16-C , 18-S ) :   1.0541 B( 16-C , 19-S ) :   1.0825 B( 17-C , 20-S ) :   1.0561
B( 17-C , 21-S ) :   1.1099 B( 18-S , 32-C ) :   0.9955 B( 19-S , 31-C ) :   0.9899
B( 20-S , 23-C ) :   0.9911 B( 21-S , 22-C ) :   0.9787 B( 22-C , 24-C ) :   0.9181
B( 22-C , 25-H ) :   0.9616 B( 22-C , 26-H ) :   0.9646 B( 23-C , 24-C ) :   0.9048
B( 23-C , 29-H ) :   0.9649 B( 23-C , 30-H ) :   0.9712 B( 24-C , 27-H ) :   0.9618
B( 24-C , 28-H ) :   0.9724 B( 31-C , 33-C ) :   0.9212 B( 31-C , 38-H ) :   0.9644
B( 31-C , 39-H ) :   0.9624 B( 32-C , 33-C ) :   0.9111 B( 32-C , 34-H ) :   0.9697
B( 32-C , 35-H ) :   0.9646 B( 33-C , 36-H ) :   0.9716 B( 33-C , 37-H ) :   0.9614

FINAL SINGLE POINT ENERGY     -6337.612689852496

DIPOLE MOMENT
-------------
                                X             Y             Z
Electronic contribution:     -5.80549      12.39262      -1.25930
Nuclear contribution   :      6.41092     -13.71733       1.77459
                        -----------------------------------------
Total Dipole Moment    :      0.60543      -1.32471       0.51529
                        -----------------------------------------
Magnitude (a.u.)       :      1.54497
Magnitude (Debye)      :      3.92701

Rotational constants in cm-1:     0.010704     0.000804     0.000783
Rotational constants in MHz :   320.894702    24.103818    23.464792

                             ****ORCA TERMINATED NORMALLY****
TOTAL RUN TIME: 0 days 1 hours 7 minutes 28 seconds 65 msec
