                         Program Version 5.0.4 -  RELEASE  -
|  1> ! nofrozencore ReducedPop printbasis
|  2> ! B3LYP TZVP
|  3>
|  4> %basis
|  5> newgto V "CP(PPP)" end
|  6> end
|  7>
|  8> %pal
|  9> nprocs 8
| 10> end
| 11>
| 12> % sym SymThresh 1e-2 end
| 13> * xyz -2 2
| 14> V -0.4044068438235683 -0.577513177985755 0.8611012277139395
| 15> S -2.5373865387236956 -0.17556986572249564 -0.35769031503797827
| 16> S 0.11910261575973441 -2.2032857499417173 -0.925653622675865
| 17> S -0.5063449649825301 1.8095793581878186 1.4774000991943255
| 18> S 2.0351029484431153 -0.19881861526082104 0.971054878092329
| 19> O -0.7817678787929236 -1.4363444154253293 2.1452859566738605
| 20> C 1.82654855415842 -2.4646063353457746 -0.5878414329921419
| 21> C 2.592744017260212 -1.6613421782630498 0.1744093267906278
| 22> C -2.926623769265472 1.4536002568515292 0.1843893860598445
| 23> C -2.1203462421733588 2.236661381258404 0.9280293284781269
| 24> S 2.657890645729056 -3.8547391097131998 -1.364440405645652
| 25> S 4.32897559132778 -2.097546775502052 0.3065565297856756
| 26> S -2.7356870469311323 3.8682285315968277 1.3430268295255572
| 27> S -4.498653892490176 2.179736963715322 -0.30926568871618815
| 28> C 4.27865370172159 -3.5191587519967573 -0.7417424827571584
| 29> C -4.253774269958551 3.762431155361128 0.44219767802592785
| 30> C 5.3750891546102695 -4.284450575124371 -1.0299158119460468
| 31> C -5.138260855696393 4.801837476588224 0.35602145051527145
| 32> S 5.272960406835046 -5.712161475135697 -2.0912254790685676
| 33> S 6.978788106764582 -3.935499983387694 -0.3328733932663894
| 34> S -6.605701086074937 4.739296652502142 -0.6561398999240731
| 35> S -4.853134589793227 6.326058440421138 1.238670504020333
| 36> C -4.687542230728617 7.464162570865475 -0.21380561973831946
| 37> C -6.173628540791758 6.113197459349911 -1.8268265258212697
| 38> C -5.908805585092358 7.4562258485669854 -1.1379714182016583
| 39> H -3.783697524051901 7.186432754280174 -0.7610712505630374
| 40> H -4.536282005168975 8.461130502119136 0.21092311690830892
| 41> H -5.753313400224584 8.215712132598187 -1.918851743694961
| 42> H -6.795425725074945 7.751738044465359 -0.5679691129023043
| 43> H -7.029169332680482 6.195717753925286 -2.5038462399357164
| 44> H -5.305480338475746 5.7994881216055605 -2.4110627217159415
| 45> C 7.194760680688542 -5.495589813585715 0.6419762084252608
| 46> C 5.745982393514556 -7.007158577541382 -0.8546169919601176
| 47> C 7.111359392167991 -6.767525229942357 -0.20541452849234798
| 48> H 4.959544868426047 -7.057496945910969 -0.09781190768111539
| 49> H 5.74850704755782 -7.950132105413006 -1.4077313309184423
| 50> H 7.881664654740286 -6.736326248392646 -0.982784959723618
| 51> H 7.336310961642745 -7.625711650457204 0.4438137617759979
| 52> H 8.1807491521975 -5.412692079064584 1.1070597929309858
| 53> H 6.442877281520037 -5.5061825079596165 1.4346609474619834
| 54> *
| 55>
| 56> % eprnmr
| 57> gtensor true
| 58> Nuclei = all H {aiso,adip,aorb,fgrad,rho}
| 59> Nuclei = all V {aiso,adip,aorb,fgrad,rho}
| 60> end
| 61>
| 62>                          ****END OF INPUT****

CARTESIAN COORDINATES (ANGSTROEM)
---------------------------------
  V     -0.401703   -0.577396    0.858385
  S     -2.534683   -0.175452   -0.360406
  S      0.121806   -2.203168   -0.928369
  S     -0.503641    1.809697    1.474684
  S      2.037807   -0.198701    0.968339
  O     -0.779064   -1.436227    2.142570
  C      1.829252   -2.464489   -0.590557
  C      2.595448   -1.661225    0.171694
  C     -2.923920    1.453718    0.181674
  C     -2.117643    2.236779    0.925314
  S      2.660594   -3.854621   -1.367156
  S      4.331679   -2.097429    0.303841
  S     -2.732983    3.868346    1.340311
  S     -4.495950    2.179855   -0.311981
  C      4.281357   -3.519041   -0.744458
  C     -4.251071    3.762549    0.439482
  C      5.377793   -4.284333   -1.032632
  C     -5.135557    4.801955    0.353306
  S      5.275664   -5.712044   -2.093941
  S      6.981492   -3.935382   -0.335589
  S     -6.602997    4.739414   -0.658856
  S     -4.850431    6.326176    1.235955
  C     -4.684839    7.464280   -0.216521
  C     -6.170925    6.113315   -1.829542
  C     -5.906102    7.456343   -1.140687
  H     -3.780994    7.186550   -0.763787
  H     -4.533578    8.461248    0.208207
  H     -5.750610    8.215830   -1.921567
  H     -6.792722    7.751856   -0.570685
  H     -7.026466    6.195835   -2.506562
  H     -5.302777    5.799606   -2.413778
  C      7.197464   -5.495472    0.639260
  C      5.748686   -7.007041   -0.857333
  C      7.114063   -6.767408   -0.208130
  H      4.962248   -7.057379   -0.100528
  H      5.751211   -7.950014   -1.410447
  H      7.884368   -6.736209   -0.985501
  H      7.339015   -7.625594    0.441098
  H      8.183453   -5.412574    1.104344
  H      6.445581   -5.506065    1.431945

 Total Charge           Charge          ....   -2
 Multiplicity           Mult            ....    2
 Number of Electrons    NEL             ....  321
 Basis Dimension        Dim             ....  681

ORBITAL ENERGIES
----------------
                 SPIN UP ORBITALS
  NO   OCC          E(Eh)            E(eV)
   0   1.0000    -196.675106     -5351.8017
   1   1.0000     -88.733407     -2414.5588
   2   1.0000     -88.733139     -2414.5515
   3   1.0000     -88.733064     -2414.5494
   4   1.0000     -88.733015     -2414.5481
   5   1.0000     -88.730486     -2414.4793
   6   1.0000     -88.730089     -2414.4685
   7   1.0000     -88.729947     -2414.4646
   8   1.0000     -88.729335     -2414.4480
   9   1.0000     -88.639676     -2412.0082
  10   1.0000     -88.639495     -2412.0033
  11   1.0000     -88.639484     -2412.0030
  12   1.0000     -88.639245     -2411.9965
  13   1.0000     -22.050456      -600.0234
  14   1.0000     -18.889945      -514.0215
  15   1.0000     -18.556908      -504.9591
  16   1.0000     -18.551734      -504.8184
  17   1.0000     -18.551633      -504.8156
  18   1.0000     -10.075710      -274.1740
  19   1.0000     -10.075648      -274.1723
  20   1.0000     -10.063691      -273.8470
  21   1.0000     -10.063475      -273.8411
  22   1.0000     -10.063413      -273.8394
  23   1.0000     -10.063255      -273.8351
  24   1.0000     -10.051375      -273.5118
  25   1.0000     -10.051299      -273.5098
  26   1.0000     -10.048455      -273.4324
  27   1.0000     -10.048163      -273.4244
  28   1.0000     -10.018312      -272.6121
  29   1.0000     -10.017988      -272.6033
  30   1.0000     -10.017186      -272.5815
  31   1.0000     -10.016890      -272.5734
  32   1.0000      -7.786698      -211.8868
  33   1.0000      -7.786564      -211.8832
  34   1.0000      -7.786487      -211.8811
  35   1.0000      -7.786450      -211.8801
  36   1.0000      -7.783658      -211.8041
  37   1.0000      -7.783325      -211.7951
  38   1.0000      -7.783250      -211.7930
  39   1.0000      -7.782664      -211.7771
  40   1.0000      -7.693908      -209.3619
  41   1.0000      -7.693843      -209.3601
  42   1.0000      -7.693600      -209.3535
  43   1.0000      -7.693578      -209.3529
  44   1.0000      -5.751713      -156.5121
  45   1.0000      -5.751553      -156.5077
  46   1.0000      -5.751473      -156.5055
  47   1.0000      -5.751431      -156.5044
  48   1.0000      -5.748614      -156.4278
  49   1.0000      -5.748296      -156.4191
  50   1.0000      -5.748269      -156.4184
  51   1.0000      -5.748188      -156.4162
  52   1.0000      -5.748140      -156.4148
  53   1.0000      -5.748073      -156.4130
  54   1.0000      -5.748020      -156.4116
  55   1.0000      -5.747614      -156.4005
  56   1.0000      -5.744190      -156.3074
  57   1.0000      -5.743842      -156.2979
  58   1.0000      -5.743758      -156.2956
  59   1.0000      -5.743175      -156.2797
  60   1.0000      -5.741482      -156.2337
  61   1.0000      -5.741364      -156.2304
  62   1.0000      -5.741277      -156.2281
  63   1.0000      -5.741253      -156.2274
  64   1.0000      -5.739478      -156.1791
  65   1.0000      -5.739150      -156.1702
  66   1.0000      -5.739078      -156.1683
  67   1.0000      -5.738464      -156.1515
  68   1.0000      -5.659238      -153.9957
  69   1.0000      -5.659142      -153.9931
  70   1.0000      -5.658927      -153.9872
  71   1.0000      -5.658897      -153.9864
  72   1.0000      -5.652547      -153.8136
  73   1.0000      -5.652512      -153.8127
  74   1.0000      -5.652276      -153.8063
  75   1.0000      -5.652264      -153.8059
  76   1.0000      -5.651222      -153.7776
  77   1.0000      -5.651163      -153.7760
  78   1.0000      -5.650900      -153.7688
  79   1.0000      -5.650887      -153.7685
  80   1.0000      -2.443971       -66.5038
  81   1.0000      -1.485103       -40.4117
  82   1.0000      -1.473614       -40.0991
  83   1.0000      -1.472802       -40.0770
  84   1.0000      -0.709253       -19.2997
  85   1.0000      -0.708664       -19.2837
  86   1.0000      -0.685355       -18.6495
  87   1.0000      -0.684610       -18.6292
  88   1.0000      -0.649423       -17.6717
  89   1.0000      -0.631098       -17.1731
  90   1.0000      -0.630526       -17.1575
  91   1.0000      -0.616984       -16.7890
  92   1.0000      -0.616330       -16.7712
  93   1.0000      -0.574340       -15.6286
  94   1.0000      -0.574167       -15.6239
  95   1.0000      -0.573116       -15.5953
  96   1.0000      -0.571829       -15.5603
  97   1.0000      -0.496618       -13.5137
  98   1.0000      -0.495967       -13.4959
  99   1.0000      -0.495342       -13.4790
 100   1.0000      -0.494768       -13.4633
 101   1.0000      -0.479538       -13.0489
 102   1.0000      -0.476871       -12.9763
 103   1.0000      -0.447049       -12.1648
 104   1.0000      -0.444855       -12.1051
 105   1.0000      -0.416077       -11.3220
 106   1.0000      -0.410824       -11.1791
 107   1.0000      -0.355099        -9.6627
 108   1.0000      -0.354529        -9.6472
 109   1.0000      -0.326446        -8.8831
 110   1.0000      -0.325785        -8.8651
 111   1.0000      -0.318815        -8.6754
 112   1.0000      -0.314187        -8.5495
 113   1.0000      -0.304078        -8.2744
 114   1.0000      -0.303227        -8.2512
 115   1.0000      -0.292243        -7.9523
 116   1.0000      -0.291633        -7.9357
 117   1.0000      -0.257753        -7.0138
 118   1.0000      -0.257548        -7.0082
 119   1.0000      -0.255744        -6.9592
 120   1.0000      -0.255248        -6.9456
 121   1.0000      -0.234287        -6.3753
 122   1.0000      -0.233741        -6.3604
 123   1.0000      -0.231001        -6.2858
 124   1.0000      -0.229694        -6.2503
 125   1.0000      -0.219616        -5.9761
 126   1.0000      -0.217922        -5.9300
 127   1.0000      -0.214001        -5.8233
 128   1.0000      -0.211481        -5.7547
 129   1.0000      -0.192729        -5.2444
 130   1.0000      -0.186850        -5.0845
 131   1.0000      -0.185786        -5.0555
 132   1.0000      -0.184325        -5.0157
 133   1.0000      -0.179137        -4.8746
 134   1.0000      -0.159081        -4.3288
 135   1.0000      -0.151384        -4.1194
 136   1.0000      -0.146562        -3.9882
 137   1.0000      -0.135503        -3.6872
 138   1.0000      -0.133715        -3.6386
 139   1.0000      -0.132801        -3.6137
 140   1.0000      -0.124772        -3.3952
 141   1.0000      -0.120743        -3.2856
 142   1.0000      -0.112926        -3.0729
 143   1.0000      -0.109247        -2.9728
 144   1.0000      -0.099433        -2.7057
 145   1.0000      -0.097812        -2.6616
 146   1.0000      -0.097119        -2.6428
 147   1.0000      -0.094426        -2.5695
 148   1.0000      -0.074166        -2.0181
 149   1.0000      -0.067560        -1.8384
 150   1.0000      -0.067103        -1.8260
 151   1.0000      -0.052033        -1.4159
 152   1.0000      -0.045173        -1.2292
 153   1.0000      -0.037143        -1.0107
 154   1.0000      -0.036935        -1.0051
 155   1.0000      -0.030943        -0.8420
 156   1.0000      -0.024749        -0.6735
 157   1.0000      -0.018972        -0.5163
 158   1.0000      -0.015137        -0.4119
 159   1.0000       0.020751         0.5647
 160   1.0000       0.041552         1.1307
 161   0.0000       0.136982         3.7275
 162   0.0000       0.137172         3.7326
 163   0.0000       0.162120         4.4115
 164   0.0000       0.162202         4.4137
 165   0.0000       0.170574         4.6416

                 SPIN DOWN ORBITALS
  NO   OCC          E(Eh)            E(eV)
   0   1.0000    -196.675253     -5351.8057
   1   1.0000     -88.733407     -2414.5588
   2   1.0000     -88.733139     -2414.5515
   3   1.0000     -88.733065     -2414.5494
   4   1.0000     -88.733015     -2414.5481
   5   1.0000     -88.730495     -2414.4795
   6   1.0000     -88.730098     -2414.4687
   7   1.0000     -88.729956     -2414.4648
   8   1.0000     -88.729343     -2414.4482
   9   1.0000     -88.639817     -2412.0120
  10   1.0000     -88.639638     -2412.0072
  11   1.0000     -88.639620     -2412.0067
  12   1.0000     -88.639388     -2412.0004
  13   1.0000     -22.035502      -599.6165
  14   1.0000     -18.893740      -514.1248
  15   1.0000     -18.551626      -504.8154
  16   1.0000     -18.535674      -504.3813
  17   1.0000     -18.535500      -504.3766
  18   1.0000     -10.075710      -274.1740
  19   1.0000     -10.075643      -274.1722
  20   1.0000     -10.063692      -273.8470
  21   1.0000     -10.063474      -273.8411
  22   1.0000     -10.063413      -273.8394
  23   1.0000     -10.063255      -273.8351
  24   1.0000     -10.051375      -273.5118
  25   1.0000     -10.051299      -273.5098
  26   1.0000     -10.048450      -273.4322
  27   1.0000     -10.048152      -273.4241
  28   1.0000     -10.018105      -272.6065
  29   1.0000     -10.017756      -272.5970
  30   1.0000     -10.016959      -272.5753
  31   1.0000     -10.016674      -272.5676
  32   1.0000      -7.786699      -211.8868
  33   1.0000      -7.786564      -211.8832
  34   1.0000      -7.786488      -211.8811
  35   1.0000      -7.786450      -211.8801
  36   1.0000      -7.783667      -211.8044
  37   1.0000      -7.783335      -211.7953
  38   1.0000      -7.783259      -211.7932
  39   1.0000      -7.782673      -211.7773
  40   1.0000      -7.694039      -209.3655
  41   1.0000      -7.693976      -209.3637
  42   1.0000      -7.693733      -209.3571
  43   1.0000      -7.693705      -209.3563
  44   1.0000      -5.751713      -156.5121
  45   1.0000      -5.751554      -156.5077
  46   1.0000      -5.751475      -156.5056
  47   1.0000      -5.751432      -156.5044
  48   1.0000      -5.748625      -156.4280
  49   1.0000      -5.748297      -156.4191
  50   1.0000      -5.748280      -156.4187
  51   1.0000      -5.748199      -156.4164
  52   1.0000      -5.748141      -156.4149
  53   1.0000      -5.748075      -156.4131
  54   1.0000      -5.748020      -156.4116
  55   1.0000      -5.747623      -156.4008
  56   1.0000      -5.744205      -156.3078
  57   1.0000      -5.743856      -156.2983
  58   1.0000      -5.743771      -156.2960
  59   1.0000      -5.743187      -156.2801
  60   1.0000      -5.741483      -156.2337
  61   1.0000      -5.741364      -156.2305
  62   1.0000      -5.741278      -156.2281
  63   1.0000      -5.741254      -156.2275
  64   1.0000      -5.739485      -156.1793
  65   1.0000      -5.739158      -156.1704
  66   1.0000      -5.739087      -156.1685
  67   1.0000      -5.738469      -156.1517
  68   1.0000      -5.659380      -153.9996
  69   1.0000      -5.659287      -153.9970
  70   1.0000      -5.659066      -153.9910
  71   1.0000      -5.659038      -153.9902
  72   1.0000      -5.652926      -153.8239
  73   1.0000      -5.652878      -153.8226
  74   1.0000      -5.652657      -153.8166
  75   1.0000      -5.652628      -153.8158
  76   1.0000      -5.651315      -153.7801
  77   1.0000      -5.651277      -153.7791
  78   1.0000      -5.650993      -153.7713
  79   1.0000      -5.650988      -153.7712
  80   1.0000      -2.399019       -65.2806
  81   1.0000      -1.465751       -39.8851
  82   1.0000      -1.411168       -38.3998
  83   1.0000      -1.410996       -38.3951
  84   1.0000      -0.709227       -19.2990
  85   1.0000      -0.708648       -19.2833
  86   1.0000      -0.685300       -18.6480
  87   1.0000      -0.684568       -18.6280
  88   1.0000      -0.657584       -17.8938
  89   1.0000      -0.631027       -17.1711
  90   1.0000      -0.630467       -17.1559
  91   1.0000      -0.616984       -16.7890
  92   1.0000      -0.616332       -16.7713
  93   1.0000      -0.574311       -15.6278
  94   1.0000      -0.574141       -15.6232
  95   1.0000      -0.573037       -15.5931
  96   1.0000      -0.571766       -15.5585
  97   1.0000      -0.496634       -13.5141
  98   1.0000      -0.496014       -13.4972
  99   1.0000      -0.495384       -13.4801
 100   1.0000      -0.494801       -13.4642
 101   1.0000      -0.479735       -13.0542
 102   1.0000      -0.477128       -12.9833
 103   1.0000      -0.447070       -12.1654
 104   1.0000      -0.444904       -12.1065
 105   1.0000      -0.416079       -11.3221
 106   1.0000      -0.410940       -11.1823
 107   1.0000      -0.355090        -9.6625
 108   1.0000      -0.354524        -9.6471
 109   1.0000      -0.326430        -8.8826
 110   1.0000      -0.325776        -8.8648
 111   1.0000      -0.318738        -8.6733
 112   1.0000      -0.314216        -8.5503
 113   1.0000      -0.304025        -8.2729
 114   1.0000      -0.303204        -8.2506
 115   1.0000      -0.292236        -7.9522
 116   1.0000      -0.291630        -7.9357
 117   1.0000      -0.257633        -7.0106
 118   1.0000      -0.257431        -7.0050
 119   1.0000      -0.255711        -6.9583
 120   1.0000      -0.255218        -6.9448
 121   1.0000      -0.234243        -6.3741
 122   1.0000      -0.233728        -6.3601
 123   1.0000      -0.230950        -6.2845
 124   1.0000      -0.229665        -6.2495
 125   1.0000      -0.219248        -5.9660
 126   1.0000      -0.217821        -5.9272
 127   1.0000      -0.213793        -5.8176
 128   1.0000      -0.211346        -5.7510
 129   1.0000      -0.191036        -5.1984
 130   1.0000      -0.186783        -5.0826
 131   1.0000      -0.185425        -5.0457
 132   1.0000      -0.184078        -5.0090
 133   1.0000      -0.179025        -4.8715
 134   1.0000      -0.158472        -4.3122
 135   1.0000      -0.151213        -4.1147
 136   1.0000      -0.146486        -3.9861
 137   1.0000      -0.134874        -3.6701
 138   1.0000      -0.133398        -3.6299
 139   1.0000      -0.132566        -3.6073
 140   1.0000      -0.124185        -3.3792
 141   1.0000      -0.120410        -3.2765
 142   1.0000      -0.114734        -3.1221
 143   1.0000      -0.110827        -3.0158
 144   1.0000      -0.099416        -2.7052
 145   1.0000      -0.098154        -2.6709
 146   1.0000      -0.097110        -2.6425
 147   1.0000      -0.094770        -2.5788
 148   1.0000      -0.070372        -1.9149
 149   1.0000      -0.067543        -1.8379
 150   1.0000      -0.067099        -1.8258
 151   1.0000      -0.049438        -1.3453
 152   1.0000      -0.044242        -1.2039
 153   1.0000      -0.037192        -1.0121
 154   1.0000      -0.036363        -0.9895
 155   1.0000      -0.030960        -0.8425
 156   1.0000      -0.025706        -0.6995
 157   1.0000      -0.015374        -0.4183
 158   1.0000       0.021032         0.5723
 159   1.0000       0.040480         1.1015
 160   0.0000       0.136985         3.7275
 161   0.0000       0.137174         3.7327
 162   0.0000       0.156020         4.2455
 163   0.0000       0.162218         4.4142
 164   0.0000       0.163546         4.4503

MULLIKEN ATOMIC CHARGES AND SPIN POPULATIONS
--------------------------------------------
   0 V :    0.473086    1.212179
   1 S :   -0.295503   -0.022261
   2 S :   -0.289717   -0.024808
   3 S :   -0.287184   -0.024251
   4 S :   -0.285157   -0.026266
   5 O :   -0.468156   -0.147339
   6 C :   -0.077388    0.009301
   7 C :   -0.084379    0.008364
   8 C :   -0.073664    0.007221
   9 C :   -0.095766    0.007950
  10 S :    0.099806   -0.000576
  11 S :    0.100846   -0.000622
  12 S :    0.101290   -0.000294
  13 S :    0.097885   -0.000413
  14 C :   -0.213722    0.001490
  15 C :   -0.210705    0.001002
  16 C :   -0.191166   -0.000065
  17 C :   -0.190971   -0.000408
  18 S :    0.008767   -0.000111
  19 S :    0.008844   -0.000114
  20 S :    0.007259   -0.000060
  21 S :    0.007920   -0.000075
  22 C :   -0.299277   -0.000004
  23 C :   -0.300370   -0.000000
  24 C :   -0.157934   -0.000010
  25 H :    0.143609   -0.000001
  26 H :    0.113527   -0.000005
  27 H :    0.083154   -0.000001
  28 H :    0.092098   -0.000001
  29 H :    0.112985   -0.000003
  30 H :    0.142509   -0.000001
  31 C :   -0.300258    0.000189
  32 C :   -0.299679    0.000186
  33 C :   -0.157892   -0.000232
  34 H :    0.141914   -0.000017
  35 H :    0.113153    0.000018
  36 H :    0.092154    0.000023
  37 H :    0.082623    0.000015
  38 H :    0.113336    0.000020
  39 H :    0.142122   -0.000018
Sum of atomic charges         :   -2.0000000

LOEWDIN ATOMIC CHARGES AND SPIN POPULATIONS
-------------------------------------------
   0 V :   -0.152752    1.165596
   1 S :    0.073465   -0.014517
   2 S :    0.079433   -0.015765
   3 S :    0.083409   -0.015791
   4 S :    0.083272   -0.016856
   5 O :   -0.319921   -0.132250
   6 C :   -0.550580    0.008953
   7 C :   -0.551358    0.007985
   8 C :   -0.549487    0.007598
   9 C :   -0.554198    0.008129
  10 S :    0.471064   -0.000929
  11 S :    0.472405   -0.000918
  12 S :    0.471735   -0.000729
  13 S :    0.469414   -0.000887
  14 C :   -0.464893    0.000153
  15 C :   -0.464495   -0.000082
  16 C :   -0.622614    0.000465
  17 C :   -0.621271    0.000090
  18 S :    0.359599   -0.000088
  19 S :    0.358469   -0.000089
  20 S :    0.354781   -0.000066
  21 S :    0.360263   -0.000078
  22 C :   -0.283295   -0.000009
  23 C :   -0.282680   -0.000007
  24 C :   -0.176056   -0.000002
  25 H :    0.062577   -0.000002
  26 H :    0.053910   -0.000003
  27 H :    0.058168   -0.000001
  28 H :    0.060168   -0.000001
  29 H :    0.053606   -0.000002
  30 H :    0.062350   -0.000001
  31 C :   -0.283723    0.000041
  32 C :   -0.283924    0.000037
  33 C :   -0.176344    0.000006
  34 H :    0.062083   -0.000001
  35 H :    0.053533    0.000008
  36 H :    0.060263    0.000004
  37 H :    0.057842    0.000002
  38 H :    0.053603    0.000008
  39 H :    0.062182   -0.000001

  Mayer bond orders larger than 0.100000
B(  0-V ,  1-S ) :   0.7595 B(  0-V ,  2-S ) :   0.7772 B(  0-V ,  3-S ) :   0.7732
B(  0-V ,  4-S ) :   0.7733 B(  0-V ,  5-O ) :   2.1486 B(  1-S ,  8-C ) :   1.1041
B(  2-S ,  6-C ) :   1.1012 B(  3-S ,  9-C ) :   1.1041 B(  4-S ,  7-C ) :   1.1076
B(  6-C ,  7-C ) :   1.6849 B(  6-C , 10-S ) :   0.9351 B(  7-C , 11-S ) :   0.9387
B(  8-C ,  9-C ) :   1.6978 B(  8-C , 13-S ) :   0.9291 B(  9-C , 12-S ) :   0.9407
B( 10-S , 14-C ) :   1.2489 B( 11-S , 14-C ) :   1.2484 B( 12-S , 15-C ) :   1.2427
B( 13-S , 15-C ) :   1.2463 B( 14-C , 16-C ) :   1.4510 B( 15-C , 17-C ) :   1.4534
B( 16-C , 18-S ) :   1.0883 B( 16-C , 19-S ) :   1.0882 B( 17-C , 20-S ) :   1.0845
B( 17-C , 21-S ) :   1.0894 B( 18-S , 32-C ) :   0.9919 B( 19-S , 31-C ) :   0.9918
B( 20-S , 23-C ) :   0.9916 B( 21-S , 22-C ) :   0.9896 B( 22-C , 24-C ) :   0.9133
B( 22-C , 25-H ) :   0.9661 B( 22-C , 26-H ) :   0.9655 B( 23-C , 24-C ) :   0.9145
B( 23-C , 29-H ) :   0.9655 B( 23-C , 30-H ) :   0.9652 B( 24-C , 27-H ) :   0.9623
B( 24-C , 28-H ) :   0.9717 B( 31-C , 33-C ) :   0.9136 B( 31-C , 38-H ) :   0.9655
B( 31-C , 39-H ) :   0.9658 B( 32-C , 33-C ) :   0.9139 B( 32-C , 34-H ) :   0.9658
B( 32-C , 35-H ) :   0.9656 B( 33-C , 36-H ) :   0.9717 B( 33-C , 37-H ) :   0.9624

FINAL SINGLE POINT ENERGY     -6337.706550697939

DIPOLE MOMENT
-------------
                                X             Y             Z
Electronic contribution:     -7.89360      -5.14695       9.83137
Nuclear contribution   :      8.77734       5.74440     -10.94024
                        -----------------------------------------
Total Dipole Moment    :      0.88374       0.59745      -1.10887
                        -----------------------------------------
Magnitude (a.u.)       :      1.53868
Magnitude (Debye)      :      3.91102

Rotational constants in cm-1:     0.010738     0.000804     0.000783
Rotational constants in MHz :   321.914138    24.113808    23.479690

                             ****ORCA TERMINATED NORMALLY****
TOTAL RUN TIME: 0 days 1 hours 1 minutes 49 seconds 291 msec
