                         Program Version 5.0.4 -  RELEASE  -
|  1> ! nofrozencore ReducedPop printbasis
|  2> ! B3LYP TZVP
|  3>
|  4> %basis
|  5> newgto V "CP(PPP)" end
|  6> end
|  7>
|  8> %pal
|  9> nprocs 8
| 10> end
| 11>
| 12> % sym SymThresh 1e-2 end
| 13> * xyz -2 2
| 14> V 0.80222473839419 0.9770597265615982 0.1289483380689671
| 15> S 1.7803320228492694 -0.8804898650644155 1.528961455793205
| 16> S 1.4796516316194128 -0.49631457127781403 -1.7995804404014093
| 17> S -0.9076574856980263 1.0965167057753327 1.9835224745026083
| 18> S -1.2384921772581274 1.396716108083937 -1.2821768609463688
| 19> O 1.361567127658311 1.7353738982673557 0.14411546217064677
| 20> C 0.5096725307894062 0.23389802932063433 -3.06641264580758
| 21> C -0.5830039833430786 0.9908460720326122 -2.8615779790375533
| 22> C 0.9201068799768478 -0.6728278612679699 3.0475419836679594
| 23> C -0.15361942702422945 0.11363368977228314 3.22683901143526
| 24> S 0.9350738493689488 -0.09530330097717864 -4.7840024492222195
| 25> S -1.465869380466853 1.547899051817561 -4.3227656965274
| 26> S -0.8881242254257207 0.10704313767094 4.867419851405416
| 27> S 1.4711114189290815 -1.6134689816478356 4.477136238185495
| 28> C -0.4155217683104493 0.7778276912074221 -5.517425856855178
| 29> C 0.19949747261619472 -1.0860981336215862 5.586007003116937
| 30> C -0.6226072157066996 0.8611312833547071 -6.867997079620217
| 31> C 0.07464534650332556 -1.5465684563612248 6.868704045657439
| 32> S 0.4917044090735506 0.11557573059678179 -8.043002579650503
| 33> S -2.007511705592319 1.75020132070121 -7.552608849918785
| 34> S 1.196089021324704 -2.7527232023421777 7.550095203763959
| 35> S -1.2388427313227715 -0.997518797690729 7.942025040462123
| 36> C -2.0927783945675507 -2.6252222833259835 8.166868884317232
| 37> C -0.022951917665799126 -4.116214798883965 7.839663059649382
| 38> C -1.187867252670007 -3.7156590289084344 8.753848874623747
| 39> H -2.5140058343578473 -2.942264310000091 7.209814431377856
| 40> H -2.9188351905803733 -2.415006383978954 8.851493888394463
| 41> H -1.8050233721241282 -4.609726074187822 8.922267468667624
| 42> H -0.8035657834547287 -3.3946352464001524 9.726988420120206
| 43> H 0.5596004195638876 -4.91605052709976 8.30450029938684
| 44> H -0.39128618669284626 -4.476802945605987 6.876270976207811
| 45> C -1.067496181232628 3.04937620265115 -8.477414648795031
| 46> C 1.0594599586201752 1.662499051919369 -8.888147558586251
| 47> C -0.08269064426295619 2.4788903228504116 -9.505504341586404
| 48> H 1.6298660071600373 2.2696208948514047 -8.180714970140574
| 49> H 1.740755214350651 1.320000281409144 -9.671621741379871
| 50> H -0.6210105395599023 1.8689989068355848 -10.237606599932814
| 51> H 0.3643113768771377 3.324802440750153 -10.047233646912455
| 52> H -1.8339126526413525 3.6438513945844577 -8.98188583740669
| 53> H -0.5502666472528548 3.6942739438287053 -7.762570015288455
| 54> *
| 55>
| 56> % eprnmr
| 57> gtensor true
| 58> Nuclei = all H {aiso,adip,aorb,fgrad,rho}
| 59> Nuclei = all V {aiso,adip,aorb,fgrad,rho}
| 60> end
| 61>
| 62>                          ****END OF INPUT****

CARTESIAN COORDINATES (ANGSTROEM)
---------------------------------
  V      0.800256    0.974959    0.126416
  S      1.778364   -0.882590    1.526429
  S      1.477683   -0.498415   -1.802112
  S     -0.909626    1.094416    1.980990
  S     -1.240461    1.394616   -1.284709
  O      1.359599    1.733274    0.141583
  C      0.507704    0.231798   -3.068945
  C     -0.584972    0.988746   -2.864110
  C      0.918138   -0.674928    3.045010
  C     -0.155588    0.111533    3.224307
  S      0.933105   -0.097404   -4.786535
  S     -1.467838    1.545799   -4.325298
  S     -0.890093    0.104943    4.864888
  S      1.469143   -1.615569    4.474604
  C     -0.417490    0.775727   -5.519958
  C      0.197529   -1.088198    5.583475
  C     -0.624576    0.859031   -6.870529
  C      0.072677   -1.548669    6.866172
  S      0.489736    0.113475   -8.045535
  S     -2.009480    1.748101   -7.555141
  S      1.194121   -2.754824    7.547563
  S     -1.240811   -0.999619    7.939493
  C     -2.094747   -2.627323    8.164337
  C     -0.024920   -4.118315    7.837131
  C     -1.189836   -3.717759    8.751317
  H     -2.515974   -2.944365    7.207282
  H     -2.920804   -2.417107    8.848962
  H     -1.806992   -4.611826    8.919735
  H     -0.805534   -3.396736    9.724456
  H      0.557632   -4.918151    8.301968
  H     -0.393255   -4.478903    6.873739
  C     -1.069465    3.047276   -8.479947
  C      1.057492    1.660399   -8.890680
  C     -0.084659    2.476790   -9.508036
  H      1.627898    2.267521   -8.183247
  H      1.738787    1.317900   -9.674154
  H     -0.622979    1.866899  -10.240139
  H      0.362343    3.322702  -10.049766
  H     -1.835881    3.641751   -8.984418
  H     -0.552235    3.692174   -7.765102

 Total Charge           Charge          ....   -2
 Multiplicity           Mult            ....    2
 Number of Electrons    NEL             ....  321
 Basis Dimension        Dim             ....  681

ORBITAL ENERGIES
----------------
                 SPIN UP ORBITALS
  NO   OCC          E(Eh)            E(eV)
   0   1.0000    -196.585914     -5349.3747
   1   1.0000     -88.727999     -2414.4116
   2   1.0000     -88.727995     -2414.4115
   3   1.0000     -88.726919     -2414.3822
   4   1.0000     -88.726798     -2414.3789
   5   1.0000     -88.720871     -2414.2176
   6   1.0000     -88.720839     -2414.2168
   7   1.0000     -88.720089     -2414.1963
   8   1.0000     -88.720017     -2414.1944
   9   1.0000     -88.620003     -2411.4729
  10   1.0000     -88.619626     -2411.4626
  11   1.0000     -88.619435     -2411.4574
  12   1.0000     -88.619081     -2411.4478
  13   1.0000     -21.918132      -596.4227
  14   1.0000     -19.181806      -521.9635
  15   1.0000     -18.420789      -501.2551
  16   1.0000     -18.416887      -501.1490
  17   1.0000     -18.416781      -501.1461
  18   1.0000     -10.067218      -273.9429
  19   1.0000     -10.066446      -273.9219
  20   1.0000     -10.059521      -273.7335
  21   1.0000     -10.059458      -273.7318
  22   1.0000     -10.057635      -273.6822
  23   1.0000     -10.057584      -273.6808
  24   1.0000     -10.047900      -273.4173
  25   1.0000     -10.046204      -273.3711
  26   1.0000     -10.041052      -273.2309
  27   1.0000     -10.040169      -273.2069
  28   1.0000     -10.006423      -272.2886
  29   1.0000     -10.005485      -272.2631
  30   1.0000     -10.005160      -272.2543
  31   1.0000     -10.004350      -272.2322
  32   1.0000      -7.781397      -211.7426
  33   1.0000      -7.781384      -211.7422
  34   1.0000      -7.780335      -211.7137
  35   1.0000      -7.780230      -211.7108
  36   1.0000      -7.774167      -211.5458
  37   1.0000      -7.774147      -211.5453
  38   1.0000      -7.773379      -211.5244
  39   1.0000      -7.773322      -211.5228
  40   1.0000      -7.674691      -208.8390
  41   1.0000      -7.674213      -208.8259
  42   1.0000      -7.674086      -208.8225
  43   1.0000      -7.673707      -208.8122
  44   1.0000      -5.746387      -156.3671
  45   1.0000      -5.746378      -156.3669
  46   1.0000      -5.745329      -156.3384
  47   1.0000      -5.745220      -156.3354
  48   1.0000      -5.742963      -156.2740
  49   1.0000      -5.742959      -156.2739
  50   1.0000      -5.741902      -156.2451
  51   1.0000      -5.741797      -156.2423
  52   1.0000      -5.739110      -156.1691
  53   1.0000      -5.739089      -156.1686
  54   1.0000      -5.738332      -156.1479
  55   1.0000      -5.738272      -156.1463
  56   1.0000      -5.736213      -156.0903
  57   1.0000      -5.736196      -156.0898
  58   1.0000      -5.735156      -156.0615
  59   1.0000      -5.735048      -156.0586
  60   1.0000      -5.734591      -156.0462
  61   1.0000      -5.734586      -156.0460
  62   1.0000      -5.733830      -156.0254
  63   1.0000      -5.733771      -156.0238
  64   1.0000      -5.730070      -155.9231
  65   1.0000      -5.730066      -155.9230
  66   1.0000      -5.729263      -155.9012
  67   1.0000      -5.729212      -155.8998
  68   1.0000      -5.640163      -153.4766
  69   1.0000      -5.639686      -153.4637
  70   1.0000      -5.639538      -153.4596
  71   1.0000      -5.639199      -153.4504
  72   1.0000      -5.633380      -153.2921
  73   1.0000      -5.632905      -153.2791
  74   1.0000      -5.632771      -153.2755
  75   1.0000      -5.632404      -153.2655
  76   1.0000      -5.631801      -153.2491
  77   1.0000      -5.631380      -153.2376
  78   1.0000      -5.631254      -153.2342
  79   1.0000      -5.630797      -153.2218
  80   1.0000      -2.685204       -73.0681
  81   1.0000      -1.706698       -46.4416
  82   1.0000      -1.495964       -40.7072
  83   1.0000      -1.495468       -40.6937
  84   1.0000      -0.702367       -19.1124
  85   1.0000      -0.701255       -19.0821
  86   1.0000      -0.678040       -18.4504
  87   1.0000      -0.676794       -18.4165
  88   1.0000      -0.672770       -18.3070
  89   1.0000      -0.623584       -16.9686
  90   1.0000      -0.622356       -16.9352
  91   1.0000      -0.612148       -16.6574
  92   1.0000      -0.610648       -16.6166
  93   1.0000      -0.564155       -15.3515
  94   1.0000      -0.563774       -15.3411
  95   1.0000      -0.563382       -15.3304
  96   1.0000      -0.562493       -15.3062
  97   1.0000      -0.490171       -13.3382
  98   1.0000      -0.489446       -13.3185
  99   1.0000      -0.488251       -13.2860
 100   1.0000      -0.487370       -13.2620
 101   1.0000      -0.483534       -13.1576
 102   1.0000      -0.478240       -13.0136
 103   1.0000      -0.463199       -12.6043
 104   1.0000      -0.462196       -12.5770
 105   1.0000      -0.439425       -11.9573
 106   1.0000      -0.436981       -11.8909
 107   1.0000      -0.404015       -10.9938
 108   1.0000      -0.398217       -10.8360
 109   1.0000      -0.350337        -9.5331
 110   1.0000      -0.348724        -9.4893
 111   1.0000      -0.320526        -8.7219
 112   1.0000      -0.318806        -8.6751
 113   1.0000      -0.307683        -8.3725
 114   1.0000      -0.303710        -8.2644
 115   1.0000      -0.297079        -8.0839
 116   1.0000      -0.295695        -8.0463
 117   1.0000      -0.287528        -7.8240
 118   1.0000      -0.285615        -7.7720
 119   1.0000      -0.250699        -6.8219
 120   1.0000      -0.250034        -6.8038
 121   1.0000      -0.248311        -6.7569
 122   1.0000      -0.247841        -6.7441
 123   1.0000      -0.230062        -6.2603
 124   1.0000      -0.228288        -6.2120
 125   1.0000      -0.225542        -6.1373
 126   1.0000      -0.224388        -6.1059
 127   1.0000      -0.222291        -6.0489
 128   1.0000      -0.211900        -5.7661
 129   1.0000      -0.211098        -5.7443
 130   1.0000      -0.205680        -5.5968
 131   1.0000      -0.201851        -5.4926
 132   1.0000      -0.180400        -4.9089
 133   1.0000      -0.179153        -4.8750
 134   1.0000      -0.175942        -4.7876
 135   1.0000      -0.173265        -4.7148
 136   1.0000      -0.171572        -4.6687
 137   1.0000      -0.144761        -3.9392
 138   1.0000      -0.143065        -3.8930
 139   1.0000      -0.138683        -3.7738
 140   1.0000      -0.124726        -3.3940
 141   1.0000      -0.122029        -3.3206
 142   1.0000      -0.121615        -3.3093
 143   1.0000      -0.107688        -2.9303
 144   1.0000      -0.091142        -2.4801
 145   1.0000      -0.090463        -2.4616
 146   1.0000      -0.089765        -2.4426
 147   1.0000      -0.089627        -2.4389
 148   1.0000      -0.062092        -1.6896
 149   1.0000      -0.060852        -1.6559
 150   1.0000      -0.046901        -1.2762
 151   1.0000      -0.031721        -0.8632
 152   1.0000      -0.027629        -0.7518
 153   1.0000      -0.025644        -0.6978
 154   1.0000      -0.022349        -0.6081
 155   1.0000      -0.019261        -0.5241
 156   1.0000      -0.009843        -0.2678
 157   1.0000       0.003195         0.0869
 158   1.0000       0.015937         0.4337
 159   1.0000       0.038833         1.0567
 160   1.0000       0.050999         1.3878
 161   0.0000       0.142558         3.8792
 162   0.0000       0.144278         3.9260
 163   0.0000       0.166374         4.5273
 164   0.0000       0.168525         4.5858
 165   0.0000       0.176072         4.7912

                 SPIN DOWN ORBITALS
  NO   OCC          E(Eh)            E(eV)
   0   1.0000    -196.586038     -5349.3781
   1   1.0000     -88.728000     -2414.4116
   2   1.0000     -88.727995     -2414.4115
   3   1.0000     -88.726919     -2414.3822
   4   1.0000     -88.726798     -2414.3789
   5   1.0000     -88.720878     -2414.2178
   6   1.0000     -88.720847     -2414.2170
   7   1.0000     -88.720093     -2414.1965
   8   1.0000     -88.720022     -2414.1945
   9   1.0000     -88.620075     -2411.4748
  10   1.0000     -88.619699     -2411.4646
  11   1.0000     -88.619510     -2411.4595
  12   1.0000     -88.619152     -2411.4497
  13   1.0000     -21.906791      -596.1141
  14   1.0000     -19.182685      -521.9874
  15   1.0000     -18.417978      -501.1787
  16   1.0000     -18.404046      -500.7996
  17   1.0000     -18.403940      -500.7967
  18   1.0000     -10.067202      -273.9425
  19   1.0000     -10.066436      -273.9217
  20   1.0000     -10.059520      -273.7334
  21   1.0000     -10.059457      -273.7317
  22   1.0000     -10.057637      -273.6822
  23   1.0000     -10.057586      -273.6808
  24   1.0000     -10.047900      -273.4172
  25   1.0000     -10.046204      -273.3711
  26   1.0000     -10.041042      -273.2307
  27   1.0000     -10.040172      -273.2070
  28   1.0000     -10.006174      -272.2818
  29   1.0000     -10.005257      -272.2569
  30   1.0000     -10.004943      -272.2483
  31   1.0000     -10.004135      -272.2264
  32   1.0000      -7.781397      -211.7426
  33   1.0000      -7.781384      -211.7422
  34   1.0000      -7.780335      -211.7137
  35   1.0000      -7.780230      -211.7108
  36   1.0000      -7.774175      -211.5461
  37   1.0000      -7.774155      -211.5455
  38   1.0000      -7.773385      -211.5246
  39   1.0000      -7.773327      -211.5230
  40   1.0000      -7.674756      -208.8407
  41   1.0000      -7.674278      -208.8277
  42   1.0000      -7.674153      -208.8243
  43   1.0000      -7.673771      -208.8139
  44   1.0000      -5.746388      -156.3672
  45   1.0000      -5.746379      -156.3669
  46   1.0000      -5.745329      -156.3384
  47   1.0000      -5.745220      -156.3354
  48   1.0000      -5.742964      -156.2740
  49   1.0000      -5.742960      -156.2739
  50   1.0000      -5.741901      -156.2451
  51   1.0000      -5.741797      -156.2422
  52   1.0000      -5.739118      -156.1693
  53   1.0000      -5.739098      -156.1688
  54   1.0000      -5.738338      -156.1481
  55   1.0000      -5.738277      -156.1465
  56   1.0000      -5.736213      -156.0903
  57   1.0000      -5.736197      -156.0898
  58   1.0000      -5.735157      -156.0615
  59   1.0000      -5.735048      -156.0586
  60   1.0000      -5.734603      -156.0465
  61   1.0000      -5.734598      -156.0463
  62   1.0000      -5.733840      -156.0257
  63   1.0000      -5.733780      -156.0241
  64   1.0000      -5.730080      -155.9234
  65   1.0000      -5.730075      -155.9233
  66   1.0000      -5.729265      -155.9012
  67   1.0000      -5.729214      -155.8998
  68   1.0000      -5.640253      -153.4791
  69   1.0000      -5.639780      -153.4662
  70   1.0000      -5.639632      -153.4622
  71   1.0000      -5.639285      -153.4528
  72   1.0000      -5.633583      -153.2976
  73   1.0000      -5.633074      -153.2837
  74   1.0000      -5.632949      -153.2803
  75   1.0000      -5.632613      -153.2712
  76   1.0000      -5.631823      -153.2497
  77   1.0000      -5.631438      -153.2392
  78   1.0000      -5.631314      -153.2358
  79   1.0000      -5.630814      -153.2222
  80   1.0000      -2.661332       -72.4185
  81   1.0000      -1.687918       -45.9306
  82   1.0000      -1.449090       -39.4317
  83   1.0000      -1.448379       -39.4124
  84   1.0000      -0.702337       -19.1116
  85   1.0000      -0.701238       -19.0817
  86   1.0000      -0.677960       -18.4482
  87   1.0000      -0.676731       -18.4148
  88   1.0000      -0.672641       -18.3035
  89   1.0000      -0.623479       -16.9657
  90   1.0000      -0.622278       -16.9330
  91   1.0000      -0.612146       -16.6573
  92   1.0000      -0.610651       -16.6166
  93   1.0000      -0.564068       -15.3491
  94   1.0000      -0.563621       -15.3369
  95   1.0000      -0.563311       -15.3285
  96   1.0000      -0.562349       -15.3023
  97   1.0000      -0.489603       -13.3228
  98   1.0000      -0.488273       -13.2866
  99   1.0000      -0.488009       -13.2794
 100   1.0000      -0.487010       -13.2522
 101   1.0000      -0.476903       -12.9772
 102   1.0000      -0.469825       -12.7846
 103   1.0000      -0.463044       -12.6001
 104   1.0000      -0.459646       -12.5076
 105   1.0000      -0.439370       -11.9559
 106   1.0000      -0.436832       -11.8868
 107   1.0000      -0.403875       -10.9900
 108   1.0000      -0.398062       -10.8318
 109   1.0000      -0.350321        -9.5327
 110   1.0000      -0.348715        -9.4890
 111   1.0000      -0.320507        -8.7214
 112   1.0000      -0.318794        -8.6748
 113   1.0000      -0.307538        -8.3685
 114   1.0000      -0.303686        -8.2637
 115   1.0000      -0.297013        -8.0821
 116   1.0000      -0.295651        -8.0451
 117   1.0000      -0.287511        -7.8236
 118   1.0000      -0.285605        -7.7717
 119   1.0000      -0.250615        -6.8196
 120   1.0000      -0.249813        -6.7978
 121   1.0000      -0.248268        -6.7557
 122   1.0000      -0.247786        -6.7426
 123   1.0000      -0.229777        -6.2526
 124   1.0000      -0.228269        -6.2115
 125   1.0000      -0.224360        -6.1052
 126   1.0000      -0.222261        -6.0480
 127   1.0000      -0.211804        -5.7635
 128   1.0000      -0.211731        -5.7615
 129   1.0000      -0.206717        -5.6250
 130   1.0000      -0.205067        -5.5801
 131   1.0000      -0.200984        -5.4690
 132   1.0000      -0.180096        -4.9007
 133   1.0000      -0.178717        -4.8631
 134   1.0000      -0.175740        -4.7821
 135   1.0000      -0.171504        -4.6669
 136   1.0000      -0.171209        -4.6588
 137   1.0000      -0.144079        -3.9206
 138   1.0000      -0.142865        -3.8876
 139   1.0000      -0.138604        -3.7716
 140   1.0000      -0.124421        -3.3857
 141   1.0000      -0.121734        -3.3126
 142   1.0000      -0.121326        -3.3015
 143   1.0000      -0.107382        -2.9220
 144   1.0000      -0.091110        -2.4792
 145   1.0000      -0.090336        -2.4582
 146   1.0000      -0.089678        -2.4403
 147   1.0000      -0.089555        -2.4369
 148   1.0000      -0.062083        -1.6894
 149   1.0000      -0.060839        -1.6555
 150   1.0000      -0.044026        -1.1980
 151   1.0000      -0.030417        -0.8277
 152   1.0000      -0.026982        -0.7342
 153   1.0000      -0.025408        -0.6914
 154   1.0000      -0.021780        -0.5927
 155   1.0000      -0.018647        -0.5074
 156   1.0000      -0.009425        -0.2565
 157   1.0000       0.003469         0.0944
 158   1.0000       0.038942         1.0597
 159   1.0000       0.050379         1.3709
 160   0.0000       0.142568         3.8795
 161   0.0000       0.144269         3.9258
 162   0.0000       0.166137         4.5208
 163   0.0000       0.168232         4.5778
 164   0.0000       0.175981         4.7887

MULLIKEN ATOMIC CHARGES AND SPIN POPULATIONS
--------------------------------------------
   0 V :    0.352555    1.030158
   1 S :   -0.370478   -0.010221
   2 S :   -0.353061   -0.012597
   3 S :   -0.368005   -0.010847
   4 S :   -0.346865   -0.013496
   5 O :    0.101839   -0.017687
   6 C :   -0.113639    0.010860
   7 C :   -0.118436    0.007866
   8 C :   -0.098608    0.007376
   9 C :   -0.099949    0.007131
  10 S :    0.094051   -0.000564
  11 S :    0.097646   -0.000632
  12 S :    0.094177   -0.000150
  13 S :    0.093483   -0.000109
  14 C :   -0.221030    0.002365
  15 C :   -0.218564    0.001510
  16 C :   -0.190654   -0.000154
  17 C :   -0.190243   -0.000841
  18 S :    0.007174   -0.000092
  19 S :    0.007418   -0.000090
  20 S :    0.002970    0.000012
  21 S :    0.003161    0.000008
  22 C :   -0.297758   -0.000045
  23 C :   -0.296312   -0.000047
  24 C :   -0.156366    0.000015
  25 H :    0.142946    0.000002
  26 H :    0.109231   -0.000007
  27 H :    0.080601   -0.000005
  28 H :    0.089591   -0.000007
  29 H :    0.108777   -0.000007
  30 H :    0.142213    0.000002
  31 C :   -0.296081    0.000296
  32 C :   -0.297048    0.000291
  33 C :   -0.156250   -0.000382
  34 H :    0.136657   -0.000027
  35 H :    0.109214    0.000035
  36 H :    0.091081    0.000040
  37 H :    0.078431    0.000031
  38 H :    0.109322    0.000036
  39 H :    0.136810   -0.000027
Sum of atomic charges         :   -2.0000000

LOEWDIN ATOMIC CHARGES AND SPIN POPULATIONS
-------------------------------------------
   0 V :   -0.358256    0.988658
   1 S :    0.019852   -0.004812
   2 S :    0.023700   -0.005449
   3 S :    0.022245   -0.005571
   4 S :    0.025617   -0.006033
   5 O :    0.230593    0.000004
   6 C :   -0.563028    0.009833
   7 C :   -0.563683    0.008357
   8 C :   -0.559756    0.008400
   9 C :   -0.559914    0.007958
  10 S :    0.461573   -0.000790
  11 S :    0.464268   -0.000834
  12 S :    0.464046   -0.000463
  13 S :    0.463459   -0.000475
  14 C :   -0.468267    0.000615
  15 C :   -0.467724    0.000254
  16 C :   -0.626938    0.000558
  17 C :   -0.626527   -0.000130
  18 S :    0.356807   -0.000063
  19 S :    0.358389   -0.000059
  20 S :    0.355512   -0.000019
  21 S :    0.355113   -0.000022
  22 C :   -0.284129   -0.000037
  23 C :   -0.284227   -0.000038
  24 C :   -0.176124    0.000001
  25 H :    0.062635   -0.000001
  26 H :    0.051853   -0.000003
  27 H :    0.056826   -0.000003
  28 H :    0.059304   -0.000003
  29 H :    0.051776   -0.000003
  30 H :    0.062428   -0.000001
  31 C :   -0.285836    0.000061
  32 C :   -0.285617    0.000052
  33 C :   -0.176540    0.000013
  34 H :    0.060546    0.000000
  35 H :    0.051792    0.000015
  36 H :    0.059785    0.000008
  37 H :    0.056040    0.000005
  38 H :    0.051907    0.000016
  39 H :    0.060500    0.000001

  Mayer bond orders larger than 0.100000
B(  0-V ,  1-S ) :   0.6296 B(  0-V ,  2-S ) :   0.6243 B(  0-V ,  3-S ) :   0.6271
B(  0-V ,  4-S ) :   0.6274 B(  0-V ,  5-O ) :   2.5071 B(  1-S ,  8-C ) :   1.1433
B(  2-S ,  6-C ) :   1.1741 B(  3-S ,  9-C ) :   1.1467 B(  4-S ,  7-C ) :   1.1773
B(  6-C ,  7-C ) :   1.6645 B(  6-C , 10-S ) :   0.9342 B(  7-C , 11-S ) :   0.9412
B(  8-C ,  9-C ) :   1.6873 B(  8-C , 13-S ) :   0.9320 B(  9-C , 12-S ) :   0.9333
B( 10-S , 14-C ) :   1.2552 B( 11-S , 14-C ) :   1.2535 B( 12-S , 15-C ) :   1.2511
B( 13-S , 15-C ) :   1.2511 B( 14-C , 16-C ) :   1.4394 B( 15-C , 17-C ) :   1.4425
B( 16-C , 18-S ) :   1.0842 B( 16-C , 19-S ) :   1.0862 B( 17-C , 20-S ) :   1.0835
B( 17-C , 21-S ) :   1.0844 B( 18-S , 32-C ) :   0.9963 B( 19-S , 31-C ) :   0.9962
B( 20-S , 23-C ) :   0.9942 B( 21-S , 22-C ) :   0.9936 B( 22-C , 24-C ) :   0.9145
B( 22-C , 25-H ) :   0.9636 B( 22-C , 26-H ) :   0.9662 B( 23-C , 24-C ) :   0.9155
B( 23-C , 29-H ) :   0.9663 B( 23-C , 30-H ) :   0.9635 B( 24-C , 27-H ) :   0.9636
B( 24-C , 28-H ) :   0.9705 B( 31-C , 33-C ) :   0.9148 B( 31-C , 38-H ) :   0.9662
B( 31-C , 39-H ) :   0.9641 B( 32-C , 33-C ) :   0.9146 B( 32-C , 34-H ) :   0.9640
B( 32-C , 35-H ) :   0.9661 B( 33-C , 36-H ) :   0.9703 B( 33-C , 37-H ) :   0.9637

FINAL SINGLE POINT ENERGY     -6336.482919103059

DIPOLE MOMENT
-------------
                                X             Y             Z
Electronic contribution:     10.65157      11.36846       4.88946
Nuclear contribution   :    -10.39177     -10.70412      -5.30816
                        -----------------------------------------
Total Dipole Moment    :      0.25980       0.66434      -0.41870
                        -----------------------------------------
Magnitude (a.u.)       :      0.82713
Magnitude (Debye)      :      2.10240

Rotational constants in cm-1:     0.010899     0.000805     0.000784
Rotational constants in MHz :   326.735216    24.139472    23.489923

                             ****ORCA TERMINATED NORMALLY****
TOTAL RUN TIME: 0 days 1 hours 1 minutes 59 seconds 283 msec
