                         Program Version 5.0.4 -  RELEASE  -
|  1> ! nofrozencore ReducedPop printbasis
|  2> ! B3LYP TZVP
|  3>
|  4> %basis
|  5> newgto V "CP(PPP)" end
|  6> end
|  7>
|  8> %pal
|  9> nprocs 6
| 10> end
| 11>
| 12> % sym SymThresh 1e-2 end
| 13> * xyz -2 2
| 14> V -0.3994727284494083 -1.0267614507118263 0.1276265239961168
| 15> S 0.9286292219129321 -0.8061043504759235 2.1897749748017885
| 16> S -1.977972809778142 0.5722951800209259 1.2036328105083292
| 17> S 1.784094767282801 -1.3092576251439942 -1.035555493970959
| 18> S -1.1039660903699025 -0.004924996522634654 -1.9886122446831216
| 19> O -1.1025340294156571 -2.4498469456042757 0.1948292619266275
| 20> C -2.9649307731193826 0.9798857465126228 -0.19575326280321032
| 21> C -2.6103096234568564 0.7376847131042494 -1.472292269982366
| 22> C 2.530558975077925 -1.2489231926568398 1.6186174153330395
| 23> C 2.87727463112287 -1.4543790801496754 0.3342388142671952
| 24> S -4.527904518425625 1.854721097789877 0.03442062946735417
| 25> S -3.735679368153832 1.2877678592739545 -2.7462354412163514
| 26> S 4.608674351510348 -1.85682263913731 0.033538077998510614
| 27> S 3.834077237889145 -1.3931087730394438 2.837585611389176
| 28> C -4.936411627345373 2.024711853827349 -1.679002229797935
| 29> C 5.1555764773058534 -1.7183030148954637 1.7105174069069666
| 30> C -6.0537422925116715 2.642711489788969 -2.1714896720615298
| 31> C 6.4528471037950945 -1.854629911986037 2.122607148148932
| 32> S -7.342196142431798 3.3231029889599157 -1.1442447388139048
| 33> S -6.305743633981341 2.7683555310218044 -3.9367067548454493
| 34> S 6.904891337007128 -1.612770416291011 3.8351941831287286
| 35> S 7.782235731338156 -2.2579296616078803 1.0057933458742951
| 36> C 8.803694548470125 -0.7259666697869275 1.213220725367355
| 37> C 8.022392797405752 -0.15605443160866092 3.6041397426371544
| 38> C 9.203219009954717 -0.4387166411096773 2.6661825397535304
| 39> H 8.243052851483592 0.11561384246305065 0.7904719024912601
| 40> H 9.6955007167731 -0.8879175650475247 0.5963010901100094
| 41> H 9.861731056558718 0.4413314717515629 2.6683286589906587
| 42> H 9.784739713928442 -1.2827248222411416 3.059311419668325
| 43> H 8.382293138938019 0.09650623387256804 4.608102014209466
| 44> H 7.4189499453502386 0.6809845768099309 3.2350695415551267
| 45> C -7.838457615601055 1.742923033129226 -4.06790043747625
| 46> C -8.739475233427695 2.238340305712485 -1.7023973616479446
| 47> C -8.996518961906206 2.2751595861460423 -3.215086923434242
| 48> H -8.526793114826885 1.2172466959882313 -1.369542740502671
| 49> H -9.61970809472266 2.60030308673417 -1.1588426610882587
| 50> H -9.230566363748547 3.302206961510069 -3.5209508243276253
| 51> H -9.885873640072143 1.6635029273053377 -3.422585369758996
| 52> H -8.10928026008955 1.7527017342578899 -5.129874213796311
| 53> H -7.582876675117126 0.7156789750137145 -3.788441198187715
| 54> *
| 55>
| 56> % eprnmr
| 57> gtensor true
| 58> Nuclei = all H {aiso,adip,aorb,fgrad,rho}
| 59> Nuclei = all V {aiso,adip,aorb,fgrad,rho}
| 60> end
| 61>
| 62>                          ****END OF INPUT****

CARTESIAN COORDINATES (ANGSTROEM)
---------------------------------
  V     -0.400340   -1.023143    0.126702
  S      0.927762   -0.802486    2.188851
  S     -1.978840    0.575914    1.202709
  S      1.783227   -1.305639   -1.036480
  S     -1.104833   -0.001307   -1.989536
  O     -1.103401   -2.446229    0.193905
  C     -2.965798    0.983504   -0.196677
  C     -2.611177    0.741303   -1.473216
  C      2.529692   -1.245305    1.617693
  C      2.876407   -1.450761    0.333315
  S     -4.528772    1.858339    0.033497
  S     -3.736547    1.291386   -2.747160
  S      4.607807   -1.853204    0.032614
  S      3.833210   -1.389490    2.836662
  C     -4.937279    2.028330   -1.679926
  C      5.154709   -1.714685    1.709593
  C     -6.054610    2.646330   -2.172414
  C      6.451980   -1.851012    2.121683
  S     -7.343063    3.326721   -1.145169
  S     -6.306611    2.771974   -3.937631
  S      6.904024   -1.609152    3.834270
  S      7.781368   -2.254311    1.004869
  C      8.802827   -0.722348    1.212297
  C      8.021526   -0.152436    3.603216
  C      9.202352   -0.435098    2.665258
  H      8.242186    0.119232    0.789548
  H      9.694633   -0.884299    0.595377
  H      9.860864    0.444950    2.667405
  H      9.783872   -1.279106    3.058387
  H      8.381426    0.100125    4.607178
  H      7.418083    0.684603    3.234145
  C     -7.839325    1.746541   -4.068825
  C     -8.740343    2.241959   -1.703321
  C     -8.997386    2.278778   -3.216011
  H     -8.527660    1.220865   -1.370467
  H     -9.620575    2.603921   -1.159767
  H     -9.231434    3.305825   -3.521875
  H     -9.886741    1.667121   -3.423509
  H     -8.110148    1.756320   -5.130798
  H     -7.583744    0.719297   -3.789365

 Total Charge           Charge          ....   -2
 Multiplicity           Mult            ....    2
 Number of Electrons    NEL             ....  321
 Basis Dimension        Dim             ....  681

ORBITAL ENERGIES
----------------
                 SPIN UP ORBITALS
  NO   OCC          E(Eh)            E(eV)
   0   1.0000    -196.674743     -5351.7918
   1   1.0000     -88.734107     -2414.5778
   2   1.0000     -88.734046     -2414.5762
   3   1.0000     -88.732556     -2414.5356
   4   1.0000     -88.732360     -2414.5303
   5   1.0000     -88.731414     -2414.5045
   6   1.0000     -88.730731     -2414.4859
   7   1.0000     -88.728949     -2414.4375
   8   1.0000     -88.728679     -2414.4301
   9   1.0000     -88.639566     -2412.0052
  10   1.0000     -88.639376     -2412.0000
  11   1.0000     -88.639268     -2411.9971
  12   1.0000     -88.639202     -2411.9953
  13   1.0000     -22.050121      -600.0143
  14   1.0000     -18.890046      -514.0243
  15   1.0000     -18.556571      -504.9500
  16   1.0000     -18.551397      -504.8092
  17   1.0000     -18.551296      -504.8064
  18   1.0000     -10.075891      -274.1789
  19   1.0000     -10.075749      -274.1751
  20   1.0000     -10.064813      -273.8775
  21   1.0000     -10.064673      -273.8737
  22   1.0000     -10.064021      -273.8559
  23   1.0000     -10.063790      -273.8497
  24   1.0000     -10.052059      -273.5304
  25   1.0000     -10.052045      -273.5301
  26   1.0000     -10.048758      -273.4406
  27   1.0000     -10.048606      -273.4365
  28   1.0000     -10.018703      -272.6228
  29   1.0000     -10.017999      -272.6036
  30   1.0000     -10.016690      -272.5680
  31   1.0000     -10.016441      -272.5612
  32   1.0000      -7.787362      -211.9049
  33   1.0000      -7.787358      -211.9048
  34   1.0000      -7.786011      -211.8681
  35   1.0000      -7.785857      -211.8639
  36   1.0000      -7.784432      -211.8252
  37   1.0000      -7.783821      -211.8085
  38   1.0000      -7.782382      -211.7694
  39   1.0000      -7.782138      -211.7627
  40   1.0000      -7.693686      -209.3558
  41   1.0000      -7.693664      -209.3552
  42   1.0000      -7.693604      -209.3536
  43   1.0000      -7.693541      -209.3519
  44   1.0000      -5.752383      -156.5303
  45   1.0000      -5.752368      -156.5299
  46   1.0000      -5.750998      -156.4926
  47   1.0000      -5.750828      -156.4880
  48   1.0000      -5.749389      -156.4488
  49   1.0000      -5.748951      -156.4369
  50   1.0000      -5.748934      -156.4364
  51   1.0000      -5.748783      -156.4323
  52   1.0000      -5.747597      -156.4001
  53   1.0000      -5.747441      -156.3958
  54   1.0000      -5.747325      -156.3927
  55   1.0000      -5.747084      -156.3861
  56   1.0000      -5.744983      -156.3289
  57   1.0000      -5.744376      -156.3124
  58   1.0000      -5.742872      -156.2715
  59   1.0000      -5.742612      -156.2644
  60   1.0000      -5.742173      -156.2525
  61   1.0000      -5.742141      -156.2516
  62   1.0000      -5.740790      -156.2148
  63   1.0000      -5.740645      -156.2109
  64   1.0000      -5.740274      -156.2008
  65   1.0000      -5.739633      -156.1834
  66   1.0000      -5.738190      -156.1441
  67   1.0000      -5.737938      -156.1372
  68   1.0000      -5.658978      -153.9886
  69   1.0000      -5.658970      -153.9884
  70   1.0000      -5.658950      -153.9879
  71   1.0000      -5.658867      -153.9856
  72   1.0000      -5.652331      -153.8077
  73   1.0000      -5.652298      -153.8069
  74   1.0000      -5.652291      -153.8067
  75   1.0000      -5.652232      -153.8051
  76   1.0000      -5.651016      -153.7720
  77   1.0000      -5.650991      -153.7713
  78   1.0000      -5.650898      -153.7688
  79   1.0000      -5.650839      -153.7672
  80   1.0000      -2.443751       -66.4978
  81   1.0000      -1.485066       -40.4107
  82   1.0000      -1.473370       -40.0924
  83   1.0000      -1.472568       -40.0706
  84   1.0000      -0.708687       -19.2843
  85   1.0000      -0.708671       -19.2839
  86   1.0000      -0.684705       -18.6318
  87   1.0000      -0.684645       -18.6301
  88   1.0000      -0.649591       -17.6763
  89   1.0000      -0.630444       -17.1552
  90   1.0000      -0.630286       -17.1509
  91   1.0000      -0.616725       -16.7819
  92   1.0000      -0.616691       -16.7810
  93   1.0000      -0.574484       -15.6325
  94   1.0000      -0.574227       -15.6255
  95   1.0000      -0.572601       -15.5813
  96   1.0000      -0.571817       -15.5599
  97   1.0000      -0.496820       -13.5191
  98   1.0000      -0.495758       -13.4903
  99   1.0000      -0.494855       -13.4657
 100   1.0000      -0.494555       -13.4575
 101   1.0000      -0.479295       -13.0423
 102   1.0000      -0.476736       -12.9727
 103   1.0000      -0.446791       -12.1578
 104   1.0000      -0.444606       -12.0983
 105   1.0000      -0.415990       -11.3197
 106   1.0000      -0.410796       -11.1783
 107   1.0000      -0.354469        -9.6456
 108   1.0000      -0.354415        -9.6441
 109   1.0000      -0.325860        -8.8671
 110   1.0000      -0.325616        -8.8605
 111   1.0000      -0.318653        -8.6710
 112   1.0000      -0.314108        -8.5473
 113   1.0000      -0.303889        -8.2693
 114   1.0000      -0.303104        -8.2479
 115   1.0000      -0.291904        -7.9431
 116   1.0000      -0.291387        -7.9290
 117   1.0000      -0.257641        -7.0108
 118   1.0000      -0.257420        -7.0048
 119   1.0000      -0.255560        -6.9541
 120   1.0000      -0.254976        -6.9383
 121   1.0000      -0.234302        -6.3757
 122   1.0000      -0.233814        -6.3624
 123   1.0000      -0.231043        -6.2870
 124   1.0000      -0.229804        -6.2533
 125   1.0000      -0.219904        -5.9839
 126   1.0000      -0.217825        -5.9273
 127   1.0000      -0.213940        -5.8216
 128   1.0000      -0.211229        -5.7478
 129   1.0000      -0.192629        -5.2417
 130   1.0000      -0.187067        -5.0904
 131   1.0000      -0.185574        -5.0497
 132   1.0000      -0.184346        -5.0163
 133   1.0000      -0.179120        -4.8741
 134   1.0000      -0.159167        -4.3312
 135   1.0000      -0.151250        -4.1157
 136   1.0000      -0.146474        -3.9858
 137   1.0000      -0.135553        -3.6886
 138   1.0000      -0.134163        -3.6508
 139   1.0000      -0.132586        -3.6078
 140   1.0000      -0.124943        -3.3999
 141   1.0000      -0.120770        -3.2863
 142   1.0000      -0.113250        -3.0817
 143   1.0000      -0.109496        -2.9795
 144   1.0000      -0.099429        -2.7056
 145   1.0000      -0.098030        -2.6675
 146   1.0000      -0.096828        -2.6348
 147   1.0000      -0.094435        -2.5697
 148   1.0000      -0.074235        -2.0200
 149   1.0000      -0.067552        -1.8382
 150   1.0000      -0.066999        -1.8231
 151   1.0000      -0.051889        -1.4120
 152   1.0000      -0.045179        -1.2294
 153   1.0000      -0.037168        -1.0114
 154   1.0000      -0.036579        -0.9954
 155   1.0000      -0.030943        -0.8420
 156   1.0000      -0.024586        -0.6690
 157   1.0000      -0.018790        -0.5113
 158   1.0000      -0.015161        -0.4125
 159   1.0000       0.020806         0.5662
 160   1.0000       0.041534         1.1302
 161   0.0000       0.136712         3.7201
 162   0.0000       0.137285         3.7357
 163   0.0000       0.161890         4.4053
 164   0.0000       0.162277         4.4158
 165   0.0000       0.170511         4.6398

                 SPIN DOWN ORBITALS
  NO   OCC          E(Eh)            E(eV)
   0   1.0000    -196.674890     -5351.7958
   1   1.0000     -88.734108     -2414.5778
   2   1.0000     -88.734047     -2414.5762
   3   1.0000     -88.732557     -2414.5356
   4   1.0000     -88.732361     -2414.5303
   5   1.0000     -88.731423     -2414.5048
   6   1.0000     -88.730740     -2414.4862
   7   1.0000     -88.728957     -2414.4377
   8   1.0000     -88.728687     -2414.4303
   9   1.0000     -88.639707     -2412.0091
  10   1.0000     -88.639517     -2412.0039
  11   1.0000     -88.639403     -2412.0008
  12   1.0000     -88.639343     -2411.9991
  13   1.0000     -22.035187      -599.6079
  14   1.0000     -18.893828      -514.1272
  15   1.0000     -18.551304      -504.8066
  16   1.0000     -18.535357      -504.3727
  17   1.0000     -18.535180      -504.3679
  18   1.0000     -10.075885      -274.1788
  19   1.0000     -10.075748      -274.1751
  20   1.0000     -10.064812      -273.8775
  21   1.0000     -10.064673      -273.8737
  22   1.0000     -10.064021      -273.8559
  23   1.0000     -10.063790      -273.8496
  24   1.0000     -10.052059      -273.5304
  25   1.0000     -10.052045      -273.5301
  26   1.0000     -10.048754      -273.4405
  27   1.0000     -10.048594      -273.4362
  28   1.0000     -10.018482      -272.6168
  29   1.0000     -10.017798      -272.5981
  30   1.0000     -10.016465      -272.5619
  31   1.0000     -10.016200      -272.5547
  32   1.0000      -7.787362      -211.9049
  33   1.0000      -7.787359      -211.9048
  34   1.0000      -7.786011      -211.8681
  35   1.0000      -7.785858      -211.8640
  36   1.0000      -7.784443      -211.8255
  37   1.0000      -7.783831      -211.8088
  38   1.0000      -7.782391      -211.7696
  39   1.0000      -7.782147      -211.7630
  40   1.0000      -7.693812      -209.3593
  41   1.0000      -7.693794      -209.3588
  42   1.0000      -7.693735      -209.3572
  43   1.0000      -7.693672      -209.3555
  44   1.0000      -5.752384      -156.5303
  45   1.0000      -5.752368      -156.5299
  46   1.0000      -5.750999      -156.4926
  47   1.0000      -5.750829      -156.4880
  48   1.0000      -5.749400      -156.4491
  49   1.0000      -5.748952      -156.4369
  50   1.0000      -5.748935      -156.4365
  51   1.0000      -5.748794      -156.4326
  52   1.0000      -5.747598      -156.4001
  53   1.0000      -5.747442      -156.3958
  54   1.0000      -5.747335      -156.3929
  55   1.0000      -5.747093      -156.3864
  56   1.0000      -5.744999      -156.3294
  57   1.0000      -5.744391      -156.3128
  58   1.0000      -5.742886      -156.2719
  59   1.0000      -5.742625      -156.2648
  60   1.0000      -5.742174      -156.2525
  61   1.0000      -5.742141      -156.2516
  62   1.0000      -5.740791      -156.2149
  63   1.0000      -5.740646      -156.2109
  64   1.0000      -5.740283      -156.2010
  65   1.0000      -5.739639      -156.1835
  66   1.0000      -5.738196      -156.1442
  67   1.0000      -5.737946      -156.1375
  68   1.0000      -5.659121      -153.9925
  69   1.0000      -5.659109      -153.9922
  70   1.0000      -5.659092      -153.9917
  71   1.0000      -5.659008      -153.9894
  72   1.0000      -5.652684      -153.8173
  73   1.0000      -5.652679      -153.8172
  74   1.0000      -5.652676      -153.8171
  75   1.0000      -5.652595      -153.8149
  76   1.0000      -5.651117      -153.7747
  77   1.0000      -5.651081      -153.7737
  78   1.0000      -5.650989      -153.7712
  79   1.0000      -5.650950      -153.7702
  80   1.0000      -2.398861       -65.2763
  81   1.0000      -1.465774       -39.8857
  82   1.0000      -1.410994       -38.3951
  83   1.0000      -1.410825       -38.3905
  84   1.0000      -0.708669       -19.2839
  85   1.0000      -0.708645       -19.2832
  86   1.0000      -0.684654       -18.6304
  87   1.0000      -0.684598       -18.6289
  88   1.0000      -0.657705       -17.8971
  89   1.0000      -0.630380       -17.1535
  90   1.0000      -0.630215       -17.1490
  91   1.0000      -0.616725       -16.7819
  92   1.0000      -0.616693       -16.7811
  93   1.0000      -0.574439       -15.6313
  94   1.0000      -0.574196       -15.6247
  95   1.0000      -0.572542       -15.5797
  96   1.0000      -0.571753       -15.5582
  97   1.0000      -0.496840       -13.5197
  98   1.0000      -0.495812       -13.4917
  99   1.0000      -0.494889       -13.4666
 100   1.0000      -0.494588       -13.4584
 101   1.0000      -0.479483       -13.0474
 102   1.0000      -0.476985       -12.9794
 103   1.0000      -0.446811       -12.1583
 104   1.0000      -0.444654       -12.0996
 105   1.0000      -0.415989       -11.3196
 106   1.0000      -0.410907       -11.1813
 107   1.0000      -0.354458        -9.6453
 108   1.0000      -0.354411        -9.6440
 109   1.0000      -0.325842        -8.8666
 110   1.0000      -0.325608        -8.8602
 111   1.0000      -0.318574        -8.6688
 112   1.0000      -0.314135        -8.5480
 113   1.0000      -0.303837        -8.2678
 114   1.0000      -0.303081        -8.2473
 115   1.0000      -0.291897        -7.9429
 116   1.0000      -0.291384        -7.9290
 117   1.0000      -0.257521        -7.0075
 118   1.0000      -0.257300        -7.0015
 119   1.0000      -0.255525        -6.9532
 120   1.0000      -0.254948        -6.9375
 121   1.0000      -0.234252        -6.3743
 122   1.0000      -0.233804        -6.3621
 123   1.0000      -0.230992        -6.2856
 124   1.0000      -0.229774        -6.2525
 125   1.0000      -0.219581        -5.9751
 126   1.0000      -0.217685        -5.9235
 127   1.0000      -0.213738        -5.8161
 128   1.0000      -0.211086        -5.7439
 129   1.0000      -0.190914        -5.1950
 130   1.0000      -0.187004        -5.0886
 131   1.0000      -0.185193        -5.0393
 132   1.0000      -0.184129        -5.0104
 133   1.0000      -0.179006        -4.8710
 134   1.0000      -0.158550        -4.3144
 135   1.0000      -0.151077        -4.1110
 136   1.0000      -0.146394        -3.9836
 137   1.0000      -0.134880        -3.6703
 138   1.0000      -0.133944        -3.6448
 139   1.0000      -0.132262        -3.5990
 140   1.0000      -0.124352        -3.3838
 141   1.0000      -0.120448        -3.2776
 142   1.0000      -0.115051        -3.1307
 143   1.0000      -0.111074        -3.0225
 144   1.0000      -0.099410        -2.7051
 145   1.0000      -0.098303        -2.6750
 146   1.0000      -0.096868        -2.6359
 147   1.0000      -0.094760        -2.5786
 148   1.0000      -0.070497        -1.9183
 149   1.0000      -0.067529        -1.8376
 150   1.0000      -0.066897        -1.8204
 151   1.0000      -0.049307        -1.3417
 152   1.0000      -0.044248        -1.2040
 153   1.0000      -0.037187        -1.0119
 154   1.0000      -0.036067        -0.9814
 155   1.0000      -0.030991        -0.8433
 156   1.0000      -0.025523        -0.6945
 157   1.0000      -0.015345        -0.4176
 158   1.0000       0.021085         0.5737
 159   1.0000       0.040446         1.1006
 160   0.0000       0.136722         3.7204
 161   0.0000       0.137280         3.7356
 162   0.0000       0.156006         4.2451
 163   0.0000       0.162130         4.4118
 164   0.0000       0.163570         4.4510

MULLIKEN ATOMIC CHARGES AND SPIN POPULATIONS
--------------------------------------------
   0 V :    0.472338    1.210704
   1 S :   -0.288964   -0.022216
   2 S :   -0.292197   -0.025182
   3 S :   -0.292168   -0.023712
   4 S :   -0.284165   -0.025614
   5 O :   -0.467223   -0.146737
   6 C :   -0.066056    0.008659
   7 C :   -0.095855    0.009074
   8 C :   -0.090854    0.007927
   9 C :   -0.078447    0.007224
  10 S :    0.095813   -0.000721
  11 S :    0.104000   -0.000501
  12 S :    0.096600   -0.000475
  13 S :    0.101672   -0.000267
  14 C :   -0.212315    0.001491
  15 C :   -0.210524    0.000990
  16 C :   -0.191988   -0.000057
  17 C :   -0.191737   -0.000386
  18 S :    0.007209   -0.000112
  19 S :    0.010068   -0.000114
  20 S :    0.009482   -0.000074
  21 S :    0.007322   -0.000065
  22 C :   -0.297951   -0.000001
  23 C :   -0.302333    0.000001
  24 C :   -0.156692   -0.000013
  25 H :    0.141015   -0.000001
  26 H :    0.112029   -0.000004
  27 H :    0.083614   -0.000000
  28 H :    0.091844   -0.000001
  29 H :    0.114277   -0.000004
  30 H :    0.144210   -0.000002
  31 C :   -0.301085    0.000184
  32 C :   -0.298612    0.000198
  33 C :   -0.157282   -0.000236
  34 H :    0.140224   -0.000019
  35 H :    0.111710    0.000025
  36 H :    0.092137    0.000023
  37 H :    0.082707    0.000016
  38 H :    0.114148    0.000015
  39 H :    0.144027   -0.000016
Sum of atomic charges         :   -2.0000000

LOEWDIN ATOMIC CHARGES AND SPIN POPULATIONS
-------------------------------------------
   0 V :   -0.154583    1.164168
   1 S :    0.084385   -0.014140
   2 S :    0.073461   -0.016306
   3 S :    0.075055   -0.015708
   4 S :    0.087749   -0.016045
   5 O :   -0.318622   -0.131644
   6 C :   -0.546733    0.008162
   7 C :   -0.554693    0.008849
   8 C :   -0.553928    0.008405
   9 C :   -0.550303    0.007379
  10 S :    0.467195   -0.000997
  11 S :    0.475025   -0.000865
  12 S :    0.467320   -0.000861
  13 S :    0.473534   -0.000794
  14 C :   -0.464308    0.000158
  15 C :   -0.465017   -0.000076
  16 C :   -0.620726    0.000466
  17 C :   -0.619954    0.000090
  18 S :    0.355599   -0.000086
  19 S :    0.360964   -0.000090
  20 S :    0.357274   -0.000075
  21 S :    0.358506   -0.000072
  22 C :   -0.284894   -0.000007
  23 C :   -0.283803   -0.000007
  24 C :   -0.176497   -0.000002
  25 H :    0.062321   -0.000001
  26 H :    0.053907   -0.000002
  27 H :    0.057809   -0.000001
  28 H :    0.060708   -0.000001
  29 H :    0.054213   -0.000002
  30 H :    0.063702   -0.000002
  31 C :   -0.284657    0.000034
  32 C :   -0.284734    0.000045
  33 C :   -0.176500    0.000007
  34 H :    0.061781   -0.000001
  35 H :    0.053690    0.000010
  36 H :    0.060593    0.000004
  37 H :    0.057637    0.000002
  38 H :    0.054375    0.000007
  39 H :    0.063150   -0.000001

  Mayer bond orders larger than 0.100000
B(  0-V ,  1-S ) :   0.7768 B(  0-V ,  2-S ) :   0.7631 B(  0-V ,  3-S ) :   0.7585
B(  0-V ,  4-S ) :   0.7851 B(  0-V ,  5-O ) :   2.1497 B(  1-S ,  8-C ) :   1.1001
B(  2-S ,  6-C ) :   1.1066 B(  3-S ,  9-C ) :   1.1086 B(  4-S ,  7-C ) :   1.1006
B(  6-C ,  7-C ) :   1.6849 B(  6-C , 10-S ) :   0.9258 B(  7-C , 11-S ) :   0.9481
B(  8-C ,  9-C ) :   1.6987 B(  8-C , 13-S ) :   0.9408 B(  9-C , 12-S ) :   0.9282
B( 10-S , 14-C ) :   1.2492 B( 11-S , 14-C ) :   1.2438 B( 12-S , 15-C ) :   1.2462
B( 13-S , 15-C ) :   1.2424 B( 14-C , 16-C ) :   1.4519 B( 15-C , 17-C ) :   1.4562
B( 16-C , 18-S ) :   1.0822 B( 16-C , 19-S ) :   1.0924 B( 17-C , 20-S ) :   1.0879
B( 17-C , 21-S ) :   1.0840 B( 18-S , 32-C ) :   0.9944 B( 19-S , 31-C ) :   0.9890
B( 20-S , 23-C ) :   0.9886 B( 21-S , 22-C ) :   0.9934 B( 22-C , 24-C ) :   0.9158
B( 22-C , 25-H ) :   0.9646 B( 22-C , 26-H ) :   0.9652 B( 23-C , 24-C ) :   0.9109
B( 23-C , 29-H ) :   0.9652 B( 23-C , 30-H ) :   0.9654 B( 24-C , 27-H ) :   0.9625
B( 24-C , 28-H ) :   0.9714 B( 31-C , 33-C ) :   0.9110 B( 31-C , 38-H ) :   0.9651
B( 31-C , 39-H ) :   0.9665 B( 32-C , 33-C ) :   0.9162 B( 32-C , 34-H ) :   0.9647
B( 32-C , 35-H ) :   0.9650 B( 33-C , 36-H ) :   0.9712 B( 33-C , 37-H ) :   0.9623

FINAL SINGLE POINT ENERGY     -6337.705613111395

DIPOLE MOMENT
-------------
                                X             Y             Z
Electronic contribution:     -1.95606     -13.03680       3.44261
Nuclear contribution   :      2.20514      14.48900      -3.82182
                        -----------------------------------------
Total Dipole Moment    :      0.24908       1.45219      -0.37921
                        -----------------------------------------
Magnitude (a.u.)       :      1.52142
Magnitude (Debye)      :      3.86713

Rotational constants in cm-1:     0.010740     0.000804     0.000783
Rotational constants in MHz :   321.963818    24.091457    23.463427

                             ****ORCA TERMINATED NORMALLY****
TOTAL RUN TIME: 0 days 1 hours 6 minutes 8 seconds 60 msec
