                         Program Version 5.0.4 -  RELEASE  -
|  1> ! nofrozencore ReducedPop printbasis
|  2> ! B3LYP TZVP
|  3>
|  4> %basis
|  5> newgto V "CP(PPP)" end
|  6> end
|  7>
|  8> %pal
|  9> nprocs 6
| 10> end
| 11>
| 12> % sym SymThresh 1e-2 end
| 13> * xyz -2 2
| 14> V -0.3418840815957733 -0.5600622031756939 -0.8991174719720456
| 15> S 2.113923563847763 -0.7546882635531562 -1.122929422582423
| 16> S -0.11483231566655372 -2.18179006286075 0.9571006487954868
| 17> S -0.052194999905450935 1.7698608307643284 -1.685604080425196
| 18> S -2.192373123686617 0.4015041985724398 0.4184759959594934
| 19> O -0.9895185328168946 -1.3797477647741447 -2.096171193159006
| 20> C -1.698952502424057 -1.9925819985204785 1.6968474592529441
| 21> C -2.5300637895539797 -0.9551727183846623 1.483539584969478
| 22> C 2.5022654652259195 0.7531414494922369 -1.9398757614526365
| 23> C 1.6383496397512516 1.7608141106001112 -2.1612289590220377
| 24> S -2.248521308019976 -3.22003616950132 2.8884602857656545
| 25> S -4.054974003962306 -0.9403680066304545 2.4293720976169486
| 26> S 2.3012453303817892 3.221343855087918 -2.969355565945635
| 27> S 4.191904825970328 1.0144272184805387 -2.4917739919339623
| 28> C -3.7733225879379937 -2.4379102948423776 3.3242505233919224
| 29> C 3.9741001431248586 2.6641310041404047 -3.0887835390143183
| 30> C -4.648567162316919 -2.94183679714093 4.246460053510975
| 31> C 4.989599371550973 3.425050682271167 -3.59838934336641
| 32> S -4.353505403411118 -4.48530957697292 5.086841630667521
| 33> S -6.170371129017756 -2.1060526466293563 4.649098437493728
| 34> S 6.662853457775788 2.820078565933257 -3.6957557015790488
| 35> S 4.721258473636962 5.092587887779845 -4.168198479695418
| 36> C 5.804884563700101 5.969713133778398 -2.94972541370362
| 37> C 7.459123027286056 4.039612019838685 -2.552535392246054
| 38> C 7.260501965554908 5.498384087894142 -2.9720001457176646
| 39> H 5.368683162213999 5.841618634196092 -1.9565333319503877
| 40> H 5.744626850990136 7.028137462225444 -3.215340587367294
| 41> H 7.836933967119662 6.132315477290116 -2.283723829849872
| 42> H 7.674921956076287 5.6457246136135195 -3.974277147025685
| 43> H 8.522107710302834 3.7857986432420723 -2.5526276925582954
| 44> H 7.067086427224048 3.86777705596888 -1.5476361452900804
| 45> C -7.338870571176884 -3.4223884899311416 4.062766095692778
| 46> C -5.802505328577438 -5.447070963709293 4.4614600251849765
| 47> C -7.224809482153113 -4.674549114431382 4.73223020379707
| 48> H -5.81235998508075 -5.524671572859341 3.358456507508472
| 49> H -5.626128818956748 -6.447326738279968 4.8882200094537
| 50> H -6.96290768852783 -5.04931349185397 5.902808844631132
| 51> H -7.799589476715153 -5.639637924747696 4.441499909691856
| 52> H -8.356968311937324 -3.1362312107816424 4.3643639598301744
| 53> H -7.265851646919758 -3.355471658001365 2.9669461347038317
| 54> *
| 55>
| 56> % eprnmr
| 57> gtensor true
| 58> Nuclei = all H {aiso,adip,aorb,fgrad,rho}
| 59> Nuclei = all V {aiso,adip,aorb,fgrad,rho}
| 60> end
| 61>
| 62>                          ****END OF INPUT****

CARTESIAN COORDINATES (ANGSTROEM)
---------------------------------
  V     -0.342333   -0.559610   -0.895337
  S      2.113474   -0.754236   -1.119149
  S     -0.115281   -2.181338    0.960881
  S     -0.052644    1.770313   -1.681824
  S     -2.192822    0.401957    0.422256
  O     -0.989968   -1.379295   -2.092391
  C     -1.699402   -1.992130    1.700628
  C     -2.530513   -0.954720    1.487320
  C      2.501816    0.753594   -1.936095
  C      1.637901    1.761266   -2.157449
  S     -2.248970   -3.219584    2.892241
  S     -4.055423   -0.939916    2.433152
  S      2.300796    3.221796   -2.965575
  S      4.191456    1.014880   -2.487994
  C     -3.773772   -2.437458    3.328031
  C      3.973651    2.664583   -3.085003
  C     -4.649016   -2.941384    4.250240
  C      4.989150    3.425503   -3.594609
  S     -4.353955   -4.484857    5.090622
  S     -6.170820   -2.105600    4.652879
  S      6.662404    2.820531   -3.691975
  S      4.720809    5.093040   -4.164418
  C      5.804435    5.970165   -2.945945
  C      7.458674    4.040064   -2.548755
  C      7.260053    5.498836   -2.968220
  H      5.368234    5.842071   -1.952753
  H      5.744178    7.028590   -3.211560
  H      7.836485    6.132768   -2.279943
  H      7.674473    5.646177   -3.970497
  H      8.521659    3.786251   -2.548847
  H      7.066637    3.868229   -1.543856
  C     -7.339320   -3.421936    4.066546
  C     -5.802954   -5.446619    4.465240
  C     -7.225259   -4.674097    4.736011
  H     -5.812809   -5.524219    3.362237
  H     -5.626578   -6.446874    4.892000
  H     -6.963357   -5.048861    5.906589
  H     -7.800039   -5.639186    4.445280
  H     -8.357417   -3.135779    4.368144
  H     -7.266301   -3.355019    2.970727

 Total Charge           Charge          ....   -2
 Multiplicity           Mult            ....    2
 Number of Electrons    NEL             ....  321
 Basis Dimension        Dim             ....  681

ORBITAL ENERGIES
----------------
                 SPIN UP ORBITALS
  NO   OCC          E(Eh)            E(eV)
   0   1.0000    -196.675210     -5351.8046
   1   1.0000     -88.737460     -2414.6690
   2   1.0000     -88.733332     -2414.5567
   3   1.0000     -88.733245     -2414.5543
   4   1.0000     -88.733097     -2414.5503
   5   1.0000     -88.731588     -2414.5093
   6   1.0000     -88.731312     -2414.5017
   7   1.0000     -88.730277     -2414.4736
   8   1.0000     -88.730228     -2414.4722
   9   1.0000     -88.640388     -2412.0276
  10   1.0000     -88.640142     -2412.0209
  11   1.0000     -88.640086     -2412.0194
  12   1.0000     -88.639633     -2412.0070
  13   1.0000     -22.050606      -600.0275
  14   1.0000     -18.890542      -514.0378
  15   1.0000     -18.557053      -504.9631
  16   1.0000     -18.551881      -504.8224
  17   1.0000     -18.551780      -504.8196
  18   1.0000     -10.077168      -274.2137
  19   1.0000     -10.076042      -274.1830
  20   1.0000     -10.071604      -274.0623
  21   1.0000     -10.071035      -274.0468
  22   1.0000     -10.066982      -273.9365
  23   1.0000     -10.063386      -273.8387
  24   1.0000     -10.063373      -273.8383
  25   1.0000     -10.051254      -273.5085
  26   1.0000     -10.049772      -273.4682
  27   1.0000     -10.048572      -273.4356
  28   1.0000     -10.019155      -272.6351
  29   1.0000     -10.018243      -272.6103
  30   1.0000     -10.018130      -272.6072
  31   1.0000     -10.017335      -272.5856
  32   1.0000      -7.790822      -211.9990
  33   1.0000      -7.786792      -211.8894
  34   1.0000      -7.786708      -211.8871
  35   1.0000      -7.786571      -211.8834
  36   1.0000      -7.784890      -211.8376
  37   1.0000      -7.784515      -211.8274
  38   1.0000      -7.783547      -211.8011
  39   1.0000      -7.783516      -211.8003
  40   1.0000      -7.694689      -209.3831
  41   1.0000      -7.694387      -209.3749
  42   1.0000      -7.694375      -209.3746
  43   1.0000      -7.693971      -209.3636
  44   1.0000      -5.755893      -156.6258
  45   1.0000      -5.752493      -156.5333
  46   1.0000      -5.751787      -156.5141
  47   1.0000      -5.751703      -156.5118
  48   1.0000      -5.751510      -156.5066
  49   1.0000      -5.749834      -156.4609
  50   1.0000      -5.749458      -156.4507
  51   1.0000      -5.748496      -156.4245
  52   1.0000      -5.748467      -156.4237
  53   1.0000      -5.748358      -156.4208
  54   1.0000      -5.748275      -156.4185
  55   1.0000      -5.748059      -156.4126
  56   1.0000      -5.745407      -156.3405
  57   1.0000      -5.745386      -156.3399
  58   1.0000      -5.745024      -156.3301
  59   1.0000      -5.744068      -156.3040
  60   1.0000      -5.744030      -156.3030
  61   1.0000      -5.741587      -156.2365
  62   1.0000      -5.741508      -156.2344
  63   1.0000      -5.741501      -156.2342
  64   1.0000      -5.740730      -156.2132
  65   1.0000      -5.740354      -156.2030
  66   1.0000      -5.739353      -156.1757
  67   1.0000      -5.739335      -156.1752
  68   1.0000      -5.660012      -154.0168
  69   1.0000      -5.659735      -154.0092
  70   1.0000      -5.659688      -154.0079
  71   1.0000      -5.659275      -153.9967
  72   1.0000      -5.653323      -153.8348
  73   1.0000      -5.653043      -153.8271
  74   1.0000      -5.653042      -153.8271
  75   1.0000      -5.652642      -153.8162
  76   1.0000      -5.652013      -153.7991
  77   1.0000      -5.651692      -153.7904
  78   1.0000      -5.651678      -153.7900
  79   1.0000      -5.651283      -153.7792
  80   1.0000      -2.444263       -66.5118
  81   1.0000      -1.485564       -40.4243
  82   1.0000      -1.473910       -40.1071
  83   1.0000      -1.473082       -40.0846
  84   1.0000      -0.712212       -19.3803
  85   1.0000      -0.709675       -19.3112
  86   1.0000      -0.688872       -18.7452
  87   1.0000      -0.685649       -18.6575
  88   1.0000      -0.650129       -17.6909
  89   1.0000      -0.634623       -17.2690
  90   1.0000      -0.631401       -17.1813
  91   1.0000      -0.619357       -16.8536
  92   1.0000      -0.617290       -16.7973
  93   1.0000      -0.575776       -15.6677
  94   1.0000      -0.574686       -15.6380
  95   1.0000      -0.573900       -15.6166
  96   1.0000      -0.572898       -15.5893
  97   1.0000      -0.501189       -13.6380
  98   1.0000      -0.496539       -13.5115
  99   1.0000      -0.496028       -13.4976
 100   1.0000      -0.494053       -13.4439
 101   1.0000      -0.481070       -13.0906
 102   1.0000      -0.477964       -13.0061
 103   1.0000      -0.446528       -12.1506
 104   1.0000      -0.439193       -11.9511
 105   1.0000      -0.415960       -11.3188
 106   1.0000      -0.410934       -11.1821
 107   1.0000      -0.355305        -9.6684
 108   1.0000      -0.352391        -9.5891
 109   1.0000      -0.328944        -8.9510
 110   1.0000      -0.326585        -8.8868
 111   1.0000      -0.321636        -8.7522
 112   1.0000      -0.318430        -8.6649
 113   1.0000      -0.314787        -8.5658
 114   1.0000      -0.304016        -8.2727
 115   1.0000      -0.294844        -8.0231
 116   1.0000      -0.292332        -7.9548
 117   1.0000      -0.268997        -7.3198
 118   1.0000      -0.257478        -7.0063
 119   1.0000      -0.256907        -6.9908
 120   1.0000      -0.254116        -6.9149
 121   1.0000      -0.235804        -6.4166
 122   1.0000      -0.234531        -6.3819
 123   1.0000      -0.230587        -6.2746
 124   1.0000      -0.220862        -6.0100
 125   1.0000      -0.219984        -5.9861
 126   1.0000      -0.217217        -5.9108
 127   1.0000      -0.212145        -5.7728
 128   1.0000      -0.193164        -5.2563
 129   1.0000      -0.187611        -5.1052
 130   1.0000      -0.187344        -5.0979
 131   1.0000      -0.183731        -4.9996
 132   1.0000      -0.180176        -4.9028
 133   1.0000      -0.165072        -4.4918
 134   1.0000      -0.159554        -4.3417
 135   1.0000      -0.151482        -4.1220
 136   1.0000      -0.147094        -4.0026
 137   1.0000      -0.135112        -3.6766
 138   1.0000      -0.133995        -3.6462
 139   1.0000      -0.133540        -3.6338
 140   1.0000      -0.125304        -3.4097
 141   1.0000      -0.121516        -3.3066
 142   1.0000      -0.113837        -3.0977
 143   1.0000      -0.109834        -2.9887
 144   1.0000      -0.100357        -2.7308
 145   1.0000      -0.098509        -2.6806
 146   1.0000      -0.097526        -2.6538
 147   1.0000      -0.094997        -2.5850
 148   1.0000      -0.074892        -2.0379
 149   1.0000      -0.068018        -1.8509
 150   1.0000      -0.067383        -1.8336
 151   1.0000      -0.052738        -1.4351
 152   1.0000      -0.045976        -1.2511
 153   1.0000      -0.038075        -1.0361
 154   1.0000      -0.037446        -1.0190
 155   1.0000      -0.031859        -0.8669
 156   1.0000      -0.025315        -0.6889
 157   1.0000      -0.019461        -0.5296
 158   1.0000      -0.015862        -0.4316
 159   1.0000       0.019939         0.5426
 160   1.0000       0.040830         1.1110
 161   0.0000       0.132459         3.6044
 162   0.0000       0.137211         3.7337
 163   0.0000       0.151937         4.1344
 164   0.0000       0.162182         4.4132
 165   0.0000       0.167368         4.5543

                 SPIN DOWN ORBITALS
  NO   OCC          E(Eh)            E(eV)
   0   1.0000    -196.675357     -5351.8086
   1   1.0000     -88.737461     -2414.6691
   2   1.0000     -88.733333     -2414.5567
   3   1.0000     -88.733245     -2414.5544
   4   1.0000     -88.733098     -2414.5503
   5   1.0000     -88.731596     -2414.5095
   6   1.0000     -88.731320     -2414.5020
   7   1.0000     -88.730285     -2414.4738
   8   1.0000     -88.730236     -2414.4725
   9   1.0000     -88.640528     -2412.0314
  10   1.0000     -88.640283     -2412.0247
  11   1.0000     -88.640223     -2412.0231
  12   1.0000     -88.639772     -2412.0108
  13   1.0000     -22.035677      -599.6212
  14   1.0000     -18.894321      -514.1406
  15   1.0000     -18.551788      -504.8198
  16   1.0000     -18.535850      -504.3861
  17   1.0000     -18.535665      -504.3811
  18   1.0000     -10.077162      -274.2135
  19   1.0000     -10.076042      -274.1830
  20   1.0000     -10.071604      -274.0623
  21   1.0000     -10.071034      -274.0468
  22   1.0000     -10.066981      -273.9365
  23   1.0000     -10.063387      -273.8387
  24   1.0000     -10.063373      -273.8383
  25   1.0000     -10.051254      -273.5085
  26   1.0000     -10.049760      -273.4679
  27   1.0000     -10.048568      -273.4354
  28   1.0000     -10.018918      -272.6286
  29   1.0000     -10.018020      -272.6042
  30   1.0000     -10.017916      -272.6013
  31   1.0000     -10.017124      -272.5798
  32   1.0000      -7.790822      -211.9991
  33   1.0000      -7.786792      -211.8894
  34   1.0000      -7.786708      -211.8871
  35   1.0000      -7.786572      -211.8834
  36   1.0000      -7.784899      -211.8379
  37   1.0000      -7.784524      -211.8277
  38   1.0000      -7.783556      -211.8013
  39   1.0000      -7.783526      -211.8005
  40   1.0000      -7.694819      -209.3867
  41   1.0000      -7.694519      -209.3785
  42   1.0000      -7.694502      -209.3781
  43   1.0000      -7.694100      -209.3671
  44   1.0000      -5.755894      -156.6258
  45   1.0000      -5.752495      -156.5333
  46   1.0000      -5.751787      -156.5141
  47   1.0000      -5.751704      -156.5118
  48   1.0000      -5.751512      -156.5066
  49   1.0000      -5.749845      -156.4612
  50   1.0000      -5.749469      -156.4510
  51   1.0000      -5.748506      -156.4248
  52   1.0000      -5.748478      -156.4240
  53   1.0000      -5.748359      -156.4208
  54   1.0000      -5.748276      -156.4185
  55   1.0000      -5.748060      -156.4127
  56   1.0000      -5.745408      -156.3405
  57   1.0000      -5.745400      -156.3403
  58   1.0000      -5.745038      -156.3304
  59   1.0000      -5.744082      -156.3044
  60   1.0000      -5.744044      -156.3034
  61   1.0000      -5.741588      -156.2365
  62   1.0000      -5.741509      -156.2344
  63   1.0000      -5.741502      -156.2342
  64   1.0000      -5.740739      -156.2135
  65   1.0000      -5.740362      -156.2032
  66   1.0000      -5.739359      -156.1759
  67   1.0000      -5.739341      -156.1754
  68   1.0000      -5.660150      -154.0205
  69   1.0000      -5.659876      -154.0131
  70   1.0000      -5.659830      -154.0118
  71   1.0000      -5.659417      -154.0006
  72   1.0000      -5.653709      -153.8452
  73   1.0000      -5.653425      -153.8375
  74   1.0000      -5.653393      -153.8366
  75   1.0000      -5.653003      -153.8260
  76   1.0000      -5.652099      -153.8014
  77   1.0000      -5.651798      -153.7932
  78   1.0000      -5.651771      -153.7925
  79   1.0000      -5.651390      -153.7821
  80   1.0000      -2.399386       -65.2906
  81   1.0000      -1.466281       -39.8995
  82   1.0000      -1.411530       -38.4097
  83   1.0000      -1.411376       -38.4055
  84   1.0000      -0.712190       -19.3797
  85   1.0000      -0.709660       -19.3108
  86   1.0000      -0.688814       -18.7436
  87   1.0000      -0.685607       -18.6563
  88   1.0000      -0.658234       -17.9115
  89   1.0000      -0.634556       -17.2672
  90   1.0000      -0.631343       -17.1797
  91   1.0000      -0.619348       -16.8533
  92   1.0000      -0.617292       -16.7974
  93   1.0000      -0.575744       -15.6668
  94   1.0000      -0.574664       -15.6374
  95   1.0000      -0.573821       -15.6145
  96   1.0000      -0.572829       -15.5875
  97   1.0000      -0.501213       -13.6387
  98   1.0000      -0.496559       -13.5120
  99   1.0000      -0.496075       -13.4989
 100   1.0000      -0.494081       -13.4446
 101   1.0000      -0.481278       -13.0962
 102   1.0000      -0.478215       -13.0129
 103   1.0000      -0.446559       -12.1515
 104   1.0000      -0.439231       -11.9521
 105   1.0000      -0.415960       -11.3188
 106   1.0000      -0.411035       -11.1848
 107   1.0000      -0.355301        -9.6682
 108   1.0000      -0.352382        -9.5888
 109   1.0000      -0.328932        -8.9507
 110   1.0000      -0.326575        -8.8866
 111   1.0000      -0.321594        -8.7510
 112   1.0000      -0.318379        -8.6635
 113   1.0000      -0.314812        -8.5665
 114   1.0000      -0.303979        -8.2717
 115   1.0000      -0.294812        -8.0223
 116   1.0000      -0.292328        -7.9546
 117   1.0000      -0.268940        -7.3182
 118   1.0000      -0.257347        -7.0028
 119   1.0000      -0.256847        -6.9891
 120   1.0000      -0.254068        -6.9135
 121   1.0000      -0.235747        -6.4150
 122   1.0000      -0.234496        -6.3810
 123   1.0000      -0.230550        -6.2736
 124   1.0000      -0.220746        -6.0068
 125   1.0000      -0.219715        -5.9787
 126   1.0000      -0.216922        -5.9027
 127   1.0000      -0.211995        -5.7687
 128   1.0000      -0.191293        -5.2053
 129   1.0000      -0.187457        -5.1010
 130   1.0000      -0.187173        -5.0932
 131   1.0000      -0.183561        -4.9949
 132   1.0000      -0.180065        -4.8998
 133   1.0000      -0.164976        -4.4892
 134   1.0000      -0.158983        -4.3262
 135   1.0000      -0.151326        -4.1178
 136   1.0000      -0.147021        -4.0006
 137   1.0000      -0.134285        -3.6541
 138   1.0000      -0.133784        -3.6404
 139   1.0000      -0.133325        -3.6280
 140   1.0000      -0.124768        -3.3951
 141   1.0000      -0.121192        -3.2978
 142   1.0000      -0.115618        -3.1461
 143   1.0000      -0.111418        -3.0318
 144   1.0000      -0.100370        -2.7312
 145   1.0000      -0.098815        -2.6889
 146   1.0000      -0.097506        -2.6533
 147   1.0000      -0.095308        -2.5935
 148   1.0000      -0.071066        -1.9338
 149   1.0000      -0.068007        -1.8506
 150   1.0000      -0.067380        -1.8335
 151   1.0000      -0.050152        -1.3647
 152   1.0000      -0.045040        -1.2256
 153   1.0000      -0.038131        -1.0376
 154   1.0000      -0.036868        -1.0032
 155   1.0000      -0.031896        -0.8679
 156   1.0000      -0.026354        -0.7171
 157   1.0000      -0.016069        -0.4373
 158   1.0000       0.020222         0.5503
 159   1.0000       0.039734         1.0812
 160   0.0000       0.132465         3.6046
 161   0.0000       0.137200         3.7334
 162   0.0000       0.151806         4.1308
 163   0.0000       0.155886         4.2419
 164   0.0000       0.162841         4.4311

MULLIKEN ATOMIC CHARGES AND SPIN POPULATIONS
--------------------------------------------
   0 V :    0.471553    1.210463
   1 S :   -0.291064   -0.022503
   2 S :   -0.288253   -0.025076
   3 S :   -0.289306   -0.023491
   4 S :   -0.284716   -0.025522
   5 O :   -0.467590   -0.146598
   6 C :   -0.077833    0.009643
   7 C :   -0.085776    0.008031
   8 C :   -0.083910    0.007743
   9 C :   -0.084552    0.007415
  10 S :    0.104410   -0.000595
  11 S :    0.098217   -0.000620
  12 S :    0.100111   -0.000395
  13 S :    0.099317   -0.000344
  14 C :   -0.214126    0.001491
  15 C :   -0.212301    0.000999
  16 C :   -0.187160   -0.000039
  17 C :   -0.190404   -0.000406
  18 S :    0.009160   -0.000116
  19 S :    0.018493   -0.000109
  20 S :    0.008292   -0.000068
  21 S :    0.008332   -0.000071
  22 C :   -0.300813   -0.000001
  23 C :   -0.300077   -0.000001
  24 C :   -0.157787   -0.000012
  25 H :    0.143347   -0.000001
  26 H :    0.113815   -0.000004
  27 H :    0.083467   -0.000001
  28 H :    0.092082   -0.000001
  29 H :    0.113410   -0.000005
  30 H :    0.142779   -0.000001
  31 C :   -0.283092    0.000172
  32 C :   -0.356456    0.000183
  33 C :   -0.142620   -0.000212
  34 H :    0.134648   -0.000020
  35 H :    0.123916    0.000027
  36 H :    0.072459    0.000031
  37 H :    0.080759    0.000012
  38 H :    0.113704    0.000020
  39 H :    0.165565   -0.000016
Sum of atomic charges         :   -2.0000000

LOEWDIN ATOMIC CHARGES AND SPIN POPULATIONS
-------------------------------------------
   0 V :   -0.155544    1.163867
   1 S :    0.080019   -0.014516
   2 S :    0.080137   -0.015988
   3 S :    0.081259   -0.015333
   4 S :    0.083314   -0.016197
   5 O :   -0.318859   -0.131521
   6 C :   -0.549511    0.009030
   7 C :   -0.552144    0.007950
   8 C :   -0.552350    0.008136
   9 C :   -0.552368    0.007664
  10 S :    0.474503   -0.000911
  11 S :    0.471528   -0.000948
  12 S :    0.471359   -0.000823
  13 S :    0.470638   -0.000829
  14 C :   -0.464603    0.000177
  15 C :   -0.465204   -0.000080
  16 C :   -0.622938    0.000472
  17 C :   -0.622042    0.000085
  18 S :    0.357042   -0.000090
  19 S :    0.370946   -0.000085
  20 S :    0.359031   -0.000073
  21 S :    0.358643   -0.000075
  22 C :   -0.283233   -0.000007
  23 C :   -0.283384   -0.000009
  24 C :   -0.176077   -0.000002
  25 H :    0.062592   -0.000001
  26 H :    0.053650   -0.000002
  27 H :    0.058040   -0.000002
  28 H :    0.060187   -0.000001
  29 H :    0.053555   -0.000002
  30 H :    0.062349   -0.000002
  31 C :   -0.291041    0.000044
  32 C :   -0.316706    0.000039
  33 C :   -0.212714    0.000008
  34 H :    0.052728   -0.000001
  35 H :    0.052557    0.000008
  36 H :    0.095355    0.000007
  37 H :    0.067936    0.000001
  38 H :    0.064365    0.000010
  39 H :    0.076986   -0.000001

  Mayer bond orders larger than 0.100000
B(  0-V ,  1-S ) :   0.7724 B(  0-V ,  2-S ) :   0.7701 B(  0-V ,  3-S ) :   0.7657
B(  0-V ,  4-S ) :   0.7771 B(  0-V ,  5-O ) :   2.1489 B(  1-S ,  8-C ) :   1.1033
B(  2-S ,  6-C ) :   1.1058 B(  3-S ,  9-C ) :   1.1060 B(  4-S ,  7-C ) :   1.1051
B(  6-C ,  7-C ) :   1.6832 B(  6-C , 10-S ) :   0.9351 B(  7-C , 11-S ) :   0.9397
B(  8-C ,  9-C ) :   1.6986 B(  8-C , 13-S ) :   0.9337 B(  9-C , 12-S ) :   0.9355
B( 10-S , 14-C ) :   1.2528 B( 11-S , 14-C ) :   1.2453 B( 12-S , 15-C ) :   1.2465
B( 13-S , 15-C ) :   1.2466 B( 14-C , 16-C ) :   1.4688 B( 15-C , 17-C ) :   1.4537
B( 16-C , 18-S ) :   1.0761 B( 16-C , 19-S ) :   1.0829 B( 17-C , 20-S ) :   1.0883
B( 17-C , 21-S ) :   1.0888 B( 18-S , 32-C ) :   0.9947 B( 19-S , 31-C ) :   0.9561
B( 20-S , 23-C ) :   0.9916 B( 21-S , 22-C ) :   0.9905 B( 22-C , 24-C ) :   0.9133
B( 22-C , 25-H ) :   0.9657 B( 22-C , 26-H ) :   0.9656 B( 23-C , 24-C ) :   0.9136
B( 23-C , 29-H ) :   0.9657 B( 23-C , 30-H ) :   0.9655 B( 24-C , 27-H ) :   0.9625
B( 24-C , 28-H ) :   0.9719 B( 31-C , 33-C ) :   0.9858 B( 31-C , 38-H ) :   0.9665
B( 31-C , 39-H ) :   0.9531 B( 32-C , 33-C ) :   0.8371 B( 32-C , 34-H ) :   0.9546
B( 32-C , 35-H ) :   0.9592 B( 33-C , 36-H ) :   0.9415 B( 33-C , 37-H ) :   0.9653

FINAL SINGLE POINT ENERGY     -6337.629040801889

DIPOLE MOMENT
-------------
                                X             Y             Z
Electronic contribution:     -1.57192      -4.78753     -12.62055
Nuclear contribution   :      1.90637       5.50769      13.89105
                        -----------------------------------------
Total Dipole Moment    :      0.33445       0.72016       1.27050
                        -----------------------------------------
Magnitude (a.u.)       :      1.49822
Magnitude (Debye)      :      3.80817

Rotational constants in cm-1:     0.010758     0.000804     0.000783
Rotational constants in MHz :   322.519697    24.116009    23.486266

                             ****ORCA TERMINATED NORMALLY****
TOTAL RUN TIME: 0 days 1 hours 6 minutes 27 seconds 15 msec
