                         Program Version 5.0.4 -  RELEASE  -
|  1> ! nofrozencore ReducedPop printbasis
|  2> ! B3LYP TZVP
|  3>
|  4> %basis
|  5> newgto V "CP(PPP)" end
|  6> end
|  7>
|  8> %pal
|  9> nprocs 6
| 10> end
| 11>
| 12> % sym SymThresh 1e-2 end
| 13> * xyz -2 2
| 14> V -0.6805003089252302 -0.8570060509207879 0.2596816802352872
| 15> S -2.199378635860045 0.9314576905025977 0.6692787804039304
| 16> S -0.9008633742593147 -0.2750367779504873 -2.224712530182211
| 17> S 0.41389508952983256 -0.4001239325136367 2.3550586312178967
| 18> S 1.6808016213652373 -1.4946862807490138 -0.5639167012260489
| 19> O -1.4251883456485084 -2.2643093524286426 0.3280080787158273
| 20> C 0.4240062581286922 -1.1046938748591133 -2.931995475124486
| 21> C 1.470998498427949 -1.5916883087576883 -2.2517966843045154
| 22> C -1.7889902884817521 1.2855552519963847 2.3670106700977263
| 23> C -0.7450641238142648 0.7555858682327824 3.0342309668864687
| 24> S 0.40114203834893547 -1.3234308385009161 -4.6703101445671695
| 25> S 2.755092147433958 -2.4057553035795323 -3.1184508828440274
| 26> S -0.5271342415180773 1.323305871936841 4.74115960896136
| 27> S -2.7857892560192807 2.4682783805845707 3.311843238448697
| 28> C 2.052940725632412 -1.9575369878912892 -4.6883700170721765
| 29> C -1.818614502156207 2.5389601081090762 4.796032368437882
| 30> C 2.616125499173311 -2.3584716597145325 -5.852904145778877
| 31> C -2.1105170082803215 3.329882179689457 5.881388636944432
| 32> S 1.8658970450376695 -2.3446889535501603 -7.401436069095614
| 33> S 4.04769657161041 -3.285596914421848 -5.970856147144643
| 34> S -3.5457635955604485 4.452084051932098 5.849503723931211
| 35> S -1.0901326790423904 3.2258085377688053 7.3845201284683855
| 36> C -0.48504500858907224 4.961193073268907 7.281368899142347
| 37> C -2.5433777229608796 5.989236357677605 5.998553542301012
| 38> C -1.6378960516365484 5.9737820097639895 7.238059941164794
| 39> H 0.15962315339193062 5.044657153162336 6.403712024733801
| 40> H 0.12267101080018067 5.142022710795249 8.174495648533929
| 41> H -1.198932370277711 6.977758725100131 7.337770357490022
| 42> H -2.2678509531185194 5.811696334508506 8.119853308558094
| 43> H -3.2483120642144585 6.82403536437481 6.07581925457199
| 44> H -1.9667891157629749 6.109536660506807 5.078896507578947
| 45> C 3.6181151936847793 -4.955150556031372 -6.7315603198615355
| 46> C 1.6925788353748692 -4.132109910607869 -7.976053864705169
| 47> C 2.961083004161565 -4.975916648553166 -8.112885358210477
| 48> H 1.009634521137504 -4.642132369828444 -7.290127955785371
| 49> H 1.170113894425094 -3.9933452095173756 -8.936218551109857
| 50> H 3.630861296212707 -4.60991466146731 -8.908887709068978
| 51> H 2.6736185366576084 -6.019623283321656 -8.358022436792846
| 52> H 4.604776466383928 -5.447691010219141 -6.723515887053463
| 53> H 2.9674164952362574 -5.488527564293882 -6.0315564334078
| 54> *
| 55>
| 56> % eprnmr
| 57> gtensor true
| 58> Nuclei = all H {aiso,adip,aorb,fgrad,rho}
| 59> Nuclei = all V {aiso,adip,aorb,fgrad,rho}
| 60> end
| 61>
| 62>                          ****END OF INPUT****

CARTESIAN COORDINATES (ANGSTROEM)
---------------------------------
  V     -0.678080   -0.855361    0.257205
  S     -2.196958    0.933103    0.666803
  S     -0.898443   -0.273392   -2.227189
  S      0.416316   -0.398479    2.352582
  S      1.683222   -1.493041   -0.566393
  O     -1.422768   -2.262664    0.325532
  C      0.426427   -1.103049   -2.934472
  C      1.473419   -1.590043   -2.254273
  C     -1.786570    1.287200    2.364534
  C     -0.742644    0.757231    3.031755
  S      0.403563   -1.321786   -4.672786
  S      2.757513   -2.404110   -3.120927
  S     -0.524714    1.324951    4.738683
  S     -2.783369    2.469924    3.309367
  C      2.055361   -1.955892   -4.690846
  C     -1.816194    2.540605    4.793556
  C      2.618546   -2.356827   -5.855380
  C     -2.108096    3.331527    5.878912
  S      1.868318   -2.343044   -7.403912
  S      4.050117   -3.283952   -5.973332
  S     -3.543343    4.453729    5.847027
  S     -1.087712    3.227454    7.382044
  C     -0.482624    4.962838    7.278893
  C     -2.540957    5.990881    5.996077
  C     -1.635476    5.975427    7.235584
  H      0.162044    5.046302    6.401236
  H      0.125092    5.143668    8.172019
  H     -1.196512    6.979404    7.335294
  H     -2.265430    5.813341    8.117377
  H     -3.245892    6.825680    6.073343
  H     -1.964369    6.111182    5.076420
  C      3.620536   -4.953505   -6.734037
  C      1.694999   -4.130465   -7.978530
  C      2.963504   -4.974272   -8.115362
  H      1.012055   -4.640487   -7.292604
  H      1.172534   -3.991700   -8.938695
  H      3.633282   -4.608270   -8.911364
  H      2.676039   -6.017978   -8.360499
  H      4.607197   -5.446046   -6.725992
  H      2.969837   -5.486882   -6.034033

 Total Charge           Charge          ....   -2
 Multiplicity           Mult            ....    2
 Number of Electrons    NEL             ....  321
 Basis Dimension        Dim             ....  681

ORBITAL ENERGIES
----------------
                 SPIN UP ORBITALS
  NO   OCC          E(Eh)            E(eV)
   0   1.0000    -196.675970     -5351.8252
   1   1.0000     -88.739681     -2414.7295
   2   1.0000     -88.739260     -2414.7180
   3   1.0000     -88.733204     -2414.5532
   4   1.0000     -88.732788     -2414.5419
   5   1.0000     -88.728932     -2414.4370
   6   1.0000     -88.727917     -2414.4094
   7   1.0000     -88.723938     -2414.3011
   8   1.0000     -88.722464     -2414.2610
   9   1.0000     -88.647711     -2412.2268
  10   1.0000     -88.646044     -2412.1815
  11   1.0000     -88.630015     -2411.7453
  12   1.0000     -88.628904     -2411.7151
  13   1.0000     -22.051340      -600.0475
  14   1.0000     -18.890350      -514.0325
  15   1.0000     -18.557730      -504.9815
  16   1.0000     -18.552638      -504.8429
  17   1.0000     -18.552550      -504.8406
  18   1.0000     -10.081315      -274.3265
  19   1.0000     -10.068782      -273.9855
  20   1.0000     -10.066735      -273.9298
  21   1.0000     -10.066527      -273.9241
  22   1.0000     -10.063134      -273.8318
  23   1.0000     -10.062616      -273.8177
  24   1.0000     -10.057196      -273.6702
  25   1.0000     -10.054026      -273.5840
  26   1.0000     -10.053022      -273.5566
  27   1.0000     -10.035941      -273.0918
  28   1.0000     -10.025848      -272.8172
  29   1.0000     -10.025064      -272.7959
  30   1.0000     -10.004543      -272.2375
  31   1.0000     -10.003543      -272.2102
  32   1.0000      -7.792476      -212.0441
  33   1.0000      -7.792128      -212.0346
  34   1.0000      -7.786157      -211.8721
  35   1.0000      -7.785766      -211.8615
  36   1.0000      -7.782570      -211.7745
  37   1.0000      -7.781778      -211.7529
  38   1.0000      -7.778461      -211.6627
  39   1.0000      -7.777317      -211.6315
  40   1.0000      -7.701963      -209.5811
  41   1.0000      -7.700343      -209.5370
  42   1.0000      -7.685171      -209.1241
  43   1.0000      -7.684388      -209.1028
  44   1.0000      -5.757432      -156.6677
  45   1.0000      -5.757078      -156.6581
  46   1.0000      -5.754271      -156.5817
  47   1.0000      -5.753912      -156.5719
  48   1.0000      -5.751135      -156.4963
  49   1.0000      -5.750729      -156.4853
  50   1.0000      -5.747565      -156.3992
  51   1.0000      -5.747226      -156.3900
  52   1.0000      -5.746882      -156.3806
  53   1.0000      -5.746707      -156.3759
  54   1.0000      -5.746675      -156.3750
  55   1.0000      -5.746313      -156.3651
  56   1.0000      -5.743545      -156.2898
  57   1.0000      -5.743100      -156.2777
  58   1.0000      -5.742375      -156.2580
  59   1.0000      -5.742313      -156.2563
  60   1.0000      -5.741952      -156.2465
  61   1.0000      -5.741582      -156.2364
  62   1.0000      -5.739630      -156.1833
  63   1.0000      -5.738419      -156.1503
  64   1.0000      -5.738263      -156.1461
  65   1.0000      -5.737532      -156.1262
  66   1.0000      -5.733264      -156.0100
  67   1.0000      -5.732145      -155.9796
  68   1.0000      -5.667460      -154.2194
  69   1.0000      -5.665786      -154.1739
  70   1.0000      -5.660407      -154.0275
  71   1.0000      -5.659267      -153.9965
  72   1.0000      -5.658848      -153.9851
  73   1.0000      -5.657656      -153.9527
  74   1.0000      -5.650068      -153.7462
  75   1.0000      -5.649169      -153.7217
  76   1.0000      -5.643987      -153.5807
  77   1.0000      -5.643209      -153.5595
  78   1.0000      -5.642611      -153.5432
  79   1.0000      -5.641867      -153.5230
  80   1.0000      -2.444949       -66.5304
  81   1.0000      -1.485742       -40.4291
  82   1.0000      -1.474873       -40.1333
  83   1.0000      -1.473731       -40.1023
  84   1.0000      -0.714792       -19.4505
  85   1.0000      -0.708719       -19.2852
  86   1.0000      -0.687213       -18.7000
  87   1.0000      -0.686200       -18.6724
  88   1.0000      -0.649570       -17.6757
  89   1.0000      -0.643011       -17.4972
  90   1.0000      -0.628277       -17.0963
  91   1.0000      -0.623608       -16.9692
  92   1.0000      -0.602581       -16.3971
  93   1.0000      -0.584598       -15.9077
  94   1.0000      -0.575788       -15.6680
  95   1.0000      -0.573678       -15.6106
  96   1.0000      -0.571921       -15.5628
  97   1.0000      -0.499343       -13.5878
  98   1.0000      -0.497227       -13.5302
  99   1.0000      -0.495229       -13.4759
 100   1.0000      -0.494375       -13.4526
 101   1.0000      -0.482410       -13.1270
 102   1.0000      -0.475598       -12.9417
 103   1.0000      -0.448593       -12.2068
 104   1.0000      -0.446552       -12.1513
 105   1.0000      -0.420306       -11.4371
 106   1.0000      -0.406983       -11.0746
 107   1.0000      -0.358332        -9.7507
 108   1.0000      -0.354834        -9.6555
 109   1.0000      -0.327099        -8.9008
 110   1.0000      -0.325135        -8.8474
 111   1.0000      -0.320307        -8.7160
 112   1.0000      -0.312027        -8.4907
 113   1.0000      -0.306591        -8.3428
 114   1.0000      -0.300060        -8.1651
 115   1.0000      -0.297655        -8.0996
 116   1.0000      -0.280374        -7.6294
 117   1.0000      -0.259357        -7.0575
 118   1.0000      -0.259063        -7.0495
 119   1.0000      -0.257224        -6.9994
 120   1.0000      -0.256138        -6.9699
 121   1.0000      -0.240378        -6.5410
 122   1.0000      -0.235634        -6.4119
 123   1.0000      -0.232011        -6.3133
 124   1.0000      -0.222005        -6.0411
 125   1.0000      -0.220879        -6.0104
 126   1.0000      -0.216567        -5.8931
 127   1.0000      -0.215217        -5.8564
 128   1.0000      -0.212503        -5.7825
 129   1.0000      -0.193337        -5.2610
 130   1.0000      -0.189304        -5.1512
 131   1.0000      -0.187808        -5.1105
 132   1.0000      -0.184886        -5.0310
 133   1.0000      -0.176510        -4.8031
 134   1.0000      -0.158352        -4.3090
 135   1.0000      -0.154562        -4.2058
 136   1.0000      -0.139999        -3.8096
 137   1.0000      -0.136998        -3.7279
 138   1.0000      -0.134955        -3.6723
 139   1.0000      -0.133676        -3.6375
 140   1.0000      -0.125152        -3.4056
 141   1.0000      -0.122191        -3.3250
 142   1.0000      -0.113221        -3.0809
 143   1.0000      -0.110233        -2.9996
 144   1.0000      -0.101018        -2.7488
 145   1.0000      -0.098879        -2.6906
 146   1.0000      -0.098593        -2.6829
 147   1.0000      -0.092401        -2.5143
 148   1.0000      -0.074663        -2.0317
 149   1.0000      -0.074175        -2.0184
 150   1.0000      -0.056158        -1.5281
 151   1.0000      -0.052503        -1.4287
 152   1.0000      -0.044886        -1.2214
 153   1.0000      -0.041289        -1.1235
 154   1.0000      -0.033369        -0.9080
 155   1.0000      -0.026345        -0.7169
 156   1.0000      -0.023610        -0.6425
 157   1.0000      -0.017549        -0.4775
 158   1.0000      -0.013296        -0.3618
 159   1.0000       0.018219         0.4958
 160   1.0000       0.046145         1.2557
 161   0.0000       0.129048         3.5116
 162   0.0000       0.132439         3.6038
 163   0.0000       0.157618         4.2890
 164   0.0000       0.159476         4.3396
 165   0.0000       0.163115         4.4386

                 SPIN DOWN ORBITALS
  NO   OCC          E(Eh)            E(eV)
   0   1.0000    -196.676109     -5351.8290
   1   1.0000     -88.739681     -2414.7295
   2   1.0000     -88.739260     -2414.7180
   3   1.0000     -88.733208     -2414.5533
   4   1.0000     -88.732790     -2414.5420
   5   1.0000     -88.728943     -2414.4373
   6   1.0000     -88.727929     -2414.4097
   7   1.0000     -88.723939     -2414.3011
   8   1.0000     -88.722465     -2414.2610
   9   1.0000     -88.647853     -2412.2307
  10   1.0000     -88.646187     -2412.1854
  11   1.0000     -88.630163     -2411.7494
  12   1.0000     -88.629055     -2411.7192
  13   1.0000     -22.036374      -599.6402
  14   1.0000     -18.894194      -514.1371
  15   1.0000     -18.552399      -504.8364
  16   1.0000     -18.536680      -504.4087
  17   1.0000     -18.536328      -504.3991
  18   1.0000     -10.081293      -274.3259
  19   1.0000     -10.068793      -273.9858
  20   1.0000     -10.066736      -273.9298
  21   1.0000     -10.066528      -273.9241
  22   1.0000     -10.063133      -273.8318
  23   1.0000     -10.062615      -273.8177
  24   1.0000     -10.057185      -273.6699
  25   1.0000     -10.054026      -273.5840
  26   1.0000     -10.053022      -273.5566
  27   1.0000     -10.035938      -273.0917
  28   1.0000     -10.025519      -272.8083
  29   1.0000     -10.024734      -272.7869
  30   1.0000     -10.004411      -272.2339
  31   1.0000     -10.003429      -272.2072
  32   1.0000      -7.792477      -212.0441
  33   1.0000      -7.792128      -212.0346
  34   1.0000      -7.786161      -211.8722
  35   1.0000      -7.785768      -211.8615
  36   1.0000      -7.782583      -211.7749
  37   1.0000      -7.781791      -211.7533
  38   1.0000      -7.778462      -211.6627
  39   1.0000      -7.777317      -211.6316
  40   1.0000      -7.702091      -209.5846
  41   1.0000      -7.700472      -209.5405
  42   1.0000      -7.685313      -209.1280
  43   1.0000      -7.684533      -209.1068
  44   1.0000      -5.757432      -156.6677
  45   1.0000      -5.757078      -156.6581
  46   1.0000      -5.754272      -156.5817
  47   1.0000      -5.753912      -156.5719
  48   1.0000      -5.751140      -156.4965
  49   1.0000      -5.750732      -156.4854
  50   1.0000      -5.747578      -156.3995
  51   1.0000      -5.747226      -156.3900
  52   1.0000      -5.746883      -156.3806
  53   1.0000      -5.746714      -156.3760
  54   1.0000      -5.746689      -156.3754
  55   1.0000      -5.746316      -156.3652
  56   1.0000      -5.743546      -156.2898
  57   1.0000      -5.743119      -156.2782
  58   1.0000      -5.742376      -156.2580
  59   1.0000      -5.742332      -156.2568
  60   1.0000      -5.741955      -156.2465
  61   1.0000      -5.741583      -156.2364
  62   1.0000      -5.739632      -156.1833
  63   1.0000      -5.738420      -156.1503
  64   1.0000      -5.738276      -156.1464
  65   1.0000      -5.737544      -156.1265
  66   1.0000      -5.733264      -156.0101
  67   1.0000      -5.732145      -155.9796
  68   1.0000      -5.667630      -154.2240
  69   1.0000      -5.665946      -154.1782
  70   1.0000      -5.660755      -154.0370
  71   1.0000      -5.659384      -153.9997
  72   1.0000      -5.659211      -153.9950
  73   1.0000      -5.657772      -153.9558
  74   1.0000      -5.650204      -153.7499
  75   1.0000      -5.649304      -153.7254
  76   1.0000      -5.644386      -153.5916
  77   1.0000      -5.643622      -153.5708
  78   1.0000      -5.642716      -153.5461
  79   1.0000      -5.641972      -153.5259
  80   1.0000      -2.399946       -65.3059
  81   1.0000      -1.466134       -39.8955
  82   1.0000      -1.412312       -38.4310
  83   1.0000      -1.412170       -38.4271
  84   1.0000      -0.714798       -19.4506
  85   1.0000      -0.708671       -19.2839
  86   1.0000      -0.687205       -18.6998
  87   1.0000      -0.686098       -18.6697
  88   1.0000      -0.657860       -17.9013
  89   1.0000      -0.643024       -17.4976
  90   1.0000      -0.628137       -17.0925
  91   1.0000      -0.623609       -16.9693
  92   1.0000      -0.602587       -16.3972
  93   1.0000      -0.584665       -15.9096
  94   1.0000      -0.575833       -15.6692
  95   1.0000      -0.573514       -15.6061
  96   1.0000      -0.571780       -15.5589
  97   1.0000      -0.499289       -13.5863
  98   1.0000      -0.497231       -13.5303
  99   1.0000      -0.495325       -13.4785
 100   1.0000      -0.494506       -13.4562
 101   1.0000      -0.482499       -13.1295
 102   1.0000      -0.475922       -12.9505
 103   1.0000      -0.448599       -12.2070
 104   1.0000      -0.446612       -12.1529
 105   1.0000      -0.420282       -11.4365
 106   1.0000      -0.407134       -11.0787
 107   1.0000      -0.358337        -9.7508
 108   1.0000      -0.354809        -9.6548
 109   1.0000      -0.327061        -8.8998
 110   1.0000      -0.325139        -8.8475
 111   1.0000      -0.320124        -8.7110
 112   1.0000      -0.312149        -8.4940
 113   1.0000      -0.306510        -8.3406
 114   1.0000      -0.300070        -8.1653
 115   1.0000      -0.297638        -8.0991
 116   1.0000      -0.280376        -7.6294
 117   1.0000      -0.259275        -7.0552
 118   1.0000      -0.258941        -7.0461
 119   1.0000      -0.257213        -6.9991
 120   1.0000      -0.256070        -6.9680
 121   1.0000      -0.240376        -6.5410
 122   1.0000      -0.235552        -6.4097
 123   1.0000      -0.231908        -6.3105
 124   1.0000      -0.221613        -6.0304
 125   1.0000      -0.220861        -6.0099
 126   1.0000      -0.216540        -5.8924
 127   1.0000      -0.215201        -5.8559
 128   1.0000      -0.212137        -5.7726
 129   1.0000      -0.191672        -5.2157
 130   1.0000      -0.189179        -5.1478
 131   1.0000      -0.187558        -5.1037
 132   1.0000      -0.184321        -5.0156
 133   1.0000      -0.176459        -4.8017
 134   1.0000      -0.157852        -4.2954
 135   1.0000      -0.154301        -4.1987
 136   1.0000      -0.139833        -3.8051
 137   1.0000      -0.136317        -3.7094
 138   1.0000      -0.134836        -3.6691
 139   1.0000      -0.133572        -3.6347
 140   1.0000      -0.124459        -3.3867
 141   1.0000      -0.121846        -3.3156
 142   1.0000      -0.114947        -3.1279
 143   1.0000      -0.111662        -3.0385
 144   1.0000      -0.101100        -2.7511
 145   1.0000      -0.098856        -2.6900
 146   1.0000      -0.098793        -2.6883
 147   1.0000      -0.092766        -2.5243
 148   1.0000      -0.074641        -2.0311
 149   1.0000      -0.071152        -1.9361
 150   1.0000      -0.053967        -1.4685
 151   1.0000      -0.052427        -1.4266
 152   1.0000      -0.041795        -1.1373
 153   1.0000      -0.041334        -1.1248
 154   1.0000      -0.033647        -0.9156
 155   1.0000      -0.026427        -0.7191
 156   1.0000      -0.023846        -0.6489
 157   1.0000      -0.013426        -0.3653
 158   1.0000       0.018491         0.5032
 159   1.0000       0.045373         1.2347
 160   0.0000       0.129044         3.5115
 161   0.0000       0.132390         3.6025
 162   0.0000       0.153351         4.1729
 163   0.0000       0.159215         4.3325
 164   0.0000       0.160621         4.3707

MULLIKEN ATOMIC CHARGES AND SPIN POPULATIONS
--------------------------------------------
   0 V :    0.470468    1.215177
   1 S :   -0.261793   -0.024704
   2 S :   -0.313421   -0.024608
   3 S :   -0.264156   -0.025644
   4 S :   -0.315205   -0.025785
   5 O :   -0.468816   -0.148627
   6 C :   -0.072990    0.005367
   7 C :   -0.094209    0.003824
   8 C :   -0.077625    0.013465
   9 C :   -0.087539    0.010876
  10 S :    0.108310   -0.000726
  11 S :    0.110447   -0.000770
  12 S :    0.097170   -0.000051
  13 S :    0.094950    0.000207
  14 C :   -0.105647    0.000092
  15 C :   -0.239936    0.002703
  16 C :   -0.266053    0.000384
  17 C :   -0.169750   -0.000981
  18 S :   -0.006255   -0.000116
  19 S :   -0.008300   -0.000106
  20 S :    0.008412   -0.000026
  21 S :    0.008049   -0.000017
  22 C :   -0.288758    0.000014
  23 C :   -0.287987    0.000012
  24 C :   -0.172150   -0.000040
  25 H :    0.146884   -0.000003
  26 H :    0.111524   -0.000005
  27 H :    0.082877    0.000001
  28 H :    0.094770   -0.000002
  29 H :    0.111366   -0.000007
  30 H :    0.146739   -0.000003
  31 C :   -0.316631    0.000080
  32 C :   -0.320841    0.000072
  33 C :   -0.138378   -0.000061
  34 H :    0.138886   -0.000005
  35 H :    0.115818    0.000002
  36 H :    0.089829    0.000011
  37 H :    0.087585    0.000005
  38 H :    0.114680    0.000003
  39 H :    0.137675   -0.000005
Sum of atomic charges         :   -2.0000000

LOEWDIN ATOMIC CHARGES AND SPIN POPULATIONS
-------------------------------------------
   0 V :   -0.151661    1.167761
   1 S :    0.109817   -0.014193
   2 S :    0.064562   -0.017220
   3 S :    0.104636   -0.015416
   4 S :    0.063509   -0.018387
   5 O :   -0.321923   -0.133473
   6 C :   -0.585401    0.005005
   7 C :   -0.588757    0.003762
   8 C :   -0.538700    0.013432
   9 C :   -0.539283    0.011170
  10 S :    0.496530   -0.001246
  11 S :    0.494848   -0.001269
  12 S :    0.460159   -0.000274
  13 S :    0.459870   -0.000080
  14 C :   -0.445571   -0.000417
  15 C :   -0.467899    0.000652
  16 C :   -0.674647    0.000178
  17 C :   -0.590516    0.000225
  18 S :    0.361547   -0.000096
  19 S :    0.366190   -0.000086
  20 S :    0.352598   -0.000038
  21 S :    0.353213   -0.000033
  22 C :   -0.282882   -0.000013
  23 C :   -0.282811   -0.000016
  24 C :   -0.178993    0.000002
  25 H :    0.063146   -0.000002
  26 H :    0.053372   -0.000002
  27 H :    0.057886   -0.000001
  28 H :    0.061334   -0.000001
  29 H :    0.053354   -0.000003
  30 H :    0.063121   -0.000002
  31 C :   -0.287892    0.000042
  32 C :   -0.286808    0.000034
  33 C :   -0.172098   -0.000000
  34 H :    0.061279   -0.000001
  35 H :    0.055933    0.000000
  36 H :    0.059947    0.000002
  37 H :    0.062234    0.000003
  38 H :    0.056067    0.000001
  39 H :    0.060691   -0.000001

  Mayer bond orders larger than 0.100000
B(  0-V ,  1-S ) :   0.8315 B(  0-V ,  2-S ) :   0.7290 B(  0-V ,  3-S ) :   0.8089
B(  0-V ,  4-S ) :   0.7165 B(  0-V ,  5-O ) :   2.1463 B(  1-S ,  8-C ) :   1.0716
B(  2-S ,  6-C ) :   1.1351 B(  3-S ,  9-C ) :   1.0906 B(  4-S ,  7-C ) :   1.1542
B(  6-C ,  7-C ) :   1.5891 B(  6-C , 10-S ) :   0.9704 B(  7-C , 11-S ) :   0.9788
B(  8-C ,  9-C ) :   1.7211 B(  8-C , 13-S ) :   0.9224 B(  9-C , 12-S ) :   0.9270
B( 10-S , 14-C ) :   1.2478 B( 11-S , 14-C ) :   1.2410 B( 12-S , 15-C ) :   1.2345
B( 13-S , 15-C ) :   1.2370 B( 14-C , 16-C ) :   1.3772 B( 15-C , 17-C ) :   1.4586
B( 16-C , 18-S ) :   1.1762 B( 16-C , 19-S ) :   1.1822 B( 17-C , 20-S ) :   1.0487
B( 17-C , 21-S ) :   1.0494 B( 18-S , 32-C ) :   0.9671 B( 19-S , 31-C ) :   0.9639
B( 20-S , 23-C ) :   1.0016 B( 21-S , 22-C ) :   1.0008 B( 22-C , 24-C ) :   0.9170
B( 22-C , 25-H ) :   0.9674 B( 22-C , 26-H ) :   0.9629 B( 23-C , 24-C ) :   0.9174
B( 23-C , 29-H ) :   0.9631 B( 23-C , 30-H ) :   0.9674 B( 24-C , 27-H ) :   0.9579
B( 24-C , 28-H ) :   0.9722 B( 31-C , 33-C ) :   0.9034 B( 31-C , 38-H ) :   0.9669
B( 31-C , 39-H ) :   0.9631 B( 32-C , 33-C ) :   0.9023 B( 32-C , 34-H ) :   0.9635
B( 32-C , 35-H ) :   0.9668 B( 33-C , 36-H ) :   0.9657 B( 33-C , 37-H ) :   0.9694

FINAL SINGLE POINT ENERGY     -6337.662684341269

DIPOLE MOMENT
-------------
                                X             Y             Z
Electronic contribution:     -9.63229      -8.04360       6.10509
Nuclear contribution   :     10.32062       9.26961      -5.96697
                        -----------------------------------------
Total Dipole Moment    :      0.68832       1.22601       0.13812
                        -----------------------------------------
Magnitude (a.u.)       :      1.41279
Magnitude (Debye)      :      3.59101

Rotational constants in cm-1:     0.010875     0.000805     0.000784
Rotational constants in MHz :   326.013642    24.126748    23.512582

                             ****ORCA TERMINATED NORMALLY****
TOTAL RUN TIME: 0 days 1 hours 7 minutes 13 seconds 604 msec
