                         Program Version 5.0.4 -  RELEASE  -
|  1> ! nofrozencore ReducedPop printbasis
|  2> ! B3LYP TZVP
|  3>
|  4> %basis
|  5> newgto V "CP(PPP)" end
|  6> end
|  7>
|  8> %pal
|  9> nprocs 8
| 10> end
| 11>
| 12> % sym SymThresh 1e-2 end
| 13> * xyz -2 2
| 14> V -0.8090810703402621 0.11131393749656468 0.7521888882621617
| 15> S -1.982254879587193 -1.2039054296042462 -1.0297066028219786
| 16> S 0.38241522844881726 -1.976222564676287 1.2337734225568802
| 17> S -1.1190749347255557 2.0492377096171297 -0.6889088741271472
| 18> S 1.333485612020856 1.2349303083517467 1.3769896238957735
| 19> O -1.8328176795984306 0.31187910415708303 1.9505553666155186
| 20> C 1.7071980294377145 -1.361552063382419 2.208898861835929
| 21> C 2.0889546624320445 -0.07264034724272696 2.284548320285189
| 22> C -2.5319754077536283 0.10727622168099328 -2.0697811120535663
| 23> C -2.163668222961163 1.394584205306356 -1.934248265998996
| 24> S 2.6909116772437756 -2.550721973318787 3.1217997446370265
| 25> S 3.5098356444630316 0.2694725722684965 3.3371286429428775
| 26> S -2.755344064178691 2.5477627435690944 -3.1674012873648545
| 27> S -3.62497103173428 -0.252507399037879 -3.4569128814142003
| 28> C 3.844911940108292 -1.4072754620234431 3.8086412489618127
| 29> C -3.6525706411035603 1.3848990485840493 -4.13836237353948
| 30> C 4.881908422409151 -1.7675556822551848 4.626328293931592
| 31> C -4.3104657781414915 1.7096612110670746 -5.291598211358522
| 32> S 5.16112052652079 -3.4447028371838884 5.17282668433005
| 33> S 6.023623156528533 -0.5492424891330328 5.242081041376714
| 34> S -5.1839978777142175 0.46608536510396814 -6.213625610910299
| 35> S -4.318412576277889 3.3596531026179473 -5.973951686755807
| 36> C -3.5162615360158678 3.015647048701765 -7.6134669943368545
| 37> C -4.121758644385654 0.511531269666639 -7.726405542694504
| 38> C -4.160758704846288 1.8791259187725156 -8.418328055895254
| 39> H -2.453518461478964 2.8056137853386875 -7.434393417788261
| 40> H -3.5886450809366326 3.9609590342004273 -8.167959776852808
| 41> H -3.6241148403602703 1.8033359184879703 -9.374450092324382
| 42> H -5.202438055350502 2.133686364462891 -8.649432751477233
| 43> H -4.50536130978278 -0.27025712027450555 -8.395287213528333
| 44> H -3.100478045056632 0.240835604107595 -7.429660968956924
| 45> C 5.605475057782016 -0.6964135690911887 7.037547089736477
| 46> C 4.976557641657421 -3.1936930004863657 7.002855234399146
| 47> C 5.873012546684974 -2.0985322313919523 7.591579705744253
| 48> H 3.9228014247657765 -2.9813475795554543 7.211574757745386
| 49> H 5.223614027959652 -4.164070412938119 7.447356068644396
| 50> H 6.925017848219195 -2.356072073631958 7.4251633841201885
| 51> H 5.709870586437757 -2.0797659579237684 8.678342755473038
| 52> H 6.225620060887722 0.044577815650566247 7.553853056897929
| 53> H 4.555435666874797 -0.41287025303908154 7.163293530550413
| 54> *
| 55>
| 56> % eprnmr
| 57> gtensor true
| 58> Nuclei = all H {aiso,adip,aorb,fgrad,rho}
| 59> Nuclei = all V {aiso,adip,aorb,fgrad,rho}
| 60> end
| 61>
| 62>                          ****END OF INPUT****

CARTESIAN COORDINATES (ANGSTROEM)
---------------------------------
  V     -0.805424    0.110332    0.751591
  S     -1.978598   -1.204887   -1.030304
  S      0.386073   -1.977205    1.233176
  S     -1.115418    2.048256   -0.689507
  S      1.337143    1.233948    1.376392
  O     -1.829160    0.310897    1.949957
  C      1.710855   -1.362534    2.208301
  C      2.092612   -0.073622    2.283950
  C     -2.528318    0.106294   -2.070379
  C     -2.160011    1.393602   -1.934846
  S      2.694569   -2.551704    3.121202
  S      3.513493    0.268491    3.336531
  S     -2.751687    2.546781   -3.167999
  S     -3.621314   -0.253489   -3.457511
  C      3.848569   -1.408257    3.808043
  C     -3.648913    1.383917   -4.138960
  C      4.885566   -1.768538    4.625730
  C     -4.306808    1.708679   -5.292196
  S      5.164778   -3.445685    5.172229
  S      6.027280   -0.550225    5.241483
  S     -5.180341    0.465103   -6.214223
  S     -4.314755    3.358671   -5.974550
  C     -3.512604    3.014665   -7.614065
  C     -4.118101    0.510549   -7.727003
  C     -4.157101    1.878144   -8.418926
  H     -2.449861    2.804632   -7.434991
  H     -3.584988    3.959977   -8.168558
  H     -3.620458    1.802354   -9.375048
  H     -5.198781    2.132704   -8.650031
  H     -4.501704   -0.271239   -8.395885
  H     -3.096821    0.239854   -7.430259
  C      5.609132   -0.697396    7.036949
  C      4.980215   -3.194675    7.002257
  C      5.876670   -2.099514    7.590982
  H      3.926459   -2.982330    7.210977
  H      5.227271   -4.165052    7.446758
  H      6.928675   -2.357054    7.424565
  H      5.713528   -2.080748    8.677745
  H      6.229277    0.043596    7.553255
  H      4.559093   -0.413852    7.162696

 Total Charge           Charge          ....   -2
 Multiplicity           Mult            ....    2
 Number of Electrons    NEL             ....  321
 Basis Dimension        Dim             ....  681

ORBITAL ENERGIES
----------------
                 SPIN UP ORBITALS
  NO   OCC          E(Eh)            E(eV)
   0   1.0000    -196.674503     -5351.7853
   1   1.0000     -88.734138     -2414.5787
   2   1.0000     -88.733759     -2414.5683
   3   1.0000     -88.732179     -2414.5254
   4   1.0000     -88.732095     -2414.5231
   5   1.0000     -88.730461     -2414.4786
   6   1.0000     -88.730278     -2414.4736
   7   1.0000     -88.729809     -2414.4609
   8   1.0000     -88.729158     -2414.4431
   9   1.0000     -88.639754     -2412.0103
  10   1.0000     -88.639592     -2412.0059
  11   1.0000     -88.638984     -2411.9894
  12   1.0000     -88.638978     -2411.9892
  13   1.0000     -22.049911      -600.0086
  14   1.0000     -18.889848      -514.0189
  15   1.0000     -18.556355      -504.9441
  16   1.0000     -18.551186      -504.8034
  17   1.0000     -18.551085      -504.8007
  18   1.0000     -10.075999      -274.1819
  19   1.0000     -10.075307      -274.1630
  20   1.0000     -10.065727      -273.9024
  21   1.0000     -10.064761      -273.8761
  22   1.0000     -10.063467      -273.8408
  23   1.0000     -10.063111      -273.8312
  24   1.0000     -10.051881      -273.5256
  25   1.0000     -10.051550      -273.5166
  26   1.0000     -10.048316      -273.4286
  27   1.0000     -10.048055      -273.4215
  28   1.0000     -10.018016      -272.6041
  29   1.0000     -10.017807      -272.5984
  30   1.0000     -10.017226      -272.5826
  31   1.0000     -10.016613      -272.5659
  32   1.0000      -7.787334      -211.9041
  33   1.0000      -7.786951      -211.8937
  34   1.0000      -7.785800      -211.8624
  35   1.0000      -7.785792      -211.8622
  36   1.0000      -7.783449      -211.7984
  37   1.0000      -7.783284      -211.7939
  38   1.0000      -7.783242      -211.7928
  39   1.0000      -7.782765      -211.7798
  40   1.0000      -7.693771      -209.3582
  41   1.0000      -7.693700      -209.3562
  42   1.0000      -7.693528      -209.3515
  43   1.0000      -7.693478      -209.3502
  44   1.0000      -5.752386      -156.5304
  45   1.0000      -5.751993      -156.5197
  46   1.0000      -5.750734      -156.4854
  47   1.0000      -5.750728      -156.4853
  48   1.0000      -5.748887      -156.4352
  49   1.0000      -5.748531      -156.4255
  50   1.0000      -5.748414      -156.4223
  51   1.0000      -5.748254      -156.4180
  52   1.0000      -5.748172      -156.4157
  53   1.0000      -5.747693      -156.4027
  54   1.0000      -5.747403      -156.3948
  55   1.0000      -5.747384      -156.3943
  56   1.0000      -5.744009      -156.3024
  57   1.0000      -5.743856      -156.2983
  58   1.0000      -5.743710      -156.2943
  59   1.0000      -5.743223      -156.2810
  60   1.0000      -5.742132      -156.2514
  61   1.0000      -5.741735      -156.2406
  62   1.0000      -5.740593      -156.2095
  63   1.0000      -5.740580      -156.2091
  64   1.0000      -5.739255      -156.1731
  65   1.0000      -5.739098      -156.1688
  66   1.0000      -5.739070      -156.1680
  67   1.0000      -5.738602      -156.1553
  68   1.0000      -5.659073      -153.9912
  69   1.0000      -5.659008      -153.9894
  70   1.0000      -5.658915      -153.9869
  71   1.0000      -5.658777      -153.9832
  72   1.0000      -5.652434      -153.8105
  73   1.0000      -5.652396      -153.8095
  74   1.0000      -5.652218      -153.8047
  75   1.0000      -5.652096      -153.8013
  76   1.0000      -5.651106      -153.7744
  77   1.0000      -5.650968      -153.7707
  78   1.0000      -5.650827      -153.7668
  79   1.0000      -5.650810      -153.7663
  80   1.0000      -2.443606       -66.4939
  81   1.0000      -1.484905       -40.4063
  82   1.0000      -1.473277       -40.0899
  83   1.0000      -1.472433       -40.0670
  84   1.0000      -0.709305       -19.3012
  85   1.0000      -0.708768       -19.2866
  86   1.0000      -0.684872       -18.6363
  87   1.0000      -0.684789       -18.6341
  88   1.0000      -0.649456       -17.6726
  89   1.0000      -0.630917       -17.1681
  90   1.0000      -0.630725       -17.1629
  91   1.0000      -0.616350       -16.7717
  92   1.0000      -0.616304       -16.7705
  93   1.0000      -0.574561       -15.6346
  94   1.0000      -0.573698       -15.6111
  95   1.0000      -0.573188       -15.5972
  96   1.0000      -0.572200       -15.5704
  97   1.0000      -0.496718       -13.5164
  98   1.0000      -0.495894       -13.4940
  99   1.0000      -0.494720       -13.4620
 100   1.0000      -0.494542       -13.4572
 101   1.0000      -0.479441       -13.0463
 102   1.0000      -0.476832       -12.9753
 103   1.0000      -0.446777       -12.1574
 104   1.0000      -0.444570       -12.0974
 105   1.0000      -0.416057       -11.3215
 106   1.0000      -0.410839       -11.1795
 107   1.0000      -0.354611        -9.6495
 108   1.0000      -0.354039        -9.6339
 109   1.0000      -0.326110        -8.8739
 110   1.0000      -0.325715        -8.8632
 111   1.0000      -0.318644        -8.6708
 112   1.0000      -0.314128        -8.5479
 113   1.0000      -0.304129        -8.2758
 114   1.0000      -0.303378        -8.2553
 115   1.0000      -0.291566        -7.9339
 116   1.0000      -0.290776        -7.9124
 117   1.0000      -0.257660        -7.0113
 118   1.0000      -0.257327        -7.0022
 119   1.0000      -0.255543        -6.9537
 120   1.0000      -0.255130        -6.9424
 121   1.0000      -0.234559        -6.3827
 122   1.0000      -0.234109        -6.3704
 123   1.0000      -0.230690        -6.2774
 124   1.0000      -0.229512        -6.2453
 125   1.0000      -0.219718        -5.9788
 126   1.0000      -0.217701        -5.9239
 127   1.0000      -0.213772        -5.8170
 128   1.0000      -0.211763        -5.7624
 129   1.0000      -0.192782        -5.2459
 130   1.0000      -0.187042        -5.0897
 131   1.0000      -0.185780        -5.0553
 132   1.0000      -0.184119        -5.0101
 133   1.0000      -0.178942        -4.8693
 134   1.0000      -0.159240        -4.3332
 135   1.0000      -0.151409        -4.1201
 136   1.0000      -0.146639        -3.9903
 137   1.0000      -0.135142        -3.6774
 138   1.0000      -0.134362        -3.6562
 139   1.0000      -0.132389        -3.6025
 140   1.0000      -0.125030        -3.4022
 141   1.0000      -0.120804        -3.2872
 142   1.0000      -0.113173        -3.0796
 143   1.0000      -0.109386        -2.9765
 144   1.0000      -0.099429        -2.7056
 145   1.0000      -0.097928        -2.6648
 146   1.0000      -0.096846        -2.6353
 147   1.0000      -0.094398        -2.5687
 148   1.0000      -0.074434        -2.0255
 149   1.0000      -0.067506        -1.8369
 150   1.0000      -0.066860        -1.8194
 151   1.0000      -0.052012        -1.4153
 152   1.0000      -0.045291        -1.2324
 153   1.0000      -0.037070        -1.0087
 154   1.0000      -0.036730        -0.9995
 155   1.0000      -0.030911        -0.8411
 156   1.0000      -0.024413        -0.6643
 157   1.0000      -0.019051        -0.5184
 158   1.0000      -0.014798        -0.4027
 159   1.0000       0.020883         0.5683
 160   1.0000       0.041432         1.1274
 161   0.0000       0.136733         3.7207
 162   0.0000       0.137305         3.7363
 163   0.0000       0.162054         4.4097
 164   0.0000       0.162232         4.4145
 165   0.0000       0.170645         4.6435

                 SPIN DOWN ORBITALS
  NO   OCC          E(Eh)            E(eV)
   0   1.0000    -196.674650     -5351.7893
   1   1.0000     -88.734139     -2414.5787
   2   1.0000     -88.733760     -2414.5684
   3   1.0000     -88.732180     -2414.5254
   4   1.0000     -88.732095     -2414.5231
   5   1.0000     -88.730471     -2414.4789
   6   1.0000     -88.730286     -2414.4738
   7   1.0000     -88.729817     -2414.4611
   8   1.0000     -88.729164     -2414.4433
   9   1.0000     -88.639895     -2412.0142
  10   1.0000     -88.639734     -2412.0098
  11   1.0000     -88.639124     -2411.9932
  12   1.0000     -88.639115     -2411.9929
  13   1.0000     -22.034985      -599.6024
  14   1.0000     -18.893629      -514.1218
  15   1.0000     -18.551091      -504.8009
  16   1.0000     -18.535164      -504.3675
  17   1.0000     -18.534969      -504.3621
  18   1.0000     -10.075994      -274.1817
  19   1.0000     -10.075306      -274.1630
  20   1.0000     -10.065727      -273.9024
  21   1.0000     -10.064761      -273.8761
  22   1.0000     -10.063467      -273.8409
  23   1.0000     -10.063110      -273.8311
  24   1.0000     -10.051881      -273.5256
  25   1.0000     -10.051550      -273.5166
  26   1.0000     -10.048305      -273.4283
  27   1.0000     -10.048050      -273.4214
  28   1.0000     -10.017789      -272.5979
  29   1.0000     -10.017606      -272.5929
  30   1.0000     -10.017001      -272.5764
  31   1.0000     -10.016373      -272.5594
  32   1.0000      -7.787335      -211.9042
  33   1.0000      -7.786951      -211.8937
  34   1.0000      -7.785801      -211.8624
  35   1.0000      -7.785793      -211.8622
  36   1.0000      -7.783460      -211.7987
  37   1.0000      -7.783294      -211.7942
  38   1.0000      -7.783250      -211.7930
  39   1.0000      -7.782773      -211.7800
  40   1.0000      -7.693898      -209.3616
  41   1.0000      -7.693832      -209.3598
  42   1.0000      -7.693661      -209.3552
  43   1.0000      -7.693608      -209.3537
  44   1.0000      -5.752387      -156.5304
  45   1.0000      -5.751995      -156.5197
  46   1.0000      -5.750736      -156.4855
  47   1.0000      -5.750729      -156.4853
  48   1.0000      -5.748888      -156.4352
  49   1.0000      -5.748533      -156.4255
  50   1.0000      -5.748426      -156.4226
  51   1.0000      -5.748266      -156.4183
  52   1.0000      -5.748182      -156.4160
  53   1.0000      -5.747701      -156.4029
  54   1.0000      -5.747404      -156.3948
  55   1.0000      -5.747385      -156.3943
  56   1.0000      -5.744024      -156.3029
  57   1.0000      -5.743872      -156.2987
  58   1.0000      -5.743723      -156.2946
  59   1.0000      -5.743234      -156.2814
  60   1.0000      -5.742133      -156.2514
  61   1.0000      -5.741736      -156.2406
  62   1.0000      -5.740594      -156.2095
  63   1.0000      -5.740581      -156.2091
  64   1.0000      -5.739265      -156.1733
  65   1.0000      -5.739105      -156.1690
  66   1.0000      -5.739077      -156.1682
  67   1.0000      -5.738607      -156.1554
  68   1.0000      -5.659212      -153.9950
  69   1.0000      -5.659155      -153.9934
  70   1.0000      -5.659050      -153.9906
  71   1.0000      -5.658922      -153.9871
  72   1.0000      -5.652800      -153.8205
  73   1.0000      -5.652747      -153.8191
  74   1.0000      -5.652615      -153.8155
  75   1.0000      -5.652464      -153.8114
  76   1.0000      -5.651207      -153.7772
  77   1.0000      -5.651080      -153.7737
  78   1.0000      -5.650926      -153.7695
  79   1.0000      -5.650896      -153.7687
  80   1.0000      -2.398733       -65.2728
  81   1.0000      -1.465618       -39.8815
  82   1.0000      -1.410931       -38.3934
  83   1.0000      -1.410718       -38.3876
  84   1.0000      -0.709288       -19.3007
  85   1.0000      -0.708743       -19.2859
  86   1.0000      -0.684819       -18.6349
  87   1.0000      -0.684742       -18.6328
  88   1.0000      -0.657567       -17.8933
  89   1.0000      -0.630858       -17.1665
  90   1.0000      -0.630649       -17.1608
  91   1.0000      -0.616350       -16.7717
  92   1.0000      -0.616306       -16.7705
  93   1.0000      -0.574530       -15.6338
  94   1.0000      -0.573677       -15.6105
  95   1.0000      -0.573106       -15.5950
  96   1.0000      -0.572126       -15.5683
  97   1.0000      -0.496727       -13.5166
  98   1.0000      -0.495925       -13.4948
  99   1.0000      -0.494770       -13.4634
 100   1.0000      -0.494589       -13.4585
 101   1.0000      -0.479625       -13.0513
 102   1.0000      -0.477081       -12.9820
 103   1.0000      -0.446797       -12.1580
 104   1.0000      -0.444618       -12.0987
 105   1.0000      -0.416056       -11.3215
 106   1.0000      -0.410952       -11.1826
 107   1.0000      -0.354602        -9.6492
 108   1.0000      -0.354034        -9.6337
 109   1.0000      -0.326094        -8.8735
 110   1.0000      -0.325706        -8.8629
 111   1.0000      -0.318565        -8.6686
 112   1.0000      -0.314152        -8.5485
 113   1.0000      -0.304078        -8.2744
 114   1.0000      -0.303356        -8.2547
 115   1.0000      -0.291559        -7.9337
 116   1.0000      -0.290768        -7.9122
 117   1.0000      -0.257509        -7.0072
 118   1.0000      -0.257244        -7.0000
 119   1.0000      -0.255508        -6.9527
 120   1.0000      -0.255094        -6.9414
 121   1.0000      -0.234510        -6.3813
 122   1.0000      -0.234102        -6.3702
 123   1.0000      -0.230639        -6.2760
 124   1.0000      -0.229477        -6.2444
 125   1.0000      -0.219363        -5.9692
 126   1.0000      -0.217567        -5.9203
 127   1.0000      -0.213569        -5.8115
 128   1.0000      -0.211636        -5.7589
 129   1.0000      -0.191044        -5.1986
 130   1.0000      -0.186969        -5.0877
 131   1.0000      -0.185387        -5.0446
 132   1.0000      -0.183910        -5.0044
 133   1.0000      -0.178829        -4.8662
 134   1.0000      -0.158622        -4.3163
 135   1.0000      -0.151241        -4.1155
 136   1.0000      -0.146558        -3.9880
 137   1.0000      -0.134484        -3.6595
 138   1.0000      -0.134031        -3.6472
 139   1.0000      -0.132197        -3.5973
 140   1.0000      -0.124381        -3.3846
 141   1.0000      -0.120517        -3.2794
 142   1.0000      -0.114883        -3.1261
 143   1.0000      -0.111008        -3.0207
 144   1.0000      -0.099411        -2.7051
 145   1.0000      -0.098220        -2.6727
 146   1.0000      -0.096884        -2.6364
 147   1.0000      -0.094729        -2.5777
 148   1.0000      -0.070600        -1.9211
 149   1.0000      -0.067491        -1.8365
 150   1.0000      -0.066820        -1.8183
 151   1.0000      -0.049440        -1.3453
 152   1.0000      -0.044314        -1.2059
 153   1.0000      -0.037084        -1.0091
 154   1.0000      -0.036239        -0.9861
 155   1.0000      -0.030980        -0.8430
 156   1.0000      -0.025476        -0.6932
 157   1.0000      -0.015283        -0.4159
 158   1.0000       0.021187         0.5765
 159   1.0000       0.040389         1.0990
 160   0.0000       0.136738         3.7208
 161   0.0000       0.137297         3.7360
 162   0.0000       0.155983         4.2445
 163   0.0000       0.162182         4.4132
 164   0.0000       0.163559         4.4507

MULLIKEN ATOMIC CHARGES AND SPIN POPULATIONS
--------------------------------------------
   0 V :    0.470357    1.210807
   1 S :   -0.296919   -0.023642
   2 S :   -0.286483   -0.024599
   3 S :   -0.281004   -0.022770
   4 S :   -0.291066   -0.026010
   5 O :   -0.466866   -0.146718
   6 C :   -0.090416    0.010269
   7 C :   -0.073286    0.007089
   8 C :   -0.071478    0.007154
   9 C :   -0.095399    0.008476
  10 S :    0.102720   -0.000437
  11 S :    0.097623   -0.000783
  12 S :    0.103902   -0.000124
  13 S :    0.095334   -0.000477
  14 C :   -0.210719    0.001393
  15 C :   -0.212719    0.001070
  16 C :   -0.194890   -0.000038
  17 C :   -0.189520   -0.000451
  18 S :    0.008302   -0.000105
  19 S :    0.009569   -0.000120
  20 S :    0.008848   -0.000072
  21 S :    0.008148   -0.000063
  22 C :   -0.293396    0.000001
  23 C :   -0.306858   -0.000005
  24 C :   -0.158894   -0.000011
  25 H :    0.137254   -0.000002
  26 H :    0.110482   -0.000004
  27 H :    0.083843   -0.000001
  28 H :    0.092739   -0.000001
  29 H :    0.115677   -0.000005
  30 H :    0.148470   -0.000001
  31 C :   -0.305175    0.000188
  32 C :   -0.295586    0.000171
  33 C :   -0.157940   -0.000219
  34 H :    0.137989   -0.000015
  35 H :    0.111019    0.000017
  36 H :    0.092269    0.000021
  37 H :    0.082732    0.000013
  38 H :    0.115032    0.000021
  39 H :    0.146304   -0.000019
Sum of atomic charges         :   -2.0000000

LOEWDIN ATOMIC CHARGES AND SPIN POPULATIONS
-------------------------------------------
   0 V :   -0.156578    1.164029
   1 S :    0.068050   -0.015783
   2 S :    0.087170   -0.015330
   3 S :    0.097486   -0.014162
   4 S :    0.071180   -0.017040
   5 O :   -0.318791   -0.131611
   6 C :   -0.550609    0.009696
   7 C :   -0.550739    0.006967
   8 C :   -0.550741    0.007265
   9 C :   -0.553981    0.009048
  10 S :    0.475258   -0.000824
  11 S :    0.466855   -0.001046
  12 S :    0.476938   -0.000688
  13 S :    0.465226   -0.000868
  14 C :   -0.464582    0.000131
  15 C :   -0.465503   -0.000081
  16 C :   -0.622646    0.000448
  17 C :   -0.622703    0.000095
  18 S :    0.355273   -0.000082
  19 S :    0.361464   -0.000095
  20 S :    0.361221   -0.000081
  21 S :    0.356351   -0.000064
  22 C :   -0.284463   -0.000008
  23 C :   -0.283556   -0.000008
  24 C :   -0.176930   -0.000002
  25 H :    0.061007   -0.000001
  26 H :    0.054498   -0.000002
  27 H :    0.057735   -0.000002
  28 H :    0.060584   -0.000001
  29 H :    0.054151   -0.000003
  30 H :    0.065853   -0.000002
  31 C :   -0.284264    0.000044
  32 C :   -0.284484    0.000033
  33 C :   -0.176673    0.000005
  34 H :    0.060817   -0.000000
  35 H :    0.053962    0.000007
  36 H :    0.060347    0.000004
  37 H :    0.057664    0.000002
  38 H :    0.053877    0.000009
  39 H :    0.064273   -0.000001

  Mayer bond orders larger than 0.100000
B(  0-V ,  1-S ) :   0.7531 B(  0-V ,  2-S ) :   0.7812 B(  0-V ,  3-S ) :   0.7918
B(  0-V ,  4-S ) :   0.7607 B(  0-V ,  5-O ) :   2.1493 B(  1-S ,  8-C ) :   1.1102
B(  2-S ,  6-C ) :   1.1026 B(  3-S ,  9-C ) :   1.0990 B(  4-S ,  7-C ) :   1.1044
B(  6-C ,  7-C ) :   1.6867 B(  6-C , 10-S ) :   0.9414 B(  7-C , 11-S ) :   0.9306
B(  8-C ,  9-C ) :   1.6965 B(  8-C , 13-S ) :   0.9260 B(  9-C , 12-S ) :   0.9437
B( 10-S , 14-C ) :   1.2507 B( 11-S , 14-C ) :   1.2440 B( 12-S , 15-C ) :   1.2514
B( 13-S , 15-C ) :   1.2411 B( 14-C , 16-C ) :   1.4498 B( 15-C , 17-C ) :   1.4530
B( 16-C , 18-S ) :   1.0832 B( 16-C , 19-S ) :   1.0953 B( 17-C , 20-S ) :   1.0934
B( 17-C , 21-S ) :   1.0836 B( 18-S , 32-C ) :   0.9967 B( 19-S , 31-C ) :   0.9858
B( 20-S , 23-C ) :   0.9814 B( 21-S , 22-C ) :   0.9972 B( 22-C , 24-C ) :   0.9197
B( 22-C , 25-H ) :   0.9632 B( 22-C , 26-H ) :   0.9655 B( 23-C , 24-C ) :   0.9068
B( 23-C , 29-H ) :   0.9641 B( 23-C , 30-H ) :   0.9673 B( 24-C , 27-H ) :   0.9622
B( 24-C , 28-H ) :   0.9716 B( 31-C , 33-C ) :   0.9087 B( 31-C , 38-H ) :   0.9647
B( 31-C , 39-H ) :   0.9672 B( 32-C , 33-C ) :   0.9179 B( 32-C , 34-H ) :   0.9639
B( 32-C , 35-H ) :   0.9655 B( 33-C , 36-H ) :   0.9718 B( 33-C , 37-H ) :   0.9624

FINAL SINGLE POINT ENERGY     -6337.704857908822

DIPOLE MOMENT
-------------
                                X             Y             Z
Electronic contribution:    -11.89752       1.55954       6.37830
Nuclear contribution   :     13.19751      -1.71132      -7.14848
                        -----------------------------------------
Total Dipole Moment    :      1.29998      -0.15178      -0.77018
                        -----------------------------------------
Magnitude (a.u.)       :      1.51861
Magnitude (Debye)      :      3.86000

Rotational constants in cm-1:     0.010755     0.000804     0.000783
Rotational constants in MHz :   322.419331    24.117186    23.487824

                             ****ORCA TERMINATED NORMALLY****
TOTAL RUN TIME: 0 days 1 hours 1 minutes 52 seconds 140 msec
