                         Program Version 5.0.4 -  RELEASE  -
|  1> ! nofrozencore ReducedPop printbasis
|  2> ! B3LYP TZVP
|  3>
|  4> %basis
|  5> newgto V "CP(PPP)" end
|  6> end
|  7>
|  8> %pal
|  9> nprocs 8
| 10> end
| 11>
| 12> % sym SymThresh 1e-2 end
| 13> * xyz -2 2
| 14> V -0.488096520654648 -0.614081901989885 0.7864415310875384
| 15> S -1.796563611188083 1.4766962404308857 0.726963109155562
| 16> S -1.5677552500010248 -1.057461747246836 -1.3949427420298985
| 17> S 1.1645847587738676 0.6630974000631615 2.128910203190846
| 18> S 1.4814991262330635 -1.754950437118647 -0.16829413870286464
| 19> O -1.190339298903787 -1.6172267475898225 1.798873129814686
| 20> C -0.5181309714198294 -2.339708684484531 -1.9781045059989135
| 21> C 0.7059901377930647 -2.6184577538757656 -1.490915702949301
| 22> C -0.9084060254036742 2.4711345317476052 1.8721159378844148
| 23> C 0.27138536137053704 2.146168949735771 2.434205420688615
| 24> S -1.0658686970374442 -3.321780219791043 -3.377091425983856
| 25> S 1.6195847369741216 -3.9210792308627243 -2.325986754691319
| 26> S 0.9855612168891674 3.363220758419358 3.5495610552999444
| 27> S -1.587854145696168 4.077086788538111 2.300392649992927
| 28> C 0.3953632110825405 -4.302585186319721 -3.543566104054444
| 29> C -0.26106857084581114 4.602291626776482 3.3451559643981637
| 30> C 0.5531115422783414 -5.261744823672856 -4.506263435868832
| 31> C -0.21342875162262245 5.833861990611567 3.9383846466493653
| 32> S -0.7380130798102412 -5.638527334202872 -5.677525246596183
| 33> S 2.0422982919587254 -6.231392063238955 -4.6387856101236284
| 34> S -1.4832393040675194 7.059977262517293 3.6635210558554356
| 35> S 1.1402670818230642 6.320283938630966 4.994893556126613
| 36> C 1.7950362948465304 7.717258650100268 3.9669083706079245
| 37> C -0.43563191892345576 8.34346659927783 2.8318926120930694
| 38> C 0.7555067500243321 8.807455119362277 3.67886838284164
| 39> H 2.189075880603027 7.299108710671121 3.034810289639377
| 40> H 2.6338555774950816 8.128879017917209 4.537737456661899
| 41> H 1.258774039979634 9.624217785938013 3.1402064164859853
| 42> H 0.38775921857249346 9.217365540343238 4.627783642592103
| 43> H -1.111106422503529 9.181464153315765 2.62995139374305
| 44> H -0.09695124476401855 7.938905470720445 1.872501006858125
| 45> C 1.3154671000537999 -7.900824932977198 -4.302805048464771
| 46> C -1.051426199142746 -7.393193598526495 -5.17670824897744
| 47> C 0.1881728122808375 -8.287293636139205 -5.2636927006951035
| 48> H -1.4579785349818355 -7.389049781924971 -4.162402308301871
| 49> H -1.8287886765249848 -7.7546880318987235 -5.855241550842605
| 50> H 0.5680079068504934 -8.280927684425402 -6.290706718719708
| 51> H -0.11695063110202433 -9.318004487219357 -5.034685994649592
| 52> H 2.1486367244234397 -8.603038966763942 -4.392642313470461
| 53> H 0.9661820064014923 -7.915292273867234 -3.2674546740799095
| 54> *
| 55>
| 56> % eprnmr
| 57> gtensor true
| 58> Nuclei = all H {aiso,adip,aorb,fgrad,rho}
| 59> Nuclei = all V {aiso,adip,aorb,fgrad,rho}
| 60> end
| 61>
| 62>                          ****END OF INPUT****

CARTESIAN COORDINATES (ANGSTROEM)
---------------------------------
  V     -0.486584   -0.614101    0.782918
  S     -1.795051    1.476677    0.723440
  S     -1.566243   -1.057481   -1.398466
  S      1.166097    0.663078    2.125387
  S      1.483011   -1.754970   -0.171817
  O     -1.188827   -1.617246    1.795350
  C     -0.516619   -2.339728   -1.981628
  C      0.707502   -2.618477   -1.494439
  C     -0.906894    2.471115    1.868593
  C      0.272897    2.146150    2.430682
  S     -1.064357   -3.321799   -3.380614
  S      1.621097   -3.921098   -2.329510
  S      0.987073    3.363202    3.546038
  S     -1.586342    4.077068    2.296870
  C      0.396875   -4.302604   -3.547089
  C     -0.259556    4.602272    3.341633
  C      0.554624   -5.261764   -4.509786
  C     -0.211917    5.833843    3.934862
  S     -0.736501   -5.638547   -5.681048
  S      2.043810   -6.231411   -4.642309
  S     -1.481727    7.059958    3.659998
  S      1.141779    6.320265    4.991371
  C      1.796548    7.717239    3.963385
  C     -0.434120    8.343447    2.828370
  C      0.757019    8.807436    3.675345
  H      2.190588    7.299089    3.031287
  H      2.635368    8.128860    4.534214
  H      1.260286    9.624199    3.136683
  H      0.389271    9.217346    4.624261
  H     -1.109594    9.181445    2.626428
  H     -0.095439    7.938886    1.868978
  C      1.316979   -7.900844   -4.306328
  C     -1.049914   -7.393213   -5.180231
  C      0.189685   -8.287313   -5.267216
  H     -1.456466   -7.389069   -4.165925
  H     -1.827277   -7.754707   -5.858765
  H      0.569520   -8.280947   -6.294230
  H     -0.115439   -9.318024   -5.038209
  H      2.150149   -8.603058   -4.396165
  H      0.967694   -7.915312   -3.270978

 Total Charge           Charge          ....   -2
 Multiplicity           Mult            ....    2
 Number of Electrons    NEL             ....  321
 Basis Dimension        Dim             ....  681

ORBITAL ENERGIES
----------------
                 SPIN UP ORBITALS
  NO   OCC          E(Eh)            E(eV)
   0   1.0000    -196.674515     -5351.7856
   1   1.0000     -88.733462     -2414.5603
   2   1.0000     -88.733286     -2414.5555
   3   1.0000     -88.733144     -2414.5516
   4   1.0000     -88.732951     -2414.5463
   5   1.0000     -88.730083     -2414.4683
   6   1.0000     -88.729994     -2414.4659
   7   1.0000     -88.729733     -2414.4588
   8   1.0000     -88.729698     -2414.4578
   9   1.0000     -88.639804     -2412.0117
  10   1.0000     -88.639526     -2412.0041
  11   1.0000     -88.638921     -2411.9877
  12   1.0000     -88.638724     -2411.9823
  13   1.0000     -22.049920      -600.0088
  14   1.0000     -18.889767      -514.0167
  15   1.0000     -18.556365      -504.9444
  16   1.0000     -18.551197      -504.8037
  17   1.0000     -18.551095      -504.8010
  18   1.0000     -10.075831      -274.1773
  19   1.0000     -10.075629      -274.1718
  20   1.0000     -10.064008      -273.8556
  21   1.0000     -10.064005      -273.8555
  22   1.0000     -10.063453      -273.8405
  23   1.0000     -10.063385      -273.8386
  24   1.0000     -10.051899      -273.5261
  25   1.0000     -10.051285      -273.5094
  26   1.0000     -10.048694      -273.4389
  27   1.0000     -10.048162      -273.4244
  28   1.0000     -10.017916      -272.6014
  29   1.0000     -10.017805      -272.5983
  30   1.0000     -10.017093      -272.5789
  31   1.0000     -10.016865      -272.5727
  32   1.0000      -7.786805      -211.8897
  33   1.0000      -7.786617      -211.8846
  34   1.0000      -7.786577      -211.8835
  35   1.0000      -7.786378      -211.8781
  36   1.0000      -7.783303      -211.7944
  37   1.0000      -7.783179      -211.7911
  38   1.0000      -7.783033      -211.7871
  39   1.0000      -7.782969      -211.7854
  40   1.0000      -7.694047      -209.3657
  41   1.0000      -7.693889      -209.3614
  42   1.0000      -7.693196      -209.3425
  43   1.0000      -7.693056      -209.3387
  44   1.0000      -5.751797      -156.5144
  45   1.0000      -5.751620      -156.5095
  46   1.0000      -5.751571      -156.5082
  47   1.0000      -5.751372      -156.5028
  48   1.0000      -5.748391      -156.4217
  49   1.0000      -5.748249      -156.4178
  50   1.0000      -5.748206      -156.4166
  51   1.0000      -5.748153      -156.4152
  52   1.0000      -5.748133      -156.4147
  53   1.0000      -5.747970      -156.4102
  54   1.0000      -5.747959      -156.4099
  55   1.0000      -5.747927      -156.4090
  56   1.0000      -5.743823      -156.2974
  57   1.0000      -5.743719      -156.2945
  58   1.0000      -5.743539      -156.2896
  59   1.0000      -5.743488      -156.2883
  60   1.0000      -5.741608      -156.2371
  61   1.0000      -5.741409      -156.2317
  62   1.0000      -5.741369      -156.2306
  63   1.0000      -5.741170      -156.2252
  64   1.0000      -5.739130      -156.1697
  65   1.0000      -5.738985      -156.1657
  66   1.0000      -5.738861      -156.1623
  67   1.0000      -5.738773      -156.1599
  68   1.0000      -5.659365      -153.9992
  69   1.0000      -5.659176      -153.9940
  70   1.0000      -5.658527      -153.9763
  71   1.0000      -5.658375      -153.9722
  72   1.0000      -5.652676      -153.8171
  73   1.0000      -5.652540      -153.8134
  74   1.0000      -5.651875      -153.7953
  75   1.0000      -5.651732      -153.7915
  76   1.0000      -5.651374      -153.7817
  77   1.0000      -5.651216      -153.7774
  78   1.0000      -5.650491      -153.7577
  79   1.0000      -5.650343      -153.7537
  80   1.0000      -2.443575       -66.4930
  81   1.0000      -1.484862       -40.4051
  82   1.0000      -1.473210       -40.0881
  83   1.0000      -1.472407       -40.0662
  84   1.0000      -0.709116       -19.2960
  85   1.0000      -0.708397       -19.2765
  86   1.0000      -0.685244       -18.6464
  87   1.0000      -0.684337       -18.6218
  88   1.0000      -0.649395       -17.6709
  89   1.0000      -0.630945       -17.1689
  90   1.0000      -0.630194       -17.1484
  91   1.0000      -0.617039       -16.7905
  92   1.0000      -0.616363       -16.7721
  93   1.0000      -0.574149       -15.6234
  94   1.0000      -0.573949       -15.6180
  95   1.0000      -0.573042       -15.5933
  96   1.0000      -0.571903       -15.5623
  97   1.0000      -0.496565       -13.5122
  98   1.0000      -0.495780       -13.4909
  99   1.0000      -0.495075       -13.4717
 100   1.0000      -0.494845       -13.4654
 101   1.0000      -0.479452       -13.0465
 102   1.0000      -0.476819       -12.9749
 103   1.0000      -0.446901       -12.1608
 104   1.0000      -0.444668       -12.1000
 105   1.0000      -0.416007       -11.3201
 106   1.0000      -0.410758       -11.1773
 107   1.0000      -0.355058        -9.6616
 108   1.0000      -0.354278        -9.6404
 109   1.0000      -0.326381        -8.8813
 110   1.0000      -0.325486        -8.8569
 111   1.0000      -0.318629        -8.6703
 112   1.0000      -0.314021        -8.5449
 113   1.0000      -0.303986        -8.2719
 114   1.0000      -0.303154        -8.2493
 115   1.0000      -0.292231        -7.9520
 116   1.0000      -0.291231        -7.9248
 117   1.0000      -0.257699        -7.0124
 118   1.0000      -0.257343        -7.0027
 119   1.0000      -0.255560        -6.9541
 120   1.0000      -0.255201        -6.9444
 121   1.0000      -0.234233        -6.3738
 122   1.0000      -0.233433        -6.3520
 123   1.0000      -0.231014        -6.2862
 124   1.0000      -0.229711        -6.2508
 125   1.0000      -0.219652        -5.9770
 126   1.0000      -0.217860        -5.9283
 127   1.0000      -0.213869        -5.8197
 128   1.0000      -0.211393        -5.7523
 129   1.0000      -0.192680        -5.2431
 130   1.0000      -0.186877        -5.0852
 131   1.0000      -0.185697        -5.0531
 132   1.0000      -0.184435        -5.0187
 133   1.0000      -0.179172        -4.8755
 134   1.0000      -0.159050        -4.3280
 135   1.0000      -0.151351        -4.1185
 136   1.0000      -0.146527        -3.9872
 137   1.0000      -0.135497        -3.6871
 138   1.0000      -0.133883        -3.6431
 139   1.0000      -0.132659        -3.6098
 140   1.0000      -0.124795        -3.3958
 141   1.0000      -0.120663        -3.2834
 142   1.0000      -0.113035        -3.0758
 143   1.0000      -0.109371        -2.9761
 144   1.0000      -0.099296        -2.7020
 145   1.0000      -0.097767        -2.6604
 146   1.0000      -0.097057        -2.6411
 147   1.0000      -0.094434        -2.5697
 148   1.0000      -0.074039        -2.0147
 149   1.0000      -0.067613        -1.8398
 150   1.0000      -0.067156        -1.8274
 151   1.0000      -0.051969        -1.4141
 152   1.0000      -0.045154        -1.2287
 153   1.0000      -0.037207        -1.0124
 154   1.0000      -0.036692        -0.9984
 155   1.0000      -0.030967        -0.8426
 156   1.0000      -0.024481        -0.6662
 157   1.0000      -0.019014        -0.5174
 158   1.0000      -0.014860        -0.4044
 159   1.0000       0.020842         0.5671
 160   1.0000       0.041663         1.1337
 161   0.0000       0.137046         3.7292
 162   0.0000       0.137325         3.7368
 163   0.0000       0.162170         4.4129
 164   0.0000       0.162353         4.4178
 165   0.0000       0.170764         4.6467

                 SPIN DOWN ORBITALS
  NO   OCC          E(Eh)            E(eV)
   0   1.0000    -196.674662     -5351.7896
   1   1.0000     -88.733463     -2414.5603
   2   1.0000     -88.733287     -2414.5555
   3   1.0000     -88.733144     -2414.5516
   4   1.0000     -88.732951     -2414.5464
   5   1.0000     -88.730091     -2414.4685
   6   1.0000     -88.730003     -2414.4661
   7   1.0000     -88.729741     -2414.4590
   8   1.0000     -88.729706     -2414.4580
   9   1.0000     -88.639943     -2412.0155
  10   1.0000     -88.639668     -2412.0080
  11   1.0000     -88.639057     -2411.9914
  12   1.0000     -88.638867     -2411.9862
  13   1.0000     -22.034981      -599.6023
  14   1.0000     -18.893560      -514.1199
  15   1.0000     -18.551093      -504.8009
  16   1.0000     -18.535148      -504.3670
  17   1.0000     -18.534979      -504.3624
  18   1.0000     -10.075831      -274.1773
  19   1.0000     -10.075624      -274.1717
  20   1.0000     -10.064008      -273.8556
  21   1.0000     -10.064005      -273.8555
  22   1.0000     -10.063452      -273.8405
  23   1.0000     -10.063384      -273.8386
  24   1.0000     -10.051899      -273.5261
  25   1.0000     -10.051285      -273.5094
  26   1.0000     -10.048690      -273.4387
  27   1.0000     -10.048151      -273.4241
  28   1.0000     -10.017684      -272.5950
  29   1.0000     -10.017595      -272.5926
  30   1.0000     -10.016864      -272.5727
  31   1.0000     -10.016649      -272.5669
  32   1.0000      -7.786806      -211.8898
  33   1.0000      -7.786618      -211.8846
  34   1.0000      -7.786577      -211.8835
  35   1.0000      -7.786379      -211.8781
  36   1.0000      -7.783313      -211.7947
  37   1.0000      -7.783188      -211.7913
  38   1.0000      -7.783042      -211.7873
  39   1.0000      -7.782978      -211.7856
  40   1.0000      -7.694176      -209.3692
  41   1.0000      -7.694021      -209.3649
  42   1.0000      -7.693322      -209.3459
  43   1.0000      -7.693189      -209.3423
  44   1.0000      -5.751798      -156.5144
  45   1.0000      -5.751621      -156.5096
  46   1.0000      -5.751572      -156.5082
  47   1.0000      -5.751374      -156.5028
  48   1.0000      -5.748392      -156.4217
  49   1.0000      -5.748259      -156.4181
  50   1.0000      -5.748207      -156.4167
  51   1.0000      -5.748155      -156.4152
  52   1.0000      -5.748144      -156.4149
  53   1.0000      -5.747980      -156.4105
  54   1.0000      -5.747961      -156.4100
  55   1.0000      -5.747937      -156.4093
  56   1.0000      -5.743837      -156.2978
  57   1.0000      -5.743733      -156.2949
  58   1.0000      -5.743553      -156.2900
  59   1.0000      -5.743502      -156.2886
  60   1.0000      -5.741609      -156.2371
  61   1.0000      -5.741410      -156.2317
  62   1.0000      -5.741370      -156.2306
  63   1.0000      -5.741171      -156.2252
  64   1.0000      -5.739139      -156.1699
  65   1.0000      -5.738991      -156.1659
  66   1.0000      -5.738869      -156.1626
  67   1.0000      -5.738778      -156.1601
  68   1.0000      -5.659504      -154.0029
  69   1.0000      -5.659321      -153.9979
  70   1.0000      -5.658666      -153.9801
  71   1.0000      -5.658517      -153.9761
  72   1.0000      -5.653058      -153.8275
  73   1.0000      -5.652901      -153.8232
  74   1.0000      -5.652228      -153.8049
  75   1.0000      -5.652122      -153.8021
  76   1.0000      -5.651460      -153.7840
  77   1.0000      -5.651330      -153.7805
  78   1.0000      -5.650591      -153.7604
  79   1.0000      -5.650440      -153.7563
  80   1.0000      -2.398665       -65.2710
  81   1.0000      -1.465547       -39.8796
  82   1.0000      -1.410833       -38.3907
  83   1.0000      -1.410626       -38.3851
  84   1.0000      -0.709090       -19.2953
  85   1.0000      -0.708382       -19.2760
  86   1.0000      -0.685189       -18.6449
  87   1.0000      -0.684295       -18.6206
  88   1.0000      -0.657533       -17.8924
  89   1.0000      -0.630871       -17.1669
  90   1.0000      -0.630134       -17.1468
  91   1.0000      -0.617039       -16.7905
  92   1.0000      -0.616365       -16.7721
  93   1.0000      -0.574119       -15.6226
  94   1.0000      -0.573926       -15.6173
  95   1.0000      -0.572963       -15.5911
  96   1.0000      -0.571837       -15.5605
  97   1.0000      -0.496579       -13.5126
  98   1.0000      -0.495827       -13.4921
  99   1.0000      -0.495119       -13.4729
 100   1.0000      -0.494876       -13.4663
 101   1.0000      -0.479643       -13.0518
 102   1.0000      -0.477073       -12.9818
 103   1.0000      -0.446921       -12.1613
 104   1.0000      -0.444716       -12.1013
 105   1.0000      -0.416006       -11.3201
 106   1.0000      -0.410871       -11.1804
 107   1.0000      -0.355048        -9.6614
 108   1.0000      -0.354273        -9.6403
 109   1.0000      -0.326365        -8.8808
 110   1.0000      -0.325477        -8.8567
 111   1.0000      -0.318549        -8.6682
 112   1.0000      -0.314049        -8.5457
 113   1.0000      -0.303932        -8.2704
 114   1.0000      -0.303131        -8.2486
 115   1.0000      -0.292225        -7.9518
 116   1.0000      -0.291228        -7.9247
 117   1.0000      -0.257583        -7.0092
 118   1.0000      -0.257219        -6.9993
 119   1.0000      -0.255525        -6.9532
 120   1.0000      -0.255174        -6.9436
 121   1.0000      -0.234195        -6.3728
 122   1.0000      -0.233412        -6.3515
 123   1.0000      -0.230963        -6.2848
 124   1.0000      -0.229682        -6.2500
 125   1.0000      -0.219292        -5.9672
 126   1.0000      -0.217752        -5.9253
 127   1.0000      -0.213657        -5.8139
 128   1.0000      -0.211260        -5.7487
 129   1.0000      -0.190965        -5.1964
 130   1.0000      -0.186811        -5.0834
 131   1.0000      -0.185316        -5.0427
 132   1.0000      -0.184212        -5.0127
 133   1.0000      -0.179061        -4.8725
 134   1.0000      -0.158431        -4.3111
 135   1.0000      -0.151181        -4.1138
 136   1.0000      -0.146451        -3.9851
 137   1.0000      -0.134852        -3.6695
 138   1.0000      -0.133551        -3.6341
 139   1.0000      -0.132441        -3.6039
 140   1.0000      -0.124201        -3.3797
 141   1.0000      -0.120334        -3.2745
 142   1.0000      -0.114853        -3.1253
 143   1.0000      -0.110954        -3.0192
 144   1.0000      -0.099276        -2.7014
 145   1.0000      -0.098082        -2.6690
 146   1.0000      -0.097055        -2.6410
 147   1.0000      -0.094769        -2.5788
 148   1.0000      -0.070216        -1.9107
 149   1.0000      -0.067598        -1.8394
 150   1.0000      -0.067162        -1.8276
 151   1.0000      -0.049379        -1.3437
 152   1.0000      -0.044227        -1.2035
 153   1.0000      -0.037248        -1.0136
 154   1.0000      -0.036152        -0.9837
 155   1.0000      -0.031015        -0.8440
 156   1.0000      -0.025559        -0.6955
 157   1.0000      -0.015291        -0.4161
 158   1.0000       0.021129         0.5750
 159   1.0000       0.040588         1.1045
 160   0.0000       0.137050         3.7293
 161   0.0000       0.137318         3.7366
 162   0.0000       0.156203         4.2505
 163   0.0000       0.162308         4.4166
 164   0.0000       0.163695         4.4544

MULLIKEN ATOMIC CHARGES AND SPIN POPULATIONS
--------------------------------------------
   0 V :    0.471693    1.211321
   1 S :   -0.287575   -0.023730
   2 S :   -0.287210   -0.026033
   3 S :   -0.293061   -0.022530
   4 S :   -0.288479   -0.025002
   5 O :   -0.468116   -0.146907
   6 C :   -0.082377    0.009495
   7 C :   -0.079369    0.008241
   8 C :   -0.090920    0.007809
   9 C :   -0.077443    0.007425
  10 S :    0.100718   -0.000590
  11 S :    0.099715   -0.000606
  12 S :    0.098385   -0.000392
  13 S :    0.099989   -0.000334
  14 C :   -0.213577    0.001512
  15 C :   -0.212770    0.001010
  16 C :   -0.191735   -0.000072
  17 C :   -0.188266   -0.000414
  18 S :    0.009045   -0.000113
  19 S :    0.008737   -0.000112
  20 S :    0.007645   -0.000067
  21 S :    0.007021   -0.000071
  22 C :   -0.298668    0.000000
  23 C :   -0.299565   -0.000004
  24 C :   -0.158469   -0.000010
  25 H :    0.142663   -0.000002
  26 H :    0.112991   -0.000004
  27 H :    0.083407   -0.000001
  28 H :    0.091781   -0.000001
  29 H :    0.113293   -0.000005
  30 H :    0.142958   -0.000001
  31 C :   -0.299484    0.000194
  32 C :   -0.300648    0.000186
  33 C :   -0.157959   -0.000235
  34 H :    0.142359   -0.000017
  35 H :    0.113516    0.000018
  36 H :    0.092318    0.000023
  37 H :    0.082630    0.000015
  38 H :    0.113035    0.000021
  39 H :    0.141792   -0.000018
Sum of atomic charges         :   -2.0000000

LOEWDIN ATOMIC CHARGES AND SPIN POPULATIONS
-------------------------------------------
   0 V :   -0.155415    1.164582
   1 S :    0.083000   -0.015390
   2 S :    0.081794   -0.016702
   3 S :    0.077460   -0.014631
   4 S :    0.080425   -0.015797
   5 O :   -0.319324   -0.131802
   6 C :   -0.550304    0.008731
   7 C :   -0.551604    0.008258
   8 C :   -0.553295    0.008202
   9 C :   -0.550795    0.007626
  10 S :    0.472177   -0.000876
  11 S :    0.470801   -0.000962
  12 S :    0.469066   -0.000848
  13 S :    0.470946   -0.000787
  14 C :   -0.464829    0.000162
  15 C :   -0.464256   -0.000081
  16 C :   -0.622404    0.000471
  17 C :   -0.620048    0.000086
  18 S :    0.358713   -0.000090
  19 S :    0.359530   -0.000086
  20 S :    0.356658   -0.000072
  21 S :    0.357455   -0.000074
  22 C :   -0.283447   -0.000006
  23 C :   -0.283277   -0.000010
  24 C :   -0.176348   -0.000002
  25 H :    0.062917   -0.000002
  26 H :    0.053698   -0.000002
  27 H :    0.058117   -0.000002
  28 H :    0.060585   -0.000001
  29 H :    0.053862   -0.000003
  30 H :    0.063036   -0.000001
  31 C :   -0.284184    0.000043
  32 C :   -0.283873    0.000036
  33 C :   -0.176372    0.000006
  34 H :    0.062285   -0.000001
  35 H :    0.053617    0.000008
  36 H :    0.060302    0.000004
  37 H :    0.057766    0.000002
  38 H :    0.053546    0.000009
  39 H :    0.062015   -0.000001

  Mayer bond orders larger than 0.100000
B(  0-V ,  1-S ) :   0.7770 B(  0-V ,  2-S ) :   0.7681 B(  0-V ,  3-S ) :   0.7596
B(  0-V ,  4-S ) :   0.7807 B(  0-V ,  5-O ) :   2.1481 B(  1-S ,  8-C ) :   1.1053
B(  2-S ,  6-C ) :   1.1077 B(  3-S ,  9-C ) :   1.1037 B(  4-S ,  7-C ) :   1.1005
B(  6-C ,  7-C ) :   1.6850 B(  6-C , 10-S ) :   0.9384 B(  7-C , 11-S ) :   0.9351
B(  8-C ,  9-C ) :   1.6986 B(  8-C , 13-S ) :   0.9360 B(  9-C , 12-S ) :   0.9316
B( 10-S , 14-C ) :   1.2477 B( 11-S , 14-C ) :   1.2488 B( 12-S , 15-C ) :   1.2451
B( 13-S , 15-C ) :   1.2447 B( 14-C , 16-C ) :   1.4513 B( 15-C , 17-C ) :   1.4563
B( 16-C , 18-S ) :   1.0884 B( 16-C , 19-S ) :   1.0881 B( 17-C , 20-S ) :   1.0849
B( 17-C , 21-S ) :   1.0846 B( 18-S , 32-C ) :   0.9915 B( 19-S , 31-C ) :   0.9921
B( 20-S , 23-C ) :   0.9914 B( 21-S , 22-C ) :   0.9913 B( 22-C , 24-C ) :   0.9146
B( 22-C , 25-H ) :   0.9652 B( 22-C , 26-H ) :   0.9653 B( 23-C , 24-C ) :   0.9140
B( 23-C , 29-H ) :   0.9654 B( 23-C , 30-H ) :   0.9651 B( 24-C , 27-H ) :   0.9624
B( 24-C , 28-H ) :   0.9714 B( 31-C , 33-C ) :   0.9141 B( 31-C , 38-H ) :   0.9655
B( 31-C , 39-H ) :   0.9656 B( 32-C , 33-C ) :   0.9131 B( 32-C , 34-H ) :   0.9657
B( 32-C , 35-H ) :   0.9655 B( 33-C , 36-H ) :   0.9717 B( 33-C , 37-H ) :   0.9624

FINAL SINGLE POINT ENERGY     -6337.706927866802

DIPOLE MOMENT
-------------
                                X             Y             Z
Electronic contribution:     -6.68770      -4.27455      10.99579
Nuclear contribution   :      7.44101       4.78255     -12.21925
                        -----------------------------------------
Total Dipole Moment    :      0.75331       0.50800      -1.22346
                        -----------------------------------------
Magnitude (a.u.)       :      1.52394
Magnitude (Debye)      :      3.87355

Rotational constants in cm-1:     0.010755     0.000804     0.000784
Rotational constants in MHz :   322.415192    24.118201    23.494558

                             ****ORCA TERMINATED NORMALLY****
TOTAL RUN TIME: 0 days 1 hours 2 minutes 13 seconds 610 msec
