                         Program Version 5.0.4 -  RELEASE  -
|  1> ! nofrozencore ReducedPop printbasis
|  2> ! B3LYP TZVP
|  3>
|  4> %basis
|  5> newgto V "CP(PPP)" end
|  6> end
|  7>
|  8> %pal
|  9> nprocs 8
| 10> end
| 11>
| 12> % sym SymThresh 1e-2 end
| 13> * xyz -2 2
| 14> V -0.7543667719625287 0.8061818039885933 0.1799948127822912
| 15> S -1.8991413623548496 -0.6161807097620035 -1.4631788042013734
| 16> S -1.124617843242914 -1.0210006542152787 1.7528470189182594
| 17> S 0.5939465257668493 1.5645486641186725 -1.7326608972184854
| 18> S 1.3374545547157448 1.0488235459968662 1.4018985227493
| 19> O -1.721131887162938 1.9821580886499932 0.6490726846111694
| 20> C -0.20034458986131826 -0.40620045894135554 3.1432922837883104
| 21> C 0.8260919876969689 0.451793340948467 2.9962258005263047
| 22> C -1.4861950250455094 0.23406223374290439 -2.9742422339821717
| 23> C -0.474021403416792 1.1137232208431609 -3.0841309729266544
| 24> S -0.21528400355637842 -1.3830660465701923 4.672164704449045
| 25> S 2.0436636993546826 0.48949298044211786 4.338858736819375
| 26> S 0.20657018310930375 1.3494774240497462 -4.753180968238454
| 27> S -2.0161479542737175 -0.5761514750056385 -4.51250192373042
| 28> C 1.2108221277975153 -0.6426722231431868 5.415906520536437
| 29> C -0.9207415650235552 0.2838044818493324 -5.599357448744472
| 30> C 1.5836545453489452 -0.8559147718520768 6.716041903924219
| 31> C -0.9980539624424241 0.20423313563004425 -6.962047593428582
| 32> S 0.653150039396486 -1.9260079013390379 7.800284233939041
| 33> S 3.0078391757285474 -0.045030410270733026 7.423326758128896
| 34> S -2.1765808802281197 -0.8465849766280162 -7.781282590868238
| 35> S 0.11090606274393067 1.1090547460161857 -8.018357531868956
| 36> C 0.985093049936863 -0.3397317445066453 -8.768445025617574
| 37> C -0.9736754378041795 -2.013617153854397 -8.566708896571786
| 38> C 0.04835497224442606 -1.3239556365907261 -9.475381299142947
| 39> H 1.5499284313685167 -0.8379958631639767 -7.977273582810395
| 40> H 1.6969509971246386 0.08133905582279628 -9.483118081002711
| 41> H 0.6660317086198292 -2.103229505454592 -9.943704143336534
| 42> H -0.4800758023409977 -0.802037093210003 -10.279609860521113
| 43> H -1.5783101959305237 -2.7157006925155858 -9.146483326725859
| 44> H -0.4747755085582261 -2.5695842436724092 -7.769809295832348
| 45> C 2.162643214767122 0.9023165358511557 8.77113965662372
| 46> C 0.17279024678405247 -0.6794978315507408 9.083274302068453
| 47> C 1.3668783443359884 0.02030573278974227 9.734237510664878
| 48> H -0.49729139691391666 0.047919572105291824 8.619193086945128
| 49> H -0.39556574309930265 -1.2411803323621915 9.828856025078686
| 50> H 2.0308747415146415 -0.7282272712697492 10.178443386913091
| 51> H 0.9925933811914711 0.6529351919431289 10.551542072279581
| 52> H 2.9647638698935266 1.4223024052541753 9.300853705059076
| 53> H 1.5168592329171713 1.6517571693906914 8.307641896055365
| 54> *
| 55>
| 56> % eprnmr
| 57> gtensor true
| 58> Nuclei = all H {aiso,adip,aorb,fgrad,rho}
| 59> Nuclei = all V {aiso,adip,aorb,fgrad,rho}
| 60> end
| 61>
| 62>                          ****END OF INPUT****

CARTESIAN COORDINATES (ANGSTROEM)
---------------------------------
  V     -0.751986    0.803657    0.181624
  S     -1.896761   -0.618706   -1.461550
  S     -1.122237   -1.023526    1.754476
  S      0.596327    1.562023   -1.731032
  S      1.339835    1.046298    1.403528
  O     -1.718751    1.979633    0.650702
  C     -0.197964   -0.408726    3.144921
  C      0.828473    0.449268    2.997855
  C     -1.483814    0.231537   -2.972613
  C     -0.471641    1.111198   -3.082502
  S     -0.212903   -1.385591    4.673794
  S      2.046045    0.486968    4.340488
  S      0.208951    1.346952   -4.751552
  S     -2.013767   -0.578677   -4.510873
  C      1.213203   -0.645197    5.417536
  C     -0.918361    0.281279   -5.597728
  C      1.586035   -0.858440    6.717671
  C     -0.995673    0.201708   -6.960418
  S      0.655531   -1.928533    7.801913
  S      3.010220   -0.047556    7.424956
  S     -2.174200   -0.849110   -7.779653
  S      0.113287    1.106530   -8.016728
  C      0.987474   -0.342257   -8.766816
  C     -0.971295   -2.016142   -8.565080
  C      0.050736   -1.326481   -9.473752
  H      1.552309   -0.840521   -7.975644
  H      1.699332    0.078814   -9.481489
  H      0.668413   -2.105755   -9.942075
  H     -0.477695   -0.804562  -10.277981
  H     -1.575929   -2.718226   -9.144854
  H     -0.472395   -2.572109   -7.768180
  C      2.165024    0.899791    8.772769
  C      0.175171   -0.682023    9.084903
  C      1.369259    0.017781    9.735867
  H     -0.494911    0.045394    8.620822
  H     -0.393185   -1.243706    9.830485
  H      2.033256   -0.730752   10.180073
  H      0.994974    0.650410   10.553171
  H      2.967145    1.419777    9.302483
  H      1.519240    1.649232    8.309271

 Total Charge           Charge          ....   -2
 Multiplicity           Mult            ....    2
 Number of Electrons    NEL             ....  321
 Basis Dimension        Dim             ....  681

ORBITAL ENERGIES
----------------
                 SPIN UP ORBITALS
  NO   OCC          E(Eh)            E(eV)
   0   1.0000    -196.669082     -5351.6378
   1   1.0000     -88.734235     -2414.5813
   2   1.0000     -88.734231     -2414.5812
   3   1.0000     -88.733003     -2414.5478
   4   1.0000     -88.732843     -2414.5434
   5   1.0000     -88.730615     -2414.4828
   6   1.0000     -88.730350     -2414.4756
   7   1.0000     -88.729748     -2414.4592
   8   1.0000     -88.729713     -2414.4582
   9   1.0000     -88.640183     -2412.0220
  10   1.0000     -88.639752     -2412.0103
  11   1.0000     -88.639640     -2412.0072
  12   1.0000     -88.639495     -2412.0033
  13   1.0000     -22.044771      -599.8687
  14   1.0000     -18.885193      -513.8922
  15   1.0000     -18.551390      -504.8090
  16   1.0000     -18.545987      -504.6620
  17   1.0000     -18.545827      -504.6576
  18   1.0000     -10.076234      -274.1883
  19   1.0000     -10.075817      -274.1769
  20   1.0000     -10.064371      -273.8655
  21   1.0000     -10.064345      -273.8647
  22   1.0000     -10.063321      -273.8369
  23   1.0000     -10.063243      -273.8348
  24   1.0000     -10.052033      -273.5297
  25   1.0000     -10.051093      -273.5041
  26   1.0000     -10.050792      -273.4960
  27   1.0000     -10.048035      -273.4209
  28   1.0000     -10.021388      -272.6958
  29   1.0000     -10.021073      -272.6873
  30   1.0000     -10.020593      -272.6742
  31   1.0000     -10.020190      -272.6632
  32   1.0000      -7.787637      -211.9124
  33   1.0000      -7.787611      -211.9117
  34   1.0000      -7.786570      -211.8833
  35   1.0000      -7.786395      -211.8786
  36   1.0000      -7.783477      -211.7992
  37   1.0000      -7.783254      -211.7931
  38   1.0000      -7.782733      -211.7789
  39   1.0000      -7.782698      -211.7780
  40   1.0000      -7.694162      -209.3688
  41   1.0000      -7.693850      -209.3603
  42   1.0000      -7.693739      -209.3573
  43   1.0000      -7.693649      -209.3548
  44   1.0000      -5.752665      -156.5380
  45   1.0000      -5.752643      -156.5374
  46   1.0000      -5.751528      -156.5070
  47   1.0000      -5.751343      -156.5020
  48   1.0000      -5.749182      -156.4432
  49   1.0000      -5.749168      -156.4428
  50   1.0000      -5.748445      -156.4232
  51   1.0000      -5.748218      -156.4170
  52   1.0000      -5.748174      -156.4158
  53   1.0000      -5.748009      -156.4113
  54   1.0000      -5.747710      -156.4031
  55   1.0000      -5.747690      -156.4026
  56   1.0000      -5.744076      -156.3042
  57   1.0000      -5.743863      -156.2985
  58   1.0000      -5.743342      -156.2843
  59   1.0000      -5.743305      -156.2833
  60   1.0000      -5.742421      -156.2592
  61   1.0000      -5.742393      -156.2585
  62   1.0000      -5.741345      -156.2299
  63   1.0000      -5.741182      -156.2255
  64   1.0000      -5.739274      -156.1736
  65   1.0000      -5.739028      -156.1669
  66   1.0000      -5.738477      -156.1519
  67   1.0000      -5.738430      -156.1506
  68   1.0000      -5.659644      -154.0067
  69   1.0000      -5.659309      -153.9976
  70   1.0000      -5.659217      -153.9951
  71   1.0000      -5.659132      -153.9928
  72   1.0000      -5.652733      -153.8187
  73   1.0000      -5.652424      -153.8103
  74   1.0000      -5.652314      -153.8073
  75   1.0000      -5.652240      -153.8053
  76   1.0000      -5.651456      -153.7839
  77   1.0000      -5.651101      -153.7743
  78   1.0000      -5.651031      -153.7724
  79   1.0000      -5.650880      -153.7683
  80   1.0000      -2.438652       -66.3591
  81   1.0000      -1.479762       -40.2664
  82   1.0000      -1.468224       -39.9524
  83   1.0000      -1.468039       -39.9474
  84   1.0000      -0.709208       -19.2985
  85   1.0000      -0.708868       -19.2893
  86   1.0000      -0.684456       -18.6250
  87   1.0000      -0.683453       -18.5977
  88   1.0000      -0.645211       -17.5571
  89   1.0000      -0.631083       -17.1727
  90   1.0000      -0.630170       -17.1478
  91   1.0000      -0.617884       -16.8135
  92   1.0000      -0.617540       -16.8041
  93   1.0000      -0.573353       -15.6017
  94   1.0000      -0.572052       -15.5663
  95   1.0000      -0.570266       -15.5177
  96   1.0000      -0.570116       -15.5136
  97   1.0000      -0.496469       -13.5096
  98   1.0000      -0.495417       -13.4810
  99   1.0000      -0.494905       -13.4670
 100   1.0000      -0.493738       -13.4353
 101   1.0000      -0.476236       -12.9590
 102   1.0000      -0.472925       -12.8690
 103   1.0000      -0.447400       -12.1744
 104   1.0000      -0.444630       -12.0990
 105   1.0000      -0.417572       -11.3627
 106   1.0000      -0.411530       -11.1983
 107   1.0000      -0.355979        -9.6867
 108   1.0000      -0.354388        -9.6434
 109   1.0000      -0.327511        -8.9120
 110   1.0000      -0.325398        -8.8545
 111   1.0000      -0.317794        -8.6476
 112   1.0000      -0.312835        -8.5127
 113   1.0000      -0.303300        -8.2532
 114   1.0000      -0.302515        -8.2319
 115   1.0000      -0.292962        -7.9719
 116   1.0000      -0.292292        -7.9537
 117   1.0000      -0.258322        -7.0293
 118   1.0000      -0.257950        -7.0192
 119   1.0000      -0.256030        -6.9669
 120   1.0000      -0.255749        -6.9593
 121   1.0000      -0.235639        -6.4121
 122   1.0000      -0.233460        -6.3528
 123   1.0000      -0.232025        -6.3137
 124   1.0000      -0.230158        -6.2629
 125   1.0000      -0.220927        -6.0117
 126   1.0000      -0.215828        -5.8730
 127   1.0000      -0.214617        -5.8400
 128   1.0000      -0.209880        -5.7111
 129   1.0000      -0.194745        -5.2993
 130   1.0000      -0.185287        -5.0419
 131   1.0000      -0.184714        -5.0263
 132   1.0000      -0.181908        -4.9500
 133   1.0000      -0.179294        -4.8788
 134   1.0000      -0.157189        -4.2773
 135   1.0000      -0.151358        -4.1187
 136   1.0000      -0.146517        -3.9869
 137   1.0000      -0.136594        -3.7169
 138   1.0000      -0.132092        -3.5944
 139   1.0000      -0.131681        -3.5832
 140   1.0000      -0.120960        -3.2915
 141   1.0000      -0.117142        -3.1876
 142   1.0000      -0.108204        -2.9444
 143   1.0000      -0.105971        -2.8836
 144   1.0000      -0.098044        -2.6679
 145   1.0000      -0.097735        -2.6595
 146   1.0000      -0.095341        -2.5944
 147   1.0000      -0.092809        -2.5255
 148   1.0000      -0.076778        -2.0892
 149   1.0000      -0.068024        -1.8510
 150   1.0000      -0.066845        -1.8189
 151   1.0000      -0.050938        -1.3861
 152   1.0000      -0.048230        -1.3124
 153   1.0000      -0.038108        -1.0370
 154   1.0000      -0.035485        -0.9656
 155   1.0000      -0.030255        -0.8233
 156   1.0000      -0.019509        -0.5309
 157   1.0000      -0.014473        -0.3938
 158   1.0000      -0.010116        -0.2753
 159   1.0000       0.017004         0.4627
 160   1.0000       0.036013         0.9800
 161   0.0000       0.135149         3.6776
 162   0.0000       0.136887         3.7249
 163   0.0000       0.161011         4.3813
 164   0.0000       0.161541         4.3957
 165   0.0000       0.167154         4.5485

                 SPIN DOWN ORBITALS
  NO   OCC          E(Eh)            E(eV)
   0   1.0000    -196.669227     -5351.6417
   1   1.0000     -88.734236     -2414.5813
   2   1.0000     -88.734232     -2414.5812
   3   1.0000     -88.733003     -2414.5478
   4   1.0000     -88.732844     -2414.5434
   5   1.0000     -88.730626     -2414.4831
   6   1.0000     -88.730360     -2414.4759
   7   1.0000     -88.729756     -2414.4594
   8   1.0000     -88.729720     -2414.4584
   9   1.0000     -88.640324     -2412.0258
  10   1.0000     -88.639895     -2412.0142
  11   1.0000     -88.639765     -2412.0106
  12   1.0000     -88.639620     -2412.0067
  13   1.0000     -22.030044      -599.4680
  14   1.0000     -18.888875      -513.9924
  15   1.0000     -18.546218      -504.6683
  16   1.0000     -18.530223      -504.2330
  17   1.0000     -18.529854      -504.2230
  18   1.0000     -10.076221      -274.1879
  19   1.0000     -10.075816      -274.1769
  20   1.0000     -10.064370      -273.8654
  21   1.0000     -10.064343      -273.8647
  22   1.0000     -10.063322      -273.8369
  23   1.0000     -10.063243      -273.8348
  24   1.0000     -10.052032      -273.5297
  25   1.0000     -10.051093      -273.5041
  26   1.0000     -10.050774      -273.4955
  27   1.0000     -10.048029      -273.4208
  28   1.0000     -10.021140      -272.6891
  29   1.0000     -10.020806      -272.6800
  30   1.0000     -10.020347      -272.6675
  31   1.0000     -10.019942      -272.6565
  32   1.0000      -7.787638      -211.9124
  33   1.0000      -7.787612      -211.9117
  34   1.0000      -7.786570      -211.8834
  35   1.0000      -7.786396      -211.8786
  36   1.0000      -7.783489      -211.7995
  37   1.0000      -7.783265      -211.7934
  38   1.0000      -7.782741      -211.7792
  39   1.0000      -7.782706      -211.7782
  40   1.0000      -7.694292      -209.3723
  41   1.0000      -7.693964      -209.3634
  42   1.0000      -7.693871      -209.3609
  43   1.0000      -7.693764      -209.3580
  44   1.0000      -5.752666      -156.5380
  45   1.0000      -5.752645      -156.5374
  46   1.0000      -5.751529      -156.5071
  47   1.0000      -5.751343      -156.5020
  48   1.0000      -5.749183      -156.4432
  49   1.0000      -5.749169      -156.4428
  50   1.0000      -5.748459      -156.4235
  51   1.0000      -5.748231      -156.4173
  52   1.0000      -5.748175      -156.4158
  53   1.0000      -5.748009      -156.4113
  54   1.0000      -5.747719      -156.4034
  55   1.0000      -5.747699      -156.4028
  56   1.0000      -5.744091      -156.3046
  57   1.0000      -5.743877      -156.2989
  58   1.0000      -5.743354      -156.2846
  59   1.0000      -5.743316      -156.2836
  60   1.0000      -5.742422      -156.2592
  61   1.0000      -5.742394      -156.2585
  62   1.0000      -5.741346      -156.2300
  63   1.0000      -5.741183      -156.2255
  64   1.0000      -5.739288      -156.1740
  65   1.0000      -5.739042      -156.1673
  66   1.0000      -5.738483      -156.1521
  67   1.0000      -5.738437      -156.1508
  68   1.0000      -5.659792      -154.0108
  69   1.0000      -5.659440      -154.0012
  70   1.0000      -5.659363      -153.9991
  71   1.0000      -5.659267      -153.9965
  72   1.0000      -5.653084      -153.8282
  73   1.0000      -5.652800      -153.8205
  74   1.0000      -5.652675      -153.8171
  75   1.0000      -5.652607      -153.8153
  76   1.0000      -5.651574      -153.7871
  77   1.0000      -5.651149      -153.7756
  78   1.0000      -5.651144      -153.7754
  79   1.0000      -5.650930      -153.7696
  80   1.0000      -2.394347       -65.1535
  81   1.0000      -1.460816       -39.7508
  82   1.0000      -1.407445       -38.2985
  83   1.0000      -1.406210       -38.2649
  84   1.0000      -0.709190       -19.2980
  85   1.0000      -0.708839       -19.2885
  86   1.0000      -0.684389       -18.6232
  87   1.0000      -0.683396       -18.5962
  88   1.0000      -0.653100       -17.7717
  89   1.0000      -0.631002       -17.1704
  90   1.0000      -0.630093       -17.1457
  91   1.0000      -0.617883       -16.8134
  92   1.0000      -0.617542       -16.8042
  93   1.0000      -0.573254       -15.5990
  94   1.0000      -0.571957       -15.5637
  95   1.0000      -0.570220       -15.5165
  96   1.0000      -0.570074       -15.5125
  97   1.0000      -0.496462       -13.5094
  98   1.0000      -0.495427       -13.4813
  99   1.0000      -0.494923       -13.4675
 100   1.0000      -0.493753       -13.4357
 101   1.0000      -0.476401       -12.9635
 102   1.0000      -0.473152       -12.8751
 103   1.0000      -0.447399       -12.1743
 104   1.0000      -0.444668       -12.1000
 105   1.0000      -0.417545       -11.3620
 106   1.0000      -0.411605       -11.2003
 107   1.0000      -0.355965        -9.6863
 108   1.0000      -0.354380        -9.6432
 109   1.0000      -0.327491        -8.9115
 110   1.0000      -0.325386        -8.8542
 111   1.0000      -0.317655        -8.6438
 112   1.0000      -0.312826        -8.5124
 113   1.0000      -0.303231        -8.2513
 114   1.0000      -0.302478        -8.2309
 115   1.0000      -0.292950        -7.9716
 116   1.0000      -0.292286        -7.9535
 117   1.0000      -0.258219        -7.0265
 118   1.0000      -0.257793        -7.0149
 119   1.0000      -0.255980        -6.9656
 120   1.0000      -0.255705        -6.9581
 121   1.0000      -0.235580        -6.4105
 122   1.0000      -0.233453        -6.3526
 123   1.0000      -0.231965        -6.3121
 124   1.0000      -0.230119        -6.2618
 125   1.0000      -0.220569        -6.0020
 126   1.0000      -0.215636        -5.8678
 127   1.0000      -0.214407        -5.8343
 128   1.0000      -0.209714        -5.7066
 129   1.0000      -0.193488        -5.2651
 130   1.0000      -0.185180        -5.0390
 131   1.0000      -0.184463        -5.0195
 132   1.0000      -0.181158        -4.9296
 133   1.0000      -0.179170        -4.8755
 134   1.0000      -0.156298        -4.2531
 135   1.0000      -0.151146        -4.1129
 136   1.0000      -0.146438        -3.9848
 137   1.0000      -0.136268        -3.7080
 138   1.0000      -0.131679        -3.5832
 139   1.0000      -0.131309        -3.5731
 140   1.0000      -0.120030        -3.2662
 141   1.0000      -0.116767        -3.1774
 142   1.0000      -0.110047        -2.9945
 143   1.0000      -0.107110        -2.9146
 144   1.0000      -0.098091        -2.6692
 145   1.0000      -0.097755        -2.6601
 146   1.0000      -0.095663        -2.6031
 147   1.0000      -0.093469        -2.5434
 148   1.0000      -0.072450        -1.9715
 149   1.0000      -0.068025        -1.8511
 150   1.0000      -0.066839        -1.8188
 151   1.0000      -0.048311        -1.3146
 152   1.0000      -0.047367        -1.2889
 153   1.0000      -0.037687        -1.0255
 154   1.0000      -0.034565        -0.9406
 155   1.0000      -0.030223        -0.8224
 156   1.0000      -0.020623        -0.5612
 157   1.0000      -0.010151        -0.2762
 158   1.0000       0.015795         0.4298
 159   1.0000       0.034997         0.9523
 160   0.0000       0.134961         3.6725
 161   0.0000       0.136780         3.7220
 162   0.0000       0.156861         4.2684
 163   0.0000       0.161355         4.3907
 164   0.0000       0.163446         4.4476

MULLIKEN ATOMIC CHARGES AND SPIN POPULATIONS
--------------------------------------------
   0 V :    0.457583    1.195491
   1 S :   -0.283223   -0.023715
   2 S :   -0.270535   -0.022291
   3 S :   -0.279888   -0.024898
   4 S :   -0.266963   -0.022977
   5 O :   -0.482460   -0.142316
   6 C :   -0.083167    0.011533
   7 C :   -0.082753    0.009607
   8 C :   -0.083211    0.010222
   9 C :   -0.083966    0.009544
  10 S :    0.094376   -0.001197
  11 S :    0.095216   -0.001208
  12 S :    0.094027   -0.000479
  13 S :    0.093750   -0.000406
  14 C :   -0.200670    0.002507
  15 C :   -0.219565    0.001723
  16 C :   -0.205081   -0.000188
  17 C :   -0.194736   -0.000789
  18 S :    0.008194   -0.000144
  19 S :    0.008310   -0.000143
  20 S :    0.011166   -0.000022
  21 S :    0.011065   -0.000028
  22 C :   -0.293898   -0.000023
  23 C :   -0.294041   -0.000022
  24 C :   -0.168693    0.000016
  25 H :    0.142422    0.000003
  26 H :    0.113351   -0.000006
  27 H :    0.082773   -0.000006
  28 H :    0.091940   -0.000002
  29 H :    0.113276   -0.000007
  30 H :    0.142672    0.000003
  31 C :   -0.299680    0.000212
  32 C :   -0.300440    0.000205
  33 C :   -0.162272   -0.000258
  34 H :    0.143214   -0.000013
  35 H :    0.115152    0.000020
  36 H :    0.094189    0.000041
  37 H :    0.084515    0.000005
  38 H :    0.114932    0.000022
  39 H :    0.143122   -0.000013
Sum of atomic charges         :   -2.0000000

LOEWDIN ATOMIC CHARGES AND SPIN POPULATIONS
-------------------------------------------
   0 V :   -0.208297    1.150276
   1 S :    0.074988   -0.014851
   2 S :    0.087811   -0.013193
   3 S :    0.076359   -0.015835
   4 S :    0.090990   -0.013710
   5 O :   -0.327801   -0.127780
   6 C :   -0.531676    0.010218
   7 C :   -0.533277    0.008560
   8 C :   -0.531920    0.009786
   9 C :   -0.531700    0.008976
  10 S :    0.463660   -0.001152
  11 S :    0.463829   -0.001179
  12 S :    0.462255   -0.000708
  13 S :    0.462386   -0.000711
  14 C :   -0.467034    0.000488
  15 C :   -0.465773    0.000004
  16 C :   -0.617603    0.000825
  17 C :   -0.623282    0.000130
  18 S :    0.358468   -0.000099
  19 S :    0.359888   -0.000095
  20 S :    0.360976   -0.000045
  21 S :    0.360825   -0.000050
  22 C :   -0.283423   -0.000007
  23 C :   -0.283519   -0.000009
  24 C :   -0.176287   -0.000005
  25 H :    0.062238   -0.000001
  26 H :    0.053617   -0.000003
  27 H :    0.058183   -0.000002
  28 H :    0.060050   -0.000001
  29 H :    0.053571   -0.000003
  30 H :    0.062197   -0.000001
  31 C :   -0.283228    0.000072
  32 C :   -0.283020    0.000063
  33 C :   -0.176335    0.000007
  34 H :    0.062632    0.000000
  35 H :    0.054029    0.000012
  36 H :    0.060738    0.000007
  37 H :    0.057857    0.000001
  38 H :    0.054097    0.000013
  39 H :    0.062531    0.000001

  Mayer bond orders larger than 0.100000
B(  0-V ,  1-S ) :   0.7719 B(  0-V ,  2-S ) :   0.7890 B(  0-V ,  3-S ) :   0.7638
B(  0-V ,  4-S ) :   0.7926 B(  0-V ,  5-O ) :   2.1332 B(  1-S ,  8-C ) :   1.1195
B(  2-S ,  6-C ) :   1.1168 B(  3-S ,  9-C ) :   1.1239 B(  4-S ,  7-C ) :   1.1165
B(  6-C ,  7-C ) :   1.6949 B(  6-C , 10-S ) :   0.9386 B(  7-C , 11-S ) :   0.9414
B(  8-C ,  9-C ) :   1.7120 B(  8-C , 13-S ) :   0.9291 B(  9-C , 12-S ) :   0.9294
B( 10-S , 14-C ) :   1.2335 B( 11-S , 14-C ) :   1.2319 B( 12-S , 15-C ) :   1.2368
B( 13-S , 15-C ) :   1.2376 B( 14-C , 16-C ) :   1.4645 B( 15-C , 17-C ) :   1.4664
B( 16-C , 18-S ) :   1.0896 B( 16-C , 19-S ) :   1.0892 B( 17-C , 20-S ) :   1.0831
B( 17-C , 21-S ) :   1.0833 B( 18-S , 32-C ) :   0.9889 B( 19-S , 31-C ) :   0.9890
B( 20-S , 23-C ) :   0.9932 B( 21-S , 22-C ) :   0.9928 B( 22-C , 24-C ) :   0.9144
B( 22-C , 25-H ) :   0.9663 B( 22-C , 26-H ) :   0.9650 B( 23-C , 24-C ) :   0.9139
B( 23-C , 29-H ) :   0.9650 B( 23-C , 30-H ) :   0.9664 B( 24-C , 27-H ) :   0.9615
B( 24-C , 28-H ) :   0.9721 B( 31-C , 33-C ) :   0.9118 B( 31-C , 38-H ) :   0.9663
B( 31-C , 39-H ) :   0.9655 B( 32-C , 33-C ) :   0.9113 B( 32-C , 34-H ) :   0.9655
B( 32-C , 35-H ) :   0.9664 B( 33-C , 36-H ) :   0.9718 B( 33-C , 37-H ) :   0.9624

FINAL SINGLE POINT ENERGY     -6337.691422131932

DIPOLE MOMENT
-------------
                                X             Y             Z
Electronic contribution:     -9.77855       9.25197      -1.11938
Nuclear contribution   :     10.96018     -10.38951       1.26424
                        -----------------------------------------
Total Dipole Moment    :      1.18164      -1.13754       0.14486
                        -----------------------------------------
Magnitude (a.u.)       :      1.64658
Magnitude (Debye)      :      4.18528

Rotational constants in cm-1:     0.010857     0.000804     0.000784
Rotational constants in MHz :   325.480278    24.112487    23.504874

                             ****ORCA TERMINATED NORMALLY****
TOTAL RUN TIME: 0 days 1 hours 1 minutes 46 seconds 25 msec
