                         Program Version 5.0.4 -  RELEASE  -
|  1> ! nofrozencore ReducedPop printbasis
|  2> ! B3LYP TZVP
|  3>
|  4> %basis
|  5> newgto V "CP(PPP)" end
|  6> end
|  7>
|  8> %pal
|  9> nprocs 6
| 10> end
| 11>
| 12> % sym SymThresh 1e-2 end
| 13> * xyz -2 2
| 14> V 0.8824631284573762 0.5192652431037564 -0.4577952015154998
| 15> S -0.7688913541735518 2.3281077863812176 -0.8703556917302889
| 16> S 0.8744694494081425 1.1977185445031646 1.9252957204196037
| 17> S -0.3130980278153807 -0.7342336996807897 -2.2175982344370184
| 18> S 1.3090941620755723 -1.75698345162889 0.3888999577666317
| 19> O 2.2563266715523107 1.045670069138881 -1.0573593347177483
| 20> C 1.71924222828923 -0.18450269953334172 2.6177224298998913
| 21> C 1.8890478336119265 -1.3685432433821942 1.9988000173544205
| 22> C -1.57865171913831 1.719790559908311 -2.310641187835298
| 23> C -1.4023131544916172 0.4934899329616977 -2.8396533753335507
| 24> S 2.3482834755860087 -0.07452453683084093 4.300131884370739
| 25> S 2.700930197258755 -2.6622485254938515 2.9371545816219133
| 26> S -2.4061816722709524 0.0770308146761783 -4.268600878376741
| 27> S -2.7723541714334523 2.7793970379081996 -3.142911914492938
| 28> C 2.943020441497676 -1.736423031148771 4.422887386634319
| 29> C -3.298737850559756 1.6013027097149648 -4.356379031070634
| 30> C 3.538565579129119 -2.2584019217115143 5.538707611120517
| 31> C -4.2834683630708446 1.841109060797267 -5.275236433509249
| 32> S 3.830732778998718 -1.2888471843104496 7.005414418589722
| 33> S 4.098542329927721 -3.9514206836087036 5.589990597959712
| 34> S -5.133874129837727 3.409385720818769 -5.3615304122414535
| 35> S -4.810088277026407 0.5862719145183359 -6.436352085739028
| 36> C -6.561610610494972 0.41027799548007643 -5.851595547350283
| 37> C -6.843526752713616 2.816323749363719 -4.95382296322385
| 38> C -7.357649386819987 1.7223575093882344 -5.8998244251674485
| 39> H -6.544362962591449 0.0015501013753459185 -4.83437514596054
| 40> H -7.01291065233004 -0.33852212823987105 -6.5125934551364235
| 41> H -8.400093668880105 1.4989589049157361 -5.6252577777885175
| 42> H -7.362081634138598 2.1050843395730583 -6.929557467161045
| 43> H -7.479626924115627 3.707248420172311 -5.0146003470103695
| 44> H -6.8467273843357885 2.4646835706828716 -3.9153441001512683
| 45> C 5.908061960789017 -3.6379056972000443 5.818660654494839
| 46> C 5.681043341233204 -1.3725250311284418 7.01942426614076
| 47> C 6.233926959602143 -2.800039573762812 7.05788349701784
| 48> H 6.051300441886519 -0.8358319145627238 6.142189943631786
| 49> H 5.989223335560284 -0.8219482446423576 7.912633809126738
| 50> H 5.857836258607298 -3.310798651638285 7.950778864008845
| 51> H 7.327276704578177 -2.739981774409767 7.152170994018831
| 52> H 6.366380704465188 -4.627623731615707 5.8972656937066565
| 53> H 6.285651242196552 -3.1570557524255114 4.912638921826429
| 54> *
| 55>
| 56> % eprnmr
| 57> gtensor true
| 58> Nuclei = all H {aiso,adip,aorb,fgrad,rho}
| 59> Nuclei = all V {aiso,adip,aorb,fgrad,rho}
| 60> end
| 61>
| 62>                          ****END OF INPUT****

CARTESIAN COORDINATES (ANGSTROEM)
---------------------------------
  V      0.881161    0.517513   -0.454644
  S     -0.770193    2.326355   -0.867204
  S      0.873167    1.195966    1.928447
  S     -0.314400   -0.735986   -2.214447
  S      1.307792   -1.758736    0.392052
  O      2.255025    1.043918   -1.054208
  C      1.717940   -0.186255    2.620874
  C      1.887746   -1.370296    2.001952
  C     -1.579954    1.718038   -2.307490
  C     -1.403615    0.491738   -2.836502
  S      2.346981   -0.076277    4.303283
  S      2.699628   -2.664001    2.940306
  S     -2.407484    0.075278   -4.265449
  S     -2.773656    2.777645   -3.139760
  C      2.941718   -1.738175    4.426039
  C     -3.300040    1.599550   -4.353227
  C      3.537264   -2.260154    5.541859
  C     -4.284770    1.839357   -5.272085
  S      3.829431   -1.290600    7.008566
  S      4.097240   -3.953173    5.593142
  S     -5.135176    3.407633   -5.358379
  S     -4.811390    0.584520   -6.433201
  C     -6.562913    0.408526   -5.848444
  C     -6.844829    2.814571   -4.950671
  C     -7.358951    1.720605   -5.896673
  H     -6.545665   -0.000202   -4.831224
  H     -7.014213   -0.340274   -6.509442
  H     -8.401396    1.497207   -5.622106
  H     -7.363384    2.103332   -6.926406
  H     -7.480929    3.705496   -5.011449
  H     -6.848029    2.462931   -3.912193
  C      5.906760   -3.639658    5.821812
  C      5.679741   -1.374277    7.022576
  C      6.232625   -2.801792    7.061035
  H      6.049998   -0.837584    6.145342
  H      5.987921   -0.823701    7.915785
  H      5.856534   -3.312551    7.953930
  H      7.325975   -2.741734    7.155323
  H      6.365079   -4.629376    5.900417
  H      6.284349   -3.158808    4.915790

 Total Charge           Charge          ....   -2
 Multiplicity           Mult            ....    2
 Number of Electrons    NEL             ....  321
 Basis Dimension        Dim             ....  681

ORBITAL ENERGIES
----------------
                 SPIN UP ORBITALS
  NO   OCC          E(Eh)            E(eV)
   0   1.0000    -196.674660     -5351.7896
   1   1.0000     -88.733912     -2414.5725
   2   1.0000     -88.733510     -2414.5615
   3   1.0000     -88.733249     -2414.5544
   4   1.0000     -88.733009     -2414.5479
   5   1.0000     -88.730330     -2414.4750
   6   1.0000     -88.730094     -2414.4686
   7   1.0000     -88.729620     -2414.4557
   8   1.0000     -88.729535     -2414.4534
   9   1.0000     -88.639837     -2412.0126
  10   1.0000     -88.639398     -2412.0006
  11   1.0000     -88.639062     -2411.9915
  12   1.0000     -88.638852     -2411.9858
  13   1.0000     -22.050018      -600.0115
  14   1.0000     -18.889942      -514.0215
  15   1.0000     -18.556478      -504.9474
  16   1.0000     -18.551292      -504.8063
  17   1.0000     -18.551190      -504.8035
  18   1.0000     -10.075918      -274.1797
  19   1.0000     -10.075701      -274.1738
  20   1.0000     -10.064722      -273.8750
  21   1.0000     -10.064614      -273.8721
  22   1.0000     -10.063678      -273.8466
  23   1.0000     -10.063480      -273.8412
  24   1.0000     -10.052527      -273.5432
  25   1.0000     -10.051426      -273.5132
  26   1.0000     -10.049050      -273.4485
  27   1.0000     -10.048290      -273.4279
  28   1.0000     -10.018082      -272.6059
  29   1.0000     -10.017873      -272.6002
  30   1.0000     -10.016935      -272.5747
  31   1.0000     -10.016834      -272.5719
  32   1.0000      -7.787174      -211.8998
  33   1.0000      -7.786780      -211.8890
  34   1.0000      -7.786654      -211.8856
  35   1.0000      -7.786447      -211.8800
  36   1.0000      -7.783490      -211.7995
  37   1.0000      -7.783201      -211.7917
  38   1.0000      -7.782892      -211.7833
  39   1.0000      -7.782878      -211.7829
  40   1.0000      -7.693917      -209.3621
  41   1.0000      -7.693566      -209.3526
  42   1.0000      -7.693488      -209.3505
  43   1.0000      -7.693286      -209.3450
  44   1.0000      -5.752182      -156.5248
  45   1.0000      -5.751773      -156.5137
  46   1.0000      -5.751646      -156.5102
  47   1.0000      -5.751436      -156.5045
  48   1.0000      -5.748762      -156.4318
  49   1.0000      -5.748443      -156.4231
  50   1.0000      -5.748391      -156.4217
  51   1.0000      -5.748243      -156.4176
  52   1.0000      -5.748166      -156.4155
  53   1.0000      -5.748023      -156.4117
  54   1.0000      -5.747844      -156.4068
  55   1.0000      -5.747816      -156.4060
  56   1.0000      -5.744020      -156.3027
  57   1.0000      -5.743754      -156.2955
  58   1.0000      -5.743413      -156.2862
  59   1.0000      -5.743380      -156.2853
  60   1.0000      -5.741979      -156.2472
  61   1.0000      -5.741572      -156.2361
  62   1.0000      -5.741441      -156.2326
  63   1.0000      -5.741241      -156.2271
  64   1.0000      -5.739314      -156.1747
  65   1.0000      -5.739002      -156.1662
  66   1.0000      -5.738702      -156.1580
  67   1.0000      -5.738696      -156.1579
  68   1.0000      -5.659276      -153.9967
  69   1.0000      -5.658904      -153.9866
  70   1.0000      -5.658760      -153.9827
  71   1.0000      -5.658571      -153.9775
  72   1.0000      -5.652603      -153.8151
  73   1.0000      -5.652249      -153.8055
  74   1.0000      -5.652161      -153.8031
  75   1.0000      -5.651939      -153.7971
  76   1.0000      -5.651228      -153.7777
  77   1.0000      -5.650876      -153.7682
  78   1.0000      -5.650802      -153.7661
  79   1.0000      -5.650594      -153.7605
  80   1.0000      -2.443650       -66.4951
  81   1.0000      -1.484991       -40.4087
  82   1.0000      -1.473277       -40.0899
  83   1.0000      -1.472444       -40.0672
  84   1.0000      -0.709036       -19.2938
  85   1.0000      -0.707921       -19.2635
  86   1.0000      -0.685196       -18.6451
  87   1.0000      -0.683894       -18.6097
  88   1.0000      -0.649512       -17.6741
  89   1.0000      -0.630891       -17.1674
  90   1.0000      -0.629819       -17.1383
  91   1.0000      -0.617067       -16.7912
  92   1.0000      -0.616158       -16.7665
  93   1.0000      -0.574177       -15.6242
  94   1.0000      -0.573803       -15.6140
  95   1.0000      -0.572888       -15.5891
  96   1.0000      -0.571635       -15.5550
  97   1.0000      -0.496585       -13.5128
  98   1.0000      -0.495744       -13.4899
  99   1.0000      -0.494986       -13.4693
 100   1.0000      -0.494777       -13.4636
 101   1.0000      -0.479440       -13.0462
 102   1.0000      -0.476740       -12.9727
 103   1.0000      -0.446840       -12.1591
 104   1.0000      -0.444540       -12.0965
 105   1.0000      -0.415964       -11.3189
 106   1.0000      -0.410675       -11.1750
 107   1.0000      -0.355071        -9.6620
 108   1.0000      -0.354030        -9.6336
 109   1.0000      -0.326388        -8.8815
 110   1.0000      -0.325192        -8.8489
 111   1.0000      -0.318593        -8.6694
 112   1.0000      -0.313883        -8.5412
 113   1.0000      -0.303962        -8.2712
 114   1.0000      -0.303113        -8.2481
 115   1.0000      -0.292258        -7.9527
 116   1.0000      -0.290959        -7.9174
 117   1.0000      -0.257840        -7.0162
 118   1.0000      -0.257183        -6.9983
 119   1.0000      -0.255506        -6.9527
 120   1.0000      -0.255035        -6.9399
 121   1.0000      -0.234238        -6.3739
 122   1.0000      -0.233182        -6.3452
 123   1.0000      -0.231095        -6.2884
 124   1.0000      -0.229761        -6.2521
 125   1.0000      -0.219576        -5.9750
 126   1.0000      -0.217794        -5.9265
 127   1.0000      -0.213920        -5.8211
 128   1.0000      -0.211327        -5.7505
 129   1.0000      -0.192857        -5.2479
 130   1.0000      -0.186786        -5.0827
 131   1.0000      -0.185729        -5.0539
 132   1.0000      -0.184245        -5.0135
 133   1.0000      -0.179220        -4.8768
 134   1.0000      -0.158970        -4.3258
 135   1.0000      -0.151387        -4.1194
 136   1.0000      -0.146493        -3.9863
 137   1.0000      -0.135532        -3.6880
 138   1.0000      -0.134024        -3.6470
 139   1.0000      -0.132475        -3.6048
 140   1.0000      -0.124898        -3.3987
 141   1.0000      -0.120535        -3.2799
 142   1.0000      -0.113163        -3.0793
 143   1.0000      -0.109468        -2.9788
 144   1.0000      -0.099249        -2.7007
 145   1.0000      -0.097745        -2.6598
 146   1.0000      -0.097106        -2.6424
 147   1.0000      -0.094446        -2.5700
 148   1.0000      -0.074074        -2.0157
 149   1.0000      -0.067849        -1.8463
 150   1.0000      -0.067298        -1.8313
 151   1.0000      -0.051814        -1.4099
 152   1.0000      -0.045066        -1.2263
 153   1.0000      -0.037227        -1.0130
 154   1.0000      -0.036852        -1.0028
 155   1.0000      -0.030963        -0.8425
 156   1.0000      -0.024858        -0.6764
 157   1.0000      -0.018329        -0.4988
 158   1.0000      -0.014967        -0.4073
 159   1.0000       0.020878         0.5681
 160   1.0000       0.041772         1.1367
 161   0.0000       0.136940         3.7263
 162   0.0000       0.137104         3.7308
 163   0.0000       0.162058         4.4098
 164   0.0000       0.162113         4.4113
 165   0.0000       0.170652         4.6437

                 SPIN DOWN ORBITALS
  NO   OCC          E(Eh)            E(eV)
   0   1.0000    -196.674807     -5351.7936
   1   1.0000     -88.733912     -2414.5725
   2   1.0000     -88.733510     -2414.5616
   3   1.0000     -88.733249     -2414.5545
   4   1.0000     -88.733010     -2414.5480
   5   1.0000     -88.730339     -2414.4753
   6   1.0000     -88.730102     -2414.4688
   7   1.0000     -88.729628     -2414.4559
   8   1.0000     -88.729543     -2414.4536
   9   1.0000     -88.639976     -2412.0164
  10   1.0000     -88.639529     -2412.0042
  11   1.0000     -88.639205     -2411.9954
  12   1.0000     -88.638994     -2411.9897
  13   1.0000     -22.035082      -599.6051
  14   1.0000     -18.893733      -514.1246
  15   1.0000     -18.551205      -504.8040
  16   1.0000     -18.535259      -504.3700
  17   1.0000     -18.535064      -504.3647
  18   1.0000     -10.075918      -274.1797
  19   1.0000     -10.075695      -274.1736
  20   1.0000     -10.064722      -273.8750
  21   1.0000     -10.064614      -273.8721
  22   1.0000     -10.063678      -273.8466
  23   1.0000     -10.063479      -273.8412
  24   1.0000     -10.052527      -273.5432
  25   1.0000     -10.051425      -273.5132
  26   1.0000     -10.049046      -273.4484
  27   1.0000     -10.048279      -273.4276
  28   1.0000     -10.017836      -272.5992
  29   1.0000     -10.017658      -272.5943
  30   1.0000     -10.016721      -272.5688
  31   1.0000     -10.016627      -272.5663
  32   1.0000      -7.787175      -211.8998
  33   1.0000      -7.786780      -211.8891
  34   1.0000      -7.786655      -211.8856
  35   1.0000      -7.786448      -211.8800
  36   1.0000      -7.783500      -211.7998
  37   1.0000      -7.783211      -211.7919
  38   1.0000      -7.782901      -211.7835
  39   1.0000      -7.782888      -211.7831
  40   1.0000      -7.694047      -209.3657
  41   1.0000      -7.693688      -209.3559
  42   1.0000      -7.693622      -209.3541
  43   1.0000      -7.693418      -209.3485
  44   1.0000      -5.752183      -156.5248
  45   1.0000      -5.751774      -156.5137
  46   1.0000      -5.751647      -156.5103
  47   1.0000      -5.751437      -156.5046
  48   1.0000      -5.748763      -156.4318
  49   1.0000      -5.748454      -156.4234
  50   1.0000      -5.748391      -156.4217
  51   1.0000      -5.748244      -156.4177
  52   1.0000      -5.748177      -156.4159
  53   1.0000      -5.748025      -156.4117
  54   1.0000      -5.747854      -156.4071
  55   1.0000      -5.747827      -156.4063
  56   1.0000      -5.744034      -156.3031
  57   1.0000      -5.743769      -156.2959
  58   1.0000      -5.743426      -156.2866
  59   1.0000      -5.743393      -156.2857
  60   1.0000      -5.741980      -156.2472
  61   1.0000      -5.741572      -156.2361
  62   1.0000      -5.741442      -156.2326
  63   1.0000      -5.741242      -156.2271
  64   1.0000      -5.739322      -156.1749
  65   1.0000      -5.739008      -156.1663
  66   1.0000      -5.738708      -156.1582
  67   1.0000      -5.738705      -156.1581
  68   1.0000      -5.659418      -154.0006
  69   1.0000      -5.659042      -153.9904
  70   1.0000      -5.658904      -153.9866
  71   1.0000      -5.658709      -153.9813
  72   1.0000      -5.652978      -153.8254
  73   1.0000      -5.652589      -153.8148
  74   1.0000      -5.652531      -153.8132
  75   1.0000      -5.652333      -153.8078
  76   1.0000      -5.651318      -153.7802
  77   1.0000      -5.650970      -153.7707
  78   1.0000      -5.650915      -153.7692
  79   1.0000      -5.650682      -153.7629
  80   1.0000      -2.398755       -65.2735
  81   1.0000      -1.465672       -39.8830
  82   1.0000      -1.410874       -38.3918
  83   1.0000      -1.410737       -38.3881
  84   1.0000      -0.709010       -19.2931
  85   1.0000      -0.707905       -19.2631
  86   1.0000      -0.685141       -18.6436
  87   1.0000      -0.683853       -18.6086
  88   1.0000      -0.657646       -17.8955
  89   1.0000      -0.630818       -17.1654
  90   1.0000      -0.629760       -17.1367
  91   1.0000      -0.617067       -16.7912
  92   1.0000      -0.616160       -16.7666
  93   1.0000      -0.574149       -15.6234
  94   1.0000      -0.573782       -15.6134
  95   1.0000      -0.572806       -15.5868
  96   1.0000      -0.571570       -15.5532
  97   1.0000      -0.496601       -13.5132
  98   1.0000      -0.495790       -13.4911
  99   1.0000      -0.495028       -13.4704
 100   1.0000      -0.494809       -13.4645
 101   1.0000      -0.479631       -13.0514
 102   1.0000      -0.476992       -12.9796
 103   1.0000      -0.446859       -12.1597
 104   1.0000      -0.444587       -12.0978
 105   1.0000      -0.415962       -11.3189
 106   1.0000      -0.410785       -11.1780
 107   1.0000      -0.355061        -9.6617
 108   1.0000      -0.354025        -9.6335
 109   1.0000      -0.326372        -8.8810
 110   1.0000      -0.325183        -8.8487
 111   1.0000      -0.318514        -8.6672
 112   1.0000      -0.313911        -8.5420
 113   1.0000      -0.303909        -8.2698
 114   1.0000      -0.303090        -8.2475
 115   1.0000      -0.292252        -7.9526
 116   1.0000      -0.290955        -7.9173
 117   1.0000      -0.257726        -7.0131
 118   1.0000      -0.257061        -6.9950
 119   1.0000      -0.255469        -6.9517
 120   1.0000      -0.255008        -6.9391
 121   1.0000      -0.234204        -6.3730
 122   1.0000      -0.233158        -6.3446
 123   1.0000      -0.231042        -6.2870
 124   1.0000      -0.229731        -6.2513
 125   1.0000      -0.219211        -5.9650
 126   1.0000      -0.217692        -5.9237
 127   1.0000      -0.213714        -5.8155
 128   1.0000      -0.211193        -5.7469
 129   1.0000      -0.191183        -5.2024
 130   1.0000      -0.186718        -5.0809
 131   1.0000      -0.185434        -5.0459
 132   1.0000      -0.183922        -5.0048
 133   1.0000      -0.179107        -4.8737
 134   1.0000      -0.158355        -4.3091
 135   1.0000      -0.151215        -4.1148
 136   1.0000      -0.146417        -3.9842
 137   1.0000      -0.134872        -3.6701
 138   1.0000      -0.133738        -3.6392
 139   1.0000      -0.132230        -3.5982
 140   1.0000      -0.124308        -3.3826
 141   1.0000      -0.120207        -3.2710
 142   1.0000      -0.114958        -3.1282
 143   1.0000      -0.111058        -3.0220
 144   1.0000      -0.099230        -2.7002
 145   1.0000      -0.098058        -2.6683
 146   1.0000      -0.097102        -2.6423
 147   1.0000      -0.094783        -2.5792
 148   1.0000      -0.070275        -1.9123
 149   1.0000      -0.067830        -1.8458
 150   1.0000      -0.067299        -1.8313
 151   1.0000      -0.049231        -1.3396
 152   1.0000      -0.044118        -1.2005
 153   1.0000      -0.037216        -1.0127
 154   1.0000      -0.036185        -0.9846
 155   1.0000      -0.030974        -0.8428
 156   1.0000      -0.025638        -0.6977
 157   1.0000      -0.015198        -0.4135
 158   1.0000       0.021175         0.5762
 159   1.0000       0.040652         1.1062
 160   0.0000       0.136943         3.7264
 161   0.0000       0.137101         3.7307
 162   0.0000       0.156162         4.2494
 163   0.0000       0.162142         4.4121
 164   0.0000       0.163544         4.4503

MULLIKEN ATOMIC CHARGES AND SPIN POPULATIONS
--------------------------------------------
   0 V :    0.472790    1.210561
   1 S :   -0.296546   -0.021067
   2 S :   -0.293267   -0.024170
   3 S :   -0.285133   -0.024584
   4 S :   -0.282207   -0.026533
   5 O :   -0.467664   -0.146843
   6 C :   -0.071199    0.009894
   7 C :   -0.090797    0.007825
   8 C :   -0.075224    0.007658
   9 C :   -0.093385    0.007415
  10 S :    0.097935   -0.000573
  11 S :    0.102074   -0.000650
  12 S :    0.100563   -0.000383
  13 S :    0.096749   -0.000356
  14 C :   -0.212985    0.001514
  15 C :   -0.212571    0.000970
  16 C :   -0.192210   -0.000071
  17 C :   -0.187775   -0.000397
  18 S :    0.008604   -0.000113
  19 S :    0.009591   -0.000114
  20 S :    0.007015   -0.000072
  21 S :    0.007840   -0.000073
  22 C :   -0.299665   -0.000002
  23 C :   -0.297480    0.000002
  24 C :   -0.158629   -0.000013
  25 H :    0.142963   -0.000001
  26 H :    0.113637   -0.000005
  27 H :    0.083343   -0.000000
  28 H :    0.092022   -0.000001
  29 H :    0.112485   -0.000004
  30 H :    0.141711   -0.000002
  31 C :   -0.300066    0.000193
  32 C :   -0.300123    0.000194
  33 C :   -0.157566   -0.000242
  34 H :    0.141579   -0.000018
  35 H :    0.113083    0.000021
  36 H :    0.092154    0.000024
  37 H :    0.082623    0.000016
  38 H :    0.113450    0.000020
  39 H :    0.142281   -0.000018
Sum of atomic charges         :   -2.0000000

LOEWDIN ATOMIC CHARGES AND SPIN POPULATIONS
-------------------------------------------
   0 V :   -0.154048    1.164144
   1 S :    0.074525   -0.013483
   2 S :    0.075688   -0.015324
   3 S :    0.084637   -0.016155
   4 S :    0.086251   -0.016963
   5 O :   -0.318842   -0.131752
   6 C :   -0.549346    0.009412
   7 C :   -0.552551    0.007554
   8 C :   -0.550450    0.007976
   9 C :   -0.553461    0.007729
  10 S :    0.469376   -0.000928
  11 S :    0.473186   -0.000932
  12 S :    0.471277   -0.000778
  13 S :    0.467321   -0.000873
  14 C :   -0.464695    0.000165
  15 C :   -0.463868   -0.000092
  16 C :   -0.622001    0.000466
  17 C :   -0.618574    0.000083
  18 S :    0.358090   -0.000089
  19 S :    0.360189   -0.000088
  20 S :    0.357317   -0.000075
  21 S :    0.355566   -0.000078
  22 C :   -0.283181   -0.000009
  23 C :   -0.283897   -0.000007
  24 C :   -0.176538   -0.000001
  25 H :    0.063389   -0.000001
  26 H :    0.054019   -0.000003
  27 H :    0.058159   -0.000002
  28 H :    0.060862   -0.000001
  29 H :    0.053881   -0.000002
  30 H :    0.062854   -0.000002
  31 C :   -0.284278    0.000042
  32 C :   -0.284081    0.000036
  33 C :   -0.176401    0.000007
  34 H :    0.062080   -0.000001
  35 H :    0.053521    0.000009
  36 H :    0.060338    0.000005
  37 H :    0.057748    0.000002
  38 H :    0.053742    0.000008
  39 H :    0.062198   -0.000000

  Mayer bond orders larger than 0.100000
B(  0-V ,  1-S ) :   0.7638 B(  0-V ,  2-S ) :   0.7743 B(  0-V ,  3-S ) :   0.7709
B(  0-V ,  4-S ) :   0.7747 B(  0-V ,  5-O ) :   2.1490 B(  1-S ,  8-C ) :   1.1001
B(  2-S ,  6-C ) :   1.0988 B(  3-S ,  9-C ) :   1.1085 B(  4-S ,  7-C ) :   1.1092
B(  6-C ,  7-C ) :   1.6847 B(  6-C , 10-S ) :   0.9301 B(  7-C , 11-S ) :   0.9431
B(  8-C ,  9-C ) :   1.6987 B(  8-C , 13-S ) :   0.9284 B(  9-C , 12-S ) :   0.9380
B( 10-S , 14-C ) :   1.2486 B( 11-S , 14-C ) :   1.2467 B( 12-S , 15-C ) :   1.2433
B( 13-S , 15-C ) :   1.2438 B( 14-C , 16-C ) :   1.4522 B( 15-C , 17-C ) :   1.4587
B( 16-C , 18-S ) :   1.0860 B( 16-C , 19-S ) :   1.0899 B( 17-C , 20-S ) :   1.0817
B( 17-C , 21-S ) :   1.0840 B( 18-S , 32-C ) :   0.9922 B( 19-S , 31-C ) :   0.9915
B( 20-S , 23-C ) :   0.9921 B( 21-S , 22-C ) :   0.9906 B( 22-C , 24-C ) :   0.9135
B( 22-C , 25-H ) :   0.9649 B( 22-C , 26-H ) :   0.9653 B( 23-C , 24-C ) :   0.9153
B( 23-C , 29-H ) :   0.9652 B( 23-C , 30-H ) :   0.9646 B( 24-C , 27-H ) :   0.9622
B( 24-C , 28-H ) :   0.9713 B( 31-C , 33-C ) :   0.9133 B( 31-C , 38-H ) :   0.9655
B( 31-C , 39-H ) :   0.9658 B( 32-C , 33-C ) :   0.9139 B( 32-C , 34-H ) :   0.9654
B( 32-C , 35-H ) :   0.9654 B( 33-C , 36-H ) :   0.9715 B( 33-C , 37-H ) :   0.9625

FINAL SINGLE POINT ENERGY     -6337.706315685698

DIPOLE MOMENT
-------------
                                X             Y             Z
Electronic contribution:      8.46452       7.25407      -7.94971
Nuclear contribution   :     -9.43629      -8.07375       8.82000
                        -----------------------------------------
Total Dipole Moment    :     -0.97177      -0.81968       0.87029
                        -----------------------------------------
Magnitude (a.u.)       :      1.54066
Magnitude (Debye)      :      3.91604

Rotational constants in cm-1:     0.010715     0.000804     0.000783
Rotational constants in MHz :   321.231086    24.111190    23.467335

                             ****ORCA TERMINATED NORMALLY****
TOTAL RUN TIME: 0 days 1 hours 6 minutes 34 seconds 902 msec
