                         Program Version 5.0.4 -  RELEASE  -
|  1> ! nofrozencore ReducedPop printbasis
|  2> ! B3LYP TZVP
|  3>
|  4> %basis
|  5> newgto V "CP(PPP)" end
|  6> end
|  7>
|  8> %pal
|  9> nprocs 8
| 10> end
| 11>
| 12> % sym SymThresh 1e-2 end
| 13> * xyz -2 2
| 14> V -0.4355681716909703 -0.7131974931232884 -0.3762827360714845
| 15> S 1.360281547579766 -0.6491036296510174 -2.0939309947965983
| 16> S 1.1691449011105357 -1.8586644816806293 1.1371020138088377
| 17> S -1.592801508005586 1.075534367594208 -1.6407109667774697
| 18> S -1.7551324784844629 -0.049770677500034444 1.5861826677921347
| 19> O -1.2793129519948248 -1.9667095947165008 -0.8244430513542738
| 20> C 0.20652369386063993 -1.7530990906537673 2.6021801445687984
| 21> C -0.9244276100159918 -1.040249682644482 2.7731601714419916
| 22> C 0.6911407078560043 0.5838712760762631 -3.150801981813738
| 23> C -0.45857823531570746 1.2602613397841438 -2.966184429453807
| 24> S 0.8603969133665156 -2.5642514174790603 4.065322074546862
| 25> S -1.5900705304542104 -0.9671376864134736 4.4313421253480145
| 26> S -0.8221859848917055 2.563347560393115 -4.139144928328474
| 27> S 1.6851174064381536 1.0731013001611585 -4.563204699178592
| 28> C -0.4016777317804707 -2.027136188356459 5.173484854607032
| 29> C 0.6178537260983471 2.357829455060005 -5.128476472469756
| 30> C -0.464989685702209 -2.4000606130132174 6.481307940848835
| 31> C 0.8760646168496673 3.1193470946222726 -6.228310619031828
| 32> S 0.7505909123816417 -3.4978934847527685 7.164822890085647
| 33> S -1.776346613684804 -1.8160017607926973 7.5336716996456214
| 34> S 2.353988338906837 2.869855807150349 -7.1804518677177995
| 35> S -0.23017282704406866 4.422623377947296 -6.7219700598632235
| 36> C 0.9373825627758668 5.849483761147188 -6.55364377005953
| 37> C 3.120474594356521 4.525405518931272 -6.8858223044780855
| 38> C 2.2343563287773924 5.6843466241467855 -7.350854950777118
| 39> H 1.1519221194329974 5.992071244476603 -5.49084360174888
| 40> H 0.3829201875594969 6.722009514703298 -6.910158126768717
| 41> H 2.8092785815532735 6.617307388593031 -7.2588495064111305
| 42> H 1.9957372186238114 5.551888269921788 -8.41187451357345
| 43> H 4.062952626029423 4.520303592613362 -7.439992458851108
| 44> H 3.3494715946578144 4.610310956068555 -5.820418061597696
| 45> C -2.500848742084049 -3.4494331369107494 8.02136492020446
| 46> C -0.3971424789809537 -4.874028616883829 7.61134723369072
| 47> C -1.4828957816242065 -4.436813021019084 8.59914461549779
| 48> H -0.8379071461548063 -5.264408884199343 6.689376016090196
| 49> H 0.22862287882284674 -5.656113546580756 8.051550680034152
| 50> H -1.007026010766236 -3.999176174800823 9.484727801017206
| 51> H -2.032544668354629 -5.33043025584075 8.930790188535767
| 52> H -3.2640267852071623 -3.213259074166444 8.769269168472663
| 53> H -3.0004959823745576 -3.878012239967952 7.146539064010347
| 54> *
| 55>
| 56> % eprnmr
| 57> gtensor true
| 58> Nuclei = all H {aiso,adip,aorb,fgrad,rho}
| 59> Nuclei = all V {aiso,adip,aorb,fgrad,rho}
| 60> end
| 61>
| 62>                          ****END OF INPUT****

CARTESIAN COORDINATES (ANGSTROEM)
---------------------------------
  V     -0.434160   -0.711699   -0.373047
  S      1.361690   -0.647605   -2.090695
  S      1.170553   -1.857166    1.140338
  S     -1.591393    1.077033   -1.637475
  S     -1.753724   -0.048272    1.589418
  O     -1.277905   -1.965211   -0.821207
  C      0.207932   -1.751600    2.605416
  C     -0.923019   -1.038751    2.776396
  C      0.692549    0.585370   -3.147566
  C     -0.457170    1.261760   -2.962949
  S      0.861805   -2.562753    4.068558
  S     -1.588662   -0.965639    4.434578
  S     -0.820778    2.564846   -4.135909
  S      1.686526    1.074600   -4.559969
  C     -0.400270   -2.025637    5.176721
  C      0.619262    2.359328   -5.125241
  C     -0.463581   -2.398562    6.484544
  C      0.877473    3.120846   -6.225075
  S      0.751999   -3.496395    7.168059
  S     -1.774938   -1.814503    7.536907
  S      2.355397    2.871355   -7.177216
  S     -0.228765    4.424122   -6.718734
  C      0.938791    5.850983   -6.550408
  C      3.121883    4.526904   -6.882587
  C      2.235765    5.685845   -7.347619
  H      1.153330    5.993570   -5.487608
  H      0.384328    6.723508   -6.906922
  H      2.810687    6.618806   -7.255614
  H      1.997145    5.553387   -8.408639
  H      4.064361    4.521802   -7.436757
  H      3.350880    4.611810   -5.817182
  C     -2.499441   -3.447934    8.024601
  C     -0.395734   -4.872530    7.614583
  C     -1.481488   -4.435314    8.602380
  H     -0.836499   -5.262910    6.692612
  H      0.230031   -5.654615    8.054786
  H     -1.005618   -3.997677    9.487963
  H     -2.031136   -5.328931    8.934026
  H     -3.262619   -3.211760    8.772505
  H     -2.999088   -3.876513    7.149775

 Total Charge           Charge          ....   -2
 Multiplicity           Mult            ....    2
 Number of Electrons    NEL             ....  321
 Basis Dimension        Dim             ....  681

ORBITAL ENERGIES
----------------
                 SPIN UP ORBITALS
  NO   OCC          E(Eh)            E(eV)
   0   1.0000    -196.673635     -5351.7617
   1   1.0000     -88.732817     -2414.5427
   2   1.0000     -88.732441     -2414.5325
   3   1.0000     -88.732199     -2414.5259
   4   1.0000     -88.732129     -2414.5240
   5   1.0000     -88.727528     -2414.3988
   6   1.0000     -88.727008     -2414.3846
   7   1.0000     -88.726859     -2414.3806
   8   1.0000     -88.725909     -2414.3547
   9   1.0000     -88.637494     -2411.9488
  10   1.0000     -88.637399     -2411.9462
  11   1.0000     -88.636996     -2411.9353
  12   1.0000     -88.636977     -2411.9348
  13   1.0000     -22.048597      -599.9728
  14   1.0000     -18.892048      -514.0788
  15   1.0000     -18.555133      -504.9108
  16   1.0000     -18.549856      -504.7672
  17   1.0000     -18.549680      -504.7624
  18   1.0000     -10.071580      -274.0616
  19   1.0000     -10.070457      -274.0311
  20   1.0000     -10.063720      -273.8478
  21   1.0000     -10.063014      -273.8285
  22   1.0000     -10.062570      -273.8165
  23   1.0000     -10.062295      -273.8090
  24   1.0000     -10.051060      -273.5032
  25   1.0000     -10.050515      -273.4884
  26   1.0000     -10.045035      -273.3393
  27   1.0000     -10.044972      -273.3376
  28   1.0000     -10.015956      -272.5480
  29   1.0000     -10.015856      -272.5453
  30   1.0000     -10.015019      -272.5225
  31   1.0000     -10.014819      -272.5171
  32   1.0000      -7.786270      -211.8752
  33   1.0000      -7.785933      -211.8660
  34   1.0000      -7.785888      -211.8648
  35   1.0000      -7.785784      -211.8619
  36   1.0000      -7.780988      -211.7314
  37   1.0000      -7.780518      -211.7186
  38   1.0000      -7.780459      -211.7170
  39   1.0000      -7.779703      -211.6965
  40   1.0000      -7.692072      -209.3119
  41   1.0000      -7.691723      -209.3024
  42   1.0000      -7.691504      -209.2965
  43   1.0000      -7.691319      -209.2914
  44   1.0000      -5.751290      -156.5006
  45   1.0000      -5.750921      -156.4905
  46   1.0000      -5.750832      -156.4881
  47   1.0000      -5.750738      -156.4855
  48   1.0000      -5.747792      -156.4054
  49   1.0000      -5.747482      -156.3969
  50   1.0000      -5.747460      -156.3963
  51   1.0000      -5.747341      -156.3931
  52   1.0000      -5.745925      -156.3546
  53   1.0000      -5.745456      -156.3418
  54   1.0000      -5.745416      -156.3407
  55   1.0000      -5.744634      -156.3194
  56   1.0000      -5.741497      -156.2341
  57   1.0000      -5.741081      -156.2228
  58   1.0000      -5.740983      -156.2201
  59   1.0000      -5.740961      -156.2195
  60   1.0000      -5.740749      -156.2137
  61   1.0000      -5.740692      -156.2122
  62   1.0000      -5.740597      -156.2096
  63   1.0000      -5.740150      -156.1974
  64   1.0000      -5.736785      -156.1059
  65   1.0000      -5.736318      -156.0931
  66   1.0000      -5.736251      -156.0913
  67   1.0000      -5.735501      -156.0709
  68   1.0000      -5.657308      -153.9432
  69   1.0000      -5.657033      -153.9357
  70   1.0000      -5.656768      -153.9285
  71   1.0000      -5.656621      -153.9245
  72   1.0000      -5.650789      -153.7658
  73   1.0000      -5.650432      -153.7561
  74   1.0000      -5.650243      -153.7509
  75   1.0000      -5.650044      -153.7455
  76   1.0000      -5.649364      -153.7270
  77   1.0000      -5.649035      -153.7181
  78   1.0000      -5.648773      -153.7109
  79   1.0000      -5.648590      -153.7060
  80   1.0000      -2.443218       -66.4833
  81   1.0000      -1.486743       -40.4563
  82   1.0000      -1.472366       -40.0651
  83   1.0000      -1.471512       -40.0419
  84   1.0000      -0.710257       -19.3271
  85   1.0000      -0.710138       -19.3238
  86   1.0000      -0.684847       -18.6356
  87   1.0000      -0.684792       -18.6341
  88   1.0000      -0.650816       -17.7096
  89   1.0000      -0.630549       -17.1581
  90   1.0000      -0.630417       -17.1545
  91   1.0000      -0.617721       -16.8090
  92   1.0000      -0.617446       -16.8016
  93   1.0000      -0.574833       -15.6420
  94   1.0000      -0.574732       -15.6392
  95   1.0000      -0.570656       -15.5283
  96   1.0000      -0.569646       -15.5008
  97   1.0000      -0.496792       -13.5184
  98   1.0000      -0.496211       -13.5026
  99   1.0000      -0.494529       -13.4568
 100   1.0000      -0.493014       -13.4156
 101   1.0000      -0.478451       -13.0193
 102   1.0000      -0.476844       -12.9756
 103   1.0000      -0.445480       -12.1221
 104   1.0000      -0.443474       -12.0675
 105   1.0000      -0.415157       -11.2970
 106   1.0000      -0.410790       -11.1782
 107   1.0000      -0.353856        -9.6289
 108   1.0000      -0.353806        -9.6275
 109   1.0000      -0.325752        -8.8642
 110   1.0000      -0.325490        -8.8570
 111   1.0000      -0.317401        -8.6369
 112   1.0000      -0.314095        -8.5470
 113   1.0000      -0.302335        -8.2270
 114   1.0000      -0.301427        -8.2022
 115   1.0000      -0.291508        -7.9323
 116   1.0000      -0.291263        -7.9257
 117   1.0000      -0.256860        -6.9895
 118   1.0000      -0.256383        -6.9765
 119   1.0000      -0.255263        -6.9461
 120   1.0000      -0.254255        -6.9186
 121   1.0000      -0.234074        -6.3695
 122   1.0000      -0.233448        -6.3524
 123   1.0000      -0.230995        -6.2857
 124   1.0000      -0.229956        -6.2574
 125   1.0000      -0.218715        -5.9515
 126   1.0000      -0.217553        -5.9199
 127   1.0000      -0.212602        -5.7852
 128   1.0000      -0.210787        -5.7358
 129   1.0000      -0.190077        -5.1722
 130   1.0000      -0.185848        -5.0572
 131   1.0000      -0.185062        -5.0358
 132   1.0000      -0.182914        -4.9773
 133   1.0000      -0.179201        -4.8763
 134   1.0000      -0.159267        -4.3339
 135   1.0000      -0.150195        -4.0870
 136   1.0000      -0.146365        -3.9828
 137   1.0000      -0.135720        -3.6931
 138   1.0000      -0.133434        -3.6309
 139   1.0000      -0.130955        -3.5635
 140   1.0000      -0.127129        -3.4593
 141   1.0000      -0.120326        -3.2742
 142   1.0000      -0.117070        -3.1856
 143   1.0000      -0.111188        -3.0256
 144   1.0000      -0.098380        -2.6771
 145   1.0000      -0.096498        -2.6259
 146   1.0000      -0.094726        -2.5776
 147   1.0000      -0.091678        -2.4947
 148   1.0000      -0.073161        -1.9908
 149   1.0000      -0.068457        -1.8628
 150   1.0000      -0.067830        -1.8458
 151   1.0000      -0.055213        -1.5024
 152   1.0000      -0.039912        -1.0861
 153   1.0000      -0.037561        -1.0221
 154   1.0000      -0.033465        -0.9106
 155   1.0000      -0.027021        -0.7353
 156   1.0000      -0.019965        -0.5433
 157   1.0000      -0.018552        -0.5048
 158   1.0000      -0.017276        -0.4701
 159   1.0000       0.025283         0.6880
 160   1.0000       0.042923         1.1680
 161   0.0000       0.138749         3.7756
 162   0.0000       0.139378         3.7927
 163   0.0000       0.162293         4.4162
 164   0.0000       0.162762         4.4290
 165   0.0000       0.169961         4.6249

                 SPIN DOWN ORBITALS
  NO   OCC          E(Eh)            E(eV)
   0   1.0000    -196.673784     -5351.7658
   1   1.0000     -88.732818     -2414.5427
   2   1.0000     -88.732441     -2414.5325
   3   1.0000     -88.732200     -2414.5259
   4   1.0000     -88.732130     -2414.5240
   5   1.0000     -88.727535     -2414.3990
   6   1.0000     -88.727013     -2414.3848
   7   1.0000     -88.726866     -2414.3808
   8   1.0000     -88.725913     -2414.3548
   9   1.0000     -88.637635     -2411.9527
  10   1.0000     -88.637525     -2411.9497
  11   1.0000     -88.637122     -2411.9387
  12   1.0000     -88.637116     -2411.9385
  13   1.0000     -22.033631      -599.5656
  14   1.0000     -18.896096      -514.1889
  15   1.0000     -18.549798      -504.7657
  16   1.0000     -18.533785      -504.3299
  17   1.0000     -18.533586      -504.3245
  18   1.0000     -10.071583      -274.0617
  19   1.0000     -10.070456      -274.0310
  20   1.0000     -10.063720      -273.8478
  21   1.0000     -10.063014      -273.8285
  22   1.0000     -10.062570      -273.8165
  23   1.0000     -10.062296      -273.8090
  24   1.0000     -10.051060      -273.5032
  25   1.0000     -10.050515      -273.4884
  26   1.0000     -10.045031      -273.3392
  27   1.0000     -10.044962      -273.3373
  28   1.0000     -10.015729      -272.5419
  29   1.0000     -10.015638      -272.5394
  30   1.0000     -10.014804      -272.5167
  31   1.0000     -10.014578      -272.5105
  32   1.0000      -7.786271      -211.8752
  33   1.0000      -7.785933      -211.8660
  34   1.0000      -7.785889      -211.8648
  35   1.0000      -7.785784      -211.8620
  36   1.0000      -7.780996      -211.7317
  37   1.0000      -7.780526      -211.7189
  38   1.0000      -7.780465      -211.7172
  39   1.0000      -7.779708      -211.6966
  40   1.0000      -7.692203      -209.3155
  41   1.0000      -7.691840      -209.3056
  42   1.0000      -7.691622      -209.2997
  43   1.0000      -7.691448      -209.2949
  44   1.0000      -5.751291      -156.5006
  45   1.0000      -5.750922      -156.4905
  46   1.0000      -5.750833      -156.4881
  47   1.0000      -5.750739      -156.4856
  48   1.0000      -5.747793      -156.4054
  49   1.0000      -5.747483      -156.3970
  50   1.0000      -5.747461      -156.3964
  51   1.0000      -5.747342      -156.3931
  52   1.0000      -5.745934      -156.3548
  53   1.0000      -5.745464      -156.3420
  54   1.0000      -5.745421      -156.3408
  55   1.0000      -5.744636      -156.3195
  56   1.0000      -5.741510      -156.2344
  57   1.0000      -5.741082      -156.2228
  58   1.0000      -5.740995      -156.2204
  59   1.0000      -5.740969      -156.2197
  60   1.0000      -5.740750      -156.2137
  61   1.0000      -5.740693      -156.2122
  62   1.0000      -5.740598      -156.2096
  63   1.0000      -5.740157      -156.1976
  64   1.0000      -5.736790      -156.1060
  65   1.0000      -5.736323      -156.0933
  66   1.0000      -5.736255      -156.0914
  67   1.0000      -5.735505      -156.0710
  68   1.0000      -5.657449      -153.9470
  69   1.0000      -5.657164      -153.9393
  70   1.0000      -5.656900      -153.9321
  71   1.0000      -5.656756      -153.9282
  72   1.0000      -5.651161      -153.7759
  73   1.0000      -5.650776      -153.7654
  74   1.0000      -5.650596      -153.7605
  75   1.0000      -5.650414      -153.7556
  76   1.0000      -5.649468      -153.7298
  77   1.0000      -5.649108      -153.7200
  78   1.0000      -5.648837      -153.7127
  79   1.0000      -5.648690      -153.7087
  80   1.0000      -2.398236       -65.2593
  81   1.0000      -1.467228       -39.9253
  82   1.0000      -1.410007       -38.3682
  83   1.0000      -1.409675       -38.3592
  84   1.0000      -0.710232       -19.3264
  85   1.0000      -0.710123       -19.3234
  86   1.0000      -0.684800       -18.6344
  87   1.0000      -0.684742       -18.6328
  88   1.0000      -0.659501       -17.9459
  89   1.0000      -0.630487       -17.1564
  90   1.0000      -0.630341       -17.1525
  91   1.0000      -0.617721       -16.8091
  92   1.0000      -0.617448       -16.8016
  93   1.0000      -0.574784       -15.6407
  94   1.0000      -0.574691       -15.6381
  95   1.0000      -0.570561       -15.5257
  96   1.0000      -0.569551       -15.4983
  97   1.0000      -0.496824       -13.5193
  98   1.0000      -0.496246       -13.5035
  99   1.0000      -0.494516       -13.4565
 100   1.0000      -0.493025       -13.4159
 101   1.0000      -0.478606       -13.0235
 102   1.0000      -0.477045       -12.9810
 103   1.0000      -0.445487       -12.1223
 104   1.0000      -0.443518       -12.0687
 105   1.0000      -0.415150       -11.2968
 106   1.0000      -0.410902       -11.1812
 107   1.0000      -0.353844        -9.6286
 108   1.0000      -0.353802        -9.6275
 109   1.0000      -0.325732        -8.8636
 110   1.0000      -0.325484        -8.8569
 111   1.0000      -0.317342        -8.6353
 112   1.0000      -0.314109        -8.5474
 113   1.0000      -0.302271        -8.2252
 114   1.0000      -0.301404        -8.2016
 115   1.0000      -0.291500        -7.9321
 116   1.0000      -0.291260        -7.9256
 117   1.0000      -0.256787        -6.9875
 118   1.0000      -0.256214        -6.9719
 119   1.0000      -0.255221        -6.9449
 120   1.0000      -0.254229        -6.9179
 121   1.0000      -0.234024        -6.3681
 122   1.0000      -0.233441        -6.3522
 123   1.0000      -0.230946        -6.2844
 124   1.0000      -0.229922        -6.2565
 125   1.0000      -0.218475        -5.9450
 126   1.0000      -0.217460        -5.9174
 127   1.0000      -0.212310        -5.7773
 128   1.0000      -0.210625        -5.7314
 129   1.0000      -0.188318        -5.1244
 130   1.0000      -0.185780        -5.0553
 131   1.0000      -0.184319        -5.0156
 132   1.0000      -0.182714        -4.9719
 133   1.0000      -0.179090        -4.8733
 134   1.0000      -0.158729        -4.3192
 135   1.0000      -0.150073        -4.0837
 136   1.0000      -0.146286        -3.9806
 137   1.0000      -0.135625        -3.6905
 138   1.0000      -0.132798        -3.6136
 139   1.0000      -0.130956        -3.5635
 140   1.0000      -0.126557        -3.4438
 141   1.0000      -0.120135        -3.2690
 142   1.0000      -0.118922        -3.2360
 143   1.0000      -0.113200        -3.0803
 144   1.0000      -0.098367        -2.6767
 145   1.0000      -0.096929        -2.6376
 146   1.0000      -0.094745        -2.5781
 147   1.0000      -0.092156        -2.5077
 148   1.0000      -0.069384        -1.8880
 149   1.0000      -0.068449        -1.8626
 150   1.0000      -0.067838        -1.8460
 151   1.0000      -0.052323        -1.4238
 152   1.0000      -0.038661        -1.0520
 153   1.0000      -0.037113        -1.0099
 154   1.0000      -0.033328        -0.9069
 155   1.0000      -0.026860        -0.7309
 156   1.0000      -0.020871        -0.5679
 157   1.0000      -0.018646        -0.5074
 158   1.0000       0.025468         0.6930
 159   1.0000       0.041706         1.1349
 160   0.0000       0.138727         3.7750
 161   0.0000       0.139382         3.7928
 162   0.0000       0.156445         4.2571
 163   0.0000       0.162545         4.4231
 164   0.0000       0.164885         4.4868

MULLIKEN ATOMIC CHARGES AND SPIN POPULATIONS
--------------------------------------------
   0 V :    0.418493    1.218162
   1 S :   -0.301860   -0.021207
   2 S :   -0.299813   -0.025304
   3 S :   -0.296624   -0.021595
   4 S :   -0.292097   -0.025875
   5 O :   -0.401887   -0.158119
   6 C :   -0.067485    0.008822
   7 C :   -0.080810    0.009212
   8 C :   -0.077867    0.007653
   9 C :   -0.081819    0.007140
  10 S :    0.096345   -0.000086
  11 S :    0.100055    0.000084
  12 S :    0.100714   -0.000090
  13 S :    0.098257   -0.000118
  14 C :   -0.227697    0.001908
  15 C :   -0.232366    0.000976
  16 C :   -0.173246   -0.000792
  17 C :   -0.169823   -0.000493
  18 S :    0.009087   -0.000091
  19 S :    0.008730   -0.000086
  20 S :    0.008115   -0.000090
  21 S :    0.007968   -0.000085
  22 C :   -0.296454    0.000042
  23 C :   -0.300620    0.000041
  24 C :   -0.160297   -0.000078
  25 H :    0.139892   -0.000005
  26 H :    0.112352   -0.000001
  27 H :    0.082712    0.000004
  28 H :    0.092717    0.000004
  29 H :    0.113986   -0.000002
  30 H :    0.143793   -0.000005
  31 C :   -0.295050    0.000108
  32 C :   -0.302921    0.000113
  33 C :   -0.158784   -0.000170
  34 H :    0.144493   -0.000011
  35 H :    0.114560    0.000008
  36 H :    0.093108    0.000017
  37 H :    0.082840    0.000009
  38 H :    0.111563    0.000005
  39 H :    0.137743   -0.000008
Sum of atomic charges         :   -2.0000000

LOEWDIN ATOMIC CHARGES AND SPIN POPULATIONS
-------------------------------------------
   0 V :   -0.163336    1.168079
   1 S :    0.069308   -0.013128
   2 S :    0.070699   -0.015822
   3 S :    0.075775   -0.013228
   4 S :    0.082520   -0.015818
   5 O :   -0.284178   -0.141103
   6 C :   -0.549748    0.008250
   7 C :   -0.552387    0.008961
   8 C :   -0.553414    0.008206
   9 C :   -0.554015    0.007958
  10 S :    0.468921   -0.000492
  11 S :    0.474657   -0.000383
  12 S :    0.473471   -0.000693
  13 S :    0.469932   -0.000689
  14 C :   -0.471081   -0.000019
  15 C :   -0.469327   -0.000209
  16 C :   -0.624997    0.000367
  17 C :   -0.625890    0.000081
  18 S :    0.364872   -0.000082
  19 S :    0.362788   -0.000074
  20 S :    0.363898   -0.000090
  21 S :    0.361855   -0.000084
  22 C :   -0.283605   -0.000008
  23 C :   -0.283601   -0.000009
  24 C :   -0.176905    0.000002
  25 H :    0.061373   -0.000002
  26 H :    0.053452   -0.000001
  27 H :    0.057649   -0.000001
  28 H :    0.060458    0.000000
  29 H :    0.053213   -0.000002
  30 H :    0.062957   -0.000002
  31 C :   -0.283863    0.000008
  32 C :   -0.283647    0.000011
  33 C :   -0.177045    0.000007
  34 H :    0.063486   -0.000001
  35 H :    0.053179    0.000003
  36 H :    0.060775    0.000003
  37 H :    0.057499    0.000000
  38 H :    0.053542    0.000002
  39 H :    0.060763   -0.000000

  Mayer bond orders larger than 0.100000
B(  0-V ,  1-S ) :   0.7655 B(  0-V ,  2-S ) :   0.7703 B(  0-V ,  3-S ) :   0.7710
B(  0-V ,  4-S ) :   0.7954 B(  0-V ,  5-O ) :   2.2162 B(  1-S ,  8-C ) :   1.1092
B(  2-S ,  6-C ) :   1.1105 B(  3-S ,  9-C ) :   1.1082 B(  4-S ,  7-C ) :   1.1027
B(  6-C ,  7-C ) :   1.6770 B(  6-C , 10-S ) :   0.9363 B(  7-C , 11-S ) :   0.9473
B(  8-C ,  9-C ) :   1.6909 B(  8-C , 13-S ) :   0.9348 B(  9-C , 12-S ) :   0.9405
B( 10-S , 14-C ) :   1.2500 B( 11-S , 14-C ) :   1.2529 B( 12-S , 15-C ) :   1.2541
B( 13-S , 15-C ) :   1.2513 B( 14-C , 16-C ) :   1.4483 B( 15-C , 17-C ) :   1.4487
B( 16-C , 18-S ) :   1.0894 B( 16-C , 19-S ) :   1.0829 B( 17-C , 20-S ) :   1.0859
B( 17-C , 21-S ) :   1.0822 B( 18-S , 32-C ) :   0.9860 B( 19-S , 31-C ) :   0.9937
B( 20-S , 23-C ) :   0.9884 B( 21-S , 22-C ) :   0.9931 B( 22-C , 24-C ) :   0.9162
B( 22-C , 25-H ) :   0.9652 B( 22-C , 26-H ) :   0.9655 B( 23-C , 24-C ) :   0.9119
B( 23-C , 29-H ) :   0.9649 B( 23-C , 30-H ) :   0.9666 B( 24-C , 27-H ) :   0.9615
B( 24-C , 28-H ) :   0.9711 B( 31-C , 33-C ) :   0.9177 B( 31-C , 38-H ) :   0.9659
B( 31-C , 39-H ) :   0.9641 B( 32-C , 33-C ) :   0.9096 B( 32-C , 34-H ) :   0.9668
B( 32-C , 35-H ) :   0.9649 B( 33-C , 36-H ) :   0.9711 B( 33-C , 37-H ) :   0.9616

FINAL SINGLE POINT ENERGY     -6337.697375445615

DIPOLE MOMENT
-------------
                                X             Y             Z
Electronic contribution:     -4.94813      -8.43275      -8.05578
Nuclear contribution   :      5.59344       9.52042       9.02174
                        -----------------------------------------
Total Dipole Moment    :      0.64531       1.08766       0.96596
                        -----------------------------------------
Magnitude (a.u.)       :      1.59139
Magnitude (Debye)      :      4.04499

Rotational constants in cm-1:     0.010818     0.000811     0.000787
Rotational constants in MHz :   324.324351    24.304915    23.599433

                             ****ORCA TERMINATED NORMALLY****
TOTAL RUN TIME: 0 days 1 hours 2 minutes 22 seconds 300 msec
