                         Program Version 5.0.4 -  RELEASE  -
|  1> ! nofrozencore ReducedPop printbasis
|  2> ! B3LYP TZVP
|  3>
|  4> %basis
|  5> newgto V "CP(PPP)" end
|  6> end
|  7>
|  8> %pal
|  9> nprocs 6
| 10> end
| 11>
| 12> % sym SymThresh 1e-2 end
| 13> * xyz -2 2
| 14> V 0.9785213796585146 -0.04862486950457257 0.5282953320017701
| 15> S 1.6039204936719342 1.1927524926530078 -1.517892437654993
| 16> S -0.15133848317031717 2.040192499908716 1.226413195145067
| 17> S 0.9454451688427615 -2.0606143525545098 -0.9145384066900856
| 18> S -0.8397594811952424 -1.2089614016565686 1.7251452616201
| 19> O 2.2793711598162694 -0.14587303526052223 1.4352624606220006
| 20> C -1.1295849110229081 1.4090194981525013 2.5449850173730773
| 21> C -1.4072736578983884 0.10638238927732813 2.742332854366686
| 22> C 1.8968705011034688 -0.1276822982736569 -2.641433122680382
| 23> C 1.6311407536502853 -1.4247374334671543 -2.401070640138604
| 24> S -1.88942904931872 2.567668796494012 3.688546398651853
| 25> S -2.5079081155933545 -0.28088388044488877 4.106114573396146
| 26> S 1.9714281658603143 -2.573492942934664 -3.7390461412515523
| 27> S 2.5599051464868157 0.2638617940620752 -4.264661529934076
| 28> C -2.7812604799475587 1.3782709967083804 4.647035739542829
| 29> C 2.5133348034866336 -1.3768949699390531 -4.921279663393998
| 30> C -3.5876383558462566 1.7067142513003357 5.702210839757076
| 31> C 2.868470994731807 -1.6891845494685647 -6.204351344738868
| 32> S -3.784769223077675 3.3832144781757436 6.252489616088941
| 33> S -4.476325249249077 0.46207708475387155 6.629649352019876
| 34> S 3.406439357075951 -0.4461266490441404 -7.36220673440339
| 35> S 2.783307411708587 -3.3581593570132156 -6.824564613028045
| 36> C 1.5050191773236141 -3.0913482933448226 -8.137211417256848
| 37> C 2.0387435334753397 -0.6171018228188636 -8.598515140685636
| 38> C 1.8962038616289336 -2.0303405968735673 -9.168536756360231
| 39> H 0.5654679715829165 -2.828800289671341 -7.645837709705997
| 40> H 1.377558936635928 -4.06299976673819 -8.621046837467414
| 41> H 1.1210505615390307 -2.008018552500944 -9.947321776190968
| 42> H 2.8339850862996188 -2.32291725437924 -9.651210368392173
| 43> H 2.278040900564496 0.09093114778074247 -9.39587052846896
| 44> H 1.1102262075102172 -0.2942596189030471 -8.122442718415288
| 45> C -3.642157074855512 0.7150103033945412 8.269609786487726
| 46> C -3.092763649654907 3.208359584376284 7.955113955710635
| 47> C -3.7828842675313323 2.150258174012087 8.804782844642174
| 48> H -2.039044949053539 3.096080458401849 7.5532154903796735
| 49> H -3.177747587612378 4.086527532167704 8.64997120896417
| 50> H -4.781323406103803 2.6684622224254864 8.86678997010874
| 51> H -3.3460096833634085 2.1830590208681167 9.812749958282113
| 52> H -4.202112226198151 -0.13253956390767332 8.747516478235017
| 53> H -2.5176230417457512 0.5938186712642276 8.441395309685944
| 54> *
| 55>
| 56> % eprnmr
| 57> gtensor true
| 58> Nuclei = all H {aiso,adip,aorb,fgrad,rho}
| 59> Nuclei = all V {aiso,adip,aorb,fgrad,rho}
| 60> end
| 61>
| 62>                          ****END OF INPUT****

CARTESIAN COORDINATES (ANGSTROEM)
---------------------------------
  V      0.974794   -0.047801    0.528652
  S      1.600193    1.193577   -1.517536
  S     -0.155066    2.041017    1.226770
  S      0.941718   -2.059790   -0.914182
  S     -0.843487   -1.208137    1.725502
  O      2.275644   -0.145049    1.435619
  C     -1.133312    1.409844    2.545341
  C     -1.411001    0.107207    2.742689
  C      1.893143   -0.126858   -2.641077
  C      1.627414   -1.423913   -2.400714
  S     -1.893156    2.568493    3.688903
  S     -2.511635   -0.280060    4.106471
  S      1.967701   -2.572669   -3.738690
  S      2.556178    0.264686   -4.264305
  C     -2.784988    1.379095    4.647392
  C      2.509608   -1.376071   -4.920923
  C     -3.591365    1.707539    5.702567
  C      2.864744   -1.688360   -6.203995
  S     -3.788496    3.384039    6.252846
  S     -4.480052    0.462901    6.630006
  S      3.402712   -0.445302   -7.361850
  S      2.779580   -3.357335   -6.824208
  C      1.501292   -3.090524   -8.136855
  C      2.035016   -0.616278   -8.598159
  C      1.892477   -2.029516   -9.168180
  H      0.561741   -2.827976   -7.645481
  H      1.373832   -4.062175   -8.620690
  H      1.117323   -2.007194   -9.946965
  H      2.830258   -2.322093   -9.650854
  H      2.274314    0.091755   -9.395514
  H      1.106499   -0.293435   -8.122086
  C     -3.645884    0.715835    8.269966
  C     -3.096491    3.209184    7.955470
  C     -3.786611    2.151082    8.805139
  H     -2.042772    3.096905    7.553572
  H     -3.181475    4.087352    8.650328
  H     -4.785051    2.669287    8.867146
  H     -3.349737    2.183883    9.813106
  H     -4.205839   -0.131715    8.747873
  H     -2.521350    0.594643    8.441752

 Total Charge           Charge          ....   -2
 Multiplicity           Mult            ....    2
 Number of Electrons    NEL             ....  321
 Basis Dimension        Dim             ....  681

ORBITAL ENERGIES
----------------
                 SPIN UP ORBITALS
  NO   OCC          E(Eh)            E(eV)
   0   1.0000    -196.675037     -5351.7998
   1   1.0000     -88.738514     -2414.6977
   2   1.0000     -88.733214     -2414.5535
   3   1.0000     -88.733141     -2414.5515
   4   1.0000     -88.731713     -2414.5127
   5   1.0000     -88.731100     -2414.4960
   6   1.0000     -88.731045     -2414.4945
   7   1.0000     -88.730097     -2414.4687
   8   1.0000     -88.730069     -2414.4679
   9   1.0000     -88.640077     -2412.0191
  10   1.0000     -88.639940     -2412.0154
  11   1.0000     -88.639883     -2412.0138
  12   1.0000     -88.639404     -2412.0008
  13   1.0000     -22.050428      -600.0226
  14   1.0000     -18.890296      -514.0311
  15   1.0000     -18.556876      -504.9583
  16   1.0000     -18.551703      -504.8175
  17   1.0000     -18.551603      -504.8148
  18   1.0000     -10.076724      -274.2016
  19   1.0000     -10.075884      -274.1787
  20   1.0000     -10.074202      -274.1330
  21   1.0000     -10.068187      -273.9693
  22   1.0000     -10.063282      -273.8358
  23   1.0000     -10.063251      -273.8350
  24   1.0000     -10.056895      -273.6620
  25   1.0000     -10.051163      -273.5061
  26   1.0000     -10.049117      -273.4504
  27   1.0000     -10.048437      -273.4319
  28   1.0000     -10.018867      -272.6272
  29   1.0000     -10.017953      -272.6024
  30   1.0000     -10.017949      -272.6022
  31   1.0000     -10.017159      -272.5807
  32   1.0000      -7.791505      -212.0176
  33   1.0000      -7.786678      -211.8863
  34   1.0000      -7.786597      -211.8841
  35   1.0000      -7.785589      -211.8567
  36   1.0000      -7.784340      -211.8227
  37   1.0000      -7.784319      -211.8221
  38   1.0000      -7.783375      -211.7964
  39   1.0000      -7.783352      -211.7958
  40   1.0000      -7.694407      -209.3755
  41   1.0000      -7.694190      -209.3696
  42   1.0000      -7.694108      -209.3673
  43   1.0000      -7.693751      -209.3576
  44   1.0000      -5.756612      -156.6454
  45   1.0000      -5.753099      -156.5498
  46   1.0000      -5.751672      -156.5110
  47   1.0000      -5.751586      -156.5086
  48   1.0000      -5.750512      -156.4794
  49   1.0000      -5.749282      -156.4459
  50   1.0000      -5.749254      -156.4451
  51   1.0000      -5.748321      -156.4198
  52   1.0000      -5.748301      -156.4192
  53   1.0000      -5.748241      -156.4176
  54   1.0000      -5.748172      -156.4157
  55   1.0000      -5.747166      -156.3883
  56   1.0000      -5.746241      -156.3632
  57   1.0000      -5.744836      -156.3249
  58   1.0000      -5.744816      -156.3244
  59   1.0000      -5.743891      -156.2992
  60   1.0000      -5.743873      -156.2987
  61   1.0000      -5.741478      -156.2336
  62   1.0000      -5.741392      -156.2312
  63   1.0000      -5.740313      -156.2019
  64   1.0000      -5.740182      -156.1983
  65   1.0000      -5.740171      -156.1980
  66   1.0000      -5.739185      -156.1712
  67   1.0000      -5.739171      -156.1708
  68   1.0000      -5.659716      -154.0087
  69   1.0000      -5.659513      -154.0032
  70   1.0000      -5.659448      -154.0014
  71   1.0000      -5.659035      -153.9902
  72   1.0000      -5.653060      -153.8276
  73   1.0000      -5.652868      -153.8224
  74   1.0000      -5.652770      -153.8197
  75   1.0000      -5.652437      -153.8106
  76   1.0000      -5.651715      -153.7910
  77   1.0000      -5.651518      -153.7856
  78   1.0000      -5.651412      -153.7827
  79   1.0000      -5.651061      -153.7732
  80   1.0000      -2.444072       -66.5066
  81   1.0000      -1.485378       -40.4192
  82   1.0000      -1.473714       -40.1018
  83   1.0000      -1.472895       -40.0795
  84   1.0000      -0.710634       -19.3373
  85   1.0000      -0.709543       -19.3077
  86   1.0000      -0.686503       -18.6807
  87   1.0000      -0.685516       -18.6538
  88   1.0000      -0.649883       -17.6842
  89   1.0000      -0.632664       -17.2157
  90   1.0000      -0.631265       -17.1776
  91   1.0000      -0.617405       -16.8005
  92   1.0000      -0.617183       -16.7944
  93   1.0000      -0.575255       -15.6535
  94   1.0000      -0.574707       -15.6386
  95   1.0000      -0.574502       -15.6330
  96   1.0000      -0.572912       -15.5897
  97   1.0000      -0.498861       -13.5747
  98   1.0000      -0.496043       -13.4980
  99   1.0000      -0.495862       -13.4931
 100   1.0000      -0.493355       -13.4249
 101   1.0000      -0.479826       -13.0567
 102   1.0000      -0.477301       -12.9880
 103   1.0000      -0.446444       -12.1484
 104   1.0000      -0.439694       -11.9647
 105   1.0000      -0.415562       -11.3080
 106   1.0000      -0.410454       -11.1690
 107   1.0000      -0.358028        -9.7424
 108   1.0000      -0.355195        -9.6654
 109   1.0000      -0.327798        -8.9198
 110   1.0000      -0.326473        -8.8838
 111   1.0000      -0.318741        -8.6734
 112   1.0000      -0.314482        -8.5575
 113   1.0000      -0.307108        -8.3568
 114   1.0000      -0.303854        -8.2683
 115   1.0000      -0.292230        -7.9520
 116   1.0000      -0.288277        -7.8444
 117   1.0000      -0.260627        -7.0920
 118   1.0000      -0.256870        -6.9898
 119   1.0000      -0.256505        -6.9799
 120   1.0000      -0.246401        -6.7049
 121   1.0000      -0.236373        -6.4320
 122   1.0000      -0.234394        -6.3782
 123   1.0000      -0.230564        -6.2740
 124   1.0000      -0.223287        -6.0759
 125   1.0000      -0.219949        -5.9851
 126   1.0000      -0.217171        -5.9095
 127   1.0000      -0.212025        -5.7695
 128   1.0000      -0.204779        -5.5723
 129   1.0000      -0.193799        -5.2735
 130   1.0000      -0.189509        -5.1568
 131   1.0000      -0.187239        -5.0950
 132   1.0000      -0.182652        -4.9702
 133   1.0000      -0.175126        -4.7654
 134   1.0000      -0.159622        -4.3435
 135   1.0000      -0.151238        -4.1154
 136   1.0000      -0.146727        -3.9926
 137   1.0000      -0.135526        -3.6879
 138   1.0000      -0.134295        -3.6544
 139   1.0000      -0.132885        -3.6160
 140   1.0000      -0.125234        -3.4078
 141   1.0000      -0.121284        -3.3003
 142   1.0000      -0.113606        -3.0914
 143   1.0000      -0.109781        -2.9873
 144   1.0000      -0.100051        -2.7225
 145   1.0000      -0.098298        -2.6748
 146   1.0000      -0.097328        -2.6484
 147   1.0000      -0.094606        -2.5744
 148   1.0000      -0.074670        -2.0319
 149   1.0000      -0.067879        -1.8471
 150   1.0000      -0.067274        -1.8306
 151   1.0000      -0.052510        -1.4289
 152   1.0000      -0.045736        -1.2445
 153   1.0000      -0.037536        -1.0214
 154   1.0000      -0.037151        -1.0109
 155   1.0000      -0.031339        -0.8528
 156   1.0000      -0.025095        -0.6829
 157   1.0000      -0.019234        -0.5234
 158   1.0000      -0.015625        -0.4252
 159   1.0000       0.020203         0.5498
 160   1.0000       0.041077         1.1178
 161   0.0000       0.133651         3.6368
 162   0.0000       0.137338         3.7372
 163   0.0000       0.157357         4.2819
 164   0.0000       0.162285         4.4160
 165   0.0000       0.166025         4.5178

                 SPIN DOWN ORBITALS
  NO   OCC          E(Eh)            E(eV)
   0   1.0000    -196.675184     -5351.8038
   1   1.0000     -88.738515     -2414.6978
   2   1.0000     -88.733214     -2414.5535
   3   1.0000     -88.733141     -2414.5515
   4   1.0000     -88.731714     -2414.5127
   5   1.0000     -88.731109     -2414.4962
   6   1.0000     -88.731053     -2414.4947
   7   1.0000     -88.730105     -2414.4689
   8   1.0000     -88.730078     -2414.4682
   9   1.0000     -88.640216     -2412.0229
  10   1.0000     -88.640077     -2412.0191
  11   1.0000     -88.640025     -2412.0177
  12   1.0000     -88.639543     -2412.0046
  13   1.0000     -22.035494      -599.6163
  14   1.0000     -18.894089      -514.1343
  15   1.0000     -18.551605      -504.8148
  16   1.0000     -18.535668      -504.3812
  17   1.0000     -18.535485      -504.3762
  18   1.0000     -10.076719      -274.2015
  19   1.0000     -10.075883      -274.1787
  20   1.0000     -10.074201      -274.1330
  21   1.0000     -10.068186      -273.9693
  22   1.0000     -10.063282      -273.8358
  23   1.0000     -10.063251      -273.8350
  24   1.0000     -10.056895      -273.6620
  25   1.0000     -10.051163      -273.5061
  26   1.0000     -10.049106      -273.4501
  27   1.0000     -10.048433      -273.4318
  28   1.0000     -10.018629      -272.6208
  29   1.0000     -10.017739      -272.5965
  30   1.0000     -10.017725      -272.5962
  31   1.0000     -10.016947      -272.5750
  32   1.0000      -7.791505      -212.0176
  33   1.0000      -7.786679      -211.8863
  34   1.0000      -7.786598      -211.8841
  35   1.0000      -7.785590      -211.8567
  36   1.0000      -7.784349      -211.8229
  37   1.0000      -7.784328      -211.8223
  38   1.0000      -7.783385      -211.7967
  39   1.0000      -7.783362      -211.7960
  40   1.0000      -7.694537      -209.3790
  41   1.0000      -7.694318      -209.3730
  42   1.0000      -7.694240      -209.3709
  43   1.0000      -7.693881      -209.3611
  44   1.0000      -5.756613      -156.6454
  45   1.0000      -5.753101      -156.5498
  46   1.0000      -5.751673      -156.5110
  47   1.0000      -5.751587      -156.5086
  48   1.0000      -5.750513      -156.4794
  49   1.0000      -5.749293      -156.4462
  50   1.0000      -5.749265      -156.4454
  51   1.0000      -5.748332      -156.4201
  52   1.0000      -5.748312      -156.4195
  53   1.0000      -5.748241      -156.4176
  54   1.0000      -5.748173      -156.4157
  55   1.0000      -5.747167      -156.3884
  56   1.0000      -5.746242      -156.3632
  57   1.0000      -5.744850      -156.3253
  58   1.0000      -5.744830      -156.3248
  59   1.0000      -5.743905      -156.2996
  60   1.0000      -5.743887      -156.2991
  61   1.0000      -5.741479      -156.2336
  62   1.0000      -5.741393      -156.2312
  63   1.0000      -5.740314      -156.2019
  64   1.0000      -5.740190      -156.1985
  65   1.0000      -5.740180      -156.1982
  66   1.0000      -5.739191      -156.1713
  67   1.0000      -5.739177      -156.1709
  68   1.0000      -5.659854      -154.0125
  69   1.0000      -5.659656      -154.0071
  70   1.0000      -5.659590      -154.0053
  71   1.0000      -5.659177      -153.9940
  72   1.0000      -5.653446      -153.8381
  73   1.0000      -5.653219      -153.8319
  74   1.0000      -5.653152      -153.8301
  75   1.0000      -5.652798      -153.8204
  76   1.0000      -5.651800      -153.7933
  77   1.0000      -5.651624      -153.7885
  78   1.0000      -5.651506      -153.7853
  79   1.0000      -5.651167      -153.7761
  80   1.0000      -2.399180       -65.2850
  81   1.0000      -1.466070       -39.8938
  82   1.0000      -1.411329       -38.4042
  83   1.0000      -1.411166       -38.3998
  84   1.0000      -0.710609       -19.3366
  85   1.0000      -0.709528       -19.3072
  86   1.0000      -0.686446       -18.6792
  87   1.0000      -0.685473       -18.6527
  88   1.0000      -0.658020       -17.9056
  89   1.0000      -0.632593       -17.2137
  90   1.0000      -0.631206       -17.1760
  91   1.0000      -0.617404       -16.8004
  92   1.0000      -0.617185       -16.7945
  93   1.0000      -0.575205       -15.6521
  94   1.0000      -0.574645       -15.6369
  95   1.0000      -0.574476       -15.6323
  96   1.0000      -0.572847       -15.5880
  97   1.0000      -0.498877       -13.5751
  98   1.0000      -0.496085       -13.4992
  99   1.0000      -0.495897       -13.4940
 100   1.0000      -0.493411       -13.4264
 101   1.0000      -0.480008       -13.0617
 102   1.0000      -0.477547       -12.9947
 103   1.0000      -0.446475       -12.1492
 104   1.0000      -0.439738       -11.9659
 105   1.0000      -0.415566       -11.3081
 106   1.0000      -0.410551       -11.1717
 107   1.0000      -0.358021        -9.7423
 108   1.0000      -0.355190        -9.6652
 109   1.0000      -0.327780        -8.9193
 110   1.0000      -0.326464        -8.8835
 111   1.0000      -0.318667        -8.6714
 112   1.0000      -0.314505        -8.5581
 113   1.0000      -0.307070        -8.3558
 114   1.0000      -0.303820        -8.2674
 115   1.0000      -0.292226        -7.9519
 116   1.0000      -0.288257        -7.8439
 117   1.0000      -0.260516        -7.0890
 118   1.0000      -0.256784        -6.9875
 119   1.0000      -0.256460        -6.9786
 120   1.0000      -0.246328        -6.7029
 121   1.0000      -0.236340        -6.4312
 122   1.0000      -0.234365        -6.3774
 123   1.0000      -0.230524        -6.2729
 124   1.0000      -0.223260        -6.0752
 125   1.0000      -0.219623        -5.9763
 126   1.0000      -0.216899        -5.9021
 127   1.0000      -0.211867        -5.7652
 128   1.0000      -0.204695        -5.5700
 129   1.0000      -0.192527        -5.2389
 130   1.0000      -0.188716        -5.1352
 131   1.0000      -0.187134        -5.0922
 132   1.0000      -0.182469        -4.9652
 133   1.0000      -0.175008        -4.7622
 134   1.0000      -0.159006        -4.3268
 135   1.0000      -0.151060        -4.1106
 136   1.0000      -0.146635        -3.9901
 137   1.0000      -0.134824        -3.6688
 138   1.0000      -0.134078        -3.6484
 139   1.0000      -0.132623        -3.6088
 140   1.0000      -0.124656        -3.3921
 141   1.0000      -0.120958        -3.2914
 142   1.0000      -0.115405        -3.1403
 143   1.0000      -0.111382        -3.0309
 144   1.0000      -0.100055        -2.7226
 145   1.0000      -0.098619        -2.6836
 146   1.0000      -0.097305        -2.6478
 147   1.0000      -0.094924        -2.5830
 148   1.0000      -0.070853        -1.9280
 149   1.0000      -0.067858        -1.8465
 150   1.0000      -0.067271        -1.8305
 151   1.0000      -0.049926        -1.3586
 152   1.0000      -0.044803        -1.2192
 153   1.0000      -0.037534        -1.0213
 154   1.0000      -0.036626        -0.9967
 155   1.0000      -0.031370        -0.8536
 156   1.0000      -0.026133        -0.7111
 157   1.0000      -0.015832        -0.4308
 158   1.0000       0.020488         0.5575
 159   1.0000       0.039980         1.0879
 160   0.0000       0.133666         3.6372
 161   0.0000       0.137328         3.7369
 162   0.0000       0.155111         4.2208
 163   0.0000       0.158398         4.3102
 164   0.0000       0.163041         4.4366

MULLIKEN ATOMIC CHARGES AND SPIN POPULATIONS
--------------------------------------------
   0 V :    0.471155    1.210937
   1 S :   -0.291135   -0.022556
   2 S :   -0.288822   -0.025165
   3 S :   -0.289224   -0.023474
   4 S :   -0.284499   -0.025582
   5 O :   -0.467413   -0.146916
   6 C :   -0.078396    0.009654
   7 C :   -0.084640    0.008051
   8 C :   -0.083968    0.007775
   9 C :   -0.084549    0.007383
  10 S :    0.096851   -0.000569
  11 S :    0.105994   -0.000651
  12 S :    0.100060   -0.000393
  13 S :    0.099294   -0.000347
  14 C :   -0.199515    0.001484
  15 C :   -0.211946    0.001000
  16 C :   -0.209025   -0.000028
  17 C :   -0.190577   -0.000409
  18 S :    0.015000   -0.000109
  19 S :    0.003217   -0.000117
  20 S :    0.008302   -0.000068
  21 S :    0.008213   -0.000071
  22 C :   -0.301023   -0.000001
  23 C :   -0.300531   -0.000002
  24 C :   -0.157324   -0.000011
  25 H :    0.143386   -0.000001
  26 H :    0.113783   -0.000004
  27 H :    0.083384   -0.000000
  28 H :    0.092050   -0.000001
  29 H :    0.113375   -0.000005
  30 H :    0.142982   -0.000001
  31 C :   -0.236507    0.000181
  32 C :   -0.326629    0.000172
  33 C :   -0.148665   -0.000212
  34 H :    0.147903   -0.000018
  35 H :    0.109517    0.000035
  36 H :    0.078525    0.000022
  37 H :    0.090379    0.000015
  38 H :    0.101486    0.000016
  39 H :    0.109534   -0.000013
Sum of atomic charges         :   -2.0000000

LOEWDIN ATOMIC CHARGES AND SPIN POPULATIONS
-------------------------------------------
   0 V :   -0.155881    1.164240
   1 S :    0.080016   -0.014546
   2 S :    0.079756   -0.016052
   3 S :    0.081299   -0.015320
   4 S :    0.083740   -0.016209
   5 O :   -0.318717   -0.131807
   6 C :   -0.549738    0.009047
   7 C :   -0.551785    0.007938
   8 C :   -0.552382    0.008133
   9 C :   -0.552378    0.007666
  10 S :    0.471325   -0.000893
  11 S :    0.475064   -0.000969
  12 S :    0.471352   -0.000824
  13 S :    0.470610   -0.000829
  14 C :   -0.464784    0.000178
  15 C :   -0.465154   -0.000081
  16 C :   -0.623725    0.000471
  17 C :   -0.622071    0.000084
  18 S :    0.354596   -0.000085
  19 S :    0.370026   -0.000092
  20 S :    0.359008   -0.000073
  21 S :    0.358584   -0.000075
  22 C :   -0.283270   -0.000007
  23 C :   -0.283381   -0.000009
  24 C :   -0.176075   -0.000002
  25 H :    0.062570   -0.000001
  26 H :    0.053611   -0.000002
  27 H :    0.058014   -0.000002
  28 H :    0.060174   -0.000001
  29 H :    0.053563   -0.000002
  30 H :    0.062391   -0.000002
  31 C :   -0.293178    0.000046
  32 C :   -0.306246    0.000046
  33 C :   -0.185975    0.000007
  34 H :    0.067633   -0.000000
  35 H :    0.064186    0.000014
  36 H :    0.064669    0.000005
  37 H :    0.056594    0.000002
  38 H :    0.053083    0.000006
  39 H :    0.072877   -0.000001

  Mayer bond orders larger than 0.100000
B(  0-V ,  1-S ) :   0.7724 B(  0-V ,  2-S ) :   0.7703 B(  0-V ,  3-S ) :   0.7656
B(  0-V ,  4-S ) :   0.7773 B(  0-V ,  5-O ) :   2.1490 B(  1-S ,  8-C ) :   1.1034
B(  2-S ,  6-C ) :   1.1054 B(  3-S ,  9-C ) :   1.1061 B(  4-S ,  7-C ) :   1.1054
B(  6-C ,  7-C ) :   1.6828 B(  6-C , 10-S ) :   0.9363 B(  7-C , 11-S ) :   0.9395
B(  8-C ,  9-C ) :   1.6984 B(  8-C , 13-S ) :   0.9337 B(  9-C , 12-S ) :   0.9356
B( 10-S , 14-C ) :   1.2459 B( 11-S , 14-C ) :   1.2503 B( 12-S , 15-C ) :   1.2464
B( 13-S , 15-C ) :   1.2465 B( 14-C , 16-C ) :   1.4415 B( 15-C , 17-C ) :   1.4538
B( 16-C , 18-S ) :   1.1355 B( 16-C , 19-S ) :   1.0505 B( 17-C , 20-S ) :   1.0880
B( 17-C , 21-S ) :   1.0885 B( 18-S , 32-C ) :   0.9730 B( 19-S , 31-C ) :   0.9938
B( 20-S , 23-C ) :   0.9915 B( 21-S , 22-C ) :   0.9906 B( 22-C , 24-C ) :   0.9129
B( 22-C , 25-H ) :   0.9657 B( 22-C , 26-H ) :   0.9655 B( 23-C , 24-C ) :   0.9137
B( 23-C , 29-H ) :   0.9656 B( 23-C , 30-H ) :   0.9655 B( 24-C , 27-H ) :   0.9626
B( 24-C , 28-H ) :   0.9719 B( 31-C , 33-C ) :   0.9375 B( 31-C , 38-H ) :   0.9687
B( 31-C , 39-H ) :   0.9357 B( 32-C , 33-C ) :   0.8888 B( 32-C , 34-H ) :   0.9732
B( 32-C , 35-H ) :   0.9585 B( 33-C , 36-H ) :   0.9522 B( 33-C , 37-H ) :   0.9755

FINAL SINGLE POINT ENERGY     -6337.668173872713

DIPOLE MOMENT
-------------
                                X             Y             Z
Electronic contribution:     13.13426      -1.18790       3.11260
Nuclear contribution   :    -14.61427       1.23162      -3.62131
                        -----------------------------------------
Total Dipole Moment    :     -1.48001       0.04372      -0.50871
                        -----------------------------------------
Magnitude (a.u.)       :      1.56561
Magnitude (Debye)      :      3.97946

Rotational constants in cm-1:     0.010760     0.000804     0.000783
Rotational constants in MHz :   322.581992    24.115722    23.486505

                             ****ORCA TERMINATED NORMALLY****
TOTAL RUN TIME: 0 days 1 hours 6 minutes 55 seconds 272 msec
