                         Program Version 5.0.4 -  RELEASE  -
|  1> ! nofrozencore ReducedPop printbasis
|  2> ! B3LYP TZVP
|  3>
|  4> %basis
|  5> newgto V "CP(PPP)" end
|  6> end
|  7>
|  8> %pal
|  9> nprocs 6
| 10> end
| 11>
| 12> % sym SymThresh 1e-2 end
| 13> * xyz -2 2
| 14> V 0.4196228444040152 -0.5481970069698129 0.8731354365742023
| 15> S -1.6087946346874364 0.45538594934754334 1.8717907222667163
| 16> S -1.13778541875386 -2.0752017922103505 -0.2972419666535216
| 17> S 1.4028085506075003 1.7191699139814118 1.0261457664716198
| 18> S 1.8137548776886536 -0.7212664507886574 -1.1545425916255105
| 19> O 1.1091847589817982 -1.4329554891890275 1.998278380668851
| 20> C -0.039545834062092174 -2.734823369222733 -1.5021622582432812
| 21> C 1.1419883950909402 -2.189681141524606 -1.847826101274445
| 22> C -1.017792813608793 2.0518155259261053 2.3120978271139125
| 23> C 0.18243041064622212 2.5562162543389784 1.9718186013456342
| 24> S -0.5346032525543543 -4.203571516299737 -2.4108197629608963
| 25> S 2.0412558739191566 -2.997971871169112 -3.173992273474104
| 26> S 0.5232870921495505 4.238599632196922 2.500060959262751
| 27> S -2.1013269616530064 3.13408364636913 3.25146233979247
| 28> C 0.8664829939019183 -4.281029005769284 -3.4861434124702653
| 29> C -1.03793054403568 4.546268284361086 3.2689154865048606
| 30> C 1.0326685368216475 -5.237114554186886 -4.450105920803182
| 31> C -1.3821795190939647 5.7463143425588274 3.8268672081191806
| 32> S -0.14964341695949623 -6.548021471575394 -4.694718353271716
| 33> S 2.464902820437009 -5.262455392763091 -5.510117508341755
| 34> S -2.971163547837833 6.009790695966749 4.589077959784211
| 35> S -0.28054522335954235 7.147389547589449 3.7993094166234007
| 36> C -1.3182919714712291 8.283948215365522 2.7699595432724102
| 37> C -3.6062170386413794 7.32071199102682 3.446064814061793
| 38> C -2.704009467437014 8.554108240198918 3.3608802210374833
| 39> H -1.39863284470033 7.854779814594193 1.7697037735384051
| 40> H -0.7477425511110276 9.2142953505175 2.6979415216032
| 41> H -3.205383118555965 9.301190781681612 2.729730878528586
| 42> H -2.5932716850190967 8.99208003592442 4.357855243440824
| 43> H -4.588109653283184 7.595563757066849 3.8371937778417187
| 44> H -3.74496299348511 6.871404115556587 2.459284649302728
| 45> C 3.183731350508065 -6.8968094318899915 -5.024208693720669
| 46> C 0.9691510322234226 -7.958437076525381 -4.2534105490023455
| 47> C 2.2043292415613487 -8.064148736381 -5.1544074676287766
| 48> H 1.1383453106632444 -7.935333613720211 -3.5400445725949763
| 49> H 0.15556541905502722 -9.120507914719138 -4.461921670466078
| 50> H 1.9136815937104954 -8.141339187626373 -6.204050058962275
| 51> H 2.7388740116799517 -8.989387015710616 -4.894123033649292
| 52> H 3.8023587977814652 -6.9950199282515255 -5.425912427293581
| 53> H 3.589522193576126 -6.767300158456572 -3.6288080708607464
| 54> *
| 55>
| 56> % eprnmr
| 57> gtensor true
| 58> Nuclei = all H {aiso,adip,aorb,fgrad,rho}
| 59> Nuclei = all V {aiso,adip,aorb,fgrad,rho}
| 60> end
| 61>
| 62>                          ****END OF INPUT****

CARTESIAN COORDINATES (ANGSTROEM)
---------------------------------
  V      0.418680   -0.548442    0.869427
  S     -1.609737    0.455141    1.868083
  S     -1.138728   -2.075447   -0.300950
  S      1.401866    1.718925    1.022438
  S      1.812812   -0.721511   -1.158251
  O      1.108242   -1.433200    1.994570
  C     -0.040488   -2.735068   -1.505870
  C      1.141046   -2.189926   -1.851534
  C     -1.018735    2.051571    2.308390
  C      0.181488    2.555971    1.968111
  S     -0.535546   -4.203816   -2.414528
  S      2.040313   -2.998217   -3.177700
  S      0.522345    4.238355    2.496353
  S     -2.102269    3.133839    3.247754
  C      0.865540   -4.281274   -3.489851
  C     -1.038873    4.546023    3.265207
  C      1.031726   -5.237359   -4.453814
  C     -1.383122    5.746069    3.823159
  S     -0.150586   -6.548266   -4.698426
  S      2.463960   -5.262700   -5.513826
  S     -2.972106    6.009546    4.585370
  S     -0.281488    7.147145    3.795601
  C     -1.319234    8.283703    2.766251
  C     -3.607160    7.320467    3.442357
  C     -2.704952    8.553863    3.357172
  H     -1.399575    7.854535    1.765996
  H     -0.748685    9.214050    2.694233
  H     -3.206326    9.300946    2.726023
  H     -2.594214    8.991835    4.354147
  H     -4.589052    7.595319    3.833486
  H     -3.745906    6.871159    2.455577
  C      3.182789   -6.897054   -5.027917
  C      0.968209   -7.958682   -4.257119
  C      2.203387   -8.064394   -5.158116
  H      1.137403   -7.935579   -3.543753
  H      0.154623   -9.120753   -4.465630
  H      1.912739   -8.141584   -6.207758
  H      2.737931   -8.989632   -4.897831
  H      3.801416   -6.995265   -5.429620
  H      3.588580   -6.767545   -3.632516

 Total Charge           Charge          ....   -2
 Multiplicity           Mult            ....    2
 Number of Electrons    NEL             ....  321
 Basis Dimension        Dim             ....  681

ORBITAL ENERGIES
----------------
                 SPIN UP ORBITALS
  NO   OCC          E(Eh)            E(eV)
   0   1.0000    -196.675536     -5351.8134
   1   1.0000     -88.738672     -2414.7020
   2   1.0000     -88.736416     -2414.6406
   3   1.0000     -88.733422     -2414.5592
   4   1.0000     -88.733338     -2414.5569
   5   1.0000     -88.732446     -2414.5326
   6   1.0000     -88.732168     -2414.5250
   7   1.0000     -88.730380     -2414.4764
   8   1.0000     -88.730322     -2414.4748
   9   1.0000     -88.640732     -2412.0369
  10   1.0000     -88.640599     -2412.0333
  11   1.0000     -88.640238     -2412.0235
  12   1.0000     -88.639762     -2412.0105
  13   1.0000     -22.050929      -600.0363
  14   1.0000     -18.890798      -514.0448
  15   1.0000     -18.557374      -504.9718
  16   1.0000     -18.552206      -504.8312
  17   1.0000     -18.552104      -504.8284
  18   1.0000     -10.078342      -274.2456
  19   1.0000     -10.076129      -274.1854
  20   1.0000     -10.063482      -273.8413
  21   1.0000     -10.063430      -273.8399
  22   1.0000     -10.062567      -273.8164
  23   1.0000     -10.061792      -273.7953
  24   1.0000     -10.055670      -273.6287
  25   1.0000     -10.051323      -273.5104
  26   1.0000     -10.051292      -273.5096
  27   1.0000     -10.048669      -273.4382
  28   1.0000     -10.019785      -272.6522
  29   1.0000     -10.018886      -272.6277
  30   1.0000     -10.018280      -272.6113
  31   1.0000     -10.017486      -272.5897
  32   1.0000      -7.791948      -212.0297
  33   1.0000      -7.789538      -211.9641
  34   1.0000      -7.786884      -211.8919
  35   1.0000      -7.786791      -211.8894
  36   1.0000      -7.785643      -211.8581
  37   1.0000      -7.785434      -211.8524
  38   1.0000      -7.783652      -211.8039
  39   1.0000      -7.783621      -211.8031
  40   1.0000      -7.695050      -209.3930
  41   1.0000      -7.694832      -209.3870
  42   1.0000      -7.694551      -209.3794
  43   1.0000      -7.694133      -209.3680
  44   1.0000      -5.756944      -156.6544
  45   1.0000      -5.754551      -156.5893
  46   1.0000      -5.753427      -156.5587
  47   1.0000      -5.751868      -156.5163
  48   1.0000      -5.751782      -156.5140
  49   1.0000      -5.751243      -156.4993
  50   1.0000      -5.750576      -156.4811
  51   1.0000      -5.750388      -156.4760
  52   1.0000      -5.748604      -156.4275
  53   1.0000      -5.748570      -156.4266
  54   1.0000      -5.748456      -156.4234
  55   1.0000      -5.748364      -156.4209
  56   1.0000      -5.746878      -156.3805
  57   1.0000      -5.746146      -156.3606
  58   1.0000      -5.745919      -156.3544
  59   1.0000      -5.744207      -156.3078
  60   1.0000      -5.744169      -156.3068
  61   1.0000      -5.744141      -156.3060
  62   1.0000      -5.741685      -156.2392
  63   1.0000      -5.741587      -156.2365
  64   1.0000      -5.741499      -156.2341
  65   1.0000      -5.741273      -156.2280
  66   1.0000      -5.739460      -156.1787
  67   1.0000      -5.739431      -156.1778
  68   1.0000      -5.660358      -154.0262
  69   1.0000      -5.660190      -154.0216
  70   1.0000      -5.659855      -154.0125
  71   1.0000      -5.659420      -154.0007
  72   1.0000      -5.653690      -153.8447
  73   1.0000      -5.653481      -153.8390
  74   1.0000      -5.653206      -153.8316
  75   1.0000      -5.652800      -153.8205
  76   1.0000      -5.652375      -153.8089
  77   1.0000      -5.652124      -153.8021
  78   1.0000      -5.651863      -153.7950
  79   1.0000      -5.651441      -153.7835
  80   1.0000      -2.444579       -66.5204
  81   1.0000      -1.485879       -40.4328
  82   1.0000      -1.474228       -40.1158
  83   1.0000      -1.473404       -40.0934
  84   1.0000      -0.717140       -19.5144
  85   1.0000      -0.709775       -19.3139
  86   1.0000      -0.693725       -18.8772
  87   1.0000      -0.685753       -18.6603
  88   1.0000      -0.650368       -17.6974
  89   1.0000      -0.642825       -17.4922
  90   1.0000      -0.636501       -17.3201
  91   1.0000      -0.631509       -17.1842
  92   1.0000      -0.617379       -16.7997
  93   1.0000      -0.577154       -15.7052
  94   1.0000      -0.575586       -15.6625
  95   1.0000      -0.574813       -15.6415
  96   1.0000      -0.573215       -15.5980
  97   1.0000      -0.521720       -14.1967
  98   1.0000      -0.508862       -13.8468
  99   1.0000      -0.496322       -13.5056
 100   1.0000      -0.496153       -13.5010
 101   1.0000      -0.482807       -13.1378
 102   1.0000      -0.478413       -13.0183
 103   1.0000      -0.476102       -12.9554
 104   1.0000      -0.446460       -12.1488
 105   1.0000      -0.419748       -11.4219
 106   1.0000      -0.412782       -11.2324
 107   1.0000      -0.355426        -9.6716
 108   1.0000      -0.355391        -9.6707
 109   1.0000      -0.338236        -9.2039
 110   1.0000      -0.326678        -8.8894
 111   1.0000      -0.320309        -8.7160
 112   1.0000      -0.315646        -8.5892
 113   1.0000      -0.306222        -8.3327
 114   1.0000      -0.304038        -8.2733
 115   1.0000      -0.292799        -7.9675
 116   1.0000      -0.292392        -7.9564
 117   1.0000      -0.268463        -7.3052
 118   1.0000      -0.258469        -7.0333
 119   1.0000      -0.257035        -6.9943
 120   1.0000      -0.256085        -6.9684
 121   1.0000      -0.234705        -6.3867
 122   1.0000      -0.233149        -6.3443
 123   1.0000      -0.230774        -6.2797
 124   1.0000      -0.221819        -6.0360
 125   1.0000      -0.219588        -5.9753
 126   1.0000      -0.215716        -5.8699
 127   1.0000      -0.212307        -5.7772
 128   1.0000      -0.202924        -5.5219
 129   1.0000      -0.194219        -5.2850
 130   1.0000      -0.189768        -5.1639
 131   1.0000      -0.187480        -5.1016
 132   1.0000      -0.183591        -4.9958
 133   1.0000      -0.178664        -4.8617
 134   1.0000      -0.160273        -4.3612
 135   1.0000      -0.152168        -4.1407
 136   1.0000      -0.147414        -4.0113
 137   1.0000      -0.137546        -3.7428
 138   1.0000      -0.134807        -3.6683
 139   1.0000      -0.133893        -3.6434
 140   1.0000      -0.125877        -3.4253
 141   1.0000      -0.121868        -3.3162
 142   1.0000      -0.114100        -3.1048
 143   1.0000      -0.110553        -3.0083
 144   1.0000      -0.100841        -2.7440
 145   1.0000      -0.098807        -2.6887
 146   1.0000      -0.098663        -2.6848
 147   1.0000      -0.095832        -2.6077
 148   1.0000      -0.075203        -2.0464
 149   1.0000      -0.070409        -1.9159
 150   1.0000      -0.067543        -1.8379
 151   1.0000      -0.053070        -1.4441
 152   1.0000      -0.046281        -1.2594
 153   1.0000      -0.038696        -1.0530
 154   1.0000      -0.037724        -1.0265
 155   1.0000      -0.032349        -0.8803
 156   1.0000      -0.025596        -0.6965
 157   1.0000      -0.019768        -0.5379
 158   1.0000      -0.016174        -0.4401
 159   1.0000       0.019567         0.5325
 160   1.0000       0.040514         1.1025
 161   0.0000       0.127110         3.4588
 162   0.0000       0.137119         3.7312
 163   0.0000       0.143845         3.9142
 164   0.0000       0.150332         4.0907
 165   0.0000       0.162087         4.4106

                 SPIN DOWN ORBITALS
  NO   OCC          E(Eh)            E(eV)
   0   1.0000    -196.675683     -5351.8174
   1   1.0000     -88.738672     -2414.7020
   2   1.0000     -88.736417     -2414.6407
   3   1.0000     -88.733422     -2414.5592
   4   1.0000     -88.733339     -2414.5569
   5   1.0000     -88.732454     -2414.5328
   6   1.0000     -88.732176     -2414.5253
   7   1.0000     -88.730388     -2414.4766
   8   1.0000     -88.730330     -2414.4750
   9   1.0000     -88.640871     -2412.0407
  10   1.0000     -88.640739     -2412.0371
  11   1.0000     -88.640375     -2412.0272
  12   1.0000     -88.639902     -2412.0143
  13   1.0000     -22.035992      -599.6298
  14   1.0000     -18.894600      -514.1482
  15   1.0000     -18.552100      -504.8283
  16   1.0000     -18.536169      -504.3948
  17   1.0000     -18.535985      -504.3898
  18   1.0000     -10.078336      -274.2455
  19   1.0000     -10.076128      -274.1854
  20   1.0000     -10.063482      -273.8413
  21   1.0000     -10.063430      -273.8399
  22   1.0000     -10.062566      -273.8163
  23   1.0000     -10.061791      -273.7953
  24   1.0000     -10.055670      -273.6287
  25   1.0000     -10.051323      -273.5104
  26   1.0000     -10.051281      -273.5093
  27   1.0000     -10.048665      -273.4381
  28   1.0000     -10.019548      -272.6458
  29   1.0000     -10.018662      -272.6216
  30   1.0000     -10.018066      -272.6054
  31   1.0000     -10.017274      -272.5839
  32   1.0000      -7.791948      -212.0297
  33   1.0000      -7.789539      -211.9641
  34   1.0000      -7.786884      -211.8919
  35   1.0000      -7.786792      -211.8894
  36   1.0000      -7.785653      -211.8584
  37   1.0000      -7.785444      -211.8527
  38   1.0000      -7.783661      -211.8042
  39   1.0000      -7.783630      -211.8034
  40   1.0000      -7.695180      -209.3965
  41   1.0000      -7.694963      -209.3906
  42   1.0000      -7.694679      -209.3829
  43   1.0000      -7.694263      -209.3715
  44   1.0000      -5.756945      -156.6544
  45   1.0000      -5.754552      -156.5893
  46   1.0000      -5.753428      -156.5587
  47   1.0000      -5.751869      -156.5163
  48   1.0000      -5.751783      -156.5140
  49   1.0000      -5.751244      -156.4993
  50   1.0000      -5.750587      -156.4814
  51   1.0000      -5.750399      -156.4763
  52   1.0000      -5.748615      -156.4278
  53   1.0000      -5.748581      -156.4268
  54   1.0000      -5.748456      -156.4235
  55   1.0000      -5.748365      -156.4210
  56   1.0000      -5.746879      -156.3805
  57   1.0000      -5.746160      -156.3610
  58   1.0000      -5.745933      -156.3548
  59   1.0000      -5.744208      -156.3078
  60   1.0000      -5.744184      -156.3072
  61   1.0000      -5.744155      -156.3064
  62   1.0000      -5.741685      -156.2392
  63   1.0000      -5.741588      -156.2365
  64   1.0000      -5.741507      -156.2343
  65   1.0000      -5.741282      -156.2282
  66   1.0000      -5.739466      -156.1788
  67   1.0000      -5.739437      -156.1780
  68   1.0000      -5.660497      -154.0299
  69   1.0000      -5.660331      -154.0254
  70   1.0000      -5.659998      -154.0164
  71   1.0000      -5.659562      -154.0045
  72   1.0000      -5.654075      -153.8552
  73   1.0000      -5.653862      -153.8494
  74   1.0000      -5.653558      -153.8411
  75   1.0000      -5.653163      -153.8304
  76   1.0000      -5.652460      -153.8113
  77   1.0000      -5.652217      -153.8046
  78   1.0000      -5.651969      -153.7979
  79   1.0000      -5.651548      -153.7864
  80   1.0000      -2.399679       -65.2986
  81   1.0000      -1.466557       -39.9071
  82   1.0000      -1.411831       -38.4179
  83   1.0000      -1.411674       -38.4136
  84   1.0000      -0.717127       -19.5140
  85   1.0000      -0.709759       -19.3135
  86   1.0000      -0.693663       -18.8755
  87   1.0000      -0.685711       -18.6591
  88   1.0000      -0.658521       -17.9193
  89   1.0000      -0.642819       -17.4920
  90   1.0000      -0.636434       -17.3183
  91   1.0000      -0.631451       -17.1827
  92   1.0000      -0.617381       -16.7998
  93   1.0000      -0.577125       -15.7044
  94   1.0000      -0.575499       -15.6601
  95   1.0000      -0.574791       -15.6408
  96   1.0000      -0.573150       -15.5962
  97   1.0000      -0.521723       -14.1968
  98   1.0000      -0.508865       -13.8469
  99   1.0000      -0.496349       -13.5063
 100   1.0000      -0.496201       -13.5023
 101   1.0000      -0.483042       -13.1442
 102   1.0000      -0.478655       -13.0249
 103   1.0000      -0.476135       -12.9563
 104   1.0000      -0.446495       -12.1498
 105   1.0000      -0.419764       -11.4224
 106   1.0000      -0.412889       -11.2353
 107   1.0000      -0.355413        -9.6713
 108   1.0000      -0.355387        -9.6706
 109   1.0000      -0.338227        -9.2036
 110   1.0000      -0.326668        -8.8891
 111   1.0000      -0.320237        -8.7141
 112   1.0000      -0.315667        -8.5897
 113   1.0000      -0.306182        -8.3316
 114   1.0000      -0.304006        -8.2724
 115   1.0000      -0.292794        -7.9673
 116   1.0000      -0.292389        -7.9563
 117   1.0000      -0.268380        -7.3030
 118   1.0000      -0.258373        -7.0307
 119   1.0000      -0.256949        -6.9919
 120   1.0000      -0.256042        -6.9673
 121   1.0000      -0.234653        -6.3852
 122   1.0000      -0.233112        -6.3433
 123   1.0000      -0.230733        -6.2786
 124   1.0000      -0.221401        -6.0246
 125   1.0000      -0.219507        -5.9731
 126   1.0000      -0.215603        -5.8668
 127   1.0000      -0.212142        -5.7727
 128   1.0000      -0.202858        -5.5200
 129   1.0000      -0.192704        -5.2437
 130   1.0000      -0.189249        -5.1497
 131   1.0000      -0.187391        -5.0992
 132   1.0000      -0.183353        -4.9893
 133   1.0000      -0.178540        -4.8583
 134   1.0000      -0.159655        -4.3444
 135   1.0000      -0.151998        -4.1361
 136   1.0000      -0.147335        -4.0092
 137   1.0000      -0.137027        -3.7287
 138   1.0000      -0.134410        -3.6575
 139   1.0000      -0.133664        -3.6372
 140   1.0000      -0.125240        -3.4080
 141   1.0000      -0.121542        -3.3073
 142   1.0000      -0.115906        -3.1540
 143   1.0000      -0.112117        -3.0509
 144   1.0000      -0.100882        -2.7451
 145   1.0000      -0.099021        -2.6945
 146   1.0000      -0.098810        -2.6888
 147   1.0000      -0.096113        -2.6154
 148   1.0000      -0.071369        -1.9421
 149   1.0000      -0.070408        -1.9159
 150   1.0000      -0.067535        -1.8377
 151   1.0000      -0.050487        -1.3738
 152   1.0000      -0.045344        -1.2339
 153   1.0000      -0.038762        -1.0548
 154   1.0000      -0.037144        -1.0107
 155   1.0000      -0.032383        -0.8812
 156   1.0000      -0.026636        -0.7248
 157   1.0000      -0.016380        -0.4457
 158   1.0000       0.019845         0.5400
 159   1.0000       0.039421         1.0727
 160   0.0000       0.127112         3.4589
 161   0.0000       0.137109         3.7309
 162   0.0000       0.143852         3.9144
 163   0.0000       0.150299         4.0898
 164   0.0000       0.155662         4.2358

MULLIKEN ATOMIC CHARGES AND SPIN POPULATIONS
--------------------------------------------
   0 V :    0.471236    1.211064
   1 S :   -0.290734   -0.022571
   2 S :   -0.287821   -0.025043
   3 S :   -0.289029   -0.023557
   4 S :   -0.284086   -0.025524
   5 O :   -0.467018   -0.147120
   6 C :   -0.077945    0.009649
   7 C :   -0.084708    0.008034
   8 C :   -0.084001    0.007738
   9 C :   -0.084580    0.007414
  10 S :    0.103661   -0.000597
  11 S :    0.104991   -0.000644
  12 S :    0.100139   -0.000396
  13 S :    0.099367   -0.000346
  14 C :   -0.211434    0.001562
  15 C :   -0.211964    0.000992
  16 C :   -0.192123   -0.000090
  17 C :   -0.190551   -0.000400
  18 S :    0.010823   -0.000112
  19 S :    0.019672   -0.000109
  20 S :    0.008383   -0.000068
  21 S :    0.008403   -0.000071
  22 C :   -0.301152   -0.000001
  23 C :   -0.300436   -0.000002
  24 C :   -0.157435   -0.000011
  25 H :    0.143642   -0.000001
  26 H :    0.113585   -0.000004
  27 H :    0.083544   -0.000001
  28 H :    0.092004   -0.000001
  29 H :    0.113736   -0.000005
  30 H :    0.142705   -0.000001
  31 C :   -0.372952    0.000177
  32 C :   -0.319070    0.000222
  33 C :   -0.155389   -0.000236
  34 H :    0.253501   -0.000044
  35 H :    0.016707    0.000060
  36 H :    0.096823    0.000026
  37 H :    0.086245    0.000016
  38 H :    0.236724    0.000017
  39 H :    0.056535   -0.000017
Sum of atomic charges         :   -2.0000000

LOEWDIN ATOMIC CHARGES AND SPIN POPULATIONS
-------------------------------------------
   0 V :   -0.155692    1.164387
   1 S :    0.080209   -0.014565
   2 S :    0.080471   -0.015947
   3 S :    0.081438   -0.015381
   4 S :    0.083975   -0.016181
   5 O :   -0.318370   -0.132004
   6 C :   -0.549575    0.009026
   7 C :   -0.551377    0.007940
   8 C :   -0.552365    0.008137
   9 C :   -0.552350    0.007661
  10 S :    0.475166   -0.000913
  11 S :    0.475829   -0.000960
  12 S :    0.471409   -0.000825
  13 S :    0.470674   -0.000830
  14 C :   -0.463125    0.000198
  15 C :   -0.465123   -0.000081
  16 C :   -0.621984    0.000465
  17 C :   -0.621981    0.000084
  18 S :    0.368488   -0.000088
  19 S :    0.375123   -0.000083
  20 S :    0.359086   -0.000073
  21 S :    0.358645   -0.000075
  22 C :   -0.283239   -0.000007
  23 C :   -0.283379   -0.000009
  24 C :   -0.176047   -0.000002
  25 H :    0.062401   -0.000001
  26 H :    0.053785   -0.000002
  27 H :    0.058036   -0.000002
  28 H :    0.060197   -0.000001
  29 H :    0.053451   -0.000002
  30 H :    0.062525   -0.000002
  31 C :   -0.193179    0.000046
  32 C :   -0.173860    0.000038
  33 C :   -0.157486    0.000006
  34 H :   -0.080284    0.000003
  35 H :    0.057904    0.000037
  36 H :    0.063612    0.000005
  37 H :    0.061222    0.000002
  38 H :   -0.081138    0.000005
  39 H :    0.066907   -0.000007

  Mayer bond orders larger than 0.100000
B(  0-V ,  1-S ) :   0.7728 B(  0-V ,  2-S ) :   0.7694 B(  0-V ,  3-S ) :   0.7662
B(  0-V ,  4-S ) :   0.7765 B(  0-V ,  5-O ) :   2.1494 B(  1-S ,  8-C ) :   1.1035
B(  2-S ,  6-C ) :   1.1060 B(  3-S ,  9-C ) :   1.1061 B(  4-S ,  7-C ) :   1.1067
B(  6-C ,  7-C ) :   1.6811 B(  6-C , 10-S ) :   0.9355 B(  7-C , 11-S ) :   0.9404
B(  8-C ,  9-C ) :   1.6985 B(  8-C , 13-S ) :   0.9337 B(  9-C , 12-S ) :   0.9355
B( 10-S , 14-C ) :   1.2526 B( 11-S , 14-C ) :   1.2507 B( 12-S , 15-C ) :   1.2463
B( 13-S , 15-C ) :   1.2464 B( 14-C , 16-C ) :   1.4420 B( 15-C , 17-C ) :   1.4539
B( 16-C , 18-S ) :   1.0960 B( 16-C , 19-S ) :   1.0803 B( 17-C , 20-S ) :   1.0882
B( 17-C , 21-S ) :   1.0888 B( 18-S , 32-C ) :   0.9862 B( 19-S , 31-C ) :   0.9990
B( 20-S , 23-C ) :   0.9914 B( 21-S , 22-C ) :   0.9908 B( 22-C , 24-C ) :   0.9130
B( 22-C , 25-H ) :   0.9658 B( 22-C , 26-H ) :   0.9655 B( 23-C , 24-C ) :   0.9135
B( 23-C , 29-H ) :   0.9657 B( 23-C , 30-H ) :   0.9655 B( 24-C , 27-H ) :   0.9626
B( 24-C , 28-H ) :   0.9719 B( 31-C , 33-C ) :   0.9125 B( 31-C , 38-H ) :   0.9534
B( 31-C , 39-H ) :   0.9439 B( 32-C , 33-C ) :   0.9040 B( 32-C , 34-H ) :   0.9687
B( 32-C , 35-H ) :   0.9311 B( 33-C , 36-H ) :   0.9633 B( 33-C , 37-H ) :   0.9631

FINAL SINGLE POINT ENERGY     -6337.303107928757

DIPOLE MOMENT
-------------
                                X             Y             Z
Electronic contribution:      4.23746      -3.47810      12.23266
Nuclear contribution   :     -4.67212       4.25011     -13.69107
                        -----------------------------------------
Total Dipole Moment    :     -0.43465       0.77201      -1.45841
                        -----------------------------------------
Magnitude (a.u.)       :      1.70643
Magnitude (Debye)      :      4.33740

Rotational constants in cm-1:     0.010760     0.000804     0.000783
Rotational constants in MHz :   322.571265    24.115669    23.486582

                             ****ORCA TERMINATED NORMALLY****
TOTAL RUN TIME: 0 days 1 hours 7 minutes 1 seconds 815 msec
