                         Program Version 5.0.4 -  RELEASE  -
|  1> ! nofrozencore ReducedPop printbasis
|  2> ! B3LYP TZVP
|  3>
|  4> %basis
|  5> newgto V "CP(PPP)" end
|  6> end
|  7>
|  8> %pal
|  9> nprocs 6
| 10> end
| 11>
| 12> % sym SymThresh 1e-2 end
| 13> * xyz -2 2
| 14> V 0.8420855677270286 -0.04439473654442793 -0.5956367688214006
| 15> S 0.9585930787306358 -2.2230019101540166 0.5696625069831384
| 16> S -1.01542644635181 -1.0434359183213624 -1.8916681519373821
| 17> S 1.6060650113702732 0.9405235920625348 1.5432836011462674
| 18> S -0.3926826555785343 2.0795481601660764 -0.8217670279505478
| 19> O 2.0703420539189037 0.014924553298424292 -1.601503942644132
| 20> C -1.6713656288049872 0.41906431332148775 -2.6161674312705405
| 21> C -1.424224647352239 1.6702199524260426 -2.1845573367529947
| 22> C 1.7851999850086016 -1.7671536744497038 2.0535533583114414
| 23> C 2.040517975661012 -0.5045059852859415 2.442629822687824
| 24> S -2.8126238300175777 0.2639353999338979 -3.9955244344953003
| 25> S -2.2812443330630665 2.996998678079434 -3.0370739362838655
| 26> S 2.854874616779744 -0.30498633627848654 4.031299167537078
| 27> S 2.303050993458143 -3.0693399601070404 3.178530535362933
| 28> C -3.1675135250015707 1.9857185371796429 -4.184112363383573
| 29> C 2.9304143258043034 -2.019276508310516 4.455208293510888
| 30> C -4.025956648834076 2.486382526780905 -5.124701789112055
| 31> C 3.4322366252981396 -2.483908288059572 5.639969011331979
| 32> S -4.852706594037458 1.437214183857018 -6.304840276082779
| 33> S -4.345733033938427 4.2338224628635155 -5.268447927182599
| 34> S 3.489827629964551 -4.223746000908394 6.022040319519984
| 35> S 4.038486435786751 -1.3810120139261175 6.902596553229455
| 36> C 2.819305804228656 -1.7993456807913906 8.23309304299095
| 37> C 2.3574043733787104 -4.2181164376997815 7.48809494249097
| 38> C 2.808710125383923 -3.2823647585530686 8.61227482946641
| 39> H 1.8302659909432228 -1.4751894772798866 7.899609764929931
| 40> H 3.106569135033501 -1.1896525895003267 9.093670264711843
| 41> H 2.123598003272017 -3.413726598714706 9.462323705231016
| 42> H 3.807704461792262 -3.5768660877727343 8.950800172296033
| 43> H 2.3354256188466547 -5.252177455384303 7.841852490754564
| 44> H 1.3552429885934514 -3.954165126824353 7.14110590769241
| 45> C -3.6671380452487052 4.499753299400036 -6.971210659084546
| 46> C -4.091891919560399 2.119557217048701 -7.850385967019525
| 47> C -4.322608782241111 3.62087434947274 -8.03900923337294
| 48> H -3.0236784001686163 1.8893294829303182 -7.832638492344582
| 49> H -4.548739321305297 1.5600211951958813 -8.67086876677468
| 50> H -5.398913343311415 3.82178607678494 -8.064364034154753
| 51> H -3.9130841408908235 3.909444015546842 -9.017897008738329
| 52> H -3.840087276669506 5.556441696603691 -7.191113193331258
| 53> H -2.588084581090222 4.329983788764031 -6.935654608952548
| 54> *
| 55>
| 56> % eprnmr
| 57> gtensor true
| 58> Nuclei = all H {aiso,adip,aorb,fgrad,rho}
| 59> Nuclei = all V {aiso,adip,aorb,fgrad,rho}
| 60> end
| 61>
| 62>                          ****END OF INPUT****

CARTESIAN COORDINATES (ANGSTROEM)
---------------------------------
  V      0.838327   -0.043638   -0.595583
  S      0.954835   -2.222245    0.569716
  S     -1.019185   -1.042679   -1.891615
  S      1.602307    0.941280    1.543337
  S     -0.396441    2.080305   -0.821714
  O      2.066584    0.015681   -1.601451
  C     -1.675124    0.419821   -2.616114
  C     -1.427983    1.670976   -2.184504
  C      1.781442   -1.766397    2.053607
  C      2.036760   -0.503750    2.442683
  S     -2.816382    0.264692   -3.995471
  S     -2.285002    2.997755   -3.037021
  S      2.851117   -0.304230    4.031353
  S      2.299293   -3.068584    3.178584
  C     -3.171272    1.986475   -4.184059
  C      2.926656   -2.018520    4.455262
  C     -4.029715    2.487139   -5.124648
  C      3.428479   -2.483152    5.640022
  S     -4.856465    1.437971   -6.304787
  S     -4.349491    4.234579   -5.268395
  S      3.486070   -4.222990    6.022094
  S      4.034728   -1.380256    6.902650
  C      2.815548   -1.798589    8.233146
  C      2.353646   -4.217360    7.488148
  C      2.804952   -3.281608    8.612328
  H      1.826508   -1.474433    7.899663
  H      3.102811   -1.188896    9.093724
  H      2.119840   -3.412970    9.462377
  H      3.803946   -3.576110    8.950854
  H      2.331668   -5.251421    7.841906
  H      1.351485   -3.953409    7.141159
  C     -3.670896    4.500510   -6.971157
  C     -4.095650    2.120314   -7.850333
  C     -4.326367    3.621631   -8.038956
  H     -3.027436    1.890086   -7.832585
  H     -4.552497    1.560778   -8.670815
  H     -5.402671    3.822543   -8.064311
  H     -3.916842    3.910200   -9.017844
  H     -3.843845    5.557198   -7.191060
  H     -2.591843    4.330740   -6.935601

 Total Charge           Charge          ....   -2
 Multiplicity           Mult            ....    2
 Number of Electrons    NEL             ....  321
 Basis Dimension        Dim             ....  681

ORBITAL ENERGIES
----------------
                 SPIN UP ORBITALS
  NO   OCC          E(Eh)            E(eV)
   0   1.0000    -196.674573     -5351.7872
   1   1.0000     -88.733197     -2414.5530
   2   1.0000     -88.733092     -2414.5502
   3   1.0000     -88.732978     -2414.5471
   4   1.0000     -88.732950     -2414.5463
   5   1.0000     -88.730077     -2414.4681
   6   1.0000     -88.729936     -2414.4643
   7   1.0000     -88.729904     -2414.4634
   8   1.0000     -88.729861     -2414.4623
   9   1.0000     -88.639530     -2412.0042
  10   1.0000     -88.639422     -2412.0013
  11   1.0000     -88.639270     -2411.9972
  12   1.0000     -88.639067     -2411.9916
  13   1.0000     -22.049971      -600.0102
  14   1.0000     -18.889876      -514.0197
  15   1.0000     -18.556407      -504.9455
  16   1.0000     -18.551246      -504.8051
  17   1.0000     -18.551156      -504.8026
  18   1.0000     -10.075753      -274.1752
  19   1.0000     -10.075665      -274.1728
  20   1.0000     -10.063412      -273.8394
  21   1.0000     -10.063354      -273.8378
  22   1.0000     -10.063312      -273.8366
  23   1.0000     -10.063263      -273.8353
  24   1.0000     -10.051314      -273.5102
  25   1.0000     -10.051208      -273.5073
  26   1.0000     -10.048408      -273.4311
  27   1.0000     -10.048110      -273.4230
  28   1.0000     -10.018057      -272.6052
  29   1.0000     -10.017763      -272.5972
  30   1.0000     -10.017130      -272.5800
  31   1.0000     -10.016969      -272.5756
  32   1.0000      -7.786622      -211.8848
  33   1.0000      -7.786521      -211.8820
  34   1.0000      -7.786394      -211.8786
  35   1.0000      -7.786384      -211.8783
  36   1.0000      -7.783318      -211.7948
  37   1.0000      -7.783189      -211.7913
  38   1.0000      -7.783187      -211.7913
  39   1.0000      -7.783146      -211.7902
  40   1.0000      -7.693832      -209.3598
  41   1.0000      -7.693755      -209.3577
  42   1.0000      -7.693491      -209.3505
  43   1.0000      -7.693433      -209.3490
  44   1.0000      -5.751614      -156.5094
  45   1.0000      -5.751515      -156.5067
  46   1.0000      -5.751387      -156.5032
  47   1.0000      -5.751376      -156.5029
  48   1.0000      -5.748259      -156.4181
  49   1.0000      -5.748198      -156.4164
  50   1.0000      -5.748141      -156.4149
  51   1.0000      -5.748124      -156.4144
  52   1.0000      -5.748100      -156.4138
  53   1.0000      -5.748097      -156.4137
  54   1.0000      -5.747973      -156.4103
  55   1.0000      -5.747963      -156.4100
  56   1.0000      -5.743831      -156.2976
  57   1.0000      -5.743708      -156.2942
  58   1.0000      -5.743698      -156.2940
  59   1.0000      -5.743659      -156.2929
  60   1.0000      -5.741418      -156.2319
  61   1.0000      -5.741317      -156.2292
  62   1.0000      -5.741188      -156.2257
  63   1.0000      -5.741179      -156.2254
  64   1.0000      -5.739149      -156.1702
  65   1.0000      -5.739018      -156.1666
  66   1.0000      -5.739000      -156.1661
  67   1.0000      -5.738960      -156.1650
  68   1.0000      -5.659142      -153.9931
  69   1.0000      -5.659055      -153.9907
  70   1.0000      -5.658834      -153.9847
  71   1.0000      -5.658737      -153.9821
  72   1.0000      -5.652483      -153.8119
  73   1.0000      -5.652392      -153.8094
  74   1.0000      -5.652169      -153.8033
  75   1.0000      -5.652099      -153.8014
  76   1.0000      -5.651149      -153.7756
  77   1.0000      -5.651073      -153.7735
  78   1.0000      -5.650786      -153.7657
  79   1.0000      -5.650729      -153.7642
  80   1.0000      -2.443615       -66.4941
  81   1.0000      -1.484917       -40.4066
  82   1.0000      -1.473209       -40.0880
  83   1.0000      -1.472493       -40.0686
  84   1.0000      -0.709183       -19.2978
  85   1.0000      -0.709098       -19.2955
  86   1.0000      -0.685257       -18.6468
  87   1.0000      -0.685202       -18.6453
  88   1.0000      -0.649461       -17.6727
  89   1.0000      -0.631086       -17.1727
  90   1.0000      -0.630936       -17.1686
  91   1.0000      -0.616864       -16.7857
  92   1.0000      -0.616734       -16.7822
  93   1.0000      -0.574234       -15.6257
  94   1.0000      -0.574071       -15.6213
  95   1.0000      -0.573323       -15.6009
  96   1.0000      -0.572389       -15.5755
  97   1.0000      -0.496633       -13.5141
  98   1.0000      -0.495973       -13.4961
  99   1.0000      -0.495337       -13.4788
 100   1.0000      -0.494974       -13.4689
 101   1.0000      -0.479577       -13.0500
 102   1.0000      -0.476954       -12.9786
 103   1.0000      -0.447084       -12.1658
 104   1.0000      -0.444912       -12.1067
 105   1.0000      -0.416165       -11.3244
 106   1.0000      -0.410924       -11.1818
 107   1.0000      -0.354996        -9.6599
 108   1.0000      -0.354944        -9.6585
 109   1.0000      -0.326418        -8.8823
 110   1.0000      -0.326217        -8.8768
 111   1.0000      -0.318782        -8.6745
 112   1.0000      -0.314190        -8.5496
 113   1.0000      -0.304085        -8.2746
 114   1.0000      -0.303288        -8.2529
 115   1.0000      -0.292214        -7.9516
 116   1.0000      -0.291902        -7.9431
 117   1.0000      -0.257769        -7.0142
 118   1.0000      -0.257579        -7.0091
 119   1.0000      -0.255661        -6.9569
 120   1.0000      -0.255441        -6.9509
 121   1.0000      -0.234442        -6.3795
 122   1.0000      -0.233931        -6.3656
 123   1.0000      -0.230970        -6.2850
 124   1.0000      -0.229710        -6.2507
 125   1.0000      -0.219807        -5.9813
 126   1.0000      -0.217923        -5.9300
 127   1.0000      -0.213850        -5.8192
 128   1.0000      -0.211753        -5.7621
 129   1.0000      -0.192788        -5.2460
 130   1.0000      -0.187107        -5.0914
 131   1.0000      -0.185774        -5.0552
 132   1.0000      -0.184345        -5.0163
 133   1.0000      -0.179045        -4.8721
 134   1.0000      -0.159153        -4.3308
 135   1.0000      -0.151383        -4.1193
 136   1.0000      -0.146513        -3.9868
 137   1.0000      -0.135545        -3.6884
 138   1.0000      -0.134207        -3.6520
 139   1.0000      -0.132673        -3.6102
 140   1.0000      -0.124903        -3.3988
 141   1.0000      -0.120648        -3.2830
 142   1.0000      -0.113139        -3.0787
 143   1.0000      -0.109452        -2.9783
 144   1.0000      -0.099395        -2.7047
 145   1.0000      -0.097771        -2.6605
 146   1.0000      -0.097341        -2.6488
 147   1.0000      -0.094520        -2.5720
 148   1.0000      -0.074130        -2.0172
 149   1.0000      -0.067471        -1.8360
 150   1.0000      -0.067014        -1.8235
 151   1.0000      -0.052238        -1.4215
 152   1.0000      -0.045230        -1.2308
 153   1.0000      -0.037152        -1.0110
 154   1.0000      -0.036822        -1.0020
 155   1.0000      -0.030926        -0.8415
 156   1.0000      -0.024491        -0.6664
 157   1.0000      -0.018819        -0.5121
 158   1.0000      -0.015004        -0.4083
 159   1.0000       0.020663         0.5623
 160   1.0000       0.041422         1.1272
 161   0.0000       0.137077         3.7300
 162   0.0000       0.137370         3.7380
 163   0.0000       0.162221         4.4143
 164   0.0000       0.162282         4.4159
 165   0.0000       0.170705         4.6451

                 SPIN DOWN ORBITALS
  NO   OCC          E(Eh)            E(eV)
   0   1.0000    -196.674720     -5351.7912
   1   1.0000     -88.733198     -2414.5531
   2   1.0000     -88.733093     -2414.5502
   3   1.0000     -88.732979     -2414.5471
   4   1.0000     -88.732951     -2414.5463
   5   1.0000     -88.730085     -2414.4684
   6   1.0000     -88.729944     -2414.4645
   7   1.0000     -88.729912     -2414.4637
   8   1.0000     -88.729869     -2414.4625
   9   1.0000     -88.639669     -2412.0080
  10   1.0000     -88.639562     -2412.0051
  11   1.0000     -88.639411     -2412.0010
  12   1.0000     -88.639208     -2411.9955
  13   1.0000     -22.035037      -599.6038
  14   1.0000     -18.893653      -514.1224
  15   1.0000     -18.551142      -504.8022
  16   1.0000     -18.535182      -504.3679
  17   1.0000     -18.535062      -504.3647
  18   1.0000     -10.075752      -274.1751
  19   1.0000     -10.075660      -274.1726
  20   1.0000     -10.063412      -273.8394
  21   1.0000     -10.063354      -273.8378
  22   1.0000     -10.063311      -273.8366
  23   1.0000     -10.063262      -273.8353
  24   1.0000     -10.051314      -273.5102
  25   1.0000     -10.051208      -273.5073
  26   1.0000     -10.048404      -273.4310
  27   1.0000     -10.048097      -273.4226
  28   1.0000     -10.017817      -272.5987
  29   1.0000     -10.017548      -272.5913
  30   1.0000     -10.016905      -272.5738
  31   1.0000     -10.016755      -272.5698
  32   1.0000      -7.786623      -211.8848
  33   1.0000      -7.786522      -211.8820
  34   1.0000      -7.786395      -211.8786
  35   1.0000      -7.786384      -211.8783
  36   1.0000      -7.783327      -211.7951
  37   1.0000      -7.783198      -211.7916
  38   1.0000      -7.783197      -211.7916
  39   1.0000      -7.783155      -211.7904
  40   1.0000      -7.693962      -209.3633
  41   1.0000      -7.693885      -209.3613
  42   1.0000      -7.693623      -209.3541
  43   1.0000      -7.693565      -209.3525
  44   1.0000      -5.751615      -156.5094
  45   1.0000      -5.751515      -156.5067
  46   1.0000      -5.751388      -156.5032
  47   1.0000      -5.751378      -156.5029
  48   1.0000      -5.748269      -156.4184
  49   1.0000      -5.748198      -156.4164
  50   1.0000      -5.748152      -156.4152
  51   1.0000      -5.748135      -156.4147
  52   1.0000      -5.748111      -156.4140
  53   1.0000      -5.748098      -156.4137
  54   1.0000      -5.747974      -156.4103
  55   1.0000      -5.747964      -156.4101
  56   1.0000      -5.743845      -156.2980
  57   1.0000      -5.743722      -156.2946
  58   1.0000      -5.743711      -156.2943
  59   1.0000      -5.743672      -156.2933
  60   1.0000      -5.741418      -156.2319
  61   1.0000      -5.741318      -156.2292
  62   1.0000      -5.741189      -156.2257
  63   1.0000      -5.741180      -156.2255
  64   1.0000      -5.739157      -156.1704
  65   1.0000      -5.739027      -156.1669
  66   1.0000      -5.739006      -156.1663
  67   1.0000      -5.738966      -156.1652
  68   1.0000      -5.659285      -153.9970
  69   1.0000      -5.659193      -153.9945
  70   1.0000      -5.658976      -153.9886
  71   1.0000      -5.658879      -153.9859
  72   1.0000      -5.652836      -153.8215
  73   1.0000      -5.652779      -153.8199
  74   1.0000      -5.652550      -153.8137
  75   1.0000      -5.652461      -153.8113
  76   1.0000      -5.651260      -153.7786
  77   1.0000      -5.651159      -153.7759
  78   1.0000      -5.650878      -153.7682
  79   1.0000      -5.650840      -153.7672
  80   1.0000      -2.398727       -65.2727
  81   1.0000      -1.465636       -39.8820
  82   1.0000      -1.410925       -38.3932
  83   1.0000      -1.410646       -38.3856
  84   1.0000      -0.709167       -19.2974
  85   1.0000      -0.709071       -19.2948
  86   1.0000      -0.685207       -18.6454
  87   1.0000      -0.685152       -18.6439
  88   1.0000      -0.657563       -17.8932
  89   1.0000      -0.631028       -17.1711
  90   1.0000      -0.630860       -17.1666
  91   1.0000      -0.616866       -16.7858
  92   1.0000      -0.616734       -16.7822
  93   1.0000      -0.574206       -15.6249
  94   1.0000      -0.574045       -15.6206
  95   1.0000      -0.573244       -15.5988
  96   1.0000      -0.572316       -15.5735
  97   1.0000      -0.496647       -13.5145
  98   1.0000      -0.496019       -13.4974
  99   1.0000      -0.495380       -13.4800
 100   1.0000      -0.495004       -13.4697
 101   1.0000      -0.479770       -13.0552
 102   1.0000      -0.477208       -12.9855
 103   1.0000      -0.447104       -12.1663
 104   1.0000      -0.444959       -12.1080
 105   1.0000      -0.416164       -11.3244
 106   1.0000      -0.411036       -11.1849
 107   1.0000      -0.354990        -9.6598
 108   1.0000      -0.354935        -9.6583
 109   1.0000      -0.326401        -8.8818
 110   1.0000      -0.326209        -8.8766
 111   1.0000      -0.318703        -8.6723
 112   1.0000      -0.314217        -8.5503
 113   1.0000      -0.304031        -8.2731
 114   1.0000      -0.303263        -8.2522
 115   1.0000      -0.292206        -7.9513
 116   1.0000      -0.291901        -7.9430
 117   1.0000      -0.257628        -7.0104
 118   1.0000      -0.257481        -7.0064
 119   1.0000      -0.255626        -6.9559
 120   1.0000      -0.255414        -6.9502
 121   1.0000      -0.234390        -6.3781
 122   1.0000      -0.233924        -6.3654
 123   1.0000      -0.230919        -6.2836
 124   1.0000      -0.229681        -6.2499
 125   1.0000      -0.219446        -5.9714
 126   1.0000      -0.217804        -5.9268
 127   1.0000      -0.213627        -5.8131
 128   1.0000      -0.211629        -5.7587
 129   1.0000      -0.191077        -5.1995
 130   1.0000      -0.187040        -5.0896
 131   1.0000      -0.185416        -5.0454
 132   1.0000      -0.184107        -5.0098
 133   1.0000      -0.178933        -4.8690
 134   1.0000      -0.158529        -4.3138
 135   1.0000      -0.151211        -4.1147
 136   1.0000      -0.146436        -3.9847
 137   1.0000      -0.134851        -3.6695
 138   1.0000      -0.133922        -3.6442
 139   1.0000      -0.132447        -3.6041
 140   1.0000      -0.124284        -3.3819
 141   1.0000      -0.120319        -3.2741
 142   1.0000      -0.114938        -3.1276
 143   1.0000      -0.111022        -3.0211
 144   1.0000      -0.099375        -2.7041
 145   1.0000      -0.098105        -2.6696
 146   1.0000      -0.097315        -2.6481
 147   1.0000      -0.094856        -2.5812
 148   1.0000      -0.070291        -1.9127
 149   1.0000      -0.067456        -1.8356
 150   1.0000      -0.067020        -1.8237
 151   1.0000      -0.049656        -1.3512
 152   1.0000      -0.044302        -1.2055
 153   1.0000      -0.037214        -1.0126
 154   1.0000      -0.036206        -0.9852
 155   1.0000      -0.031006        -0.8437
 156   1.0000      -0.025573        -0.6959
 157   1.0000      -0.015215        -0.4140
 158   1.0000       0.020876         0.5681
 159   1.0000       0.040399         1.0993
 160   0.0000       0.137076         3.7300
 161   0.0000       0.137359         3.7377
 162   0.0000       0.156206         4.2506
 163   0.0000       0.162307         4.4166
 164   0.0000       0.163637         4.4528

MULLIKEN ATOMIC CHARGES AND SPIN POPULATIONS
--------------------------------------------
   0 V :    0.471468    1.210754
   1 S :   -0.291609   -0.022800
   2 S :   -0.290753   -0.025051
   3 S :   -0.289585   -0.023772
   4 S :   -0.286393   -0.025523
   5 O :   -0.467193   -0.146658
   6 C :   -0.077119    0.009736
   7 C :   -0.084438    0.008062
   8 C :   -0.083333    0.007824
   9 C :   -0.084298    0.007479
  10 S :    0.099861   -0.000589
  11 S :    0.101193   -0.000630
  12 S :    0.099845   -0.000390
  13 S :    0.098925   -0.000344
  14 C :   -0.213449    0.001480
  15 C :   -0.211520    0.001017
  16 C :   -0.191016    0.000010
  17 C :   -0.191295   -0.000415
  18 S :    0.008247   -0.000116
  19 S :    0.008530   -0.000114
  20 S :    0.008692   -0.000061
  21 S :    0.008591   -0.000063
  22 C :   -0.300460   -0.000010
  23 C :   -0.300326   -0.000011
  24 C :   -0.157322    0.000000
  25 H :    0.142682   -0.000000
  26 H :    0.113629   -0.000005
  27 H :    0.083125   -0.000001
  28 H :    0.092067   -0.000002
  29 H :    0.113418   -0.000005
  30 H :    0.142286   -0.000000
  31 C :   -0.300340    0.000201
  32 C :   -0.300651    0.000197
  33 C :   -0.157738   -0.000243
  34 H :    0.142471   -0.000018
  35 H :    0.113304    0.000020
  36 H :    0.092045    0.000024
  37 H :    0.082638    0.000016
  38 H :    0.113263    0.000022
  39 H :    0.142557   -0.000019
Sum of atomic charges         :   -2.0000000

LOEWDIN ATOMIC CHARGES AND SPIN POPULATIONS
-------------------------------------------
   0 V :   -0.155613    1.164100
   1 S :    0.079574   -0.014756
   2 S :    0.078543   -0.015966
   3 S :    0.080943   -0.015566
   4 S :    0.082495   -0.016204
   5 O :   -0.318634   -0.131565
   6 C :   -0.549630    0.009115
   7 C :   -0.551804    0.008001
   8 C :   -0.551943    0.008177
   9 C :   -0.551994    0.007692
  10 S :    0.471342   -0.000904
  11 S :    0.472302   -0.000953
  12 S :    0.471137   -0.000815
  13 S :    0.470345   -0.000823
  14 C :   -0.464899    0.000173
  15 C :   -0.465042   -0.000074
  16 C :   -0.622943    0.000510
  17 C :   -0.622082    0.000084
  18 S :    0.358012   -0.000089
  19 S :    0.359432   -0.000086
  20 S :    0.358823   -0.000067
  21 S :    0.358420   -0.000070
  22 C :   -0.283322   -0.000008
  23 C :   -0.283487   -0.000010
  24 C :   -0.176233   -0.000002
  25 H :    0.062524   -0.000001
  26 H :    0.053588   -0.000003
  27 H :    0.058011   -0.000002
  28 H :    0.060282   -0.000001
  29 H :    0.053570   -0.000003
  30 H :    0.062350   -0.000001
  31 C :   -0.283925    0.000047
  32 C :   -0.283655    0.000041
  33 C :   -0.176383    0.000006
  34 H :    0.062373   -0.000001
  35 H :    0.053512    0.000009
  36 H :    0.060271    0.000005
  37 H :    0.057892    0.000002
  38 H :    0.053569    0.000009
  39 H :    0.062277   -0.000000

  Mayer bond orders larger than 0.100000
B(  0-V ,  1-S ) :   0.7717 B(  0-V ,  2-S ) :   0.7700 B(  0-V ,  3-S ) :   0.7653
B(  0-V ,  4-S ) :   0.7770 B(  0-V ,  5-O ) :   2.1499 B(  1-S ,  8-C ) :   1.1027
B(  2-S ,  6-C ) :   1.1033 B(  3-S ,  9-C ) :   1.1057 B(  4-S ,  7-C ) :   1.1041
B(  6-C ,  7-C ) :   1.6847 B(  6-C , 10-S ) :   0.9349 B(  7-C , 11-S ) :   0.9388
B(  8-C ,  9-C ) :   1.6982 B(  8-C , 13-S ) :   0.9334 B(  9-C , 12-S ) :   0.9353
B( 10-S , 14-C ) :   1.2486 B( 11-S , 14-C ) :   1.2483 B( 12-S , 15-C ) :   1.2463
B( 13-S , 15-C ) :   1.2464 B( 14-C , 16-C ) :   1.4502 B( 15-C , 17-C ) :   1.4537
B( 16-C , 18-S ) :   1.0877 B( 16-C , 19-S ) :   1.0891 B( 17-C , 20-S ) :   1.0879
B( 17-C , 21-S ) :   1.0886 B( 18-S , 32-C ) :   0.9915 B( 19-S , 31-C ) :   0.9916
B( 20-S , 23-C ) :   0.9914 B( 21-S , 22-C ) :   0.9906 B( 22-C , 24-C ) :   0.9132
B( 22-C , 25-H ) :   0.9656 B( 22-C , 26-H ) :   0.9656 B( 23-C , 24-C ) :   0.9136
B( 23-C , 29-H ) :   0.9656 B( 23-C , 30-H ) :   0.9654 B( 24-C , 27-H ) :   0.9624
B( 24-C , 28-H ) :   0.9718 B( 31-C , 33-C ) :   0.9135 B( 31-C , 38-H ) :   0.9656
B( 31-C , 39-H ) :   0.9659 B( 32-C , 33-C ) :   0.9134 B( 32-C , 34-H ) :   0.9658
B( 32-C , 35-H ) :   0.9655 B( 33-C , 36-H ) :   0.9717 B( 33-C , 37-H ) :   0.9623

FINAL SINGLE POINT ENERGY     -6337.707097743675

DIPOLE MOMENT
-------------
                                X             Y             Z
Electronic contribution:     10.85943      -2.06286      -4.65338
Nuclear contribution   :    -12.08606       2.28764       5.21507
                        -----------------------------------------
Total Dipole Moment    :     -1.22663       0.22478       0.56169
                        -----------------------------------------
Magnitude (a.u.)       :      1.36772
Magnitude (Debye)      :      3.47646

Rotational constants in cm-1:     0.011113     0.000801     0.000779
Rotational constants in MHz :   333.163200    24.019577    23.342217

                             ****ORCA TERMINATED NORMALLY****
TOTAL RUN TIME: 0 days 1 hours 6 minutes 20 seconds 503 msec
