                         Program Version 5.0.4 -  RELEASE  -
|  1> ! nofrozencore ReducedPop printbasis
|  2> ! B3LYP TZVP
|  3>
|  4> %basis
|  5> newgto V "CP(PPP)" end
|  6> end
|  7>
|  8> %pal
|  9> nprocs 8
| 10> end
| 11>
| 12> % sym SymThresh 1e-2 end
| 13> * xyz -2 2
| 14> V 0.13834917896503218 -1.102881860944591 0.05612644840088598
| 15> S 1.4237993379567573 -0.5650915694178216 -1.9880167780247238
| 16> S 2.01356262059935 -0.04690882517783606 1.2791922734489578
| 17> S -1.8776725262124614 -0.795095278682912 -1.3484539395722996
| 18> S -1.3094820593901715 -0.2055430173166985 1.8403325594005076
| 19> O 0.29475936773244266 -2.6635012136543152 0.3129649092038276
| 20> C 0.9239068935361174 0.1316648759659028 2.926545210935981
| 21> C 0.23733118740560485 0.10036606517945314 3.04197317485609
| 22> C 0.21793833602949939 -0.5613810354710091 -3.2109762483939663
| 23> C -1.2273233582805365 -0.658864812998005 -2.9296664096393448
| 24> S 2.276393266295593 0.5254945328932383 4.288762488634152
| 25> S -0.6353020990043879 0.40868435910914885 4.768835770125783
| 26> S -2.2621761585676112 -0.5760018131320255 -4.361565485418155
| 27> S 0.6206680245892459 -0.38814719283492455 -4.92511370565552
| 28> C 0.9420571512631498 0.6675075657342673 5.315319115729034
| 29> C -1.0221521413601995 -0.3390288774569375 -5.623864514383686
| 30> C 1.1849234942899736 1.040587662533783 6.904956473777668
| 31> C -1.2825352832295986 -0.16391825515427685 -6.892874886676991
| 32> S 2.7948406171536657 1.2463962855033732 7.452343118248147
| 33> S -0.19159980222006048 1.1847903799727848 7.915429220453379
| 34> S 0.004994319610316211 0.07464695660781295 -8.124445447806073
| 35> S -2.9593880976942892 -0.10050850695575729 -7.539071892878851
| 36> C -2.954816707474713 1.64325997784339 -8.161549540640396
| 37> C -0.43345875269675094 1.7903606072762148 -8.665153796794327
| 38> C -1.862970931958339 1.9208243689360447 -9.19892344260266
| 39> H -2.8470642593787736 2.306668767716607 -7.30064763792773
| 40> H -3.9416861832015955 1.7992318562180116 -8.60440291814568
| 41> H -1.9965007174682672 2.9472389503953726 -9.569104356890989
| 42> H -1.9946331548683616 1.2477775181839659 -10.05198624607911
| 43> H 0.284011554277192 2.0416682753294357 -9.450229350884738
| 44> H -0.2759392380455248 2.460678588547877 -7.817431970397881
| 45> C 0.24735309583589596 -0.19594137112817595 9.068195583363032
| 46> C 2.7755996820136475 -0.1484201847483554 8.670829801429562
| 47> C 1.63736832684708 -0.07196118375416932 9.68321287425706
| 48> H 2.7674500205870194 -1.0929032823527924 8.119499776759984
| 49> H 3.7536436619300164 -0.1058891708711419 9.158855375896644
| 50> H 1.707177473326992 0.8697398900354091 10.236946983670865
| 51> H 1.7664095994023614 -0.8866686264044437 10.408308891862704
| 52> H -0.5354167410292917 -0.18037752605901922 9.832097034172437
| 53> H 0.1187950515714166 -1.1445038658956113 8.53928809515033
| 54> *
| 55>
| 56> % eprnmr
| 57> gtensor true
| 58> Nuclei = all H {aiso,adip,aorb,fgrad,rho}
| 59> Nuclei = all V {aiso,adip,aorb,fgrad,rho}
| 60> end
| 61>
| 62>                          ****END OF INPUT****

CARTESIAN COORDINATES (ANGSTROEM)
---------------------------------
  V      0.138504   -1.099591    0.058088
  S      1.423954   -0.561801   -1.986056
  S      2.013717   -0.043618    1.281153
  S     -1.877518   -0.791805   -1.346493
  S     -1.309327   -0.202252    1.842294
  O      0.294914   -2.660211    0.314926
  C      0.924062    0.134955    2.928506
  C      0.237486    0.103657    3.043934
  C      0.218093   -0.558090   -3.209015
  C     -1.227169   -0.655574   -2.927705
  S      2.276548    0.528785    4.290724
  S     -0.635147    0.411975    4.770797
  S     -2.262021   -0.572711   -4.359604
  S      0.620823   -0.384857   -4.923152
  C      0.942212    0.670798    5.317280
  C     -1.021997   -0.335738   -5.621903
  C      1.185078    1.043878    6.906918
  C     -1.282381   -0.160628   -6.890914
  S      2.794995    1.249687    7.454304
  S     -0.191445    1.188081    7.917390
  S      0.005149    0.077938   -8.122484
  S     -2.959233   -0.097218   -7.537111
  C     -2.954662    1.646551   -8.159588
  C     -0.433304    1.793651   -8.663193
  C     -1.862816    1.924115   -9.196962
  H     -2.846910    2.309959   -7.298686
  H     -3.941531    1.802522   -8.602442
  H     -1.996346    2.950530   -9.567143
  H     -1.994478    1.251068  -10.050025
  H      0.284166    2.044959   -9.448268
  H     -0.275785    2.463969   -7.815471
  C      0.247508   -0.192651    9.070157
  C      2.775754   -0.145130    8.672791
  C      1.637523   -0.068671    9.685174
  H      2.767605   -1.089613    8.121461
  H      3.753798   -0.102599    9.160817
  H      1.707332    0.873030   10.238908
  H      1.766564   -0.883378   10.410270
  H     -0.535262   -0.177087    9.834058
  H      0.118950   -1.141213    8.541249

 Total Charge           Charge          ....   -2
 Multiplicity           Mult            ....    2
 Number of Electrons    NEL             ....  321
 Basis Dimension        Dim             ....  681

ORBITAL ENERGIES
----------------
                 SPIN UP ORBITALS
  NO   OCC          E(Eh)            E(eV)
   0   1.0000    -196.682543     -5352.0041
   1   1.0000     -88.737829     -2414.6791
   2   1.0000     -88.737717     -2414.6760
   3   1.0000     -88.733139     -2414.5515
   4   1.0000     -88.733027     -2414.5484
   5   1.0000     -88.732253     -2414.5274
   6   1.0000     -88.731786     -2414.5146
   7   1.0000     -88.722179     -2414.2532
   8   1.0000     -88.722033     -2414.2493
   9   1.0000     -88.650153     -2412.2933
  10   1.0000     -88.650057     -2412.2907
  11   1.0000     -88.642313     -2412.0800
  12   1.0000     -88.641200     -2412.0497
  13   1.0000     -22.058398      -600.2395
  14   1.0000     -18.895590      -514.1752
  15   1.0000     -18.564660      -505.1701
  16   1.0000     -18.559906      -505.0407
  17   1.0000     -18.559702      -505.0352
  18   1.0000     -10.161482      -276.5080
  19   1.0000     -10.084108      -274.4025
  20   1.0000     -10.074958      -274.1535
  21   1.0000     -10.068180      -273.9691
  22   1.0000     -10.068137      -273.9679
  23   1.0000     -10.054904      -273.6078
  24   1.0000     -10.050820      -273.4967
  25   1.0000     -10.048830      -273.4426
  26   1.0000     -10.048825      -273.4424
  27   1.0000     -10.042954      -273.2827
  28   1.0000     -10.041553      -273.2446
  29   1.0000     -10.030604      -272.9466
  30   1.0000     -10.030243      -272.9368
  31   1.0000      -9.970452      -271.3098
  32   1.0000      -7.791149      -212.0079
  33   1.0000      -7.791047      -212.0052
  34   1.0000      -7.786432      -211.8796
  35   1.0000      -7.786346      -211.8773
  36   1.0000      -7.785791      -211.8622
  37   1.0000      -7.785343      -211.8499
  38   1.0000      -7.776203      -211.6013
  39   1.0000      -7.776085      -211.5980
  40   1.0000      -7.704771      -209.6575
  41   1.0000      -7.704750      -209.6569
  42   1.0000      -7.694629      -209.3815
  43   1.0000      -7.693507      -209.3510
  44   1.0000      -5.756167      -156.6333
  45   1.0000      -5.756062      -156.6304
  46   1.0000      -5.752780      -156.5411
  47   1.0000      -5.752684      -156.5385
  48   1.0000      -5.751366      -156.5026
  49   1.0000      -5.751281      -156.5003
  50   1.0000      -5.750346      -156.4749
  51   1.0000      -5.749859      -156.4616
  52   1.0000      -5.746934      -156.3820
  53   1.0000      -5.746849      -156.3797
  54   1.0000      -5.746467      -156.3693
  55   1.0000      -5.745997      -156.3565
  56   1.0000      -5.745863      -156.3529
  57   1.0000      -5.745754      -156.3499
  58   1.0000      -5.742267      -156.2550
  59   1.0000      -5.742175      -156.2525
  60   1.0000      -5.741639      -156.2379
  61   1.0000      -5.741231      -156.2268
  62   1.0000      -5.741141      -156.2244
  63   1.0000      -5.741019      -156.2211
  64   1.0000      -5.737498      -156.1252
  65   1.0000      -5.737390      -156.1223
  66   1.0000      -5.731272      -155.9559
  67   1.0000      -5.731141      -155.9523
  68   1.0000      -5.669682      -154.2799
  69   1.0000      -5.669624      -154.2783
  70   1.0000      -5.663251      -154.1049
  71   1.0000      -5.663193      -154.1033
  72   1.0000      -5.662762      -154.0916
  73   1.0000      -5.662735      -154.0909
  74   1.0000      -5.661499      -154.0572
  75   1.0000      -5.660330      -154.0254
  76   1.0000      -5.653141      -153.8298
  77   1.0000      -5.652076      -153.8008
  78   1.0000      -5.650847      -153.7674
  79   1.0000      -5.649686      -153.7358
  80   1.0000      -2.449719       -66.6602
  81   1.0000      -1.490868       -40.5686
  82   1.0000      -1.479229       -40.2519
  83   1.0000      -1.477916       -40.2162
  84   1.0000      -0.714736       -19.4490
  85   1.0000      -0.703096       -19.1322
  86   1.0000      -0.686484       -18.6802
  87   1.0000      -0.684924       -18.6377
  88   1.0000      -0.655097       -17.8261
  89   1.0000      -0.635825       -17.3017
  90   1.0000      -0.621122       -16.9016
  91   1.0000      -0.613194       -16.6858
  92   1.0000      -0.608867       -16.5681
  93   1.0000      -0.584368       -15.9015
  94   1.0000      -0.574069       -15.6212
  95   1.0000      -0.570603       -15.5269
  96   1.0000      -0.558241       -15.1905
  97   1.0000      -0.509550       -13.8656
  98   1.0000      -0.504712       -13.7339
  99   1.0000      -0.488810       -13.3012
 100   1.0000      -0.486505       -13.2385
 101   1.0000      -0.467857       -12.7310
 102   1.0000      -0.451224       -12.2784
 103   1.0000      -0.446077       -12.1384
 104   1.0000      -0.441734       -12.0202
 105   1.0000      -0.402565       -10.9544
 106   1.0000      -0.397072       -10.8049
 107   1.0000      -0.357653        -9.7322
 108   1.0000      -0.346524        -9.4294
 109   1.0000      -0.329920        -8.9776
 110   1.0000      -0.327803        -8.9200
 111   1.0000      -0.323036        -8.7903
 112   1.0000      -0.317544        -8.6408
 113   1.0000      -0.310072        -8.4375
 114   1.0000      -0.307251        -8.3607
 115   1.0000      -0.297303        -8.0900
 116   1.0000      -0.284801        -7.7498
 117   1.0000      -0.281652        -7.6641
 118   1.0000      -0.272771        -7.4225
 119   1.0000      -0.262818        -7.1516
 120   1.0000      -0.260744        -7.0952
 121   1.0000      -0.246320        -6.7027
 122   1.0000      -0.239465        -6.5162
 123   1.0000      -0.235285        -6.4024
 124   1.0000      -0.229046        -6.2327
 125   1.0000      -0.221743        -6.0339
 126   1.0000      -0.217661        -5.9229
 127   1.0000      -0.215790        -5.8719
 128   1.0000      -0.212689        -5.7876
 129   1.0000      -0.196888        -5.3576
 130   1.0000      -0.189460        -5.1555
 131   1.0000      -0.188975        -5.1423
 132   1.0000      -0.187827        -5.1110
 133   1.0000      -0.174910        -4.7595
 134   1.0000      -0.164481        -4.4758
 135   1.0000      -0.160946        -4.3796
 136   1.0000      -0.155684        -4.2364
 137   1.0000      -0.153790        -4.1848
 138   1.0000      -0.140035        -3.8106
 139   1.0000      -0.136153        -3.7049
 140   1.0000      -0.131308        -3.5731
 141   1.0000      -0.118744        -3.2312
 142   1.0000      -0.115398        -3.1401
 143   1.0000      -0.107116        -2.9148
 144   1.0000      -0.100679        -2.7396
 145   1.0000      -0.091250        -2.4830
 146   1.0000      -0.087595        -2.3836
 147   1.0000      -0.075935        -2.0663
 148   1.0000      -0.073159        -1.9908
 149   1.0000      -0.071181        -1.9369
 150   1.0000      -0.057556        -1.5662
 151   1.0000      -0.047174        -1.2837
 152   1.0000      -0.046256        -1.2587
 153   1.0000      -0.045443        -1.2366
 154   1.0000      -0.036257        -0.9866
 155   1.0000      -0.031629        -0.8607
 156   1.0000      -0.024395        -0.6638
 157   1.0000      -0.016694        -0.4543
 158   1.0000      -0.007135        -0.1942
 159   1.0000      -0.006037        -0.1643
 160   1.0000       0.039058         1.0628
 161   0.0000       0.079821         2.1720
 162   0.0000       0.123673         3.3653
 163   0.0000       0.137680         3.7465
 164   0.0000       0.160971         4.3803
 165   0.0000       0.163137         4.4392

                 SPIN DOWN ORBITALS
  NO   OCC          E(Eh)            E(eV)
   0   1.0000    -196.682685     -5352.0079
   1   1.0000     -88.737831     -2414.6792
   2   1.0000     -88.737719     -2414.6761
   3   1.0000     -88.733142     -2414.5515
   4   1.0000     -88.733031     -2414.5485
   5   1.0000     -88.732296     -2414.5285
   6   1.0000     -88.731857     -2414.5166
   7   1.0000     -88.722180     -2414.2532
   8   1.0000     -88.722035     -2414.2493
   9   1.0000     -88.650130     -2412.2927
  10   1.0000     -88.650025     -2412.2898
  11   1.0000     -88.642482     -2412.0846
  12   1.0000     -88.641397     -2412.0550
  13   1.0000     -22.044354      -599.8574
  14   1.0000     -18.899134      -514.2716
  15   1.0000     -18.559667      -505.0342
  16   1.0000     -18.544897      -504.6323
  17   1.0000     -18.544527      -504.6222
  18   1.0000     -10.161252      -276.5017
  19   1.0000     -10.084110      -274.4026
  20   1.0000     -10.074971      -274.1539
  21   1.0000     -10.068174      -273.9689
  22   1.0000     -10.068131      -273.9678
  23   1.0000     -10.054903      -273.6078
  24   1.0000     -10.050745      -273.4947
  25   1.0000     -10.048830      -273.4426
  26   1.0000     -10.048825      -273.4424
  27   1.0000     -10.042980      -273.2834
  28   1.0000     -10.041554      -273.2446
  29   1.0000     -10.030188      -272.9353
  30   1.0000     -10.029852      -272.9261
  31   1.0000      -9.970249      -271.3043
  32   1.0000      -7.791151      -212.0080
  33   1.0000      -7.791049      -212.0052
  34   1.0000      -7.786437      -211.8797
  35   1.0000      -7.786352      -211.8774
  36   1.0000      -7.785837      -211.8634
  37   1.0000      -7.785416      -211.8519
  38   1.0000      -7.776204      -211.6013
  39   1.0000      -7.776087      -211.5981
  40   1.0000      -7.704743      -209.6567
  41   1.0000      -7.704713      -209.6559
  42   1.0000      -7.694786      -209.3858
  43   1.0000      -7.693690      -209.3560
  44   1.0000      -5.756172      -156.6334
  45   1.0000      -5.756067      -156.6305
  46   1.0000      -5.752783      -156.5412
  47   1.0000      -5.752688      -156.5386
  48   1.0000      -5.751376      -156.5029
  49   1.0000      -5.751291      -156.5006
  50   1.0000      -5.750475      -156.4784
  51   1.0000      -5.750042      -156.4666
  52   1.0000      -5.746951      -156.3825
  53   1.0000      -5.746866      -156.3802
  54   1.0000      -5.746488      -156.3699
  55   1.0000      -5.746064      -156.3583
  56   1.0000      -5.745864      -156.3529
  57   1.0000      -5.745755      -156.3499
  58   1.0000      -5.742248      -156.2545
  59   1.0000      -5.742163      -156.2522
  60   1.0000      -5.741670      -156.2388
  61   1.0000      -5.741281      -156.2282
  62   1.0000      -5.741143      -156.2244
  63   1.0000      -5.741021      -156.2211
  64   1.0000      -5.737501      -156.1254
  65   1.0000      -5.737395      -156.1224
  66   1.0000      -5.731270      -155.9558
  67   1.0000      -5.731141      -155.9523
  68   1.0000      -5.669732      -154.2812
  69   1.0000      -5.669664      -154.2794
  70   1.0000      -5.663448      -154.1102
  71   1.0000      -5.663404      -154.1091
  72   1.0000      -5.662404      -154.0818
  73   1.0000      -5.662388      -154.0814
  74   1.0000      -5.661704      -154.0628
  75   1.0000      -5.660610      -154.0330
  76   1.0000      -5.653616      -153.8427
  77   1.0000      -5.652570      -153.8142
  78   1.0000      -5.650905      -153.7689
  79   1.0000      -5.649776      -153.7382
  80   1.0000      -2.407311       -65.5063
  81   1.0000      -1.472507       -40.0689
  82   1.0000      -1.420244       -38.6468
  83   1.0000      -1.419748       -38.6333
  84   1.0000      -0.714657       -19.4468
  85   1.0000      -0.703131       -19.1332
  86   1.0000      -0.686353       -18.6766
  87   1.0000      -0.684920       -18.6376
  88   1.0000      -0.662693       -18.0328
  89   1.0000      -0.635530       -17.2937
  90   1.0000      -0.621111       -16.9013
  91   1.0000      -0.613164       -16.6850
  92   1.0000      -0.608876       -16.5683
  93   1.0000      -0.584149       -15.8955
  94   1.0000      -0.573736       -15.6122
  95   1.0000      -0.570508       -15.5243
  96   1.0000      -0.558529       -15.1983
  97   1.0000      -0.509377       -13.8609
  98   1.0000      -0.504481       -13.7276
  99   1.0000      -0.488665       -13.2973
 100   1.0000      -0.486516       -13.2388
 101   1.0000      -0.467839       -12.7305
 102   1.0000      -0.451131       -12.2759
 103   1.0000      -0.446000       -12.1363
 104   1.0000      -0.442499       -12.0410
 105   1.0000      -0.401955       -10.9378
 106   1.0000      -0.397170       -10.8076
 107   1.0000      -0.357584        -9.7304
 108   1.0000      -0.346620        -9.4320
 109   1.0000      -0.329875        -8.9764
 110   1.0000      -0.327482        -8.9112
 111   1.0000      -0.322707        -8.7813
 112   1.0000      -0.317587        -8.6420
 113   1.0000      -0.309971        -8.4347
 114   1.0000      -0.307167        -8.3585
 115   1.0000      -0.297280        -8.0894
 116   1.0000      -0.284856        -7.7513
 117   1.0000      -0.281698        -7.6654
 118   1.0000      -0.272847        -7.4245
 119   1.0000      -0.262686        -7.1481
 120   1.0000      -0.260574        -7.0906
 121   1.0000      -0.246349        -6.7035
 122   1.0000      -0.239380        -6.5139
 123   1.0000      -0.235179        -6.3995
 124   1.0000      -0.229000        -6.2314
 125   1.0000      -0.221538        -6.0284
 126   1.0000      -0.217656        -5.9227
 127   1.0000      -0.215719        -5.8700
 128   1.0000      -0.211926        -5.7668
 129   1.0000      -0.196883        -5.3575
 130   1.0000      -0.188785        -5.1371
 131   1.0000      -0.188356        -5.1254
 132   1.0000      -0.186515        -5.0753
 133   1.0000      -0.174922        -4.7599
 134   1.0000      -0.164201        -4.4681
 135   1.0000      -0.160534        -4.3684
 136   1.0000      -0.155434        -4.2296
 137   1.0000      -0.153663        -4.1814
 138   1.0000      -0.138884        -3.7792
 139   1.0000      -0.135968        -3.6999
 140   1.0000      -0.130300        -3.5457
 141   1.0000      -0.120059        -3.2670
 142   1.0000      -0.116813        -3.1786
 143   1.0000      -0.107148        -2.9156
 144   1.0000      -0.100354        -2.7308
 145   1.0000      -0.091130        -2.4798
 146   1.0000      -0.087746        -2.3877
 147   1.0000      -0.073318        -1.9951
 148   1.0000      -0.072559        -1.9744
 149   1.0000      -0.071163        -1.9364
 150   1.0000      -0.054555        -1.4845
 151   1.0000      -0.046032        -1.2526
 152   1.0000      -0.045891        -1.2487
 153   1.0000      -0.044674        -1.2156
 154   1.0000      -0.036378        -0.9899
 155   1.0000      -0.030652        -0.8341
 156   1.0000      -0.017752        -0.4831
 157   1.0000      -0.007171        -0.1951
 158   1.0000      -0.006265        -0.1705
 159   1.0000       0.040883         1.1125
 160   0.0000       0.072583         1.9751
 161   0.0000       0.123541         3.3617
 162   0.0000       0.137783         3.7493
 163   0.0000       0.143567         3.9066
 164   0.0000       0.161146         4.3850

MULLIKEN ATOMIC CHARGES AND SPIN POPULATIONS
--------------------------------------------
   0 V :    0.487946    1.154173
   1 S :   -0.250779    0.005439
   2 S :   -0.338597   -0.035841
   3 S :   -0.248578    0.005935
   4 S :   -0.332532   -0.032351
   5 O :   -0.463305   -0.137595
   6 C :   -0.044100    0.012272
   7 C :   -0.053274    0.010072
   8 C :   -0.111360    0.017844
   9 C :   -0.112132    0.014893
  10 S :    0.093214   -0.011136
  11 S :    0.095031   -0.007222
  12 S :    0.105641    0.000448
  13 S :    0.105022    0.000769
  14 C :   -0.096500   -0.001672
  15 C :   -0.248137    0.000058
  16 C :   -0.335245    0.000732
  17 C :   -0.142507    0.003873
  18 S :    0.021823   -0.000418
  19 S :    0.021315   -0.000289
  20 S :    0.007949   -0.000374
  21 S :    0.007979   -0.000353
  22 C :   -0.304694    0.000615
  23 C :   -0.304252    0.000625
  24 C :   -0.157407   -0.000496
  25 H :    0.145834   -0.000055
  26 H :    0.117052    0.000059
  27 H :    0.084629    0.000047
  28 H :    0.093964    0.000046
  29 H :    0.116693    0.000057
  30 H :    0.145528   -0.000058
  31 C :   -0.280988   -0.000171
  32 C :   -0.281843   -0.000203
  33 C :   -0.160507    0.000281
  34 H :    0.127859    0.000045
  35 H :    0.098888    0.000007
  36 H :    0.083990    0.000012
  37 H :    0.079750   -0.000119
  38 H :    0.098766    0.000007
  39 H :    0.127866    0.000047
Sum of atomic charges         :   -2.0000000

LOEWDIN ATOMIC CHARGES AND SPIN POPULATIONS
-------------------------------------------
   0 V :   -0.155470    1.106649
   1 S :    0.125819    0.011010
   2 S :   -0.006883   -0.025200
   3 S :    0.128140    0.011523
   4 S :   -0.001300   -0.021558
   5 O :   -0.315360   -0.123045
   6 C :   -0.422662    0.009072
   7 C :   -0.423693    0.008311
   8 C :   -0.586433    0.019348
   9 C :   -0.587186    0.016561
  10 S :    0.460289   -0.009174
  11 S :    0.461449   -0.005739
  12 S :    0.472597    0.000069
  13 S :    0.472051    0.000388
  14 C :   -0.497924   -0.000439
  15 C :   -0.460753   -0.000498
  16 C :   -0.707058   -0.000792
  17 C :   -0.600234    0.003921
  18 S :    0.372249   -0.000394
  19 S :    0.373000   -0.000252
  20 S :    0.357129   -0.000183
  21 S :    0.356722   -0.000168
  22 C :   -0.282207    0.000257
  23 C :   -0.282342    0.000253
  24 C :   -0.176638    0.000026
  25 H :    0.063370   -0.000000
  26 H :    0.055213    0.000034
  27 H :    0.058433    0.000015
  28 H :    0.060537    0.000015
  29 H :    0.055162    0.000034
  30 H :    0.063198   -0.000002
  31 C :   -0.289881    0.000013
  32 C :   -0.289592   -0.000006
  33 C :   -0.173821   -0.000016
  34 H :    0.057546    0.000006
  35 H :    0.046641    0.000006
  36 H :    0.058826   -0.000006
  37 H :    0.056850   -0.000054
  38 H :    0.046741    0.000006
  39 H :    0.057474    0.000008

  Mayer bond orders larger than 0.100000
B(  0-V ,  1-S ) :   0.7607 B(  0-V ,  2-S ) :   0.8321 B(  0-V ,  3-S ) :   0.7532
B(  0-V ,  4-S ) :   0.8370 B(  0-V ,  5-O ) :   2.1499 B(  1-S ,  8-C ) :   1.1438
B(  2-S ,  6-C ) :   0.4823 B(  2-S ,  7-C ) :   0.2698 B(  2-S , 11-S ) :   0.1241
B(  3-S ,  9-C ) :   1.1466 B(  4-S ,  6-C ) :   0.2680 B(  4-S ,  7-C ) :   0.4788
B(  4-S , 10-S ) :   0.1243 B(  6-C ,  7-C ) :   3.6353 B(  6-C , 10-S ) :   0.7896
B(  7-C , 11-S ) :   0.7878 B(  8-C ,  9-C ) :   1.5181 B(  8-C , 13-S ) :   0.9553
B(  9-C , 12-S ) :   0.9565 B( 10-S , 11-S ) :   0.1292 B( 10-S , 14-C ) :   1.2397
B( 11-S , 14-C ) :   1.2363 B( 12-S , 15-C ) :   1.2462 B( 13-S , 15-C ) :   1.2462
B( 14-C , 16-C ) :   1.2277 B( 15-C , 17-C ) :   1.5013 B( 16-C , 18-S ) :   1.1331
B( 16-C , 19-S ) :   1.1326 B( 17-C , 20-S ) :   1.0801 B( 17-C , 21-S ) :   1.0810
B( 18-S , 32-C ) :   0.9747 B( 19-S , 31-C ) :   0.9746 B( 20-S , 23-C ) :   0.9938
B( 21-S , 22-C ) :   0.9929 B( 22-C , 24-C ) :   0.9104 B( 22-C , 25-H ) :   0.9660
B( 22-C , 26-H ) :   0.9655 B( 23-C , 24-C ) :   0.9110 B( 23-C , 29-H ) :   0.9655
B( 23-C , 30-H ) :   0.9658 B( 24-C , 27-H ) :   0.9624 B( 24-C , 28-H ) :   0.9718
B( 31-C , 33-C ) :   0.9263 B( 31-C , 38-H ) :   0.9632 B( 31-C , 39-H ) :   0.9630
B( 32-C , 33-C ) :   0.9257 B( 32-C , 34-H ) :   0.9630 B( 32-C , 35-H ) :   0.9631
B( 33-C , 36-H ) :   0.9707 B( 33-C , 37-H ) :   0.9637

FINAL SINGLE POINT ENERGY     -6335.853936587419

DIPOLE MOMENT
-------------
                                X             Y             Z
Electronic contribution:      1.32619     -13.29021      -4.13563
Nuclear contribution   :     -1.75135      14.68667       3.06370
                        -----------------------------------------
Total Dipole Moment    :     -0.42516       1.39646      -1.07194
                        -----------------------------------------
Magnitude (a.u.)       :      1.81105
Magnitude (Debye)      :      4.60333

Rotational constants in cm-1:     0.010788     0.000804     0.000783
Rotational constants in MHz :   323.430310    24.111673    23.487418

                             ****ORCA TERMINATED NORMALLY****
TOTAL RUN TIME: 0 days 1 hours 6 minutes 16 seconds 646 msec
