                         Program Version 5.0.4 -  RELEASE  -
|  1> ! nofrozencore ReducedPop printbasis
|  2> ! B3LYP TZVP
|  3>
|  4> %basis
|  5> newgto V "CP(PPP)" end
|  6> end
|  7>
|  8> %pal
|  9> nprocs 6
| 10> end
| 11>
| 12> % sym SymThresh 1e-2 end
| 13> * xyz -2 2
| 14> V 0.6137237383222199 -0.5199041364598397 -0.769549142620371
| 15> S 1.974663912771172 1.5057038234617017 -0.36448696241300244
| 16> S 1.4021546936935392 -1.2682113476205423 1.4542535041156561
| 17> S -0.8888808063699043 0.9627886952490453 -2.0638337028418325
| 18> S -1.4772200557815987 -1.7067704140242623 -0.21801368318997408
| 19> O 1.4031036890564077 -1.4146257588548474 -1.8180332413852194
| 20> C 0.26522578801597024 -2.5812555696109385 1.7330440667221407
| 21> C -0.8896051815591178 -2.7544076527967136 1.0651933750756557
| 22> C 1.1993383954153964 2.6572938004222135 -1.445373735935136
| 23> C 0.0588655478582894 2.4416059516356854 -2.118518484804072
| 24> S 0.606215877864557 -3.753495401242986 3.0513720255769625
| 25> S -1.9278499634897215 -4.118345746383137 1.5970579167539936
| 26> S -0.5549816441394311 3.804645850727478 -3.1151831734598647
| 27> S 1.951277133361276 4.277549189130003 -1.6440554588105174
| 28> C -0.8833807745189673 -4.696663578199428 2.9020199394232664
| 29> C 0.7081105606323105 4.973961144639884 -2.6971964848280314
| 30> C -1.1902447306245847 -5.760945658151962 3.6965688204627623
| 31> C 0.7257440593300439 6.253245947682637 -3.1402988681905457
| 32> S -0.08123394327789968 -6.346947308826174 4.9652051899811465
| 33> S -2.7117836193756264 -6.67180896461159 3.5024059191744845
| 34> S 2.0225495145204553 7.396130813058544 -2.6860310467678925
| 35> S -0.5675568574983306 6.91147673158131 -4.18450950260873
| 36> C -1.211595346903111 8.259057193319835 -2.9898740837914266
| 37> C 0.9434377390122102 8.66597525467876 -1.7481351932853828
| 38> C -0.12473804254631483 9.197092947571475 -2.626020320944549
| 39> H -1.6555373475587924 7.444832564321079 -2.321481908859172
| 40> H -2.008197534737815 8.507814176413488 -3.7690567417819043
| 41> H -0.6454156440394365 9.90628840788791 -1.9572732290959713
| 42> H 0.2485978930858502 9.79344918696327 -3.4695088423520053
| 43> H 1.8995675337193867 9.24594427249309 -1.5205560107495124
| 44> H 0.8084940516009987 7.915547173516671 -0.8971131654122787
| 45> C -1.9808736784346608 -8.33407950700745 3.0425204062066986
| 46> C 0.24062467768829635 -8.057376674059693 4.270234429973506
| 47> C -1.0272865395288813 -8.860471921347344 4.090160989697481
| 48> H 0.8096460793433253 -7.8166672910960635 3.3638420510835383
| 49> H 0.9261354729139156 -8.427269404759187 5.044929274894273
| 50> H -1.5374908398635827 -9.01081781183133 5.046811607465826
| 51> H -0.7086221475089297 -9.853512742340573 3.739223806970076
| 52> H -2.913787019752873 -8.902536254325994 2.9274435822997478
| 53> H -1.5610374908164812 -8.116928467301378 2.052713686458947
| 54> *
| 55>
| 56> % eprnmr
| 57> gtensor true
| 58> Nuclei = all H {aiso,adip,aorb,fgrad,rho}
| 59> Nuclei = all V {aiso,adip,aorb,fgrad,rho}
| 60> end
| 61>
| 62>                          ****END OF INPUT****

CARTESIAN COORDINATES (ANGSTROEM)
---------------------------------
  V      0.611838   -0.520305   -0.766235
  S      1.972778    1.505303   -0.361173
  S      1.400269   -1.268612    1.457567
  S     -0.890767    0.962388   -2.060520
  S     -1.479106   -1.707171   -0.214700
  O      1.401218   -1.415027   -1.814720
  C      0.263340   -2.581657    1.736358
  C     -0.891491   -2.754809    1.068507
  C      1.197452    2.656893   -1.442060
  C      0.056979    2.441205   -2.115205
  S      0.604330   -3.753896    3.054686
  S     -1.929736   -4.118747    1.600372
  S     -0.556868    3.804245   -3.111870
  S      1.949391    4.277148   -1.640742
  C     -0.885267   -4.697065    2.905334
  C      0.706225    4.973560   -2.693883
  C     -1.192131   -5.761347    3.699882
  C      0.723858    6.252845   -3.136985
  S     -0.083120   -6.347348    4.968519
  S     -2.713670   -6.672210    3.505720
  S      2.020663    7.395730   -2.682717
  S     -0.569443    6.911076   -4.181196
  C     -1.213481    8.258656   -2.986560
  C      0.941552    8.665574   -1.744822
  C     -0.126624    9.196692   -2.622707
  H     -1.657423    7.444432   -2.318168
  H     -2.010084    8.507413   -3.765743
  H     -0.647302    9.905887   -1.953960
  H      0.246712    9.793048   -3.466195
  H      1.897681    9.245543   -1.517242
  H      0.806608    7.915146   -0.893800
  C     -1.982760   -8.334481    3.045834
  C      0.238739   -8.057778    4.273548
  C     -1.029173   -8.860873    4.093475
  H      0.807760   -7.817068    3.367156
  H      0.924249   -8.427670    5.048243
  H     -1.539377   -9.011219    5.050125
  H     -0.710508   -9.853914    3.742537
  H     -2.915673   -8.902937    2.930757
  H     -1.562924   -8.117329    2.056027

 Total Charge           Charge          ....   -2
 Multiplicity           Mult            ....    2
 Number of Electrons    NEL             ....  321
 Basis Dimension        Dim             ....  681

ORBITAL ENERGIES
----------------
                 SPIN UP ORBITALS
  NO   OCC          E(Eh)            E(eV)
   0   1.0000    -196.673198     -5351.7498
   1   1.0000     -88.730097     -2414.4687
   2   1.0000     -88.730033     -2414.4669
   3   1.0000     -88.728487     -2414.4249
   4   1.0000     -88.728330     -2414.4206
   5   1.0000     -88.728289     -2414.4195
   6   1.0000     -88.728086     -2414.4140
   7   1.0000     -88.727366     -2414.3944
   8   1.0000     -88.727313     -2414.3929
   9   1.0000     -88.638173     -2411.9673
  10   1.0000     -88.638116     -2411.9658
  11   1.0000     -88.637881     -2411.9594
  12   1.0000     -88.637524     -2411.9496
  13   1.0000     -22.048602      -599.9729
  14   1.0000     -18.888566      -513.9840
  15   1.0000     -18.555059      -504.9088
  16   1.0000     -18.549870      -504.7676
  17   1.0000     -18.549772      -504.7650
  18   1.0000     -10.079210      -274.2693
  19   1.0000     -10.079166      -274.2680
  20   1.0000     -10.073298      -274.1084
  21   1.0000     -10.071633      -274.0631
  22   1.0000     -10.067524      -273.9513
  23   1.0000     -10.067106      -273.9399
  24   1.0000     -10.067022      -273.9376
  25   1.0000     -10.056408      -273.6488
  26   1.0000     -10.046329      -273.3745
  27   1.0000     -10.045495      -273.3518
  28   1.0000     -10.016422      -272.5607
  29   1.0000     -10.015621      -272.5389
  30   1.0000     -10.015487      -272.5353
  31   1.0000     -10.014803      -272.5166
  32   1.0000      -7.783656      -211.8040
  33   1.0000      -7.783585      -211.8021
  34   1.0000      -7.782168      -211.7636
  35   1.0000      -7.782032      -211.7599
  36   1.0000      -7.781541      -211.7465
  37   1.0000      -7.781399      -211.7426
  38   1.0000      -7.780641      -211.7220
  39   1.0000      -7.780608      -211.7211
  40   1.0000      -7.692461      -209.3225
  41   1.0000      -7.692362      -209.3198
  42   1.0000      -7.692135      -209.3136
  43   1.0000      -7.691894      -209.3071
  44   1.0000      -5.748553      -156.4261
  45   1.0000      -5.748482      -156.4242
  46   1.0000      -5.746943      -156.3823
  47   1.0000      -5.746796      -156.3783
  48   1.0000      -5.746496      -156.3701
  49   1.0000      -5.746339      -156.3658
  50   1.0000      -5.745597      -156.3457
  51   1.0000      -5.745573      -156.3450
  52   1.0000      -5.745263      -156.3365
  53   1.0000      -5.745203      -156.3349
  54   1.0000      -5.743830      -156.2976
  55   1.0000      -5.743701      -156.2940
  56   1.0000      -5.742066      -156.2496
  57   1.0000      -5.741920      -156.2456
  58   1.0000      -5.741184      -156.2256
  59   1.0000      -5.741140      -156.2244
  60   1.0000      -5.738476      -156.1519
  61   1.0000      -5.738397      -156.1497
  62   1.0000      -5.737350      -156.1212
  63   1.0000      -5.737212      -156.1175
  64   1.0000      -5.736985      -156.1113
  65   1.0000      -5.736844      -156.1075
  66   1.0000      -5.736421      -156.0959
  67   1.0000      -5.736393      -156.0952
  68   1.0000      -5.657777      -153.9559
  69   1.0000      -5.657683      -153.9534
  70   1.0000      -5.657457      -153.9472
  71   1.0000      -5.657181      -153.9397
  72   1.0000      -5.651111      -153.7746
  73   1.0000      -5.651041      -153.7727
  74   1.0000      -5.650812      -153.7664
  75   1.0000      -5.650564      -153.7597
  76   1.0000      -5.649790      -153.7386
  77   1.0000      -5.649690      -153.7359
  78   1.0000      -5.649429      -153.7288
  79   1.0000      -5.649198      -153.7225
  80   1.0000      -2.442263       -66.4574
  81   1.0000      -1.483631       -40.3716
  82   1.0000      -1.471880       -40.0519
  83   1.0000      -1.471074       -40.0300
  84   1.0000      -0.712737       -19.3946
  85   1.0000      -0.709384       -19.3033
  86   1.0000      -0.689988       -18.7755
  87   1.0000      -0.686660       -18.6850
  88   1.0000      -0.648267       -17.6403
  89   1.0000      -0.634704       -17.2712
  90   1.0000      -0.631748       -17.1907
  91   1.0000      -0.618468       -16.8294
  92   1.0000      -0.617546       -16.8043
  93   1.0000      -0.573278       -15.5997
  94   1.0000      -0.572562       -15.5802
  95   1.0000      -0.571851       -15.5609
  96   1.0000      -0.571728       -15.5575
  97   1.0000      -0.502740       -13.6802
  98   1.0000      -0.497890       -13.5483
  99   1.0000      -0.493182       -13.4202
 100   1.0000      -0.489588       -13.3224
 101   1.0000      -0.476499       -12.9662
 102   1.0000      -0.473199       -12.8764
 103   1.0000      -0.448982       -12.2174
 104   1.0000      -0.446417       -12.1476
 105   1.0000      -0.414564       -11.2809
 106   1.0000      -0.409371       -11.1396
 107   1.0000      -0.362562        -9.8658
 108   1.0000      -0.358407        -9.7527
 109   1.0000      -0.326094        -8.8735
 110   1.0000      -0.324320        -8.8252
 111   1.0000      -0.317453        -8.6383
 112   1.0000      -0.314387        -8.5549
 113   1.0000      -0.309742        -8.4285
 114   1.0000      -0.305574        -8.3151
 115   1.0000      -0.303934        -8.2705
 116   1.0000      -0.301086        -8.1930
 117   1.0000      -0.272106        -7.4044
 118   1.0000      -0.264664        -7.2019
 119   1.0000      -0.255701        -6.9580
 120   1.0000      -0.253207        -6.8901
 121   1.0000      -0.247608        -6.7378
 122   1.0000      -0.243406        -6.6234
 123   1.0000      -0.226475        -6.1627
 124   1.0000      -0.217588        -5.9209
 125   1.0000      -0.216187        -5.8828
 126   1.0000      -0.213958        -5.8221
 127   1.0000      -0.213473        -5.8089
 128   1.0000      -0.210100        -5.7171
 129   1.0000      -0.191085        -5.1997
 130   1.0000      -0.180598        -4.9143
 131   1.0000      -0.178776        -4.8647
 132   1.0000      -0.172292        -4.6883
 133   1.0000      -0.171850        -4.6763
 134   1.0000      -0.157761        -4.2929
 135   1.0000      -0.148678        -4.0457
 136   1.0000      -0.143095        -3.8938
 137   1.0000      -0.132980        -3.6186
 138   1.0000      -0.130215        -3.5433
 139   1.0000      -0.128449        -3.4953
 140   1.0000      -0.122608        -3.3363
 141   1.0000      -0.118681        -3.2295
 142   1.0000      -0.111914        -3.0453
 143   1.0000      -0.107895        -2.9360
 144   1.0000      -0.097709        -2.6588
 145   1.0000      -0.096079        -2.6144
 146   1.0000      -0.094761        -2.5786
 147   1.0000      -0.092147        -2.5074
 148   1.0000      -0.072825        -1.9817
 149   1.0000      -0.066208        -1.8016
 150   1.0000      -0.065493        -1.7822
 151   1.0000      -0.050602        -1.3769
 152   1.0000      -0.043901        -1.1946
 153   1.0000      -0.035356        -0.9621
 154   1.0000      -0.034791        -0.9467
 155   1.0000      -0.028520        -0.7761
 156   1.0000      -0.023141        -0.6297
 157   1.0000      -0.017392        -0.4733
 158   1.0000      -0.013637        -0.3711
 159   1.0000       0.022207         0.6043
 160   1.0000       0.042911         1.1677
 161   0.0000       0.134334         3.6554
 162   0.0000       0.137166         3.7325
 163   0.0000       0.161208         4.3867
 164   0.0000       0.163526         4.4498
 165   0.0000       0.163709         4.4548

                 SPIN DOWN ORBITALS
  NO   OCC          E(Eh)            E(eV)
   0   1.0000    -196.673345     -5351.7538
   1   1.0000     -88.730098     -2414.4687
   2   1.0000     -88.730034     -2414.4670
   3   1.0000     -88.728488     -2414.4249
   4   1.0000     -88.728330     -2414.4206
   5   1.0000     -88.728298     -2414.4197
   6   1.0000     -88.728095     -2414.4142
   7   1.0000     -88.727374     -2414.3946
   8   1.0000     -88.727321     -2414.3932
   9   1.0000     -88.638312     -2411.9711
  10   1.0000     -88.638253     -2411.9695
  11   1.0000     -88.638023     -2411.9632
  12   1.0000     -88.637663     -2411.9534
  13   1.0000     -22.033671      -599.5667
  14   1.0000     -18.892349      -514.0870
  15   1.0000     -18.549794      -504.7656
  16   1.0000     -18.533837      -504.3313
  17   1.0000     -18.533656      -504.3264
  18   1.0000     -10.079210      -274.2693
  19   1.0000     -10.079166      -274.2681
  20   1.0000     -10.073293      -274.1082
  21   1.0000     -10.071632      -274.0631
  22   1.0000     -10.067524      -273.9513
  23   1.0000     -10.067105      -273.9398
  24   1.0000     -10.067021      -273.9376
  25   1.0000     -10.056408      -273.6488
  26   1.0000     -10.046318      -273.3742
  27   1.0000     -10.045491      -273.3517
  28   1.0000     -10.016184      -272.5542
  29   1.0000     -10.015407      -272.5331
  30   1.0000     -10.015263      -272.5292
  31   1.0000     -10.014591      -272.5109
  32   1.0000      -7.783657      -211.8041
  33   1.0000      -7.783586      -211.8021
  34   1.0000      -7.782169      -211.7636
  35   1.0000      -7.782033      -211.7599
  36   1.0000      -7.781550      -211.7468
  37   1.0000      -7.781409      -211.7429
  38   1.0000      -7.780651      -211.7223
  39   1.0000      -7.780617      -211.7214
  40   1.0000      -7.692591      -209.3260
  41   1.0000      -7.692490      -209.3233
  42   1.0000      -7.692267      -209.3172
  43   1.0000      -7.692024      -209.3106
  44   1.0000      -5.748554      -156.4261
  45   1.0000      -5.748483      -156.4242
  46   1.0000      -5.746944      -156.3823
  47   1.0000      -5.746797      -156.3783
  48   1.0000      -5.746507      -156.3704
  49   1.0000      -5.746349      -156.3661
  50   1.0000      -5.745608      -156.3459
  51   1.0000      -5.745584      -156.3453
  52   1.0000      -5.745264      -156.3366
  53   1.0000      -5.745204      -156.3350
  54   1.0000      -5.743831      -156.2976
  55   1.0000      -5.743702      -156.2941
  56   1.0000      -5.742080      -156.2499
  57   1.0000      -5.741933      -156.2460
  58   1.0000      -5.741198      -156.2259
  59   1.0000      -5.741154      -156.2247
  60   1.0000      -5.738477      -156.1519
  61   1.0000      -5.738398      -156.1498
  62   1.0000      -5.737358      -156.1214
  63   1.0000      -5.737221      -156.1177
  64   1.0000      -5.736985      -156.1113
  65   1.0000      -5.736845      -156.1075
  66   1.0000      -5.736427      -156.0961
  67   1.0000      -5.736399      -156.0953
  68   1.0000      -5.657915      -153.9597
  69   1.0000      -5.657825      -153.9573
  70   1.0000      -5.657599      -153.9511
  71   1.0000      -5.657323      -153.9436
  72   1.0000      -5.651498      -153.7851
  73   1.0000      -5.651392      -153.7822
  74   1.0000      -5.651195      -153.7768
  75   1.0000      -5.650926      -153.7695
  76   1.0000      -5.649876      -153.7409
  77   1.0000      -5.649794      -153.7387
  78   1.0000      -5.649523      -153.7313
  79   1.0000      -5.649304      -153.7254
  80   1.0000      -2.397384       -65.2361
  81   1.0000      -1.464347       -39.8469
  82   1.0000      -1.409510       -38.3547
  83   1.0000      -1.409347       -38.3503
  84   1.0000      -0.712731       -19.3944
  85   1.0000      -0.709363       -19.3028
  86   1.0000      -0.689942       -18.7743
  87   1.0000      -0.686603       -18.6834
  88   1.0000      -0.656369       -17.8607
  89   1.0000      -0.634646       -17.2696
  90   1.0000      -0.631671       -17.1886
  91   1.0000      -0.618470       -16.8294
  92   1.0000      -0.617546       -16.8043
  93   1.0000      -0.573210       -15.5978
  94   1.0000      -0.572531       -15.5794
  95   1.0000      -0.571770       -15.5586
  96   1.0000      -0.571704       -15.5569
  97   1.0000      -0.502756       -13.6807
  98   1.0000      -0.497906       -13.5487
  99   1.0000      -0.493237       -13.4217
 100   1.0000      -0.489676       -13.3248
 101   1.0000      -0.476689       -12.9714
 102   1.0000      -0.473403       -12.8820
 103   1.0000      -0.449005       -12.2180
 104   1.0000      -0.446473       -12.1491
 105   1.0000      -0.414561       -11.2808
 106   1.0000      -0.409480       -11.1425
 107   1.0000      -0.362561        -9.8658
 108   1.0000      -0.358400        -9.7526
 109   1.0000      -0.326077        -8.8730
 110   1.0000      -0.324311        -8.8249
 111   1.0000      -0.317407        -8.6371
 112   1.0000      -0.314366        -8.5543
 113   1.0000      -0.309749        -8.4287
 114   1.0000      -0.305523        -8.3137
 115   1.0000      -0.303899        -8.2695
 116   1.0000      -0.301084        -8.1929
 117   1.0000      -0.272071        -7.4034
 118   1.0000      -0.264632        -7.2010
 119   1.0000      -0.255664        -6.9570
 120   1.0000      -0.253098        -6.8872
 121   1.0000      -0.247532        -6.7357
 122   1.0000      -0.243397        -6.6232
 123   1.0000      -0.226390        -6.1604
 124   1.0000      -0.217161        -5.9093
 125   1.0000      -0.216130        -5.8812
 126   1.0000      -0.213829        -5.8186
 127   1.0000      -0.213247        -5.8027
 128   1.0000      -0.209962        -5.7134
 129   1.0000      -0.189196        -5.1483
 130   1.0000      -0.180399        -4.9089
 131   1.0000      -0.178605        -4.8601
 132   1.0000      -0.172212        -4.6861
 133   1.0000      -0.171753        -4.6736
 134   1.0000      -0.157130        -4.2757
 135   1.0000      -0.148505        -4.0410
 136   1.0000      -0.143007        -3.8914
 137   1.0000      -0.132340        -3.6012
 138   1.0000      -0.130010        -3.5377
 139   1.0000      -0.127888        -3.4800
 140   1.0000      -0.122298        -3.3279
 141   1.0000      -0.118375        -3.2212
 142   1.0000      -0.113709        -3.0942
 143   1.0000      -0.109473        -2.9789
 144   1.0000      -0.097701        -2.6586
 145   1.0000      -0.096390        -2.6229
 146   1.0000      -0.094783        -2.5792
 147   1.0000      -0.092402        -2.5144
 148   1.0000      -0.069010        -1.8779
 149   1.0000      -0.066202        -1.8015
 150   1.0000      -0.065492        -1.7821
 151   1.0000      -0.048010        -1.3064
 152   1.0000      -0.042970        -1.1693
 153   1.0000      -0.034842        -0.9481
 154   1.0000      -0.034784        -0.9465
 155   1.0000      -0.028521        -0.7761
 156   1.0000      -0.024174        -0.6578
 157   1.0000      -0.013846        -0.3768
 158   1.0000       0.022494         0.6121
 159   1.0000       0.041815         1.1378
 160   0.0000       0.134315         3.6549
 161   0.0000       0.137180         3.7328
 162   0.0000       0.157694         4.2911
 163   0.0000       0.161279         4.3886
 164   0.0000       0.163694         4.4543

MULLIKEN ATOMIC CHARGES AND SPIN POPULATIONS
--------------------------------------------
   0 V :    0.471828    1.210531
   1 S :   -0.293193   -0.022505
   2 S :   -0.291011   -0.025214
   3 S :   -0.291284   -0.023479
   4 S :   -0.286847   -0.025655
   5 O :   -0.468508   -0.146489
   6 C :   -0.076861    0.009695
   7 C :   -0.083976    0.008085
   8 C :   -0.082065    0.007794
   9 C :   -0.082529    0.007407
  10 S :    0.095463   -0.000577
  11 S :    0.096641   -0.000619
  12 S :    0.090400   -0.000396
  13 S :    0.089539   -0.000344
  14 C :   -0.205921    0.001522
  15 C :   -0.191347    0.001015
  16 C :   -0.200889   -0.000104
  17 C :   -0.221995   -0.000430
  18 S :   -0.009453   -0.000117
  19 S :   -0.009121   -0.000117
  20 S :   -0.042546   -0.000073
  21 S :   -0.042973   -0.000076
  22 C :   -0.309200   -0.000005
  23 C :   -0.308944   -0.000006
  24 C :   -0.057670   -0.000011
  25 H :    0.168083   -0.000000
  26 H :    0.101556   -0.000007
  27 H :    0.084337   -0.000002
  28 H :    0.115029   -0.000002
  29 H :    0.101247   -0.000007
  30 H :    0.167673    0.000000
  31 C :   -0.311712    0.000211
  32 C :   -0.312952    0.000206
  33 C :   -0.117757   -0.000262
  34 H :    0.154950   -0.000019
  35 H :    0.113761    0.000016
  36 H :    0.097683    0.000019
  37 H :    0.082198    0.000017
  38 H :    0.113691    0.000017
  39 H :    0.154676   -0.000020
Sum of atomic charges         :   -2.0000000

LOEWDIN ATOMIC CHARGES AND SPIN POPULATIONS
-------------------------------------------
   0 V :   -0.156395    1.163874
   1 S :    0.078344   -0.014516
   2 S :    0.078380   -0.016073
   3 S :    0.079682   -0.015339
   4 S :    0.082252   -0.016274
   5 O :   -0.319287   -0.131409
   6 C :   -0.550127    0.009056
   7 C :   -0.552298    0.007979
   8 C :   -0.552170    0.008169
   9 C :   -0.552161    0.007679
  10 S :    0.467666   -0.000893
  11 S :    0.468566   -0.000939
  12 S :    0.463179   -0.000824
  13 S :    0.462395   -0.000825
  14 C :   -0.466714    0.000151
  15 C :   -0.468761   -0.000077
  16 C :   -0.623064    0.000458
  17 C :   -0.623886    0.000079
  18 S :    0.342357   -0.000094
  19 S :    0.343911   -0.000091
  20 S :    0.317559   -0.000079
  21 S :    0.316948   -0.000081
  22 C :   -0.273829   -0.000011
  23 C :   -0.273790   -0.000012
  24 C :   -0.178322   -0.000001
  25 H :    0.087735   -0.000001
  26 H :    0.062722   -0.000003
  27 H :    0.065334   -0.000003
  28 H :    0.075568   -0.000002
  29 H :    0.062524   -0.000004
  30 H :    0.087393   -0.000001
  31 C :   -0.274082    0.000045
  32 C :   -0.273797    0.000038
  33 C :   -0.174499    0.000007
  34 H :    0.068058   -0.000000
  35 H :    0.054470    0.000006
  36 H :    0.065878    0.000004
  37 H :    0.059835    0.000002
  38 H :    0.054529    0.000007
  39 H :    0.067895   -0.000000

  Mayer bond orders larger than 0.100000
B(  0-V ,  1-S ) :   0.7721 B(  0-V ,  2-S ) :   0.7707 B(  0-V ,  3-S ) :   0.7653
B(  0-V ,  4-S ) :   0.7782 B(  0-V ,  5-O ) :   2.1480 B(  1-S ,  8-C ) :   1.1007
B(  2-S ,  6-C ) :   1.1033 B(  3-S ,  9-C ) :   1.1034 B(  4-S ,  7-C ) :   1.1038
B(  6-C ,  7-C ) :   1.6879 B(  6-C , 10-S ) :   0.9341 B(  7-C , 11-S ) :   0.9382
B(  8-C ,  9-C ) :   1.7065 B(  8-C , 13-S ) :   0.9324 B(  9-C , 12-S ) :   0.9341
B( 10-S , 14-C ) :   1.2438 B( 11-S , 14-C ) :   1.2433 B( 12-S , 15-C ) :   1.2344
B( 13-S , 15-C ) :   1.2344 B( 14-C , 16-C ) :   1.4600 B( 15-C , 17-C ) :   1.4744
B( 16-C , 18-S ) :   1.0945 B( 16-C , 19-S ) :   1.0964 B( 17-C , 20-S ) :   1.1071
B( 17-C , 21-S ) :   1.1071 B( 18-S , 32-C ) :   0.9839 B( 19-S , 31-C ) :   0.9838
B( 20-S , 23-C ) :   0.9458 B( 21-S , 22-C ) :   0.9452 B( 22-C , 24-C ) :   0.9318
B( 22-C , 25-H ) :   0.9628 B( 22-C , 26-H ) :   0.9686 B( 23-C , 24-C ) :   0.9327
B( 23-C , 29-H ) :   0.9686 B( 23-C , 30-H ) :   0.9628 B( 24-C , 27-H ) :   0.9656
B( 24-C , 28-H ) :   0.9466 B( 31-C , 33-C ) :   0.9200 B( 31-C , 38-H ) :   0.9676
B( 31-C , 39-H ) :   0.9665 B( 32-C , 33-C ) :   0.9197 B( 32-C , 34-H ) :   0.9663
B( 32-C , 35-H ) :   0.9676 B( 33-C , 36-H ) :   0.9656 B( 33-C , 37-H ) :   0.9632

FINAL SINGLE POINT ENERGY     -6337.643576530756

DIPOLE MOMENT
-------------
                                X             Y             Z
Electronic contribution:      7.83860      -2.56888     -10.11977
Nuclear contribution   :     -8.76723       2.99534      11.27407
                        -----------------------------------------
Total Dipole Moment    :     -0.92863       0.42645       1.15430
                        -----------------------------------------
Magnitude (a.u.)       :      1.54163
Magnitude (Debye)      :      3.91852

Rotational constants in cm-1:     0.010768     0.000804     0.000783
Rotational constants in MHz :   322.804546    24.118076    23.486133

                             ****ORCA TERMINATED NORMALLY****
TOTAL RUN TIME: 0 days 1 hours 6 minutes 54 seconds 300 msec
