                         Program Version 5.0.4 -  RELEASE  -
|  1> ! nofrozencore ReducedPop printbasis
|  2> ! B3LYP TZVP
|  3>
|  4> %basis
|  5> newgto V "CP(PPP)" end
|  6> end
|  7>
|  8> %pal
|  9> nprocs 8
| 10> end
| 11>
| 12> % sym SymThresh 1e-2 end
| 13> * xyz -2 2
| 14> V 1.0175133646078884 0.10373573540519206 0.3429740626465479
| 15> S -0.12815726419623452 1.5960442357213462 1.9504177523093358
| 16> S -0.03983701899395578 -1.755778336543206 1.588362799427526
| 17> S 0.7561981744966252 1.9501140420139738 -1.2867334443523621
| 18> S 0.7538759335903688 -1.3343171689065858 -1.6434364732560747
| 19> O 2.5518382221832585 0.05628297510538101 0.7531149207517225
| 20> C 0.30024814898638297 -3.061938180782874 0.4587655282040202
| 21> C 0.6154366369995375 -2.89226899044429 -0.8392113078230451
| 22> C -0.1934128797349957 3.0980362685071214 1.0383158827351566
| 23> C 0.15695618845790751 3.2377487981990085 -0.25345451581821266
| 24> S 0.1501077760967032 -4.7614378077148976 1.0260840777574998
| 25> S 0.8244126646627874 -4.384610924041268 -1.8160901775689928
| 26> S -0.05315997461471898 4.8722163703865125 -0.9679967076481467
| 27> S -0.8151725247494811 4.569918308329874 1.860236219888749
| 28> C 0.46773038178426535 -5.543264161627675 -0.5286824362045472
| 29> C -0.7469558578801216 5.647271170356268 0.460462581027531
| 30> C 0.44200783010959577 -6.897370782592033 -0.7178888638909013
| 31> C -1.180092158424261 6.944334108144293 0.4813043879941052
| 32> S 0.07200718032645602 -8.02931224807259 0.6093689728054144
| 33> S 0.7061659006109794 -7.6241612244650065 -2.324683676876391
| 34> S -1.8984284992300064 7.675458988661275 1.9390311405944818
| 35> S -1.1273085201717346 7.977807307467463 -0.9700898142867761
| 36> C -2.951481647443526 8.210113983213136 -1.1953008178488709
| 37> C -3.6071808350699386 7.95822221206991 1.281199128923467
| 38> C -3.6468012920390924 8.826702131421895 0.021180792883897178
| 39> H -3.3868217943471786 7.2388993776832695 -1.442653229578314
| 40> H -3.0578462380157836 8.86373412275726 -2.064913331435075
| 41> H -4.7004132063437325 9.002206854050222 -0.23961504074168888
| 42> H -3.198686409297308 9.801916591957589 0.23852572170993283
| 43> H -4.1552168559046745 8.443373557722799 2.093013277979654
| 44> H -4.063262459631219 6.982727388339718 1.0960858404103393
| 45> C 2.162699624672924 -8.699292751254095 -1.9230784708127646
| 46> C 1.6289052203592664 -9.036954212590208 0.5661683481910861
| 47> C 1.9006586178706149 -9.694486410631148 -0.7897000793764604
| 48> H 2.463686685476235 -8.391536239185799 0.860100227336088
| 49> H 1.498797824279574 -9.801496715295311 1.337460517093882
| 50> H 1.0541153162767007 -10.339484432035244 -1.0582893648892582
| 51> H 2.7869248523548413 -10.3415924247837 -0.6875938073960104
| 52> H 2.390806754742867 -9.233233391088534 -2.850080126171828
| 53> H 3.0115608420487576 -8.04997644749286 -1.683043586535362
| 54> *
| 55>
| 56> % eprnmr
| 57> gtensor true
| 58> Nuclei = all H {aiso,adip,aorb,fgrad,rho}
| 59> Nuclei = all V {aiso,adip,aorb,fgrad,rho}
| 60> end
| 61>
| 62>                          ****END OF INPUT****

CARTESIAN COORDINATES (ANGSTROEM)
---------------------------------
  V      1.014766    0.101263    0.341954
  S     -0.130904    1.593572    1.949398
  S     -0.042584   -1.758251    1.587343
  S      0.753451    1.947642   -1.287753
  S      0.751129   -1.336789   -1.644456
  O      2.549091    0.053811    0.752095
  C      0.297501   -3.064410    0.457746
  C      0.612690   -2.894741   -0.840231
  C     -0.196160    3.095564    1.037296
  C      0.154209    3.235277   -0.254474
  S      0.147361   -4.763910    1.025064
  S      0.821666   -4.387083   -1.817110
  S     -0.055907    4.869744   -0.969017
  S     -0.817919    4.567446    1.859216
  C      0.464983   -5.545736   -0.529702
  C     -0.749703    5.644799    0.459443
  C      0.439261   -6.899843   -0.718909
  C     -1.182839    6.941862    0.480284
  S      0.069260   -8.031785    0.608349
  S      0.703419   -7.626634   -2.325704
  S     -1.901175    7.672987    1.938011
  S     -1.130055    7.975335   -0.971110
  C     -2.954229    8.207642   -1.196321
  C     -3.609928    7.955750    1.280179
  C     -3.649548    8.824230    0.020161
  H     -3.389569    7.236427   -1.443673
  H     -3.060593    8.861262   -2.065933
  H     -4.703160    8.999735   -0.240635
  H     -3.201433    9.799444    0.237506
  H     -4.157964    8.440901    2.091993
  H     -4.066009    6.980255    1.095066
  C      2.159953   -8.701765   -1.924098
  C      1.626158   -9.039427    0.565148
  C      1.897912   -9.696959   -0.790720
  H      2.460940   -8.394009    0.859080
  H      1.496051   -9.803969    1.336441
  H      1.051368  -10.341957   -1.059309
  H      2.784178  -10.344065   -0.688614
  H      2.388060   -9.235706   -2.851100
  H      3.008814   -8.052449   -1.684064

 Total Charge           Charge          ....   -2
 Multiplicity           Mult            ....    2
 Number of Electrons    NEL             ....  321
 Basis Dimension        Dim             ....  681

ORBITAL ENERGIES
----------------
                 SPIN UP ORBITALS
  NO   OCC          E(Eh)            E(eV)
   0   1.0000    -196.674305     -5351.7799
   1   1.0000     -88.734128     -2414.5784
   2   1.0000     -88.734110     -2414.5779
   3   1.0000     -88.732699     -2414.5395
   4   1.0000     -88.732618     -2414.5373
   5   1.0000     -88.729909     -2414.4636
   6   1.0000     -88.729840     -2414.4617
   7   1.0000     -88.729722     -2414.4585
   8   1.0000     -88.729552     -2414.4539
   9   1.0000     -88.639557     -2412.0050
  10   1.0000     -88.639432     -2412.0016
  11   1.0000     -88.639190     -2411.9950
  12   1.0000     -88.639014     -2411.9902
  13   1.0000     -22.049651      -600.0015
  14   1.0000     -18.889716      -514.0153
  15   1.0000     -18.556127      -504.9379
  16   1.0000     -18.550911      -504.7960
  17   1.0000     -18.550820      -504.7935
  18   1.0000     -10.075706      -274.1739
  19   1.0000     -10.075311      -274.1631
  20   1.0000     -10.065073      -273.8846
  21   1.0000     -10.065014      -273.8830
  22   1.0000     -10.062746      -273.8213
  23   1.0000     -10.062704      -273.8201
  24   1.0000     -10.052940      -273.5544
  25   1.0000     -10.050752      -273.4949
  26   1.0000     -10.049042      -273.4483
  27   1.0000     -10.047935      -273.4182
  28   1.0000     -10.018067      -272.6055
  29   1.0000     -10.017649      -272.5941
  30   1.0000     -10.017121      -272.5797
  31   1.0000     -10.016854      -272.5724
  32   1.0000      -7.787452      -211.9073
  33   1.0000      -7.787441      -211.9070
  34   1.0000      -7.786141      -211.8717
  35   1.0000      -7.786059      -211.8694
  36   1.0000      -7.783169      -211.7908
  37   1.0000      -7.783123      -211.7895
  38   1.0000      -7.782951      -211.7849
  39   1.0000      -7.782818      -211.7812
  40   1.0000      -7.693796      -209.3588
  41   1.0000      -7.693693      -209.3560
  42   1.0000      -7.693374      -209.3474
  43   1.0000      -7.693361      -209.3470
  44   1.0000      -5.752436      -156.5317
  45   1.0000      -5.752429      -156.5315
  46   1.0000      -5.751142      -156.4965
  47   1.0000      -5.751058      -156.4942
  48   1.0000      -5.749049      -156.4396
  49   1.0000      -5.749048      -156.4396
  50   1.0000      -5.748114      -156.4141
  51   1.0000      -5.748060      -156.4127
  52   1.0000      -5.747911      -156.4086
  53   1.0000      -5.747772      -156.4048
  54   1.0000      -5.747705      -156.4030
  55   1.0000      -5.747629      -156.4009
  56   1.0000      -5.743687      -156.2937
  57   1.0000      -5.743644      -156.2925
  58   1.0000      -5.743474      -156.2879
  59   1.0000      -5.743330      -156.2840
  60   1.0000      -5.742237      -156.2542
  61   1.0000      -5.742233      -156.2541
  62   1.0000      -5.740942      -156.2190
  63   1.0000      -5.740855      -156.2166
  64   1.0000      -5.738987      -156.1658
  65   1.0000      -5.738948      -156.1647
  66   1.0000      -5.738756      -156.1595
  67   1.0000      -5.738632      -156.1561
  68   1.0000      -5.659114      -153.9923
  69   1.0000      -5.659006      -153.9894
  70   1.0000      -5.658716      -153.9815
  71   1.0000      -5.658664      -153.9801
  72   1.0000      -5.652462      -153.8113
  73   1.0000      -5.652335      -153.8079
  74   1.0000      -5.652046      -153.8000
  75   1.0000      -5.652024      -153.7994
  76   1.0000      -5.651141      -153.7754
  77   1.0000      -5.651029      -153.7723
  78   1.0000      -5.650684      -153.7629
  79   1.0000      -5.650678      -153.7628
  80   1.0000      -2.443286       -66.4852
  81   1.0000      -1.484657       -40.3996
  82   1.0000      -1.472815       -40.0773
  83   1.0000      -1.472144       -40.0591
  84   1.0000      -0.709093       -19.2954
  85   1.0000      -0.708939       -19.2912
  86   1.0000      -0.685327       -18.6487
  87   1.0000      -0.684924       -18.6377
  88   1.0000      -0.649262       -17.6673
  89   1.0000      -0.631523       -17.1846
  90   1.0000      -0.630706       -17.1624
  91   1.0000      -0.617009       -16.7897
  92   1.0000      -0.616388       -16.7728
  93   1.0000      -0.574208       -15.6250
  94   1.0000      -0.573577       -15.6078
  95   1.0000      -0.573238       -15.5986
  96   1.0000      -0.572279       -15.5725
  97   1.0000      -0.496864       -13.5204
  98   1.0000      -0.496352       -13.5064
  99   1.0000      -0.495250       -13.4764
 100   1.0000      -0.494946       -13.4682
 101   1.0000      -0.479428       -13.0459
 102   1.0000      -0.476808       -12.9746
 103   1.0000      -0.447046       -12.1647
 104   1.0000      -0.444834       -12.1046
 105   1.0000      -0.416067       -11.3218
 106   1.0000      -0.410846       -11.1797
 107   1.0000      -0.355607        -9.6766
 108   1.0000      -0.354454        -9.6452
 109   1.0000      -0.326934        -8.8963
 110   1.0000      -0.325828        -8.8662
 111   1.0000      -0.318644        -8.6707
 112   1.0000      -0.314128        -8.5478
 113   1.0000      -0.304047        -8.2735
 114   1.0000      -0.303210        -8.2508
 115   1.0000      -0.292808        -7.9677
 116   1.0000      -0.291468        -7.9313
 117   1.0000      -0.257783        -7.0146
 118   1.0000      -0.257596        -7.0096
 119   1.0000      -0.255565        -6.9543
 120   1.0000      -0.255341        -6.9482
 121   1.0000      -0.235144        -6.3986
 122   1.0000      -0.233767        -6.3611
 123   1.0000      -0.231238        -6.2923
 124   1.0000      -0.229579        -6.2472
 125   1.0000      -0.219647        -5.9769
 126   1.0000      -0.217717        -5.9244
 127   1.0000      -0.214622        -5.8402
 128   1.0000      -0.211420        -5.7530
 129   1.0000      -0.192775        -5.2457
 130   1.0000      -0.186940        -5.0869
 131   1.0000      -0.185274        -5.0416
 132   1.0000      -0.184097        -5.0095
 133   1.0000      -0.178853        -4.8668
 134   1.0000      -0.159165        -4.3311
 135   1.0000      -0.151324        -4.1177
 136   1.0000      -0.146468        -3.9856
 137   1.0000      -0.136497        -3.7143
 138   1.0000      -0.133846        -3.6421
 139   1.0000      -0.132410        -3.6030
 140   1.0000      -0.124825        -3.3967
 141   1.0000      -0.120579        -3.2811
 142   1.0000      -0.112765        -3.0685
 143   1.0000      -0.109598        -2.9823
 144   1.0000      -0.099194        -2.6992
 145   1.0000      -0.097580        -2.6553
 146   1.0000      -0.097502        -2.6532
 147   1.0000      -0.094570        -2.5734
 148   1.0000      -0.073965        -2.0127
 149   1.0000      -0.068571        -1.8659
 150   1.0000      -0.066631        -1.8131
 151   1.0000      -0.052046        -1.4163
 152   1.0000      -0.045163        -1.2289
 153   1.0000      -0.036780        -1.0008
 154   1.0000      -0.036709        -0.9989
 155   1.0000      -0.030703        -0.8355
 156   1.0000      -0.024213        -0.6589
 157   1.0000      -0.018434        -0.5016
 158   1.0000      -0.014804        -0.4028
 159   1.0000       0.021080         0.5736
 160   1.0000       0.041371         1.1258
 161   0.0000       0.136181         3.7057
 162   0.0000       0.137708         3.7472
 163   0.0000       0.160885         4.3779
 164   0.0000       0.162888         4.4324
 165   0.0000       0.170370         4.6360

                 SPIN DOWN ORBITALS
  NO   OCC          E(Eh)            E(eV)
   0   1.0000    -196.674452     -5351.7839
   1   1.0000     -88.734129     -2414.5784
   2   1.0000     -88.734111     -2414.5779
   3   1.0000     -88.732700     -2414.5395
   4   1.0000     -88.732619     -2414.5373
   5   1.0000     -88.729917     -2414.4638
   6   1.0000     -88.729848     -2414.4619
   7   1.0000     -88.729730     -2414.4587
   8   1.0000     -88.729561     -2414.4541
   9   1.0000     -88.639689     -2412.0086
  10   1.0000     -88.639565     -2412.0052
  11   1.0000     -88.639325     -2411.9987
  12   1.0000     -88.639148     -2411.9938
  13   1.0000     -22.034731      -599.5955
  14   1.0000     -18.893495      -514.1181
  15   1.0000     -18.550868      -504.7948
  16   1.0000     -18.534853      -504.3590
  17   1.0000     -18.534748      -504.3561
  18   1.0000     -10.075705      -274.1739
  19   1.0000     -10.075304      -274.1630
  20   1.0000     -10.065072      -273.8845
  21   1.0000     -10.065013      -273.8829
  22   1.0000     -10.062747      -273.8213
  23   1.0000     -10.062704      -273.8201
  24   1.0000     -10.052940      -273.5544
  25   1.0000     -10.050752      -273.4949
  26   1.0000     -10.049029      -273.4480
  27   1.0000     -10.047931      -273.4181
  28   1.0000     -10.017822      -272.5988
  29   1.0000     -10.017439      -272.5884
  30   1.0000     -10.016894      -272.5736
  31   1.0000     -10.016647      -272.5668
  32   1.0000      -7.787453      -211.9074
  33   1.0000      -7.787442      -211.9071
  34   1.0000      -7.786142      -211.8717
  35   1.0000      -7.786060      -211.8695
  36   1.0000      -7.783179      -211.7911
  37   1.0000      -7.783132      -211.7898
  38   1.0000      -7.782961      -211.7851
  39   1.0000      -7.782827      -211.7815
  40   1.0000      -7.693920      -209.3622
  41   1.0000      -7.693816      -209.3594
  42   1.0000      -7.693500      -209.3508
  43   1.0000      -7.693486      -209.3504
  44   1.0000      -5.752438      -156.5318
  45   1.0000      -5.752430      -156.5316
  46   1.0000      -5.751143      -156.4966
  47   1.0000      -5.751059      -156.4943
  48   1.0000      -5.749051      -156.4396
  49   1.0000      -5.749050      -156.4396
  50   1.0000      -5.748125      -156.4144
  51   1.0000      -5.748071      -156.4130
  52   1.0000      -5.747922      -156.4089
  53   1.0000      -5.747783      -156.4051
  54   1.0000      -5.747705      -156.4030
  55   1.0000      -5.747630      -156.4010
  56   1.0000      -5.743701      -156.2941
  57   1.0000      -5.743658      -156.2929
  58   1.0000      -5.743488      -156.2883
  59   1.0000      -5.743344      -156.2843
  60   1.0000      -5.742237      -156.2542
  61   1.0000      -5.742233      -156.2541
  62   1.0000      -5.740942      -156.2190
  63   1.0000      -5.740856      -156.2166
  64   1.0000      -5.738994      -156.1660
  65   1.0000      -5.738955      -156.1649
  66   1.0000      -5.738764      -156.1597
  67   1.0000      -5.738642      -156.1564
  68   1.0000      -5.659253      -153.9961
  69   1.0000      -5.659138      -153.9930
  70   1.0000      -5.658852      -153.9852
  71   1.0000      -5.658802      -153.9838
  72   1.0000      -5.652805      -153.8206
  73   1.0000      -5.652723      -153.8184
  74   1.0000      -5.652430      -153.8104
  75   1.0000      -5.652377      -153.8090
  76   1.0000      -5.651237      -153.7780
  77   1.0000      -5.651090      -153.7740
  78   1.0000      -5.650774      -153.7654
  79   1.0000      -5.650755      -153.7649
  80   1.0000      -2.398453       -65.2652
  81   1.0000      -1.465393       -39.8754
  82   1.0000      -1.410638       -38.3854
  83   1.0000      -1.410363       -38.3779
  84   1.0000      -0.709079       -19.2950
  85   1.0000      -0.708911       -19.2904
  86   1.0000      -0.685267       -18.6471
  87   1.0000      -0.684883       -18.6366
  88   1.0000      -0.657368       -17.8879
  89   1.0000      -0.631442       -17.1824
  90   1.0000      -0.630648       -17.1608
  91   1.0000      -0.617008       -16.7896
  92   1.0000      -0.616390       -16.7728
  93   1.0000      -0.574188       -15.6244
  94   1.0000      -0.573545       -15.6069
  95   1.0000      -0.573153       -15.5963
  96   1.0000      -0.572206       -15.5705
  97   1.0000      -0.496873       -13.5206
  98   1.0000      -0.496387       -13.5074
  99   1.0000      -0.495294       -13.4776
 100   1.0000      -0.494975       -13.4690
 101   1.0000      -0.479610       -13.0508
 102   1.0000      -0.477049       -12.9812
 103   1.0000      -0.447059       -12.1651
 104   1.0000      -0.444877       -12.1057
 105   1.0000      -0.416054       -11.3214
 106   1.0000      -0.410940       -11.1823
 107   1.0000      -0.355597        -9.6763
 108   1.0000      -0.354449        -9.6451
 109   1.0000      -0.326918        -8.8959
 110   1.0000      -0.325819        -8.8660
 111   1.0000      -0.318564        -8.6686
 112   1.0000      -0.314150        -8.5484
 113   1.0000      -0.303994        -8.2721
 114   1.0000      -0.303187        -8.2501
 115   1.0000      -0.292802        -7.9676
 116   1.0000      -0.291464        -7.9311
 117   1.0000      -0.257701        -7.0124
 118   1.0000      -0.257443        -7.0054
 119   1.0000      -0.255526        -6.9532
 120   1.0000      -0.255312        -6.9474
 121   1.0000      -0.235118        -6.3979
 122   1.0000      -0.233738        -6.3603
 123   1.0000      -0.231191        -6.2910
 124   1.0000      -0.229547        -6.2463
 125   1.0000      -0.219294        -5.9673
 126   1.0000      -0.217605        -5.9213
 127   1.0000      -0.214400        -5.8341
 128   1.0000      -0.211281        -5.7492
 129   1.0000      -0.191178        -5.2022
 130   1.0000      -0.186876        -5.0852
 131   1.0000      -0.184823        -5.0293
 132   1.0000      -0.183857        -5.0030
 133   1.0000      -0.178743        -4.8638
 134   1.0000      -0.158527        -4.3137
 135   1.0000      -0.151155        -4.1131
 136   1.0000      -0.146391        -3.9835
 137   1.0000      -0.136004        -3.7008
 138   1.0000      -0.133408        -3.6302
 139   1.0000      -0.132186        -3.5970
 140   1.0000      -0.124165        -3.3787
 141   1.0000      -0.120274        -3.2728
 142   1.0000      -0.114573        -3.1177
 143   1.0000      -0.111113        -3.0235
 144   1.0000      -0.099176        -2.6987
 145   1.0000      -0.097829        -2.6621
 146   1.0000      -0.097599        -2.6558
 147   1.0000      -0.094899        -2.5823
 148   1.0000      -0.070126        -1.9082
 149   1.0000      -0.068569        -1.8659
 150   1.0000      -0.066625        -1.8129
 151   1.0000      -0.049478        -1.3464
 152   1.0000      -0.044245        -1.2040
 153   1.0000      -0.036812        -1.0017
 154   1.0000      -0.036115        -0.9827
 155   1.0000      -0.030564        -0.8317
 156   1.0000      -0.025203        -0.6858
 157   1.0000      -0.014936        -0.4064
 158   1.0000       0.021351         0.5810
 159   1.0000       0.039926         1.0864
 160   0.0000       0.136204         3.7063
 161   0.0000       0.137704         3.7471
 162   0.0000       0.156597         4.2612
 163   0.0000       0.161538         4.3957
 164   0.0000       0.163902         4.4600

MULLIKEN ATOMIC CHARGES AND SPIN POPULATIONS
--------------------------------------------
   0 V :    0.471289    1.207774
   1 S :   -0.292164   -0.021571
   2 S :   -0.290392   -0.024673
   3 S :   -0.289932   -0.022558
   4 S :   -0.285905   -0.024993
   5 O :   -0.467015   -0.146524
   6 C :   -0.076533    0.010023
   7 C :   -0.082260    0.008103
   8 C :   -0.084501    0.007459
   9 C :   -0.085080    0.007103
  10 S :    0.097269   -0.000653
  11 S :    0.098732   -0.000706
  12 S :    0.100806   -0.000403
  13 S :    0.099802   -0.000357
  14 C :   -0.212526    0.001587
  15 C :   -0.211503    0.000924
  16 C :   -0.194348    0.000007
  17 C :   -0.190207   -0.000364
  18 S :    0.012465   -0.000126
  19 S :    0.012912   -0.000124
  20 S :    0.006592   -0.000076
  21 S :    0.006701   -0.000079
  22 C :   -0.300721    0.000011
  23 C :   -0.299923    0.000010
  24 C :   -0.158994   -0.000025
  25 H :    0.144400   -0.000002
  26 H :    0.113496   -0.000003
  27 H :    0.083495    0.000001
  28 H :    0.091750    0.000000
  29 H :    0.113208   -0.000003
  30 H :    0.143874   -0.000002
  31 C :   -0.299713    0.000242
  32 C :   -0.300245    0.000239
  33 C :   -0.154919   -0.000318
  34 H :    0.138760   -0.000019
  35 H :    0.113887    0.000027
  36 H :    0.092809    0.000035
  37 H :    0.081979    0.000022
  38 H :    0.113830    0.000028
  39 H :    0.138825   -0.000019
Sum of atomic charges         :   -2.0000000

LOEWDIN ATOMIC CHARGES AND SPIN POPULATIONS
-------------------------------------------
   0 V :   -0.155931    1.161398
   1 S :    0.079292   -0.013820
   2 S :    0.078368   -0.015491
   3 S :    0.080893   -0.014640
   4 S :    0.082528   -0.015594
   5 O :   -0.318385   -0.131482
   6 C :   -0.548396    0.009315
   7 C :   -0.550625    0.007989
   8 C :   -0.552476    0.007941
   9 C :   -0.552549    0.007472
  10 S :    0.469444   -0.000930
  11 S :    0.470481   -0.000998
  12 S :    0.471635   -0.000843
  13 S :    0.470849   -0.000851
  14 C :   -0.466086    0.000231
  15 C :   -0.464883   -0.000096
  16 C :   -0.620120    0.000532
  17 C :   -0.622834    0.000091
  18 S :    0.359732   -0.000095
  19 S :    0.361115   -0.000092
  20 S :    0.357731   -0.000078
  21 S :    0.357450   -0.000080
  22 C :   -0.282950   -0.000005
  23 C :   -0.283032   -0.000006
  24 C :   -0.176034   -0.000001
  25 H :    0.063020   -0.000001
  26 H :    0.053544   -0.000002
  27 H :    0.058137   -0.000001
  28 H :    0.060143   -0.000000
  29 H :    0.053493   -0.000002
  30 H :    0.062831   -0.000002
  31 C :   -0.284616    0.000052
  32 C :   -0.284342    0.000044
  33 C :   -0.177226    0.000010
  34 H :    0.061674    0.000001
  35 H :    0.053786    0.000012
  36 H :    0.060941    0.000007
  37 H :    0.057961    0.000003
  38 H :    0.053853    0.000012
  39 H :    0.061584    0.000001

  Mayer bond orders larger than 0.100000
B(  0-V ,  1-S ) :   0.7706 B(  0-V ,  2-S ) :   0.7712 B(  0-V ,  3-S ) :   0.7642
B(  0-V ,  4-S ) :   0.7792 B(  0-V ,  5-O ) :   2.1505 B(  1-S ,  8-C ) :   1.1026
B(  2-S ,  6-C ) :   1.1006 B(  3-S ,  9-C ) :   1.1051 B(  4-S ,  7-C ) :   1.1003
B(  6-C ,  7-C ) :   1.6852 B(  6-C , 10-S ) :   0.9334 B(  7-C , 11-S ) :   0.9373
B(  8-C ,  9-C ) :   1.7002 B(  8-C , 13-S ) :   0.9335 B(  9-C , 12-S ) :   0.9353
B( 10-S , 14-C ) :   1.2452 B( 11-S , 14-C ) :   1.2451 B( 12-S , 15-C ) :   1.2472
B( 13-S , 15-C ) :   1.2472 B( 14-C , 16-C ) :   1.4623 B( 15-C , 17-C ) :   1.4509
B( 16-C , 18-S ) :   1.0879 B( 16-C , 19-S ) :   1.0896 B( 17-C , 20-S ) :   1.0884
B( 17-C , 21-S ) :   1.0892 B( 18-S , 32-C ) :   0.9899 B( 19-S , 31-C ) :   0.9899
B( 20-S , 23-C ) :   0.9913 B( 21-S , 22-C ) :   0.9907 B( 22-C , 24-C ) :   0.9138
B( 22-C , 25-H ) :   0.9661 B( 22-C , 26-H ) :   0.9654 B( 23-C , 24-C ) :   0.9144
B( 23-C , 29-H ) :   0.9655 B( 23-C , 30-H ) :   0.9659 B( 24-C , 27-H ) :   0.9624
B( 24-C , 28-H ) :   0.9717 B( 31-C , 33-C ) :   0.9119 B( 31-C , 38-H ) :   0.9661
B( 31-C , 39-H ) :   0.9644 B( 32-C , 33-C ) :   0.9114 B( 32-C , 34-H ) :   0.9642
B( 32-C , 35-H ) :   0.9661 B( 33-C , 36-H ) :   0.9718 B( 33-C , 37-H ) :   0.9619

FINAL SINGLE POINT ENERGY     -6337.706807835334

DIPOLE MOMENT
-------------
                                X             Y             Z
Electronic contribution:     12.09819       5.37540       5.13159
Nuclear contribution   :    -13.43886      -5.98052      -5.70893
                        -----------------------------------------
Total Dipole Moment    :     -1.34067      -0.60512      -0.57734
                        -----------------------------------------
Magnitude (a.u.)       :      1.58016
Magnitude (Debye)      :      4.01644

Rotational constants in cm-1:     0.010863     0.000802     0.000780
Rotational constants in MHz :   325.660629    24.033091    23.392801

                             ****ORCA TERMINATED NORMALLY****
TOTAL RUN TIME: 0 days 1 hours 1 minutes 57 seconds 773 msec
