                         Program Version 5.0.4 -  RELEASE  -
|  1> ! nofrozencore ReducedPop printbasis
|  2> ! B3LYP TZVP
|  3>
|  4> %basis
|  5> newgto V "CP(PPP)" end
|  6> end
|  7>
|  8> %pal
|  9> nprocs 6
| 10> end
| 11>
| 12> % sym SymThresh 1e-2 end
| 13> * xyz -2 2
| 14> V 0.1274744015264628 -1.0706973284056809 -0.279087111815304
| 15> S 1.874170069174034 -0.004138798705285491 -1.6862388404489073
| 16> S 1.6406742553576308 -0.5973219518108387 1.6127394344436345
| 17> S -1.4055907796024736 -0.15796636138740663 -2.009350042554441
| 18> S -1.7765474591929415 -0.6623088732720742 1.2228962278117388
| 19> O 0.22093660001531115 -2.6404398597185716 -0.49831715474288496
| 20> C 0.4108843347502035 -0.9006370981314014 3.285772190827954
| 21> C -0.9561684539412176 -0.9203427134274559 3.1176350557333756
| 22> C 0.9685012688687564 0.345701989760816 -2.7958061932725276
| 23> C -0.33943932898014084 0.2894251534322731 -2.9316254371613057
| 24> S 1.0249252033484817 -1.02461766289871 4.601936221630745
| 25> S -1.846619969463328 -1.0546719682623558 4.268430817561633
| 26> S -1.0379187054600512 1.0199557396094976 -4.777073017978977
| 27> S 1.9396483575080146 1.1490240054468799 -4.493392168097536
| 28> C -0.5243167974540305 -1.1289791343631173 5.408159507474816
| 29> C 0.5145362428724723 1.5253342077926204 -5.498792305841469
| 30> C -0.6835096974926713 -1.254877159049072 6.75568340865374
| 31> C 0.6028035235592746 2.142967126949677 -6.721094419866349
| 32> S 0.7092905236311029 -1.3828878097998725 7.914612573889011
| 33> S -2.308515818344802 -1.35010822171514 7.555389745573487
| 34> S 2.1588707903812687 2.620758760535141 -7.373657952603095
| 35> S -0.8399461742435174 2.5064357940155517 -7.648929424350071
| 36> C -0.7065775437328129 4.346281298740414 -7.65725551031026
| 37> C 1.8911181505019306 4.445310078486009 -7.424306660606354
| 38> C 0.6374887110780221 4.860061433592203 -8.244133932848058
| 39> H -0.8205361060361435 4.683273551037025 -6.623771220716647
| 40> H -1.5619828995075322 4.713144769954376 -8.231000734809575
| 41> H 0.5994859651904896 5.957443867411485 -8.283941938172063
| 42> H 0.7433097184543965 4.499319685254717 -9.272099727482424
| 43> H 2.804032005220072 4.875620694250686 -7.844679289798466
| 44> H 1.7975453722975285 4.78879397735159 -6.391013526696519
| 45> C -2.1614542357957127 -3.0592703513480686 8.26895448374711
| 46> C 0.3571638695860109 -3.089737381299764 8.560630035367913
| 47> C -0.9963560901368795 -3.2370866752823706 9.206984526818674
| 48> H 0.49627679269075936 -3.8106560194375465 7.751801331274877
| 49> H 1.1315907696742764 -3.2640029929013545 9.312622830547364
| 50> H -1.08221315546795 -2.5283280009029845 10.036649020294027
| 51> H -1.0580397970663393 -4.247918828922627 9.634668593094753
| 52> H -3.093837356976936 -3.2108273991584126 8.819286577535374
| 53> H -2.126356341919508 -3.7800718411446836 7.449029906238646
| 54> *
| 55>
| 56> % eprnmr
| 57> gtensor true
| 58> Nuclei = all H {aiso,adip,aorb,fgrad,rho}
| 59> Nuclei = all V {aiso,adip,aorb,fgrad,rho}
| 60> end
| 61>
| 62>                          ****END OF INPUT****

CARTESIAN COORDINATES (ANGSTROEM)
---------------------------------
  V      0.127076   -1.068213   -0.276195
  S      1.873772   -0.001654   -1.683347
  S      1.640276   -0.594837    1.615632
  S     -1.405989   -0.155482   -2.006458
  S     -1.776945   -0.659824    1.225789
  O      0.220539   -2.637955   -0.495425
  C      0.410486   -0.898152    3.288665
  C     -0.956566   -0.917858    3.120527
  C      0.968103    0.348187   -2.792914
  C     -0.339837    0.291910   -2.928733
  S      1.024527   -1.022133    4.604829
  S     -1.847018   -1.052187    4.271323
  S     -1.038317    1.022440   -4.774181
  S      1.939250    1.151509   -4.490500
  C     -0.524715   -1.126494    5.411052
  C      0.514138    1.527819   -5.495900
  C     -0.683908   -1.252392    6.758576
  C      0.602406    2.145452   -6.718202
  S      0.708893   -1.380403    7.917505
  S     -2.308914   -1.347624    7.558282
  S      2.158473    2.623243   -7.370766
  S     -0.840344    2.508920   -7.646037
  C     -0.706976    4.348766   -7.654363
  C      1.890720    4.447795   -7.421414
  C      0.637091    4.862546   -8.241242
  H     -0.820934    4.685758   -6.620879
  H     -1.562381    4.715629   -8.228108
  H      0.599088    5.959929   -8.281050
  H      0.742912    4.501804   -9.269207
  H      2.803634    4.878105   -7.841787
  H      1.797147    4.791279   -6.388121
  C     -2.161852   -3.056786    8.271847
  C      0.356766   -3.087253    8.563522
  C     -0.996754   -3.234602    9.209877
  H      0.495879   -3.808171    7.754694
  H      1.131193   -3.261518    9.315515
  H     -1.082611   -2.525843   10.039541
  H     -1.058438   -4.245434    9.637561
  H     -3.094235   -3.208343    8.822179
  H     -2.126754   -3.777587    7.451922

 Total Charge           Charge          ....   -2
 Multiplicity           Mult            ....    2
 Number of Electrons    NEL             ....  321
 Basis Dimension        Dim             ....  681

ORBITAL ENERGIES
----------------
                 SPIN UP ORBITALS
  NO   OCC          E(Eh)            E(eV)
   0   1.0000    -196.686222     -5352.1042
   1   1.0000     -88.741500     -2414.7790
   2   1.0000     -88.740769     -2414.7591
   3   1.0000     -88.737635     -2414.6738
   4   1.0000     -88.737506     -2414.6703
   5   1.0000     -88.718804     -2414.1614
   6   1.0000     -88.718764     -2414.1603
   7   1.0000     -88.698423     -2413.6068
   8   1.0000     -88.697142     -2413.5719
   9   1.0000     -88.653654     -2412.3886
  10   1.0000     -88.652843     -2412.3665
  11   1.0000     -88.641910     -2412.0690
  12   1.0000     -88.640979     -2412.0437
  13   1.0000     -22.061015      -600.3107
  14   1.0000     -18.900249      -514.3019
  15   1.0000     -18.567187      -505.2389
  16   1.0000     -18.562558      -505.1129
  17   1.0000     -18.562336      -505.1068
  18   1.0000     -10.071161      -274.0502
  19   1.0000     -10.064827      -273.8779
  20   1.0000     -10.064673      -273.8737
  21   1.0000     -10.061756      -273.7943
  22   1.0000     -10.053531      -273.5705
  23   1.0000     -10.053527      -273.5704
  24   1.0000     -10.050987      -273.5013
  25   1.0000     -10.048634      -273.4372
  26   1.0000     -10.043797      -273.3056
  27   1.0000     -10.031847      -272.9804
  28   1.0000     -10.016540      -272.5639
  29   1.0000     -10.015892      -272.5463
  30   1.0000     -10.002890      -272.1925
  31   1.0000     -10.001887      -272.1652
  32   1.0000      -7.804852      -212.3808
  33   1.0000      -7.804045      -212.3589
  34   1.0000      -7.790235      -211.9831
  35   1.0000      -7.790148      -211.9807
  36   1.0000      -7.773000      -211.5141
  37   1.0000      -7.772944      -211.5126
  38   1.0000      -7.750108      -210.8912
  39   1.0000      -7.748889      -210.8580
  40   1.0000      -7.706571      -209.7065
  41   1.0000      -7.705443      -209.6758
  42   1.0000      -7.703679      -209.6278
  43   1.0000      -7.702788      -209.6035
  44   1.0000      -5.768823      -156.9777
  45   1.0000      -5.768020      -156.9558
  46   1.0000      -5.763884      -156.8433
  47   1.0000      -5.763065      -156.8210
  48   1.0000      -5.760940      -156.7631
  49   1.0000      -5.760147      -156.7416
  50   1.0000      -5.755242      -156.6081
  51   1.0000      -5.755154      -156.6057
  52   1.0000      -5.751924      -156.5178
  53   1.0000      -5.751824      -156.5151
  54   1.0000      -5.745089      -156.3318
  55   1.0000      -5.745013      -156.3298
  56   1.0000      -5.737976      -156.1383
  57   1.0000      -5.737932      -156.1371
  58   1.0000      -5.734426      -156.0417
  59   1.0000      -5.734364      -156.0400
  60   1.0000      -5.727799      -155.8613
  61   1.0000      -5.727742      -155.8598
  62   1.0000      -5.714918      -155.5108
  63   1.0000      -5.713691      -155.4774
  64   1.0000      -5.711045      -155.4054
  65   1.0000      -5.709779      -155.3710
  66   1.0000      -5.705965      -155.2672
  67   1.0000      -5.704791      -155.2353
  68   1.0000      -5.670849      -154.3117
  69   1.0000      -5.669980      -154.2880
  70   1.0000      -5.669798      -154.2830
  71   1.0000      -5.668674      -154.2525
  72   1.0000      -5.665258      -154.1595
  73   1.0000      -5.664143      -154.1292
  74   1.0000      -5.663753      -154.1186
  75   1.0000      -5.662633      -154.0881
  76   1.0000      -5.662157      -154.0751
  77   1.0000      -5.661306      -154.0520
  78   1.0000      -5.660072      -154.0184
  79   1.0000      -5.659123      -153.9926
  80   1.0000      -2.454609       -66.7933
  81   1.0000      -1.495836       -40.7038
  82   1.0000      -1.484412       -40.3929
  83   1.0000      -1.483637       -40.3718
  84   1.0000      -0.777520       -21.1574
  85   1.0000      -0.701838       -19.0980
  86   1.0000      -0.693042       -18.8586
  87   1.0000      -0.674966       -18.3667
  88   1.0000      -0.664366       -18.0783
  89   1.0000      -0.659139       -17.9361
  90   1.0000      -0.639596       -17.4043
  91   1.0000      -0.638467       -17.3736
  92   1.0000      -0.617345       -16.7988
  93   1.0000      -0.606971       -16.5165
  94   1.0000      -0.592356       -16.1188
  95   1.0000      -0.577793       -15.7226
  96   1.0000      -0.555531       -15.1168
  97   1.0000      -0.504012       -13.7149
  98   1.0000      -0.495566       -13.4850
  99   1.0000      -0.481095       -13.0913
 100   1.0000      -0.479106       -13.0371
 101   1.0000      -0.474279       -12.9058
 102   1.0000      -0.446760       -12.1569
 103   1.0000      -0.442748       -12.0478
 104   1.0000      -0.438136       -11.9223
 105   1.0000      -0.419387       -11.4121
 106   1.0000      -0.414972       -11.2920
 107   1.0000      -0.376677       -10.2499
 108   1.0000      -0.363869        -9.9014
 109   1.0000      -0.342637        -9.3236
 110   1.0000      -0.339353        -9.2343
 111   1.0000      -0.320724        -8.7274
 112   1.0000      -0.310351        -8.4451
 113   1.0000      -0.298123        -8.1123
 114   1.0000      -0.283587        -7.7168
 115   1.0000      -0.281957        -7.6724
 116   1.0000      -0.272201        -7.4070
 117   1.0000      -0.265177        -7.2158
 118   1.0000      -0.260228        -7.0812
 119   1.0000      -0.259612        -7.0644
 120   1.0000      -0.246294        -6.7020
 121   1.0000      -0.242035        -6.5861
 122   1.0000      -0.237002        -6.4491
 123   1.0000      -0.232193        -6.3183
 124   1.0000      -0.229538        -6.2460
 125   1.0000      -0.225365        -6.1325
 126   1.0000      -0.221137        -6.0174
 127   1.0000      -0.212726        -5.7886
 128   1.0000      -0.206403        -5.6165
 129   1.0000      -0.199260        -5.4221
 130   1.0000      -0.198571        -5.4034
 131   1.0000      -0.193184        -5.2568
 132   1.0000      -0.187981        -5.1152
 133   1.0000      -0.182437        -4.9644
 134   1.0000      -0.161214        -4.3869
 135   1.0000      -0.150492        -4.0951
 136   1.0000      -0.146431        -3.9846
 137   1.0000      -0.144876        -3.9423
 138   1.0000      -0.142613        -3.8807
 139   1.0000      -0.136426        -3.7123
 140   1.0000      -0.130116        -3.5406
 141   1.0000      -0.124418        -3.3856
 142   1.0000      -0.118406        -3.2220
 143   1.0000      -0.114716        -3.1216
 144   1.0000      -0.096740        -2.6324
 145   1.0000      -0.093284        -2.5384
 146   1.0000      -0.088540        -2.4093
 147   1.0000      -0.088055        -2.3961
 148   1.0000      -0.076823        -2.0905
 149   1.0000      -0.071647        -1.9496
 150   1.0000      -0.065543        -1.7835
 151   1.0000      -0.050623        -1.3775
 152   1.0000      -0.044728        -1.2171
 153   1.0000      -0.038964        -1.0603
 154   1.0000      -0.037933        -1.0322
 155   1.0000      -0.033159        -0.9023
 156   1.0000      -0.028144        -0.7658
 157   1.0000      -0.020060        -0.5459
 158   1.0000      -0.009336        -0.2540
 159   1.0000       0.020052         0.5456
 160   1.0000       0.051691         1.4066
 161   0.0000       0.132290         3.5998
 162   0.0000       0.137893         3.7523
 163   0.0000       0.151068         4.1108
 164   0.0000       0.157349         4.2817
 165   0.0000       0.158086         4.3017

                 SPIN DOWN ORBITALS
  NO   OCC          E(Eh)            E(eV)
   0   1.0000    -196.686362     -5352.1080
   1   1.0000     -88.741508     -2414.7792
   2   1.0000     -88.740776     -2414.7593
   3   1.0000     -88.737635     -2414.6738
   4   1.0000     -88.737505     -2414.6703
   5   1.0000     -88.718806     -2414.1614
   6   1.0000     -88.718766     -2414.1604
   7   1.0000     -88.698450     -2413.6075
   8   1.0000     -88.697171     -2413.5727
   9   1.0000     -88.653830     -2412.3934
  10   1.0000     -88.653031     -2412.3716
  11   1.0000     -88.641998     -2412.0714
  12   1.0000     -88.641071     -2412.0462
  13   1.0000     -22.046349      -599.9116
  14   1.0000     -18.904000      -514.4040
  15   1.0000     -18.561931      -505.0958
  16   1.0000     -18.546759      -504.6830
  17   1.0000     -18.546641      -504.6798
  18   1.0000     -10.071029      -274.0466
  19   1.0000     -10.064825      -273.8778
  20   1.0000     -10.064672      -273.8736
  21   1.0000     -10.061768      -273.7946
  22   1.0000     -10.053532      -273.5705
  23   1.0000     -10.053528      -273.5704
  24   1.0000     -10.050988      -273.5013
  25   1.0000     -10.048604      -273.4364
  26   1.0000     -10.043797      -273.3056
  27   1.0000     -10.031846      -272.9804
  28   1.0000     -10.016103      -272.5520
  29   1.0000     -10.015467      -272.5347
  30   1.0000     -10.002732      -272.1882
  31   1.0000     -10.001732      -272.1610
  32   1.0000      -7.804858      -212.3810
  33   1.0000      -7.804051      -212.3590
  34   1.0000      -7.790234      -211.9831
  35   1.0000      -7.790147      -211.9807
  36   1.0000      -7.773001      -211.5141
  37   1.0000      -7.772946      -211.5126
  38   1.0000      -7.750136      -210.8919
  39   1.0000      -7.748921      -210.8588
  40   1.0000      -7.706655      -209.7087
  41   1.0000      -7.705531      -209.6781
  42   1.0000      -7.703840      -209.6321
  43   1.0000      -7.702958      -209.6082
  44   1.0000      -5.768838      -156.9781
  45   1.0000      -5.768033      -156.9562
  46   1.0000      -5.763891      -156.8435
  47   1.0000      -5.763071      -156.8211
  48   1.0000      -5.760950      -156.7634
  49   1.0000      -5.760160      -156.7419
  50   1.0000      -5.755242      -156.6081
  51   1.0000      -5.755154      -156.6057
  52   1.0000      -5.751924      -156.5178
  53   1.0000      -5.751823      -156.5151
  54   1.0000      -5.745088      -156.3318
  55   1.0000      -5.745012      -156.3297
  56   1.0000      -5.737977      -156.1383
  57   1.0000      -5.737934      -156.1371
  58   1.0000      -5.734428      -156.0417
  59   1.0000      -5.734366      -156.0400
  60   1.0000      -5.727801      -155.8614
  61   1.0000      -5.727745      -155.8599
  62   1.0000      -5.714952      -155.5117
  63   1.0000      -5.713728      -155.4784
  64   1.0000      -5.711100      -155.4069
  65   1.0000      -5.709842      -155.3727
  66   1.0000      -5.705983      -155.2677
  67   1.0000      -5.704812      -155.2358
  68   1.0000      -5.671078      -154.3179
  69   1.0000      -5.670237      -154.2950
  70   1.0000      -5.669883      -154.2854
  71   1.0000      -5.668760      -154.2548
  72   1.0000      -5.665471      -154.1653
  73   1.0000      -5.664374      -154.1355
  74   1.0000      -5.663838      -154.1209
  75   1.0000      -5.662718      -154.0904
  76   1.0000      -5.662622      -154.0878
  77   1.0000      -5.661778      -154.0648
  78   1.0000      -5.660161      -154.0208
  79   1.0000      -5.659228      -153.9954
  80   1.0000      -2.410413       -65.5907
  81   1.0000      -1.476435       -40.1758
  82   1.0000      -1.423276       -38.7293
  83   1.0000      -1.423033       -38.7227
  84   1.0000      -0.777046       -21.1445
  85   1.0000      -0.701817       -19.0974
  86   1.0000      -0.693051       -18.8589
  87   1.0000      -0.675067       -18.3695
  88   1.0000      -0.667005       -18.1501
  89   1.0000      -0.664074       -18.0704
  90   1.0000      -0.639618       -17.4049
  91   1.0000      -0.638333       -17.3699
  92   1.0000      -0.617338       -16.7986
  93   1.0000      -0.606977       -16.5167
  94   1.0000      -0.592362       -16.1190
  95   1.0000      -0.577841       -15.7238
  96   1.0000      -0.555261       -15.1094
  97   1.0000      -0.504134       -13.7182
  98   1.0000      -0.495554       -13.4847
  99   1.0000      -0.481116       -13.0918
 100   1.0000      -0.479054       -13.0357
 101   1.0000      -0.474329       -12.9071
 102   1.0000      -0.446859       -12.1596
 103   1.0000      -0.443300       -12.0628
 104   1.0000      -0.438189       -11.9237
 105   1.0000      -0.419274       -11.4090
 106   1.0000      -0.415030       -11.2935
 107   1.0000      -0.376467       -10.2442
 108   1.0000      -0.363722        -9.8974
 109   1.0000      -0.342510        -9.3202
 110   1.0000      -0.339359        -9.2344
 111   1.0000      -0.320647        -8.7253
 112   1.0000      -0.310349        -8.4450
 113   1.0000      -0.298119        -8.1122
 114   1.0000      -0.283585        -7.7168
 115   1.0000      -0.281906        -7.6710
 116   1.0000      -0.272135        -7.4052
 117   1.0000      -0.264785        -7.2052
 118   1.0000      -0.260119        -7.0782
 119   1.0000      -0.259524        -7.0620
 120   1.0000      -0.246054        -6.6955
 121   1.0000      -0.241843        -6.5809
 122   1.0000      -0.236611        -6.4385
 123   1.0000      -0.232172        -6.3177
 124   1.0000      -0.229508        -6.2452
 125   1.0000      -0.225296        -6.1306
 126   1.0000      -0.221048        -6.0150
 127   1.0000      -0.212355        -5.7785
 128   1.0000      -0.204794        -5.5727
 129   1.0000      -0.199293        -5.4230
 130   1.0000      -0.198531        -5.4023
 131   1.0000      -0.193077        -5.2539
 132   1.0000      -0.187660        -5.1065
 133   1.0000      -0.182341        -4.9618
 134   1.0000      -0.161063        -4.3827
 135   1.0000      -0.150428        -4.0933
 136   1.0000      -0.145030        -3.9465
 137   1.0000      -0.144460        -3.9309
 138   1.0000      -0.142204        -3.8696
 139   1.0000      -0.135245        -3.6802
 140   1.0000      -0.130002        -3.5375
 141   1.0000      -0.125525        -3.4157
 142   1.0000      -0.120307        -3.2737
 143   1.0000      -0.114475        -3.1150
 144   1.0000      -0.096436        -2.6242
 145   1.0000      -0.092973        -2.5299
 146   1.0000      -0.089049        -2.4231
 147   1.0000      -0.087842        -2.3903
 148   1.0000      -0.074254        -2.0206
 149   1.0000      -0.071629        -1.9491
 150   1.0000      -0.064758        -1.7622
 151   1.0000      -0.049359        -1.3431
 152   1.0000      -0.043746        -1.1904
 153   1.0000      -0.038157        -1.0383
 154   1.0000      -0.038087        -1.0364
 155   1.0000      -0.031814        -0.8657
 156   1.0000      -0.020532        -0.5587
 157   1.0000      -0.010082        -0.2744
 158   1.0000       0.020282         0.5519
 159   1.0000       0.051254         1.3947
 160   0.0000       0.120335         3.2745
 161   0.0000       0.132386         3.6024
 162   0.0000       0.145959         3.9718
 163   0.0000       0.151319         4.1176
 164   0.0000       0.160304         4.3621

MULLIKEN ATOMIC CHARGES AND SPIN POPULATIONS
--------------------------------------------
   0 V :    0.443132    1.197314
   1 S :   -0.184722   -0.012134
   2 S :   -0.316133   -0.035902
   3 S :   -0.187231   -0.013646
   4 S :   -0.309181   -0.034424
   5 O :   -0.457125   -0.145516
   6 C :   -0.158634    0.022530
   7 C :   -0.166635    0.019691
   8 C :   -0.037178    0.001752
   9 C :   -0.050019    0.001556
  10 S :    0.239883   -0.000557
  11 S :    0.238093   -0.000650
  12 S :   -0.047999   -0.002251
  13 S :   -0.054540   -0.002732
  14 C :   -0.296284    0.005371
  15 C :   -0.153336    0.000878
  16 C :   -0.145293   -0.000635
  17 C :   -0.199713   -0.000485
  18 S :   -0.007921   -0.000019
  19 S :   -0.006575    0.000006
  20 S :    0.012753   -0.000195
  21 S :    0.012461   -0.000189
  22 C :   -0.299520    0.000087
  23 C :   -0.299132    0.000083
  24 C :   -0.162580   -0.000229
  25 H :    0.140513   -0.000008
  26 H :    0.111324    0.000005
  27 H :    0.078138    0.000038
  28 H :    0.087576    0.000034
  29 H :    0.110843    0.000004
  30 H :    0.140108   -0.000008
  31 C :   -0.302354    0.000201
  32 C :   -0.302423    0.000183
  33 C :   -0.140442   -0.000122
  34 H :    0.139355   -0.000011
  35 H :    0.108883   -0.000001
  36 H :    0.091567   -0.000014
  37 H :    0.081638    0.000002
  38 H :    0.109519    0.000006
  39 H :    0.139184   -0.000013
Sum of atomic charges         :   -2.0000000

LOEWDIN ATOMIC CHARGES AND SPIN POPULATIONS
-------------------------------------------
   0 V :   -0.160651    1.149253
   1 S :    0.268315   -0.006361
   2 S :   -0.032670   -0.024957
   3 S :    0.263915   -0.007647
   4 S :   -0.022047   -0.023449
   5 O :   -0.311788   -0.130115
   6 C :   -0.592363    0.020011
   7 C :   -0.595815    0.017318
   8 C :   -0.559980    0.004275
   9 C :   -0.562577    0.003758
  10 S :    0.669560    0.000366
  11 S :    0.667875    0.000114
  12 S :    0.280367   -0.002871
  13 S :    0.273420   -0.003317
  14 C :   -0.470211    0.003520
  15 C :   -0.469025   -0.000464
  16 C :   -0.611851    0.000663
  17 C :   -0.644486    0.000157
  18 S :    0.338659    0.000008
  19 S :    0.341192    0.000038
  20 S :    0.369897   -0.000198
  21 S :    0.369556   -0.000185
  22 C :   -0.286672   -0.000024
  23 C :   -0.286723   -0.000026
  24 C :   -0.174656    0.000017
  25 H :    0.061314   -0.000000
  26 H :    0.052052    0.000002
  27 H :    0.054512   -0.000002
  28 H :    0.058099    0.000010
  29 H :    0.051962    0.000001
  30 H :    0.061088   -0.000001
  31 C :   -0.284224    0.000055
  32 C :   -0.283971    0.000039
  33 C :   -0.179550   -0.000009
  34 H :    0.061336   -0.000001
  35 H :    0.052488    0.000010
  36 H :    0.060771   -0.000007
  37 H :    0.058921    0.000008
  38 H :    0.052684    0.000013
  39 H :    0.061277   -0.000001

  Mayer bond orders larger than 0.100000
B(  0-V ,  1-S ) :   0.7397 B(  0-V ,  2-S ) :   0.7990 B(  0-V ,  3-S ) :   0.7387
B(  0-V ,  4-S ) :   0.8041 B(  0-V ,  5-O ) :   2.1491 B(  1-S ,  8-C ) :   1.4003
B(  2-S ,  6-C ) :   0.8217 B(  3-S ,  9-C ) :   1.3948 B(  4-S ,  7-C ) :   0.8293
B(  6-C ,  7-C ) :   1.7514 B(  6-C , 10-S ) :   1.2834 B(  7-C , 11-S ) :   1.2797
B(  8-C ,  9-C ) :   1.6770 B(  8-C , 13-S ) :   0.6151 B(  9-C , 12-S ) :   0.6306
B( 10-S , 14-C ) :   1.2232 B( 11-S , 14-C ) :   1.2300 B( 12-S , 15-C ) :   1.2535
B( 13-S , 15-C ) :   1.2590 B( 14-C , 16-C ) :   1.3430 B( 15-C , 17-C ) :   1.4657
B( 16-C , 18-S ) :   1.0626 B( 16-C , 19-S ) :   1.0658 B( 17-C , 20-S ) :   1.0962
B( 17-C , 21-S ) :   1.0976 B( 18-S , 32-C ) :   0.9980 B( 19-S , 31-C ) :   0.9969
B( 20-S , 23-C ) :   0.9904 B( 21-S , 22-C ) :   0.9888 B( 22-C , 24-C ) :   0.9127
B( 22-C , 25-H ) :   0.9672 B( 22-C , 26-H ) :   0.9632 B( 23-C , 24-C ) :   0.9130
B( 23-C , 29-H ) :   0.9635 B( 23-C , 30-H ) :   0.9668 B( 24-C , 27-H ) :   0.9612
B( 24-C , 28-H ) :   0.9712 B( 31-C , 33-C ) :   0.9160 B( 31-C , 38-H ) :   0.9673
B( 31-C , 39-H ) :   0.9656 B( 32-C , 33-C ) :   0.9158 B( 32-C , 34-H ) :   0.9650
B( 32-C , 35-H ) :   0.9676 B( 33-C , 36-H ) :   0.9705 B( 33-C , 37-H ) :   0.9644

FINAL SINGLE POINT ENERGY     -6337.394957501831

DIPOLE MOMENT
-------------
                                X             Y             Z
Electronic contribution:      2.22302     -12.36524      -4.87786
Nuclear contribution   :     -2.62898      13.03570       7.28926
                        -----------------------------------------
Total Dipole Moment    :     -0.40596       0.67046       2.41140
                        -----------------------------------------
Magnitude (a.u.)       :      2.53558
Magnitude (Debye)      :      6.44492

Rotational constants in cm-1:     0.010758     0.000804     0.000783
Rotational constants in MHz :   322.505374    24.110253    23.480366

                             ****ORCA TERMINATED NORMALLY****
TOTAL RUN TIME: 0 days 1 hours 9 minutes 1 seconds 621 msec
