                         Program Version 5.0.4 -  RELEASE  -
|  1> ! nofrozencore ReducedPop printbasis
|  2> ! B3LYP TZVP
|  3>
|  4> %basis
|  5> newgto V "CP(PPP)" end
|  6> end
|  7>
|  8> %pal
|  9> nprocs 6
| 10> end
| 11>
| 12> % sym SymThresh 1e-2 end
| 13> * xyz -2 2
| 14> V 0.32107242914500395 0.017262994779425084 -1.0655212755192511
| 15> S 0.3273276208174269 2.4331876834317256 -0.5281627007496417
| 16> S 2.3586953609779653 -0.12149493173932122 0.33391407235347736
| 17> S -2.1457854811507207 0.23997072001297576 -1.1516353924264497
| 18> S -0.17764738638133112 -2.2498196512597746 -0.22745934713312227
| 19> O 0.8302465747686553 -0.13495547123194307 -2.5636764119382307
| 20> C 2.4441817268394854 -1.8611855430304343 0.5479803347077877
| 21> C 1.4242549748950537 -2.7125083777692858 0.32491737250588437
| 22> C -1.31602899912829 2.8366961570834035 -0.7956346506095884
| 23> C -2.31141041224325 1.9469605674233335 -1.0447326527021632
| 24> S 3.961521006195132 -2.5919391508120575 1.179845512777151
| 25> S 1.7324642955026015 -4.447351090192118 0.7096889160080302
| 26> S -4.013714367639614 2.7560014437415044 -1.2277650549270713
| 27> S -1.9127239605318171 4.617237070058623 -0.7114501551605263
| 28> C 3.374936305602887 -4.236232176333663 1.2603317206957458
| 29> C -3.2913222317750526 4.046256513499731 -0.9281243047373986
| 30> C 4.140327991614148 -5.274576116114678 1.7107342865220043
| 31> C -4.182211777977543 5.06001586961061 -0.9514267782923154
| 32> S 5.8578788108154285 -5.07570647117859 2.2260365011630894
| 33> S 3.52580885080207 -6.969245191017041 1.794093554549936
| 34> S -3.9868852489547653 7.14786551166016 -0.5721785974825926
| 35> S -6.312792927866335 5.077734724479793 -1.1251482899271166
| 36> C -6.773039577769905 5.645029049844826 0.5521503089580583
| 37> C -4.929291087031863 7.292403225815851 0.9886914896168588
| 38> C -6.395956258600934 7.047692320679971 0.8863475553957971
| 39> H -6.4429795761343875 4.9246587378326385 1.3064684115426541
| 40> H -7.86814281483174 5.59521937452261 0.5067628193272343
| 41> H -6.867339565444105 7.322835434242846 1.842124803862469
| 42> H -6.806177750028395 7.7104909821820415 0.11767071892282771
| 43> H -4.785846354126314 8.353408524686692 1.2292656506372215
| 44> H -4.454282554521503 6.708502615054221 1.7828895346639055
| 45> C 4.685022356314202 -7.750700686309815 0.5834136398908224
| 46> C 6.655877860935473 -6.144177490562453 0.9436958911088368
| 47> C 6.159483264508329 -7.588832338640897 0.9474921805318355
| 48> H 6.502247209407878 -5.680181477987902 -0.03310133634224608
| 49> H 7.724477362273631 -6.113123884568228 1.1715114637670636
| 50> H 6.3395777036473895 -8.029951792177492 1.9329111728740582
| 51> H 6.756079940678225 -8.157972434443979 0.22069407765161314
| 52> H 4.414013413783459 -8.809562508034915 0.5719018463567517
| 53> H 4.477924790800098 -7.335284907685639 -0.40532496838853477
| 54> *
| 55>
| 56> % eprnmr
| 57> gtensor true
| 58> Nuclei = all H {aiso,adip,aorb,fgrad,rho}
| 59> Nuclei = all V {aiso,adip,aorb,fgrad,rho}
| 60> end
| 61>
| 62>                          ****END OF INPUT****

CARTESIAN COORDINATES (ANGSTROEM)
---------------------------------
  V      0.321642    0.015649   -1.062090
  S      0.327897    2.431574   -0.524732
  S      2.359265   -0.123109    0.337345
  S     -2.145216    0.238357   -1.148205
  S     -0.177078   -2.251433   -0.224029
  O      0.830816   -0.136569   -2.560246
  C      2.444751   -1.862799    0.551411
  C      1.424825   -2.714122    0.328348
  C     -1.315459    2.835082   -0.792204
  C     -2.310841    1.945347   -1.041302
  S      3.962091   -2.593553    1.183276
  S      1.733034   -4.448965    0.713120
  S     -4.013145    2.754388   -1.224334
  S     -1.912154    4.615623   -0.708019
  C      3.375506   -4.237846    1.263763
  C     -3.290752    4.044643   -0.924694
  C      4.140898   -5.276190    1.714165
  C     -4.181642    5.058402   -0.947996
  S      5.858449   -5.077320    2.229467
  S      3.526379   -6.970859    1.797524
  S     -3.986316    7.146252   -0.568748
  S     -6.312223    5.076121   -1.121717
  C     -6.772470    5.643415    0.555581
  C     -4.928721    7.290789    0.992122
  C     -6.395387    7.046079    0.889778
  H     -6.442410    4.923045    1.309899
  H     -7.867573    5.593606    0.510194
  H     -6.866770    7.321222    1.845556
  H     -6.805608    7.708877    0.121102
  H     -4.785277    8.351795    1.232696
  H     -4.453713    6.706889    1.786320
  C      4.685592   -7.752314    0.586844
  C      6.656448   -6.145791    0.947127
  C      6.160053   -7.590446    0.950923
  H      6.502817   -5.681795   -0.029671
  H      7.725047   -6.114738    1.174942
  H      6.340147   -8.031566    1.936342
  H      6.756650   -8.159586    0.224125
  H      4.414583   -8.811176    0.575333
  H      4.478495   -7.336899   -0.401894

 Total Charge           Charge          ....   -2
 Multiplicity           Mult            ....    2
 Number of Electrons    NEL             ....  321
 Basis Dimension        Dim             ....  681

ORBITAL ENERGIES
----------------
                 SPIN UP ORBITALS
  NO   OCC          E(Eh)            E(eV)
   0   1.0000    -196.677326     -5351.8621
   1   1.0000     -88.734266     -2414.5821
   2   1.0000     -88.734221     -2414.5809
   3   1.0000     -88.731528     -2414.5076
   4   1.0000     -88.731214     -2414.4991
   5   1.0000     -88.728433     -2414.4234
   6   1.0000     -88.727837     -2414.4072
   7   1.0000     -88.725179     -2414.3349
   8   1.0000     -88.724578     -2414.3185
   9   1.0000     -88.641982     -2412.0710
  10   1.0000     -88.641957     -2412.0703
  11   1.0000     -88.641852     -2412.0674
  12   1.0000     -88.641391     -2412.0549
  13   1.0000     -22.052655      -600.0832
  14   1.0000     -18.892648      -514.0951
  15   1.0000     -18.559049      -505.0174
  16   1.0000     -18.553967      -504.8791
  17   1.0000     -18.553837      -504.8756
  18   1.0000     -10.075193      -274.1599
  19   1.0000     -10.064023      -273.8560
  20   1.0000     -10.063965      -273.8544
  21   1.0000     -10.055553      -273.6255
  22   1.0000     -10.055325      -273.6193
  23   1.0000     -10.054491      -273.5966
  24   1.0000     -10.053605      -273.5725
  25   1.0000     -10.051415      -273.5129
  26   1.0000     -10.050109      -273.4774
  27   1.0000     -10.038902      -273.1724
  28   1.0000     -10.020912      -272.6829
  29   1.0000     -10.020057      -272.6596
  30   1.0000     -10.020047      -272.6593
  31   1.0000     -10.019234      -272.6372
  32   1.0000      -7.787334      -211.9041
  33   1.0000      -7.787306      -211.9034
  34   1.0000      -7.786684      -211.8864
  35   1.0000      -7.785919      -211.8656
  36   1.0000      -7.785216      -211.8465
  37   1.0000      -7.784897      -211.8378
  38   1.0000      -7.778833      -211.6728
  39   1.0000      -7.778266      -211.6574
  40   1.0000      -7.697167      -209.4506
  41   1.0000      -7.696993      -209.4458
  42   1.0000      -7.696145      -209.4228
  43   1.0000      -7.695731      -209.4115
  44   1.0000      -5.752351      -156.5294
  45   1.0000      -5.752320      -156.5286
  46   1.0000      -5.750984      -156.4922
  47   1.0000      -5.750170      -156.4701
  48   1.0000      -5.750110      -156.4685
  49   1.0000      -5.749781      -156.4595
  50   1.0000      -5.748968      -156.4374
  51   1.0000      -5.748935      -156.4365
  52   1.0000      -5.746868      -156.3802
  53   1.0000      -5.746157      -156.3609
  54   1.0000      -5.745718      -156.3489
  55   1.0000      -5.745407      -156.3405
  56   1.0000      -5.744066      -156.3040
  57   1.0000      -5.743481      -156.2881
  58   1.0000      -5.742117      -156.2509
  59   1.0000      -5.742094      -156.2503
  60   1.0000      -5.741556      -156.2357
  61   1.0000      -5.741019      -156.2211
  62   1.0000      -5.740943      -156.2190
  63   1.0000      -5.740817      -156.2156
  64   1.0000      -5.740703      -156.2125
  65   1.0000      -5.740382      -156.2037
  66   1.0000      -5.733412      -156.0141
  67   1.0000      -5.732845      -155.9986
  68   1.0000      -5.662088      -154.0733
  69   1.0000      -5.661940      -154.0692
  70   1.0000      -5.661428      -154.0553
  71   1.0000      -5.661025      -154.0443
  72   1.0000      -5.655893      -153.9047
  73   1.0000      -5.655724      -153.9001
  74   1.0000      -5.654805      -153.8751
  75   1.0000      -5.654679      -153.8716
  76   1.0000      -5.654484      -153.8663
  77   1.0000      -5.654402      -153.8641
  78   1.0000      -5.653487      -153.8392
  79   1.0000      -5.653036      -153.8269
  80   1.0000      -2.446438       -66.5710
  81   1.0000      -1.487603       -40.4797
  82   1.0000      -1.476116       -40.1672
  83   1.0000      -1.475356       -40.1465
  84   1.0000      -0.772623       -21.0241
  85   1.0000      -0.711218       -19.3532
  86   1.0000      -0.688340       -18.7307
  87   1.0000      -0.687298       -18.7023
  88   1.0000      -0.652159       -17.7462
  89   1.0000      -0.630158       -17.1475
  90   1.0000      -0.626870       -17.0580
  91   1.0000      -0.618944       -16.8423
  92   1.0000      -0.617330       -16.7984
  93   1.0000      -0.606945       -16.5158
  94   1.0000      -0.577649       -15.7186
  95   1.0000      -0.575539       -15.6612
  96   1.0000      -0.555528       -15.1167
  97   1.0000      -0.507800       -13.8180
  98   1.0000      -0.500606       -13.6222
  99   1.0000      -0.497221       -13.5301
 100   1.0000      -0.495559       -13.4849
 101   1.0000      -0.480656       -13.0793
 102   1.0000      -0.463479       -12.6119
 103   1.0000      -0.446760       -12.1570
 104   1.0000      -0.430267       -11.7082
 105   1.0000      -0.415676       -11.3111
 106   1.0000      -0.406867       -11.0714
 107   1.0000      -0.356139        -9.6910
 108   1.0000      -0.346619        -9.4320
 109   1.0000      -0.327582        -8.9140
 110   1.0000      -0.325339        -8.8529
 111   1.0000      -0.323141        -8.7931
 112   1.0000      -0.318413        -8.6645
 113   1.0000      -0.305605        -8.3159
 114   1.0000      -0.304014        -8.2726
 115   1.0000      -0.293605        -7.9894
 116   1.0000      -0.292156        -7.9500
 117   1.0000      -0.261649        -7.1198
 118   1.0000      -0.256613        -6.9828
 119   1.0000      -0.256355        -6.9758
 120   1.0000      -0.240202        -6.5362
 121   1.0000      -0.238232        -6.4826
 122   1.0000      -0.235192        -6.3999
 123   1.0000      -0.230566        -6.2740
 124   1.0000      -0.220204        -5.9920
 125   1.0000      -0.219802        -5.9811
 126   1.0000      -0.216097        -5.8803
 127   1.0000      -0.215437        -5.8623
 128   1.0000      -0.208807        -5.6819
 129   1.0000      -0.204403        -5.5621
 130   1.0000      -0.189290        -5.1508
 131   1.0000      -0.186095        -5.0639
 132   1.0000      -0.184206        -5.0125
 133   1.0000      -0.171703        -4.6723
 134   1.0000      -0.158816        -4.3216
 135   1.0000      -0.153545        -4.1782
 136   1.0000      -0.147289        -4.0079
 137   1.0000      -0.142043        -3.8652
 138   1.0000      -0.137646        -3.7456
 139   1.0000      -0.129165        -3.5148
 140   1.0000      -0.126988        -3.4555
 141   1.0000      -0.115997        -3.1564
 142   1.0000      -0.110347        -3.0027
 143   1.0000      -0.108002        -2.9389
 144   1.0000      -0.104557        -2.8451
 145   1.0000      -0.100658        -2.7391
 146   1.0000      -0.097332        -2.6485
 147   1.0000      -0.092582        -2.5193
 148   1.0000      -0.073896        -2.0108
 149   1.0000      -0.067392        -1.8338
 150   1.0000      -0.055878        -1.5205
 151   1.0000      -0.051858        -1.4111
 152   1.0000      -0.044799        -1.2190
 153   1.0000      -0.040419        -1.0998
 154   1.0000      -0.035512        -0.9663
 155   1.0000      -0.032517        -0.8848
 156   1.0000      -0.022512        -0.6126
 157   1.0000      -0.019752        -0.5375
 158   1.0000      -0.018328        -0.4987
 159   1.0000       0.021102         0.5742
 160   1.0000       0.041850         1.1388
 161   0.0000       0.110875         3.0171
 162   0.0000       0.136359         3.7105
 163   0.0000       0.146125         3.9763
 164   0.0000       0.151392         4.1196
 165   0.0000       0.160453         4.3661

                 SPIN DOWN ORBITALS
  NO   OCC          E(Eh)            E(eV)
   0   1.0000    -196.677472     -5351.8661
   1   1.0000     -88.734267     -2414.5821
   2   1.0000     -88.734222     -2414.5809
   3   1.0000     -88.731536     -2414.5078
   4   1.0000     -88.731222     -2414.4993
   5   1.0000     -88.728435     -2414.4235
   6   1.0000     -88.727838     -2414.4072
   7   1.0000     -88.725190     -2414.3352
   8   1.0000     -88.724589     -2414.3188
   9   1.0000     -88.642116     -2412.0746
  10   1.0000     -88.642096     -2412.0740
  11   1.0000     -88.641994     -2412.0713
  12   1.0000     -88.641533     -2412.0587
  13   1.0000     -22.037672      -599.6755
  14   1.0000     -18.896462      -514.1989
  15   1.0000     -18.553749      -504.8732
  16   1.0000     -18.537838      -504.4402
  17   1.0000     -18.537717      -504.4369
  18   1.0000     -10.075189      -274.1598
  19   1.0000     -10.064022      -273.8560
  20   1.0000     -10.063964      -273.8544
  21   1.0000     -10.055553      -273.6255
  22   1.0000     -10.055325      -273.6193
  23   1.0000     -10.054488      -273.5965
  24   1.0000     -10.053597      -273.5723
  25   1.0000     -10.051415      -273.5129
  26   1.0000     -10.050098      -273.4771
  27   1.0000     -10.038902      -273.1724
  28   1.0000     -10.020714      -272.6775
  29   1.0000     -10.019843      -272.6538
  30   1.0000     -10.019826      -272.6533
  31   1.0000     -10.019012      -272.6312
  32   1.0000      -7.787335      -211.9042
  33   1.0000      -7.787307      -211.9034
  34   1.0000      -7.786696      -211.8868
  35   1.0000      -7.785931      -211.8659
  36   1.0000      -7.785226      -211.8468
  37   1.0000      -7.784907      -211.8381
  38   1.0000      -7.778835      -211.6729
  39   1.0000      -7.778267      -211.6574
  40   1.0000      -7.697293      -209.4540
  41   1.0000      -7.697123      -209.4494
  42   1.0000      -7.696278      -209.4264
  43   1.0000      -7.695864      -209.4151
  44   1.0000      -5.752352      -156.5295
  45   1.0000      -5.752321      -156.5286
  46   1.0000      -5.751002      -156.4927
  47   1.0000      -5.750186      -156.4705
  48   1.0000      -5.750122      -156.4688
  49   1.0000      -5.749792      -156.4598
  50   1.0000      -5.748969      -156.4374
  51   1.0000      -5.748937      -156.4365
  52   1.0000      -5.746887      -156.3807
  53   1.0000      -5.746175      -156.3614
  54   1.0000      -5.745732      -156.3493
  55   1.0000      -5.745420      -156.3408
  56   1.0000      -5.744068      -156.3040
  57   1.0000      -5.743484      -156.2882
  58   1.0000      -5.742118      -156.2510
  59   1.0000      -5.742095      -156.2504
  60   1.0000      -5.741565      -156.2359
  61   1.0000      -5.741026      -156.2213
  62   1.0000      -5.740945      -156.2190
  63   1.0000      -5.740826      -156.2158
  64   1.0000      -5.740712      -156.2127
  65   1.0000      -5.740384      -156.2038
  66   1.0000      -5.733414      -156.0141
  67   1.0000      -5.732846      -155.9987
  68   1.0000      -5.662222      -154.0769
  69   1.0000      -5.662075      -154.0729
  70   1.0000      -5.661567      -154.0591
  71   1.0000      -5.661167      -154.0482
  72   1.0000      -5.656232      -153.9139
  73   1.0000      -5.656080      -153.9098
  74   1.0000      -5.655198      -153.8857
  75   1.0000      -5.654788      -153.8746
  76   1.0000      -5.654788      -153.8746
  77   1.0000      -5.654595      -153.8694
  78   1.0000      -5.653576      -153.8416
  79   1.0000      -5.653130      -153.8295
  80   1.0000      -2.401402       -65.3455
  81   1.0000      -1.468178       -39.9511
  82   1.0000      -1.413608       -38.4662
  83   1.0000      -1.413438       -38.4616
  84   1.0000      -0.772620       -21.0241
  85   1.0000      -0.711186       -19.3524
  86   1.0000      -0.688299       -18.7296
  87   1.0000      -0.687299       -18.7024
  88   1.0000      -0.660351       -17.9691
  89   1.0000      -0.630078       -17.1453
  90   1.0000      -0.626893       -17.0586
  91   1.0000      -0.618810       -16.8387
  92   1.0000      -0.617330       -16.7984
  93   1.0000      -0.606949       -16.5159
  94   1.0000      -0.577625       -15.7180
  95   1.0000      -0.575465       -15.6592
  96   1.0000      -0.555526       -15.1166
  97   1.0000      -0.507980       -13.8228
  98   1.0000      -0.500634       -13.6230
  99   1.0000      -0.497252       -13.5309
 100   1.0000      -0.495639       -13.4870
 101   1.0000      -0.480855       -13.0847
 102   1.0000      -0.463489       -12.6122
 103   1.0000      -0.446793       -12.1579
 104   1.0000      -0.430282       -11.7086
 105   1.0000      -0.415702       -11.3118
 106   1.0000      -0.406942       -11.0734
 107   1.0000      -0.356130        -9.6908
 108   1.0000      -0.346622        -9.4321
 109   1.0000      -0.327568        -8.9136
 110   1.0000      -0.325320        -8.8524
 111   1.0000      -0.323135        -8.7929
 112   1.0000      -0.318440        -8.6652
 113   1.0000      -0.305550        -8.3144
 114   1.0000      -0.303998        -8.2722
 115   1.0000      -0.293600        -7.9893
 116   1.0000      -0.292157        -7.9500
 117   1.0000      -0.261647        -7.1198
 118   1.0000      -0.256511        -6.9800
 119   1.0000      -0.256298        -6.9742
 120   1.0000      -0.240053        -6.5322
 121   1.0000      -0.238220        -6.4823
 122   1.0000      -0.235174        -6.3994
 123   1.0000      -0.230516        -6.2727
 124   1.0000      -0.220196        -5.9918
 125   1.0000      -0.219589        -5.9753
 126   1.0000      -0.215908        -5.8751
 127   1.0000      -0.215224        -5.8565
 128   1.0000      -0.208730        -5.6798
 129   1.0000      -0.203625        -5.5409
 130   1.0000      -0.188659        -5.1337
 131   1.0000      -0.185114        -5.0372
 132   1.0000      -0.184019        -5.0074
 133   1.0000      -0.171478        -4.6661
 134   1.0000      -0.158257        -4.3064
 135   1.0000      -0.153324        -4.1722
 136   1.0000      -0.147199        -4.0055
 137   1.0000      -0.141361        -3.8466
 138   1.0000      -0.137211        -3.7337
 139   1.0000      -0.128844        -3.5060
 140   1.0000      -0.126531        -3.4431
 141   1.0000      -0.117819        -3.2060
 142   1.0000      -0.112088        -3.0501
 143   1.0000      -0.108151        -2.9429
 144   1.0000      -0.104528        -2.8443
 145   1.0000      -0.100864        -2.7446
 146   1.0000      -0.097591        -2.6556
 147   1.0000      -0.092536        -2.5180
 148   1.0000      -0.070266        -1.9120
 149   1.0000      -0.067390        -1.8338
 150   1.0000      -0.053476        -1.4552
 151   1.0000      -0.051672        -1.4061
 152   1.0000      -0.043827        -1.1926
 153   1.0000      -0.039880        -1.0852
 154   1.0000      -0.035623        -0.9693
 155   1.0000      -0.033451        -0.9103
 156   1.0000      -0.020000        -0.5442
 157   1.0000      -0.019214        -0.5228
 158   1.0000       0.021320         0.5802
 159   1.0000       0.040840         1.1113
 160   0.0000       0.110634         3.0105
 161   0.0000       0.136374         3.7109
 162   0.0000       0.146127         3.9763
 163   0.0000       0.152890         4.1604
 164   0.0000       0.153288         4.1712

MULLIKEN ATOMIC CHARGES AND SPIN POPULATIONS
--------------------------------------------
   0 V :    0.457809    1.213246
   1 S :   -0.280120   -0.021852
   2 S :   -0.289063   -0.025286
   3 S :   -0.278684   -0.023345
   4 S :   -0.285368   -0.026020
   5 O :   -0.466890   -0.147472
   6 C :   -0.077926    0.009498
   7 C :   -0.085212    0.007811
   8 C :   -0.112027    0.006936
   9 C :   -0.113008    0.006748
  10 S :    0.104972   -0.000588
  11 S :    0.104900   -0.000636
  12 S :    0.117678   -0.000730
  13 S :    0.122140   -0.000718
  14 C :   -0.202833    0.001360
  15 C :    0.152997    0.001013
  16 C :   -0.200306    0.000028
  17 C :   -0.451232    0.000594
  18 S :    0.004411   -0.000120
  19 S :    0.004357   -0.000119
  20 S :   -0.064439   -0.000254
  21 S :   -0.066924   -0.000287
  22 C :   -0.274474    0.000030
  23 C :   -0.273713    0.000029
  24 C :   -0.132500   -0.000012
  25 H :    0.139992   -0.000006
  26 H :    0.104978   -0.000008
  27 H :    0.071860    0.000003
  28 H :    0.093144   -0.000009
  29 H :    0.104341   -0.000008
  30 H :    0.139683   -0.000006
  31 C :   -0.298309    0.000188
  32 C :   -0.299381    0.000183
  33 C :   -0.156320   -0.000229
  34 H :    0.142197   -0.000017
  35 H :    0.113146    0.000018
  36 H :    0.093010    0.000021
  37 H :    0.082066    0.000015
  38 H :    0.113006    0.000019
  39 H :    0.142042   -0.000018
Sum of atomic charges         :   -2.0000000

LOEWDIN ATOMIC CHARGES AND SPIN POPULATIONS
-------------------------------------------
   0 V :   -0.152683    1.166706
   1 S :    0.107742   -0.013723
   2 S :    0.081348   -0.016204
   3 S :    0.105861   -0.014987
   4 S :    0.083655   -0.016677
   5 O :   -0.319671   -0.132286
   6 C :   -0.549014    0.008891
   7 C :   -0.547872    0.007746
   8 C :   -0.522459    0.007431
   9 C :   -0.515296    0.007055
  10 S :    0.479634   -0.000926
  11 S :    0.478352   -0.000973
  12 S :    0.566578   -0.001264
  13 S :    0.572514   -0.001307
  14 C :   -0.476215    0.000120
  15 C :   -0.624481    0.000062
  16 C :   -0.610170    0.000467
  17 C :   -0.486576    0.000429
  18 S :    0.350084   -0.000095
  19 S :    0.351225   -0.000092
  20 S :    0.238433   -0.000215
  21 S :    0.234953   -0.000244
  22 C :   -0.304831    0.000002
  23 C :   -0.304851    0.000002
  24 C :   -0.187606   -0.000000
  25 H :    0.061667   -0.000004
  26 H :    0.054008   -0.000003
  27 H :    0.057083   -0.000001
  28 H :    0.060893   -0.000002
  29 H :    0.054008   -0.000002
  30 H :    0.061520   -0.000004
  31 C :   -0.285343    0.000039
  32 C :   -0.285118    0.000033
  33 C :   -0.177101    0.000007
  34 H :    0.062078   -0.000001
  35 H :    0.053691    0.000008
  36 H :    0.060399    0.000004
  37 H :    0.057845    0.000002
  38 H :    0.053749    0.000008
  39 H :    0.061971   -0.000001

  Mayer bond orders larger than 0.100000
B(  0-V ,  1-S ) :   0.7707 B(  0-V ,  2-S ) :   0.7749 B(  0-V ,  3-S ) :   0.7638
B(  0-V ,  4-S ) :   0.7818 B(  0-V ,  5-O ) :   2.1500 B(  1-S ,  8-C ) :   1.1527
B(  2-S ,  6-C ) :   1.1060 B(  3-S ,  9-C ) :   1.1542 B(  4-S ,  7-C ) :   1.1066
B(  6-C ,  7-C ) :   1.6844 B(  6-C , 10-S ) :   0.9332 B(  7-C , 11-S ) :   0.9324
B(  8-C ,  9-C ) :   1.6652 B(  8-C , 13-S ) :   0.8582 B(  9-C , 12-S ) :   0.8523
B( 10-S , 14-C ) :   1.2584 B( 11-S , 14-C ) :   1.2612 B( 12-S , 15-C ) :   1.3226
B( 13-S , 15-C ) :   1.3213 B( 14-C , 16-C ) :   1.4572 B( 15-C , 17-C ) :   1.2172
B( 16-C , 18-S ) :   1.0768 B( 16-C , 19-S ) :   1.0781 B( 17-C , 20-S ) :   0.9415
B( 17-C , 21-S ) :   0.9404 B( 18-S , 32-C ) :   0.9942 B( 19-S , 31-C ) :   0.9947
B( 20-S , 23-C ) :   1.0301 B( 21-S , 22-C ) :   1.0294 B( 22-C , 24-C ) :   0.9000
B( 22-C , 25-H ) :   0.9657 B( 22-C , 26-H ) :   0.9704 B( 23-C , 24-C ) :   0.9003
B( 23-C , 29-H ) :   0.9704 B( 23-C , 30-H ) :   0.9653 B( 24-C , 27-H ) :   0.9537
B( 24-C , 28-H ) :   0.9801 B( 31-C , 33-C ) :   0.9121 B( 31-C , 38-H ) :   0.9661
B( 31-C , 39-H ) :   0.9658 B( 32-C , 33-C ) :   0.9118 B( 32-C , 34-H ) :   0.9656
B( 32-C , 35-H ) :   0.9661 B( 33-C , 36-H ) :   0.9726 B( 33-C , 37-H ) :   0.9620

FINAL SINGLE POINT ENERGY     -6337.501437411088

DIPOLE MOMENT
-------------
                                X             Y             Z
Electronic contribution:      2.56007       2.61072     -13.03406
Nuclear contribution   :     -2.39385      -3.40952      14.50040
                        -----------------------------------------
Total Dipole Moment    :      0.16622      -0.79880       1.46633
                        -----------------------------------------
Magnitude (a.u.)       :      1.67805
Magnitude (Debye)      :      4.26526

Rotational constants in cm-1:     0.010748     0.000804     0.000783
Rotational constants in MHz :   322.216595    24.116678    23.484994

                             ****ORCA TERMINATED NORMALLY****
TOTAL RUN TIME: 0 days 1 hours 24 minutes 50 seconds 631 msec
