                         Program Version 5.0.4 -  RELEASE  -
|  1> ! nofrozencore ReducedPop printbasis
|  2> ! B3LYP TZVP
|  3>
|  4> %basis
|  5> newgto V "CP(PPP)" end
|  6> end
|  7>
|  8> %pal
|  9> nprocs 6
| 10> end
| 11>
| 12> % sym SymThresh 1e-2 end
| 13> * xyz -2 2
| 14> V 0.1543531468405125 0.15774934248790834 1.090990424510712
| 15> S -2.168956295028749 -0.690820746730028 1.0571652404934282
| 16> S 0.8148661657801968 -2.1692061057509946 0.5656006418916837
| 17> S -0.8005135636737106 2.2930177388479818 0.27865150451756865
| 18> S 2.0966523782474273 0.8180275171892603 -0.278873640985627
| 19> O 0.5537189081714505 0.37418884841271666 2.6134521084829507
| 20> C 2.4817062173709914 -1.8900439169465333 0.07895284395492229
| 21> C 2.9940393481369867 -0.6927847256655957 -0.262761347501664
| 22> C -3.067646143341662 0.7884884698301172 0.747944270503483
| 23> C -2.5211146792542296 1.9775869460036708 0.43453802416786946
| 24> S 3.590492607178471 -3.297479758664282 -0.05401990701664249
| 25> S 4.701336100935025 -0.6789067001354216 -0.8156345612339436
| 26> S -3.664420957192681 3.324121910868102 0.11008918558454468
| 27> S -4.862265315463937 0.7243117030319122 0.8023432618589039
| 28> C 4.995990056278754 -2.4148059588117183 -0.6632931311488319
| 29> C -5.155620371626715 2.398150373182081 0.3152152742543657
| 30> C 6.18917526290392 -3.0072513882261145 -0.9735599332061128
| 31> C -6.403866215291884 2.924185872217494 0.12687516152424888
| 32> S 6.463215045426635 -4.754129846375051 -0.7515517570591582
| 33> S 7.571713788503407 -2.066787684009691 -1.589898711194906
| 34> S -7.879650860010126 1.9492988478725783 0.342942121207503
| 35> S -6.645085055530043 4.6143017486005995 -0.3856281849213378
| 36> C -7.465748922254555 4.2748603635843185 -1.9971772769418081
| 37> C -8.517110266735587 1.9932825658218019 -1.411860836622403
| 38> C -8.734984367703733 3.4500782783270716 -1.908557872542271
| 39> H -6.551284560124426 3.6839631411143086 -2.8108886375010456
| 40> H -7.744839136831369 5.522541857318114 -2.5337198706598385
| 41> H -9.184688229670034 3.380150359590776 -2.9119881795112237
| 42> H -9.407187368438414 3.9300775709371836 -1.3021335201857023
| 43> H -9.133906419698647 1.6515926205548295 -1.3956643047275519
| 44> H -8.047465723285656 1.6559659101758588 -1.8315281531453163
| 45> C 8.756896858190338 -2.3746586599315633 -0.20161690742400729
| 46> C 7.809898821448863 -4.656563565873368 0.5160352966438924
| 47> C 9.031675813152349 -3.8580479786076043 0.054843989557999386
| 48> H 7.388967154866637 -4.230217149728372 1.4240218002102323
| 49> H 8.088877636072581 -5.688733679123287 0.7216555686352297
| 50> H 9.439780374008071 -4.312267323389228 -0.8494758607797608
| 51> H 9.80255980786895 -3.9326461990447146 0.834705394816259
| 52> H 9.678090543536731 -1.8620522067505476 -0.48773689938560877
| 53> H 8.361551649039667 -1.891991736714556 0.693661000576542
| 54> *
| 55>
| 56> % eprnmr
| 57> gtensor true
| 58> Nuclei = all H {aiso,adip,aorb,fgrad,rho}
| 59> Nuclei = all V {aiso,adip,aorb,fgrad,rho}
| 60> end
| 61>
| 62>                          ****END OF INPUT****

CARTESIAN COORDINATES (ANGSTROEM)
---------------------------------
  V      0.155830    0.156234    1.087794
  S     -2.167480   -0.692336    1.053968
  S      0.816343   -2.170722    0.562404
  S     -0.799037    2.291502    0.275455
  S      2.098129    0.816512   -0.282071
  O      0.555196    0.372673    2.610255
  C      2.483183   -1.891559    0.075756
  C      2.995516   -0.694300   -0.265958
  C     -3.066169    0.786973    0.744747
  C     -2.519638    1.976071    0.431341
  S      3.591969   -3.298995   -0.057217
  S      4.702813   -0.680422   -0.818831
  S     -3.662944    3.322606    0.106892
  S     -4.860789    0.722796    0.799146
  C      4.997467   -2.416322   -0.666490
  C     -5.154144    2.396635    0.312018
  C      6.190652   -3.008767   -0.976757
  C     -6.402389    2.922670    0.123678
  S      6.464692   -4.755645   -0.754749
  S      7.573191   -2.068303   -1.593096
  S     -7.878174    1.947783    0.339745
  S     -6.643608    4.612786   -0.388825
  C     -7.464272    4.273345   -2.000374
  C     -8.515634    1.991767   -1.415058
  C     -8.733508    3.448563   -1.911755
  H     -6.549808    3.682448   -2.814086
  H     -7.743362    5.521026   -2.536917
  H     -9.183211    3.378635   -2.915185
  H     -9.405711    3.928562   -1.305330
  H     -9.132430    1.650077   -1.398861
  H     -8.045989    1.654450   -1.834725
  C      8.758374   -2.376174   -0.204814
  C      7.811376   -4.658079    0.512838
  C      9.033153   -3.859564    0.051647
  H      7.390444   -4.231733    1.420825
  H      8.090354   -5.690249    0.718459
  H      9.441257   -4.313783   -0.852673
  H      9.804037   -3.934162    0.831509
  H      9.679567   -1.863568   -0.490934
  H      8.363028   -1.893507    0.690464

 Total Charge           Charge          ....   -2
 Multiplicity           Mult            ....    2
 Number of Electrons    NEL             ....  321
 Basis Dimension        Dim             ....  681

ORBITAL ENERGIES
----------------
                 SPIN UP ORBITALS
  NO   OCC          E(Eh)            E(eV)
   0   1.0000    -196.675086     -5351.8012
   1   1.0000     -88.737613     -2414.6732
   2   1.0000     -88.733358     -2414.5574
   3   1.0000     -88.733169     -2414.5523
   4   1.0000     -88.733140     -2414.5515
   5   1.0000     -88.731328     -2414.5022
   6   1.0000     -88.731052     -2414.4947
   7   1.0000     -88.730231     -2414.4723
   8   1.0000     -88.730058     -2414.4676
   9   1.0000     -88.640245     -2412.0237
  10   1.0000     -88.639808     -2412.0118
  11   1.0000     -88.639743     -2412.0100
  12   1.0000     -88.639577     -2412.0055
  13   1.0000     -22.050482      -600.0241
  14   1.0000     -18.890375      -514.0332
  15   1.0000     -18.556930      -504.9597
  16   1.0000     -18.551757      -504.8190
  17   1.0000     -18.551658      -504.8163
  18   1.0000     -10.107952      -275.0514
  19   1.0000     -10.077192      -274.2143
  20   1.0000     -10.075791      -274.1762
  21   1.0000     -10.063240      -273.8347
  22   1.0000     -10.062647      -273.8185
  23   1.0000     -10.050941      -273.5000
  24   1.0000     -10.050161      -273.4788
  25   1.0000     -10.048282      -273.4277
  26   1.0000     -10.047140      -273.3966
  27   1.0000     -10.018687      -272.6223
  28   1.0000     -10.018234      -272.6100
  29   1.0000     -10.017886      -272.6005
  30   1.0000     -10.017294      -272.5844
  31   1.0000      -9.999554      -272.1017
  32   1.0000      -7.790736      -211.9967
  33   1.0000      -7.786796      -211.8895
  34   1.0000      -7.786628      -211.8849
  35   1.0000      -7.786592      -211.8839
  36   1.0000      -7.784551      -211.8284
  37   1.0000      -7.784337      -211.8226
  38   1.0000      -7.783492      -211.7996
  39   1.0000      -7.783357      -211.7959
  40   1.0000      -7.694532      -209.3789
  41   1.0000      -7.694111      -209.3674
  42   1.0000      -7.694108      -209.3673
  43   1.0000      -7.693835      -209.3599
  44   1.0000      -5.755774      -156.6226
  45   1.0000      -5.752335      -156.5290
  46   1.0000      -5.751775      -156.5137
  47   1.0000      -5.751619      -156.5095
  48   1.0000      -5.751581      -156.5085
  49   1.0000      -5.749487      -156.4515
  50   1.0000      -5.749293      -156.4462
  51   1.0000      -5.748435      -156.4229
  52   1.0000      -5.748361      -156.4209
  53   1.0000      -5.748297      -156.4191
  54   1.0000      -5.748201      -156.4165
  55   1.0000      -5.748171      -156.4157
  56   1.0000      -5.745493      -156.3428
  57   1.0000      -5.745058      -156.3310
  58   1.0000      -5.744837      -156.3250
  59   1.0000      -5.744002      -156.3022
  60   1.0000      -5.743868      -156.2986
  61   1.0000      -5.741626      -156.2376
  62   1.0000      -5.741418      -156.2319
  63   1.0000      -5.741384      -156.2310
  64   1.0000      -5.740398      -156.2042
  65   1.0000      -5.740157      -156.1976
  66   1.0000      -5.739321      -156.1749
  67   1.0000      -5.739177      -156.1709
  68   1.0000      -5.659850      -154.0123
  69   1.0000      -5.659411      -154.0004
  70   1.0000      -5.659402      -154.0002
  71   1.0000      -5.659161      -153.9936
  72   1.0000      -5.653199      -153.8314
  73   1.0000      -5.652776      -153.8199
  74   1.0000      -5.652768      -153.8196
  75   1.0000      -5.652505      -153.8125
  76   1.0000      -5.651851      -153.7947
  77   1.0000      -5.651436      -153.7834
  78   1.0000      -5.651413      -153.7828
  79   1.0000      -5.651124      -153.7749
  80   1.0000      -2.444125       -66.5080
  81   1.0000      -1.485433       -40.4207
  82   1.0000      -1.473763       -40.1031
  83   1.0000      -1.472947       -40.0809
  84   1.0000      -0.723606       -19.6903
  85   1.0000      -0.709554       -19.3080
  86   1.0000      -0.697632       -18.9835
  87   1.0000      -0.685731       -18.6597
  88   1.0000      -0.650094       -17.6900
  89   1.0000      -0.648493       -17.6464
  90   1.0000      -0.631421       -17.1818
  91   1.0000      -0.622857       -16.9488
  92   1.0000      -0.617477       -16.8024
  93   1.0000      -0.576394       -15.6845
  94   1.0000      -0.574581       -15.6351
  95   1.0000      -0.574425       -15.6309
  96   1.0000      -0.573071       -15.5940
  97   1.0000      -0.532354       -14.4861
  98   1.0000      -0.496520       -13.5110
  99   1.0000      -0.496136       -13.5005
 100   1.0000      -0.492138       -13.3918
 101   1.0000      -0.482410       -13.1270
 102   1.0000      -0.478046       -13.0083
 103   1.0000      -0.446950       -12.1621
 104   1.0000      -0.440163       -11.9774
 105   1.0000      -0.419156       -11.4058
 106   1.0000      -0.412560       -11.2263
 107   1.0000      -0.395132       -10.7521
 108   1.0000      -0.355656        -9.6779
 109   1.0000      -0.333761        -9.0821
 110   1.0000      -0.326774        -8.8920
 111   1.0000      -0.319997        -8.7075
 112   1.0000      -0.315572        -8.5871
 113   1.0000      -0.310297        -8.4436
 114   1.0000      -0.304035        -8.2732
 115   1.0000      -0.297724        -8.1015
 116   1.0000      -0.292952        -7.9716
 117   1.0000      -0.266766        -7.2591
 118   1.0000      -0.257633        -7.0105
 119   1.0000      -0.256934        -6.9915
 120   1.0000      -0.254884        -6.9358
 121   1.0000      -0.235803        -6.4165
 122   1.0000      -0.234559        -6.3827
 123   1.0000      -0.230824        -6.2810
 124   1.0000      -0.220506        -6.0003
 125   1.0000      -0.219625        -5.9763
 126   1.0000      -0.217770        -5.9258
 127   1.0000      -0.214202        -5.8287
 128   1.0000      -0.205901        -5.6029
 129   1.0000      -0.193483        -5.2649
 130   1.0000      -0.187984        -5.1153
 131   1.0000      -0.186144        -5.0652
 132   1.0000      -0.184283        -5.0146
 133   1.0000      -0.179192        -4.8760
 134   1.0000      -0.159799        -4.3483
 135   1.0000      -0.152065        -4.1379
 136   1.0000      -0.147223        -4.0061
 137   1.0000      -0.135897        -3.6979
 138   1.0000      -0.134677        -3.6648
 139   1.0000      -0.133352        -3.6287
 140   1.0000      -0.125383        -3.4118
 141   1.0000      -0.121373        -3.3027
 142   1.0000      -0.113660        -3.0928
 143   1.0000      -0.109959        -2.9921
 144   1.0000      -0.100068        -2.7230
 145   1.0000      -0.098377        -2.6770
 146   1.0000      -0.098024        -2.6674
 147   1.0000      -0.095009        -2.5853
 148   1.0000      -0.074708        -2.0329
 149   1.0000      -0.068977        -1.8770
 150   1.0000      -0.067475        -1.8361
 151   1.0000      -0.052494        -1.4284
 152   1.0000      -0.045784        -1.2459
 153   1.0000      -0.037987        -1.0337
 154   1.0000      -0.037305        -1.0151
 155   1.0000      -0.031644        -0.8611
 156   1.0000      -0.025189        -0.6854
 157   1.0000      -0.019303        -0.5253
 158   1.0000      -0.015589        -0.4242
 159   1.0000       0.020141         0.5481
 160   1.0000       0.041017         1.1161
 161   0.0000       0.129698         3.5293
 162   0.0000       0.136937         3.7262
 163   0.0000       0.151174         4.1137
 164   0.0000       0.162041         4.4094
 165   0.0000       0.167807         4.5663

                 SPIN DOWN ORBITALS
  NO   OCC          E(Eh)            E(eV)
   0   1.0000    -196.675233     -5351.8052
   1   1.0000     -88.737613     -2414.6732
   2   1.0000     -88.733358     -2414.5574
   3   1.0000     -88.733170     -2414.5523
   4   1.0000     -88.733141     -2414.5515
   5   1.0000     -88.731337     -2414.5024
   6   1.0000     -88.731060     -2414.4949
   7   1.0000     -88.730240     -2414.4726
   8   1.0000     -88.730067     -2414.4679
   9   1.0000     -88.640381     -2412.0274
  10   1.0000     -88.639948     -2412.0156
  11   1.0000     -88.639881     -2412.0138
  12   1.0000     -88.639718     -2412.0094
  13   1.0000     -22.035550      -599.6178
  14   1.0000     -18.894166      -514.1364
  15   1.0000     -18.551660      -504.8163
  16   1.0000     -18.535724      -504.3827
  17   1.0000     -18.535541      -504.3777
  18   1.0000     -10.107952      -275.0514
  19   1.0000     -10.077191      -274.2143
  20   1.0000     -10.075786      -274.1761
  21   1.0000     -10.063239      -273.8347
  22   1.0000     -10.062646      -273.8185
  23   1.0000     -10.050941      -273.5000
  24   1.0000     -10.050157      -273.4787
  25   1.0000     -10.048271      -273.4274
  26   1.0000     -10.047140      -273.3966
  27   1.0000     -10.018474      -272.6165
  28   1.0000     -10.017995      -272.6035
  29   1.0000     -10.017673      -272.5947
  30   1.0000     -10.017071      -272.5783
  31   1.0000      -9.999555      -272.1017
  32   1.0000      -7.790737      -211.9967
  33   1.0000      -7.786797      -211.8895
  34   1.0000      -7.786628      -211.8849
  35   1.0000      -7.786592      -211.8840
  36   1.0000      -7.784561      -211.8287
  37   1.0000      -7.784346      -211.8228
  38   1.0000      -7.783501      -211.7998
  39   1.0000      -7.783366      -211.7962
  40   1.0000      -7.694660      -209.3823
  41   1.0000      -7.694241      -209.3710
  42   1.0000      -7.694237      -209.3708
  43   1.0000      -7.693967      -209.3635
  44   1.0000      -5.755775      -156.6226
  45   1.0000      -5.752336      -156.5290
  46   1.0000      -5.751776      -156.5138
  47   1.0000      -5.751620      -156.5095
  48   1.0000      -5.751582      -156.5085
  49   1.0000      -5.749498      -156.4518
  50   1.0000      -5.749303      -156.4465
  51   1.0000      -5.748445      -156.4231
  52   1.0000      -5.748362      -156.4209
  53   1.0000      -5.748307      -156.4194
  54   1.0000      -5.748202      -156.4165
  55   1.0000      -5.748173      -156.4157
  56   1.0000      -5.745493      -156.3428
  57   1.0000      -5.745072      -156.3314
  58   1.0000      -5.744851      -156.3254
  59   1.0000      -5.744016      -156.3026
  60   1.0000      -5.743882      -156.2990
  61   1.0000      -5.741627      -156.2376
  62   1.0000      -5.741418      -156.2319
  63   1.0000      -5.741385      -156.2310
  64   1.0000      -5.740403      -156.2043
  65   1.0000      -5.740163      -156.1978
  66   1.0000      -5.739329      -156.1751
  67   1.0000      -5.739186      -156.1712
  68   1.0000      -5.659992      -154.0162
  69   1.0000      -5.659552      -154.0042
  70   1.0000      -5.659541      -154.0039
  71   1.0000      -5.659302      -153.9974
  72   1.0000      -5.653549      -153.8409
  73   1.0000      -5.653164      -153.8304
  74   1.0000      -5.653127      -153.8294
  75   1.0000      -5.652889      -153.8229
  76   1.0000      -5.651956      -153.7975
  77   1.0000      -5.651523      -153.7857
  78   1.0000      -5.651518      -153.7856
  79   1.0000      -5.651217      -153.7774
  80   1.0000      -2.399237       -65.2866
  81   1.0000      -1.466127       -39.8953
  82   1.0000      -1.411383       -38.4057
  83   1.0000      -1.411225       -38.4014
  84   1.0000      -0.723605       -19.6903
  85   1.0000      -0.709528       -19.3073
  86   1.0000      -0.697587       -18.9823
  87   1.0000      -0.685675       -18.6582
  88   1.0000      -0.658113       -17.9082
  89   1.0000      -0.648569       -17.6485
  90   1.0000      -0.631346       -17.1798
  91   1.0000      -0.622829       -16.9481
  92   1.0000      -0.617477       -16.8024
  93   1.0000      -0.576369       -15.6838
  94   1.0000      -0.574522       -15.6335
  95   1.0000      -0.574390       -15.6299
  96   1.0000      -0.572989       -15.5918
  97   1.0000      -0.532356       -14.4861
  98   1.0000      -0.496536       -13.5114
  99   1.0000      -0.496178       -13.5017
 100   1.0000      -0.492182       -13.3930
 101   1.0000      -0.482633       -13.1331
 102   1.0000      -0.478294       -13.0151
 103   1.0000      -0.446977       -12.1629
 104   1.0000      -0.440193       -11.9783
 105   1.0000      -0.419170       -11.4062
 106   1.0000      -0.412655       -11.2289
 107   1.0000      -0.395136       -10.7522
 108   1.0000      -0.355646        -9.6776
 109   1.0000      -0.333742        -9.0816
 110   1.0000      -0.326759        -8.8916
 111   1.0000      -0.319929        -8.7057
 112   1.0000      -0.315589        -8.5876
 113   1.0000      -0.310287        -8.4433
 114   1.0000      -0.303993        -8.2721
 115   1.0000      -0.297701        -8.1009
 116   1.0000      -0.292946        -7.9715
 117   1.0000      -0.266701        -7.2573
 118   1.0000      -0.257540        -7.0080
 119   1.0000      -0.256843        -6.9891
 120   1.0000      -0.254838        -6.9345
 121   1.0000      -0.235720        -6.4143
 122   1.0000      -0.234545        -6.3823
 123   1.0000      -0.230784        -6.2800
 124   1.0000      -0.220469        -5.9993
 125   1.0000      -0.219113        -5.9624
 126   1.0000      -0.217715        -5.9243
 127   1.0000      -0.214034        -5.8242
 128   1.0000      -0.205838        -5.6011
 129   1.0000      -0.191746        -5.2177
 130   1.0000      -0.187913        -5.1134
 131   1.0000      -0.185844        -5.0571
 132   1.0000      -0.184012        -5.0072
 133   1.0000      -0.179077        -4.8729
 134   1.0000      -0.159181        -4.3315
 135   1.0000      -0.151894        -4.1332
 136   1.0000      -0.147141        -4.0039
 137   1.0000      -0.135194        -3.6788
 138   1.0000      -0.134409        -3.6575
 139   1.0000      -0.133137        -3.6228
 140   1.0000      -0.124784        -3.3955
 141   1.0000      -0.121040        -3.2937
 142   1.0000      -0.115467        -3.1420
 143   1.0000      -0.111543        -3.0352
 144   1.0000      -0.100071        -2.7231
 145   1.0000      -0.098682        -2.6853
 146   1.0000      -0.098019        -2.6672
 147   1.0000      -0.095346        -2.5945
 148   1.0000      -0.070866        -1.9284
 149   1.0000      -0.068965        -1.8766
 150   1.0000      -0.067479        -1.8362
 151   1.0000      -0.049896        -1.3577
 152   1.0000      -0.044847        -1.2204
 153   1.0000      -0.038025        -1.0347
 154   1.0000      -0.036745        -0.9999
 155   1.0000      -0.031702        -0.8627
 156   1.0000      -0.026226        -0.7136
 157   1.0000      -0.015803        -0.4300
 158   1.0000       0.020442         0.5562
 159   1.0000       0.039910         1.0860
 160   0.0000       0.129699         3.5293
 161   0.0000       0.136945         3.7265
 162   0.0000       0.150898         4.1061
 163   0.0000       0.156269         4.2523
 164   0.0000       0.162708         4.4275

MULLIKEN ATOMIC CHARGES AND SPIN POPULATIONS
--------------------------------------------
   0 V :    0.470972    1.210746
   1 S :   -0.290465   -0.022374
   2 S :   -0.289821   -0.025247
   3 S :   -0.287593   -0.023290
   4 S :   -0.285236   -0.025742
   5 O :   -0.467632   -0.146843
   6 C :   -0.077496    0.009685
   7 C :   -0.084343    0.008070
   8 C :   -0.084107    0.007732
   9 C :   -0.084913    0.007378
  10 S :    0.099623   -0.000586
  11 S :    0.101029   -0.000630
  12 S :    0.102062   -0.000391
  13 S :    0.102145   -0.000349
  14 C :   -0.213323    0.001528
  15 C :   -0.207470    0.000999
  16 C :   -0.191829   -0.000084
  17 C :   -0.195144   -0.000406
  18 S :    0.008531   -0.000113
  19 S :    0.009168   -0.000111
  20 S :   -0.020874   -0.000068
  21 S :    0.038059   -0.000071
  22 C :   -0.256170    0.000003
  23 C :   -0.421201   -0.000009
  24 C :   -0.167067   -0.000013
  25 H :    0.094978   -0.000003
  26 H :    0.049936   -0.000001
  27 H :    0.079679    0.000000
  28 H :    0.110181   -0.000000
  29 H :    0.195619   -0.000001
  30 H :    0.234399    0.000001
  31 C :   -0.300259    0.000194
  32 C :   -0.301419    0.000190
  33 C :   -0.157834   -0.000238
  34 H :    0.142887   -0.000018
  35 H :    0.114097    0.000019
  36 H :    0.092885    0.000023
  37 H :    0.082190    0.000015
  38 H :    0.113459    0.000021
  39 H :    0.142298   -0.000018
Sum of atomic charges         :   -2.0000000

LOEWDIN ATOMIC CHARGES AND SPIN POPULATIONS
-------------------------------------------
   0 V :   -0.155849    1.164104
   1 S :    0.080275   -0.014418
   2 S :    0.079321   -0.016109
   3 S :    0.082182   -0.015194
   4 S :    0.083459   -0.016345
   5 O :   -0.318938   -0.131740
   6 C :   -0.549976    0.009056
   7 C :   -0.552087    0.007957
   8 C :   -0.552450    0.008123
   9 C :   -0.551669    0.007672
  10 S :    0.471227   -0.000900
  11 S :    0.472281   -0.000952
  12 S :    0.473851   -0.000822
  13 S :    0.472833   -0.000832
  14 C :   -0.465082    0.000164
  15 C :   -0.463958   -0.000080
  16 C :   -0.622633    0.000472
  17 C :   -0.620461    0.000085
  18 S :    0.358670   -0.000090
  19 S :    0.360140   -0.000087
  20 S :    0.366235   -0.000073
  21 S :    0.369605   -0.000074
  22 C :   -0.317286   -0.000006
  23 C :   -0.088185   -0.000009
  24 C :   -0.147532   -0.000001
  25 H :    0.077444   -0.000003
  26 H :    0.062167   -0.000001
  27 H :    0.061227   -0.000001
  28 H :    0.050578   -0.000000
  29 H :   -0.067713   -0.000002
  30 H :   -0.053077   -0.000001
  31 C :   -0.283705    0.000043
  32 C :   -0.282476    0.000036
  33 C :   -0.175602    0.000007
  34 H :    0.061399   -0.000001
  35 H :    0.052919    0.000008
  36 H :    0.059748    0.000004
  37 H :    0.057786    0.000002
  38 H :    0.053516    0.000009
  39 H :    0.061813   -0.000000

  Mayer bond orders larger than 0.100000
B(  0-V ,  1-S ) :   0.7708 B(  0-V ,  2-S ) :   0.7717 B(  0-V ,  3-S ) :   0.7643
B(  0-V ,  4-S ) :   0.7793 B(  0-V ,  5-O ) :   2.1487 B(  1-S ,  8-C ) :   1.1039
B(  2-S ,  6-C ) :   1.1040 B(  3-S ,  9-C ) :   1.1079 B(  4-S ,  7-C ) :   1.1044
B(  6-C ,  7-C ) :   1.6846 B(  6-C , 10-S ) :   0.9351 B(  7-C , 11-S ) :   0.9390
B(  8-C ,  9-C ) :   1.6960 B(  8-C , 13-S ) :   0.9338 B(  9-C , 12-S ) :   0.9366
B( 10-S , 14-C ) :   1.2484 B( 11-S , 14-C ) :   1.2482 B( 12-S , 15-C ) :   1.2468
B( 13-S , 15-C ) :   1.2503 B( 14-C , 16-C ) :   1.4513 B( 15-C , 17-C ) :   1.4454
B( 16-C , 18-S ) :   1.0883 B( 16-C , 19-S ) :   1.0895 B( 17-C , 20-S ) :   1.0931
B( 17-C , 21-S ) :   1.0892 B( 18-S , 32-C ) :   0.9915 B( 19-S , 31-C ) :   0.9918
B( 20-S , 23-C ) :   0.9294 B( 21-S , 22-C ) :   0.9983 B( 22-C , 24-C ) :   0.9318
B( 22-C , 25-H ) :   0.9340 B( 22-C , 26-H ) :   0.9373 B( 23-C , 24-C ) :   0.8635
B( 23-C , 29-H ) :   0.9878 B( 23-C , 30-H ) :   0.9823 B( 24-C , 27-H ) :   0.9623
B( 24-C , 28-H ) :   0.9752 B( 31-C , 33-C ) :   0.9134 B( 31-C , 38-H ) :   0.9657
B( 31-C , 39-H ) :   0.9660 B( 32-C , 33-C ) :   0.9129 B( 32-C , 34-H ) :   0.9662
B( 32-C , 35-H ) :   0.9658 B( 33-C , 36-H ) :   0.9723 B( 33-C , 37-H ) :   0.9624

FINAL SINGLE POINT ENERGY     -6337.237562962651

DIPOLE MOMENT
-------------
                                X             Y             Z
Electronic contribution:     -1.71324       2.18737      13.48350
Nuclear contribution   :      1.85062      -2.69946     -14.80802
                        -----------------------------------------
Total Dipole Moment    :      0.13737      -0.51209      -1.32452
                        -----------------------------------------
Magnitude (a.u.)       :      1.42670
Magnitude (Debye)      :      3.62638

Rotational constants in cm-1:     0.010762     0.000804     0.000783
Rotational constants in MHz :   322.634307    24.116333    23.486962

                             ****ORCA TERMINATED NORMALLY****
TOTAL RUN TIME: 0 days 1 hours 6 minutes 50 seconds 201 msec
