                         Program Version 5.0.4 -  RELEASE  -
|  1> ! nofrozencore ReducedPop printbasis
|  2> ! B3LYP TZVP
|  3>
|  4> %basis
|  5> newgto V "CP(PPP)" end
|  6> end
|  7>
|  8> %pal
|  9> nprocs 6
| 10> end
| 11>
| 12> % sym SymThresh 1e-2 end
| 13> * xyz -2 2
| 14> V 0.21287560847301068 0.7443161283236123 0.7986506171321686
| 15> S 2.3495407596874935 -0.5371686716072478 0.7502558145005093
| 16> S 0.8404549040680612 1.767678400589904 -1.3827930633141987
| 17> S -0.6000375865762558 -1.2742623654683811 2.0178817731650356
| 18> S -2.0802457067755364 0.9286628068504897 -0.1322088893627068
| 19> O 0.38001909869534656 1.90899585848689 1.871129184937181
| 20> C -0.5221124153510192 2.2309714189364533 -1.6761170203249518
| 21> C -1.6969496108771571 1.8997772646181037 -1.1831480888418076
| 22> C 1.8808878131673232 -1.5888855980524557 1.625418472467363
| 23> C 0.7091862520317979 -1.8902045572901864 2.1319832803423915
| 24> S -0.6641990630647053 3.6352875019148057 -3.249763294689628
| 25> S -3.3230047892220123 2.8501764570778145 -2.1235054097995434
| 26> S 0.7186648093311913 -3.669394610495242 3.3172691317477443
| 27> S 3.4077220804289405 -2.9948600375534107 2.176603373040353
| 28> C -2.43774123781924 3.8152354746065815 -3.3373138717070074
| 29> C 2.4286564671808297 -4.149693219114727 3.1236730143155165
| 30> C -3.065605495886968 4.634177462618067 -4.239794243302899
| 31> C 2.9440843219136505 -5.301339933692268 3.6605196916753373
| 32> S -2.1421228786268904 5.604700850322603 -5.36985656594665
| 33> S -4.815648717507142 4.757726001516495 -4.267307135959712
| 34> S 4.629297965573206 -5.718172890225606 3.4299909233353265
| 35> S 1.9216842944958243 -6.4033512294039685 4.559852538851425
| 36> C 2.0534232065482882 -7.868967330451887 3.446374832394159
| 37> C 4.399248735304278 -7.278942590005509 2.472573149666681
| 38> C 3.518116968608906 -8.326918128551412 3.206448125688291
| 39> H 1.5797885657593917 -7.600115159440876 2.498872117140826
| 40> H 1.4576317765852287 -8.658174465989578 3.9124287349150615
| 41> H 3.4996650797591498 -9.245822359205814 2.6045258872344217
| 42> H 3.9792732205317782 -8.57501157103698 4.167515744933738
| 43> H 5.4035644744535825 -7.66560966142602 2.2810286282465344
| 44> H 3.9498518290924207 -7.00966126763035 1.513552262263234
| 45> C -4.974059902864727 6.546464025735391 -3.837160275511924
| 46> C -2.6654523464040527 7.276233861185011 -4.782993698001056
| 47> C -4.19998891859963 7.481007177353804 -4.799083113946996
| 48> H -2.2750777337209422 7.404450841408551 -3.7704322244618607
| 49> H -2.1618318500301736 7.993977680246279 -5.4355862225188245
| 50> H -4.57197517638894 7.335099724278945 -5.818079764297778
| 51> H -4.413998966938888 8.521357591258372 -4.5178562163421905
| 52> H -6.045303611035567 6.762545345331674 -3.854349915180027
| 53> H -4.617816717104985 6.67082145748513 -2.8117054405897033
| 54> *
| 55>
| 56> % eprnmr
| 57> gtensor true
| 58> Nuclei = all H {aiso,adip,aorb,fgrad,rho}
| 59> Nuclei = all V {aiso,adip,aorb,fgrad,rho}
| 60> end
| 61>
| 62>                          ****END OF INPUT****

CARTESIAN COORDINATES (ANGSTROEM)
---------------------------------
  V      0.211486    0.743810    0.795114
  S      2.348151   -0.537674    0.746719
  S      0.839065    1.767173   -1.386330
  S     -0.601427   -1.274768    2.014345
  S     -2.081635    0.928157   -0.135746
  O      0.378629    1.908490    1.867592
  C     -0.523502    2.230466   -1.679654
  C     -1.698339    1.899271   -1.186685
  C      1.879498   -1.589391    1.621882
  C      0.707797   -1.890710    2.128446
  S     -0.665589    3.634782   -3.253300
  S     -3.324395    2.849671   -2.127042
  S      0.717275   -3.669900    3.313732
  S      3.406332   -2.995366    2.173066
  C     -2.439131    3.814730   -3.340851
  C      2.427267   -4.150199    3.120136
  C     -3.066995    4.633672   -4.243331
  C      2.942695   -5.301846    3.656983
  S     -2.143513    5.604195   -5.373393
  S     -4.817038    4.757220   -4.270844
  S      4.627908   -5.718679    3.426454
  S      1.920295   -6.403857    4.556316
  C      2.052033   -7.869473    3.442838
  C      4.397859   -7.279448    2.469036
  C      3.516727   -8.327424    3.202911
  H      1.578399   -7.600621    2.495335
  H      1.456242   -8.658680    3.908892
  H      3.498275   -9.246328    2.600989
  H      3.977883   -8.575517    4.163979
  H      5.402175   -7.666115    2.277492
  H      3.948462   -7.010167    1.510015
  C     -4.975450    6.545958   -3.840697
  C     -2.666842    7.275728   -4.786531
  C     -4.201379    7.480501   -4.802620
  H     -2.276467    7.403945   -3.773969
  H     -2.163222    7.993472   -5.439123
  H     -4.573365    7.334594   -5.821617
  H     -4.415389    8.520852   -4.521393
  H     -6.046693    6.762040   -3.857887
  H     -4.619206    6.670316   -2.815242

 Total Charge           Charge          ....   -2
 Multiplicity           Mult            ....    2
 Number of Electrons    NEL             ....  321
 Basis Dimension        Dim             ....  681

ORBITAL ENERGIES
----------------
                 SPIN UP ORBITALS
  NO   OCC          E(Eh)            E(eV)
   0   1.0000    -196.702234     -5352.5399
   1   1.0000     -88.725498     -2414.3435
   2   1.0000     -88.725317     -2414.3386
   3   1.0000     -88.721863     -2414.2446
   4   1.0000     -88.721822     -2414.2435
   5   1.0000     -88.707443     -2413.8522
   6   1.0000     -88.706090     -2413.8154
   7   1.0000     -88.700781     -2413.6709
   8   1.0000     -88.699548     -2413.6374
   9   1.0000     -88.654459     -2412.4105
  10   1.0000     -88.654027     -2412.3987
  11   1.0000     -88.652619     -2412.3604
  12   1.0000     -88.651607     -2412.3329
  13   1.0000     -22.075827      -600.7138
  14   1.0000     -18.917448      -514.7699
  15   1.0000     -18.581442      -505.6267
  16   1.0000     -18.577603      -505.5223
  17   1.0000     -18.577460      -505.5184
  18   1.0000     -10.069347      -274.0009
  19   1.0000     -10.065259      -273.8896
  20   1.0000     -10.059171      -273.7240
  21   1.0000     -10.059151      -273.7234
  22   1.0000     -10.056389      -273.6483
  23   1.0000     -10.056386      -273.6482
  24   1.0000     -10.048830      -273.4426
  25   1.0000     -10.046516      -273.3796
  26   1.0000     -10.039195      -273.1804
  27   1.0000     -10.035012      -273.0665
  28   1.0000     -10.014221      -272.5008
  29   1.0000     -10.013124      -272.4710
  30   1.0000     -10.008818      -272.3538
  31   1.0000     -10.007793      -272.3259
  32   1.0000      -7.779651      -211.6951
  33   1.0000      -7.779475      -211.6903
  34   1.0000      -7.776089      -211.5981
  35   1.0000      -7.776059      -211.5973
  36   1.0000      -7.759030      -211.1339
  37   1.0000      -7.757789      -211.1002
  38   1.0000      -7.752484      -210.9558
  39   1.0000      -7.751314      -210.9240
  40   1.0000      -7.719288      -210.0525
  41   1.0000      -7.718856      -210.0408
  42   1.0000      -7.718143      -210.0213
  43   1.0000      -7.717543      -210.0050
  44   1.0000      -5.744625      -156.3192
  45   1.0000      -5.744450      -156.3144
  46   1.0000      -5.741090      -156.2230
  47   1.0000      -5.741059      -156.2222
  48   1.0000      -5.741041      -156.2217
  49   1.0000      -5.740922      -156.2184
  50   1.0000      -5.737512      -156.1256
  51   1.0000      -5.737475      -156.1246
  52   1.0000      -5.734445      -156.0422
  53   1.0000      -5.734259      -156.0371
  54   1.0000      -5.730892      -155.9455
  55   1.0000      -5.730857      -155.9445
  56   1.0000      -5.723828      -155.7533
  57   1.0000      -5.722578      -155.7193
  58   1.0000      -5.720026      -155.6498
  59   1.0000      -5.718725      -155.6144
  60   1.0000      -5.717251      -155.5743
  61   1.0000      -5.716069      -155.5421
  62   1.0000      -5.714835      -155.5086
  63   1.0000      -5.713650      -155.4763
  64   1.0000      -5.713439      -155.4706
  65   1.0000      -5.712226      -155.4376
  66   1.0000      -5.708351      -155.3321
  67   1.0000      -5.707228      -155.3016
  68   1.0000      -5.682456      -154.6275
  69   1.0000      -5.681907      -154.6126
  70   1.0000      -5.681334      -154.5970
  71   1.0000      -5.680603      -154.5771
  72   1.0000      -5.677877      -154.5029
  73   1.0000      -5.677498      -154.4926
  74   1.0000      -5.676770      -154.4728
  75   1.0000      -5.676554      -154.4669
  76   1.0000      -5.676224      -154.4579
  77   1.0000      -5.675836      -154.4473
  78   1.0000      -5.675516      -154.4386
  79   1.0000      -5.674556      -154.4125
  80   1.0000      -2.471551       -67.2543
  81   1.0000      -1.511624       -41.1334
  82   1.0000      -1.502724       -40.8912
  83   1.0000      -1.501128       -40.8478
  84   1.0000      -0.700406       -19.0590
  85   1.0000      -0.697398       -18.9772
  86   1.0000      -0.689501       -18.7623
  87   1.0000      -0.686588       -18.6830
  88   1.0000      -0.674958       -18.3665
  89   1.0000      -0.647761       -17.6265
  90   1.0000      -0.643798       -17.5186
  91   1.0000      -0.613095       -16.6832
  92   1.0000      -0.611474       -16.6391
  93   1.0000      -0.609516       -16.5858
  94   1.0000      -0.604187       -16.4408
  95   1.0000      -0.585610       -15.9353
  96   1.0000      -0.580976       -15.8091
  97   1.0000      -0.512200       -13.9377
  98   1.0000      -0.507158       -13.8005
  99   1.0000      -0.488119       -13.2824
 100   1.0000      -0.483739       -13.1632
 101   1.0000      -0.481452       -13.1010
 102   1.0000      -0.477279       -12.9874
 103   1.0000      -0.448086       -12.1930
 104   1.0000      -0.444524       -12.0961
 105   1.0000      -0.423936       -11.5359
 106   1.0000      -0.421430       -11.4677
 107   1.0000      -0.346254        -9.4220
 108   1.0000      -0.342497        -9.3198
 109   1.0000      -0.317146        -8.6300
 110   1.0000      -0.313430        -8.5289
 111   1.0000      -0.291241        -7.9251
 112   1.0000      -0.290075        -7.8933
 113   1.0000      -0.286971        -7.8089
 114   1.0000      -0.285832        -7.7779
 115   1.0000      -0.281729        -7.6662
 116   1.0000      -0.274953        -7.4818
 117   1.0000      -0.257517        -7.0074
 118   1.0000      -0.252992        -6.8843
 119   1.0000      -0.248255        -6.7554
 120   1.0000      -0.245303        -6.6750
 121   1.0000      -0.231757        -6.3064
 122   1.0000      -0.231028        -6.2866
 123   1.0000      -0.228152        -6.2083
 124   1.0000      -0.226051        -6.1512
 125   1.0000      -0.221871        -6.0374
 126   1.0000      -0.221664        -6.0318
 127   1.0000      -0.218939        -5.9576
 128   1.0000      -0.209246        -5.6939
 129   1.0000      -0.206905        -5.6302
 130   1.0000      -0.199697        -5.4340
 131   1.0000      -0.197757        -5.3813
 132   1.0000      -0.196520        -5.3476
 133   1.0000      -0.190741        -5.1903
 134   1.0000      -0.186201        -5.0668
 135   1.0000      -0.153127        -4.1668
 136   1.0000      -0.152050        -4.1375
 137   1.0000      -0.149328        -4.0634
 138   1.0000      -0.149169        -4.0591
 139   1.0000      -0.145733        -3.9656
 140   1.0000      -0.139744        -3.8026
 141   1.0000      -0.130980        -3.5642
 142   1.0000      -0.110798        -3.0150
 143   1.0000      -0.104766        -2.8508
 144   1.0000      -0.100320        -2.7298
 145   1.0000      -0.098229        -2.6729
 146   1.0000      -0.094913        -2.5827
 147   1.0000      -0.091383        -2.4867
 148   1.0000      -0.073963        -2.0126
 149   1.0000      -0.072617        -1.9760
 150   1.0000      -0.071482        -1.9451
 151   1.0000      -0.052840        -1.4378
 152   1.0000      -0.051126        -1.3912
 153   1.0000      -0.049308        -1.3418
 154   1.0000      -0.049201        -1.3388
 155   1.0000      -0.048322        -1.3149
 156   1.0000      -0.041870        -1.1393
 157   1.0000      -0.029408        -0.8002
 158   1.0000      -0.024959        -0.6792
 159   1.0000       0.025322         0.6890
 160   1.0000       0.051570         1.4033
 161   0.0000       0.124786         3.3956
 162   0.0000       0.128534         3.4976
 163   0.0000       0.137717         3.7475
 164   0.0000       0.144176         3.9232
 165   0.0000       0.144828         3.9410

                 SPIN DOWN ORBITALS
  NO   OCC          E(Eh)            E(eV)
   0   1.0000    -196.702361     -5352.5434
   1   1.0000     -88.725500     -2414.3436
   2   1.0000     -88.725319     -2414.3387
   3   1.0000     -88.721865     -2414.2447
   4   1.0000     -88.721825     -2414.2436
   5   1.0000     -88.707486     -2413.8534
   6   1.0000     -88.706134     -2413.8166
   7   1.0000     -88.700826     -2413.6722
   8   1.0000     -88.699595     -2413.6387
   9   1.0000     -88.654549     -2412.4129
  10   1.0000     -88.654119     -2412.4012
  11   1.0000     -88.652724     -2412.3633
  12   1.0000     -88.651720     -2412.3359
  13   1.0000     -22.060657      -600.3010
  14   1.0000     -18.921261      -514.8737
  15   1.0000     -18.575895      -505.4758
  16   1.0000     -18.561516      -505.0845
  17   1.0000     -18.561056      -505.0720
  18   1.0000     -10.069357      -274.0011
  19   1.0000     -10.065269      -273.8899
  20   1.0000     -10.059172      -273.7240
  21   1.0000     -10.059153      -273.7235
  22   1.0000     -10.056390      -273.6483
  23   1.0000     -10.056387      -273.6482
  24   1.0000     -10.048829      -273.4425
  25   1.0000     -10.046515      -273.3796
  26   1.0000     -10.039187      -273.1802
  27   1.0000     -10.035013      -273.0666
  28   1.0000     -10.013996      -272.4947
  29   1.0000     -10.012909      -272.4651
  30   1.0000     -10.008700      -272.3506
  31   1.0000     -10.007675      -272.3227
  32   1.0000      -7.779653      -211.6951
  33   1.0000      -7.779477      -211.6903
  34   1.0000      -7.776091      -211.5982
  35   1.0000      -7.776061      -211.5974
  36   1.0000      -7.759075      -211.1352
  37   1.0000      -7.757835      -211.1014
  38   1.0000      -7.752530      -210.9571
  39   1.0000      -7.751363      -210.9253
  40   1.0000      -7.719374      -210.0549
  41   1.0000      -7.718958      -210.0435
  42   1.0000      -7.718231      -210.0238
  43   1.0000      -7.717652      -210.0080
  44   1.0000      -5.744628      -156.3193
  45   1.0000      -5.744452      -156.3145
  46   1.0000      -5.741094      -156.2231
  47   1.0000      -5.741061      -156.2222
  48   1.0000      -5.741044      -156.2217
  49   1.0000      -5.740926      -156.2185
  50   1.0000      -5.737515      -156.1257
  51   1.0000      -5.737478      -156.1247
  52   1.0000      -5.734447      -156.0422
  53   1.0000      -5.734261      -156.0372
  54   1.0000      -5.730896      -155.9456
  55   1.0000      -5.730861      -155.9447
  56   1.0000      -5.723895      -155.7551
  57   1.0000      -5.722643      -155.7210
  58   1.0000      -5.720114      -155.6522
  59   1.0000      -5.718818      -155.6169
  60   1.0000      -5.717313      -155.5760
  61   1.0000      -5.716132      -155.5439
  62   1.0000      -5.714862      -155.5093
  63   1.0000      -5.713676      -155.4770
  64   1.0000      -5.713533      -155.4731
  65   1.0000      -5.712327      -155.4403
  66   1.0000      -5.708381      -155.3330
  67   1.0000      -5.707259      -155.3024
  68   1.0000      -5.682546      -154.6299
  69   1.0000      -5.682011      -154.6154
  70   1.0000      -5.681425      -154.5994
  71   1.0000      -5.680710      -154.5800
  72   1.0000      -5.678148      -154.5103
  73   1.0000      -5.677712      -154.4984
  74   1.0000      -5.677062      -154.4807
  75   1.0000      -5.676582      -154.4676
  76   1.0000      -5.676461      -154.4644
  77   1.0000      -5.675969      -154.4510
  78   1.0000      -5.675531      -154.4391
  79   1.0000      -5.674695      -154.4163
  80   1.0000      -2.425954       -66.0136
  81   1.0000      -1.491224       -40.5783
  82   1.0000      -1.439689       -39.1759
  83   1.0000      -1.439155       -39.1614
  84   1.0000      -0.700409       -19.0591
  85   1.0000      -0.697437       -18.9782
  86   1.0000      -0.689874       -18.7724
  87   1.0000      -0.686675       -18.6854
  88   1.0000      -0.682521       -18.5723
  89   1.0000      -0.647792       -17.6273
  90   1.0000      -0.643849       -17.5200
  91   1.0000      -0.613102       -16.6834
  92   1.0000      -0.611589       -16.6422
  93   1.0000      -0.609554       -16.5868
  94   1.0000      -0.604252       -16.4425
  95   1.0000      -0.585683       -15.9372
  96   1.0000      -0.581067       -15.8116
  97   1.0000      -0.512400       -13.9431
  98   1.0000      -0.507365       -13.8061
  99   1.0000      -0.488160       -13.2835
 100   1.0000      -0.483823       -13.1655
 101   1.0000      -0.481520       -13.1028
 102   1.0000      -0.477363       -12.9897
 103   1.0000      -0.448048       -12.1920
 104   1.0000      -0.444643       -12.0994
 105   1.0000      -0.423942       -11.5360
 106   1.0000      -0.421519       -11.4701
 107   1.0000      -0.346264        -9.4223
 108   1.0000      -0.342510        -9.3202
 109   1.0000      -0.317144        -8.6299
 110   1.0000      -0.313431        -8.5289
 111   1.0000      -0.291211        -7.9243
 112   1.0000      -0.289993        -7.8911
 113   1.0000      -0.286972        -7.8089
 114   1.0000      -0.285808        -7.7772
 115   1.0000      -0.281632        -7.6636
 116   1.0000      -0.274962        -7.4821
 117   1.0000      -0.257326        -7.0022
 118   1.0000      -0.252481        -6.8704
 119   1.0000      -0.248115        -6.7515
 120   1.0000      -0.245246        -6.6735
 121   1.0000      -0.231168        -6.2904
 122   1.0000      -0.230979        -6.2853
 123   1.0000      -0.228103        -6.2070
 124   1.0000      -0.225871        -6.1463
 125   1.0000      -0.221626        -6.0308
 126   1.0000      -0.220431        -5.9982
 127   1.0000      -0.218666        -5.9502
 128   1.0000      -0.208951        -5.6859
 129   1.0000      -0.207099        -5.6355
 130   1.0000      -0.199474        -5.4280
 131   1.0000      -0.197228        -5.3668
 132   1.0000      -0.196201        -5.3389
 133   1.0000      -0.190740        -5.1903
 134   1.0000      -0.186173        -5.0660
 135   1.0000      -0.152173        -4.1408
 136   1.0000      -0.151646        -4.1265
 137   1.0000      -0.149333        -4.0636
 138   1.0000      -0.149133        -4.0581
 139   1.0000      -0.145805        -3.9676
 140   1.0000      -0.141660        -3.8548
 141   1.0000      -0.132992        -3.6189
 142   1.0000      -0.110234        -2.9996
 143   1.0000      -0.104709        -2.8493
 144   1.0000      -0.100623        -2.7381
 145   1.0000      -0.099274        -2.7014
 146   1.0000      -0.094913        -2.5827
 147   1.0000      -0.091211        -2.4820
 148   1.0000      -0.073152        -1.9906
 149   1.0000      -0.071189        -1.9372
 150   1.0000      -0.069964        -1.9038
 151   1.0000      -0.052167        -1.4195
 152   1.0000      -0.050802        -1.3824
 153   1.0000      -0.049111        -1.3364
 154   1.0000      -0.048343        -1.3155
 155   1.0000      -0.041827        -1.1382
 156   1.0000      -0.029341        -0.7984
 157   1.0000      -0.024997        -0.6802
 158   1.0000       0.026222         0.7135
 159   1.0000       0.050254         1.3675
 160   0.0000       0.113897         3.0993
 161   0.0000       0.131607         3.5812
 162   0.0000       0.143921         3.9163
 163   0.0000       0.147908         4.0248
 164   0.0000       0.150225         4.0878

MULLIKEN ATOMIC CHARGES AND SPIN POPULATIONS
--------------------------------------------
   0 V :    0.292765    1.220859
   1 S :   -0.161587   -0.015794
   2 S :   -0.167248   -0.015081
   3 S :   -0.162640   -0.017608
   4 S :   -0.171019   -0.016367
   5 O :   -0.441429   -0.148378
   6 C :   -0.027075    0.007173
   7 C :   -0.052636    0.005331
   8 C :   -0.029299    0.001060
   9 C :   -0.043582    0.000742
  10 S :   -0.049435   -0.005815
  11 S :   -0.042020   -0.005679
  12 S :   -0.062686   -0.005355
  13 S :   -0.069010   -0.005674
  14 C :   -0.153766    0.000642
  15 C :   -0.146047    0.000735
  16 C :   -0.197435    0.000493
  17 C :   -0.198602   -0.000339
  18 S :    0.015920   -0.000304
  19 S :    0.014888   -0.000287
  20 S :    0.014620   -0.000274
  21 S :    0.014073   -0.000272
  22 C :   -0.299140    0.000078
  23 C :   -0.298782    0.000076
  24 C :   -0.165344   -0.000229
  25 H :    0.140440   -0.000009
  26 H :    0.112248    0.000007
  27 H :    0.079624    0.000032
  28 H :    0.088930    0.000038
  29 H :    0.111766    0.000006
  30 H :    0.140069   -0.000009
  31 C :   -0.297983    0.000271
  32 C :   -0.299465    0.000259
  33 C :   -0.165835   -0.000485
  34 H :    0.140275   -0.000020
  35 H :    0.112933    0.000034
  36 H :    0.090207    0.000072
  37 H :    0.080702    0.000055
  38 H :    0.112345    0.000035
  39 H :    0.140265   -0.000020
Sum of atomic charges         :   -2.0000000

LOEWDIN ATOMIC CHARGES AND SPIN POPULATIONS
-------------------------------------------
   0 V :   -0.108309    1.173128
   1 S :    0.296659   -0.009287
   2 S :    0.280036   -0.007957
   3 S :    0.292765   -0.010865
   4 S :    0.270927   -0.008884
   5 O :   -0.310441   -0.132055
   6 C :   -0.559197    0.007790
   7 C :   -0.561237    0.006819
   8 C :   -0.564575    0.002682
   9 C :   -0.565817    0.002297
  10 S :    0.277056   -0.005569
  11 S :    0.284058   -0.005449
  12 S :    0.260615   -0.005409
  13 S :    0.254002   -0.005706
  14 C :   -0.469439   -0.000532
  15 C :   -0.470089   -0.000561
  16 C :   -0.641039    0.000608
  17 C :   -0.644027    0.000086
  18 S :    0.371516   -0.000293
  19 S :    0.371911   -0.000272
  20 S :    0.371863   -0.000298
  21 S :    0.371212   -0.000292
  22 C :   -0.285928   -0.000034
  23 C :   -0.285975   -0.000036
  24 C :   -0.174370    0.000013
  25 H :    0.061307   -0.000001
  26 H :    0.052329    0.000003
  27 H :    0.055035   -0.000010
  28 H :    0.058551    0.000010
  29 H :    0.052235    0.000002
  30 H :    0.061110   -0.000001
  31 C :   -0.285431   -0.000000
  32 C :   -0.285280   -0.000016
  33 C :   -0.174645    0.000046
  34 H :    0.061301    0.000004
  35 H :    0.052689    0.000014
  36 H :    0.059160    0.000020
  37 H :    0.055703   -0.000017
  38 H :    0.052642    0.000014
  39 H :    0.061117    0.000005

  Mayer bond orders larger than 0.100000
B(  0-V ,  1-S ) :   0.7673 B(  0-V ,  2-S ) :   0.7683 B(  0-V ,  3-S ) :   0.7682
B(  0-V ,  4-S ) :   0.7871 B(  0-V ,  5-O ) :   2.1565 B(  1-S ,  8-C ) :   1.4203
B(  2-S ,  6-C ) :   1.3922 B(  3-S ,  9-C ) :   1.4178 B(  4-S ,  7-C ) :   1.3767
B(  6-C ,  7-C ) :   1.6628 B(  6-C , 10-S ) :   0.6187 B(  7-C , 11-S ) :   0.6403
B(  8-C ,  9-C ) :   1.6952 B(  8-C , 12-S ) :   0.1049 B(  8-C , 13-S ) :   0.5782
B(  9-C , 12-S ) :   0.5938 B(  9-C , 13-S ) :   0.1088 B( 10-S , 14-C ) :   1.2540
B( 11-S , 14-C ) :   1.2480 B( 12-S , 15-C ) :   1.2499 B( 13-S , 15-C ) :   1.2551
B( 14-C , 16-C ) :   1.4764 B( 15-C , 17-C ) :   1.4732 B( 16-C , 18-S ) :   1.0981
B( 16-C , 19-S ) :   1.0970 B( 17-C , 20-S ) :   1.0974 B( 17-C , 21-S ) :   1.0974
B( 18-S , 32-C ) :   0.9891 B( 19-S , 31-C ) :   0.9900 B( 20-S , 23-C ) :   0.9901
B( 21-S , 22-C ) :   0.9885 B( 22-C , 24-C ) :   0.9124 B( 22-C , 25-H ) :   0.9670
B( 22-C , 26-H ) :   0.9637 B( 23-C , 24-C ) :   0.9130 B( 23-C , 29-H ) :   0.9638
B( 23-C , 30-H ) :   0.9665 B( 24-C , 27-H ) :   0.9610 B( 24-C , 28-H ) :   0.9718
B( 31-C , 33-C ) :   0.9129 B( 31-C , 38-H ) :   0.9644 B( 31-C , 39-H ) :   0.9664
B( 32-C , 33-C ) :   0.9128 B( 32-C , 34-H ) :   0.9666 B( 32-C , 35-H ) :   0.9641
B( 33-C , 36-H ) :   0.9721 B( 33-C , 37-H ) :   0.9612

FINAL SINGLE POINT ENERGY     -6337.415163258665

DIPOLE MOMENT
-------------
                                X             Y             Z
Electronic contribution:      4.42624       6.95735      11.21342
Nuclear contribution   :     -4.94995      -7.20061     -12.33874
                        -----------------------------------------
Total Dipole Moment    :     -0.52371      -0.24326      -1.12532
                        -----------------------------------------
Magnitude (a.u.)       :      1.26483
Magnitude (Debye)      :      3.21495

Rotational constants in cm-1:     0.010815     0.000804     0.000784
Rotational constants in MHz :   324.222472    24.109557    23.489094

                             ****ORCA TERMINATED NORMALLY****
TOTAL RUN TIME: 0 days 1 hours 7 minutes 24 seconds 921 msec
