                         Program Version 5.0.4 -  RELEASE  -
|  1> ! nofrozencore ReducedPop printbasis
|  2> ! B3LYP TZVP
|  3>
|  4> %basis
|  5> newgto V "CP(PPP)" end
|  6> end
|  7>
|  8> %pal
|  9> nprocs 6
| 10> end
| 11>
| 12> % sym SymThresh 1e-2 end
| 13> * xyz -2 2
| 14> V -0.7773916976845363 -0.7790812653403332 -0.165657269882309
| 15> S -1.996258814780711 1.2557362061747992 -0.8336991568335864
| 16> S 0.47176154201789156 -0.49525503287733175 -2.2897026591093814
| 17> S -1.1416827340864693 -0.0158896895064777 2.1718461336999066
| 18> S 1.3301921666156287 -1.6767822706782982 0.7349958984160053
| 19> O -1.7503847619615518 -2.010908294163915 -0.41315099725835686
| 20> C 1.7470341243233112 -1.5622373566422643 -1.9473797163137634
| 21> C 2.214450311309458 -2.1083309498876153 -0.7987715979279875
| 22> C -2.675534429900717 1.9332596076464355 0.7935365610805828
| 23> C -2.1571610298915127 1.2158130024465998 1.8492758669185008
| 24> S 2.832348268885364 -2.076137936849318 -3.394411790291528
| 25> S 3.6072159221558957 -3.096558033530006 -0.7435068256927981
| 26> S -2.9205087653528823 2.0853132750065484 3.4283281535886334
| 27> S -3.696614295732931 3.2136178308579035 0.8205099959348874
| 28> C 4.062827640018382 -3.126084074036502 -2.2261942220159074
| 29> C -3.9328996774893428 3.5280222595696444 2.1737785840117967
| 30> C 5.031987107864991 -3.628430131325121 -3.142506286509145
| 31> C -4.462586251995091 4.246995760385412 3.4169896842691445
| 32> S 5.4013010875942395 -3.6493776062664915 -4.728552979467496
| 33> S 6.223841029090554 -4.638594462387153 -1.9901003791161604
| 34> S -5.431163955925302 5.625768540098216 2.2397983177610024
| 35> S -4.609699898477276 4.475938023629923 4.915855698349521
| 36> C -3.790255040325051 6.125099293690277 5.1351146866939015
| 37> C -4.470177236369006 7.0832450349771925 2.8465650244026257
| 38> C -4.473692084391009 7.239274114105763 4.399597626559667
| 39> H -2.7681339779106993 5.986533296401111 4.777048454856527
| 40> H -3.7725467987552657 6.250733355150299 6.223540445110877
| 41> H -3.963212164942233 8.177901411260903 4.6570129278352725
| 42> H -5.512713192990074 7.332161609588602 4.7319550836754845
| 43> H -4.942641963157519 7.98569142402883 2.4430914933075667
| 44> H -3.4448816280563768 7.057400512484435 2.4632864963972616
| 45> C 5.918632784669677 -6.29414621654528 -2.7549169334057986
| 46> C 5.230954087049905 -5.459285722884162 -5.088832940978026
| 47> C 6.167785906421872 -6.331004332925012 -4.282401838360042
| 48> H 4.189074663759804 -5.717555418649517 -4.889444323023143
| 49> H 5.410897988975185 -5.533332323411723 -6.165336431517289
| 50> H 7.205588698743443 -6.041039203570226 -4.475409230451153
| 51> H 6.048544510296023 -7.3675415470989245 -4.627701042368019
| 52> H 6.6135123337081465 -6.993372070782485 -2.2808371876674425
| 53> H 4.90339746989016 -6.625434047286648 -2.519172370403356
| 54> *
| 55>
| 56> % eprnmr
| 57> gtensor true
| 58> Nuclei = all H {aiso,adip,aorb,fgrad,rho}
| 59> Nuclei = all V {aiso,adip,aorb,fgrad,rho}
| 60> end
| 61>
| 62>                          ****END OF INPUT****

CARTESIAN COORDINATES (ANGSTROEM)
---------------------------------
  V     -0.773743   -0.778095   -0.166300
  S     -1.992610    1.256723   -0.834342
  S      0.475410   -0.494268   -2.290345
  S     -1.138034   -0.014903    2.171204
  S      1.333841   -1.675796    0.734354
  O     -1.746736   -2.009922   -0.413793
  C      1.750683   -1.561251   -1.948022
  C      2.218099   -2.107344   -0.799414
  C     -2.671886    1.934246    0.792894
  C     -2.153512    1.216800    1.848633
  S      2.835997   -2.075151   -3.395054
  S      3.610864   -3.095571   -0.744149
  S     -2.916860    2.086300    3.427686
  S     -3.692966    3.214605    0.819868
  C      4.066476   -3.125097   -2.226837
  C     -3.929251    3.529009    2.173136
  C      5.035636   -3.627443   -3.143149
  C     -4.458938    4.247982    3.416347
  S      5.404950   -3.648391   -4.729195
  S      6.227490   -4.637608   -1.990743
  S     -5.427515    5.626755    2.239156
  S     -4.606051    4.476925    4.915213
  C     -3.786607    6.126086    5.134472
  C     -4.466529    7.084232    2.845923
  C     -4.470044    7.240261    4.398955
  H     -2.764485    5.987520    4.776406
  H     -3.768898    6.251720    6.222898
  H     -3.959564    8.178888    4.656371
  H     -5.509065    7.333148    4.731313
  H     -4.938993    7.986678    2.442449
  H     -3.441233    7.058387    2.462644
  C      5.922281   -6.293159   -2.755559
  C      5.234603   -5.458299   -5.089475
  C      6.171434   -6.330018   -4.283044
  H      4.192723   -5.716569   -4.890087
  H      5.414547   -5.532346   -6.165979
  H      7.209237   -6.040052   -4.476052
  H      6.052193   -7.366555   -4.628343
  H      6.617161   -6.992385   -2.281480
  H      4.907046   -6.624447   -2.519815

 Total Charge           Charge          ....   -2
 Multiplicity           Mult            ....    2
 Number of Electrons    NEL             ....  321
 Basis Dimension        Dim             ....  681

ORBITAL ENERGIES
----------------
                 SPIN UP ORBITALS
  NO   OCC          E(Eh)            E(eV)
   0   1.0000    -196.688064     -5352.1543
   1   1.0000     -88.763117     -2415.3672
   2   1.0000     -88.754503     -2415.1328
   3   1.0000     -88.739782     -2414.7322
   4   1.0000     -88.731488     -2414.5066
   5   1.0000     -88.720059     -2414.1955
   6   1.0000     -88.719620     -2414.1836
   7   1.0000     -88.702925     -2413.7293
   8   1.0000     -88.697097     -2413.5707
   9   1.0000     -88.669066     -2412.8080
  10   1.0000     -88.656661     -2412.4704
  11   1.0000     -88.649641     -2412.2794
  12   1.0000     -88.647119     -2412.2107
  13   1.0000     -22.063275      -600.3722
  14   1.0000     -18.903696      -514.3957
  15   1.0000     -18.569689      -505.3069
  16   1.0000     -18.564608      -505.1687
  17   1.0000     -18.564442      -505.1642
  18   1.0000     -10.084435      -274.4114
  19   1.0000     -10.080983      -274.3175
  20   1.0000     -10.060624      -273.7635
  21   1.0000     -10.060501      -273.7601
  22   1.0000     -10.053828      -273.5786
  23   1.0000     -10.049836      -273.4699
  24   1.0000     -10.049716      -273.4667
  25   1.0000     -10.047812      -273.4149
  26   1.0000     -10.047332      -273.4018
  27   1.0000     -10.041956      -273.2555
  28   1.0000     -10.038136      -273.1516
  29   1.0000     -10.036586      -273.1094
  30   1.0000     -10.024882      -272.7909
  31   1.0000     -10.024657      -272.7848
  32   1.0000      -7.828698      -213.0297
  33   1.0000      -7.813317      -212.6112
  34   1.0000      -7.795129      -212.1162
  35   1.0000      -7.788991      -211.9492
  36   1.0000      -7.772942      -211.5125
  37   1.0000      -7.770435      -211.4443
  38   1.0000      -7.753377      -210.9801
  39   1.0000      -7.750293      -210.8962
  40   1.0000      -7.725903      -210.2325
  41   1.0000      -7.711908      -209.8517
  42   1.0000      -7.702998      -209.6092
  43   1.0000      -7.699612      -209.5171
  44   1.0000      -5.792100      -157.6111
  45   1.0000      -5.786858      -157.4684
  46   1.0000      -5.785806      -157.4398
  47   1.0000      -5.777377      -157.2104
  48   1.0000      -5.772709      -157.0834
  49   1.0000      -5.769998      -157.0096
  50   1.0000      -5.759996      -156.7374
  51   1.0000      -5.756168      -156.6333
  52   1.0000      -5.753529      -156.5615
  53   1.0000      -5.750190      -156.4706
  54   1.0000      -5.749354      -156.4479
  55   1.0000      -5.744608      -156.3187
  56   1.0000      -5.737669      -156.1299
  57   1.0000      -5.735670      -156.0755
  58   1.0000      -5.734643      -156.0476
  59   1.0000      -5.731706      -155.9676
  60   1.0000      -5.727994      -155.8666
  61   1.0000      -5.725704      -155.8043
  62   1.0000      -5.718430      -155.6064
  63   1.0000      -5.714981      -155.5125
  64   1.0000      -5.714736      -155.5059
  65   1.0000      -5.711546      -155.4191
  66   1.0000      -5.708571      -155.3381
  67   1.0000      -5.706011      -155.2684
  68   1.0000      -5.690386      -154.8433
  69   1.0000      -5.684164      -154.6740
  70   1.0000      -5.683886      -154.6664
  71   1.0000      -5.676841      -154.4747
  72   1.0000      -5.670471      -154.3014
  73   1.0000      -5.669470      -154.2741
  74   1.0000      -5.668579      -154.2499
  75   1.0000      -5.665517      -154.1666
  76   1.0000      -5.661702      -154.0627
  77   1.0000      -5.660149      -154.0205
  78   1.0000      -5.658441      -153.9740
  79   1.0000      -5.656507      -153.9214
  80   1.0000      -2.457135       -66.8620
  81   1.0000      -1.498402       -40.7736
  82   1.0000      -1.487207       -40.4690
  83   1.0000      -1.485738       -40.4290
  84   1.0000      -0.760179       -20.6855
  85   1.0000      -0.728176       -19.8147
  86   1.0000      -0.697713       -18.9857
  87   1.0000      -0.696257       -18.9461
  88   1.0000      -0.662862       -18.0374
  89   1.0000      -0.637478       -17.3466
  90   1.0000      -0.633592       -17.2409
  91   1.0000      -0.628802       -17.1106
  92   1.0000      -0.618843       -16.8396
  93   1.0000      -0.600600       -16.3431
  94   1.0000      -0.586751       -15.9663
  95   1.0000      -0.555513       -15.1163
  96   1.0000      -0.546236       -14.8638
  97   1.0000      -0.508645       -13.8409
  98   1.0000      -0.504573       -13.7301
  99   1.0000      -0.491502       -13.3745
 100   1.0000      -0.488413       -13.2904
 101   1.0000      -0.481016       -13.0891
 102   1.0000      -0.469821       -12.7845
 103   1.0000      -0.444696       -12.1008
 104   1.0000      -0.432582       -11.7712
 105   1.0000      -0.416586       -11.3359
 106   1.0000      -0.403988       -10.9931
 107   1.0000      -0.387730       -10.5507
 108   1.0000      -0.370926       -10.0934
 109   1.0000      -0.343128        -9.3370
 110   1.0000      -0.333493        -9.0748
 111   1.0000      -0.319767        -8.7013
 112   1.0000      -0.310824        -8.4580
 113   1.0000      -0.295806        -8.0493
 114   1.0000      -0.288800        -7.8586
 115   1.0000      -0.286946        -7.8082
 116   1.0000      -0.277917        -7.5625
 117   1.0000      -0.275455        -7.4955
 118   1.0000      -0.269369        -7.3299
 119   1.0000      -0.250458        -6.8153
 120   1.0000      -0.245577        -6.6825
 121   1.0000      -0.239587        -6.5195
 122   1.0000      -0.237821        -6.4714
 123   1.0000      -0.232284        -6.3208
 124   1.0000      -0.227478        -6.1900
 125   1.0000      -0.222256        -6.0479
 126   1.0000      -0.221792        -6.0353
 127   1.0000      -0.219970        -5.9857
 128   1.0000      -0.216065        -5.8794
 129   1.0000      -0.198452        -5.4002
 130   1.0000      -0.193113        -5.2549
 131   1.0000      -0.187568        -5.1040
 132   1.0000      -0.178244        -4.8503
 133   1.0000      -0.175408        -4.7731
 134   1.0000      -0.161400        -4.3919
 135   1.0000      -0.153673        -4.1817
 136   1.0000      -0.150610        -4.0983
 137   1.0000      -0.146221        -3.9789
 138   1.0000      -0.142662        -3.8820
 139   1.0000      -0.137155        -3.7322
 140   1.0000      -0.130790        -3.5590
 141   1.0000      -0.125087        -3.4038
 142   1.0000      -0.119362        -3.2480
 143   1.0000      -0.115785        -3.1507
 144   1.0000      -0.102006        -2.7757
 145   1.0000      -0.084281        -2.2934
 146   1.0000      -0.082971        -2.2578
 147   1.0000      -0.076624        -2.0850
 148   1.0000      -0.067513        -1.8371
 149   1.0000      -0.065710        -1.7881
 150   1.0000      -0.058353        -1.5879
 151   1.0000      -0.054481        -1.4825
 152   1.0000      -0.048911        -1.3309
 153   1.0000      -0.045934        -1.2499
 154   1.0000      -0.041239        -1.1222
 155   1.0000      -0.037388        -1.0174
 156   1.0000      -0.032743        -0.8910
 157   1.0000      -0.027299        -0.7429
 158   1.0000      -0.017917        -0.4876
 159   1.0000       0.011524         0.3136
 160   1.0000       0.028532         0.7764
 161   0.0000       0.106389         2.8950
 162   0.0000       0.121459         3.3051
 163   0.0000       0.126325         3.4375
 164   0.0000       0.138448         3.7674
 165   0.0000       0.157779         4.2934

                 SPIN DOWN ORBITALS
  NO   OCC          E(Eh)            E(eV)
   0   1.0000    -196.688211     -5352.1583
   1   1.0000     -88.763122     -2415.3673
   2   1.0000     -88.754510     -2415.1330
   3   1.0000     -88.739783     -2414.7323
   4   1.0000     -88.731489     -2414.5066
   5   1.0000     -88.720060     -2414.1956
   6   1.0000     -88.719630     -2414.1839
   7   1.0000     -88.702930     -2413.7294
   8   1.0000     -88.697099     -2413.5708
   9   1.0000     -88.669194     -2412.8114
  10   1.0000     -88.656809     -2412.4744
  11   1.0000     -88.649781     -2412.2832
  12   1.0000     -88.647269     -2412.2148
  13   1.0000     -22.048362      -599.9664
  14   1.0000     -18.907514      -514.4996
  15   1.0000     -18.564410      -505.1633
  16   1.0000     -18.548573      -504.7323
  17   1.0000     -18.548385      -504.7272
  18   1.0000     -10.084433      -274.4114
  19   1.0000     -10.081005      -274.3181
  20   1.0000     -10.060624      -273.7635
  21   1.0000     -10.060498      -273.7601
  22   1.0000     -10.053810      -273.5781
  23   1.0000     -10.049836      -273.4699
  24   1.0000     -10.049544      -273.4620
  25   1.0000     -10.047812      -273.4149
  26   1.0000     -10.047316      -273.4014
  27   1.0000     -10.041955      -273.2555
  28   1.0000     -10.038136      -273.1516
  29   1.0000     -10.036378      -273.1037
  30   1.0000     -10.024589      -272.7829
  31   1.0000     -10.024396      -272.7777
  32   1.0000      -7.828703      -213.0298
  33   1.0000      -7.813325      -212.6114
  34   1.0000      -7.795130      -212.1163
  35   1.0000      -7.788992      -211.9493
  36   1.0000      -7.772943      -211.5125
  37   1.0000      -7.770446      -211.4446
  38   1.0000      -7.753384      -210.9803
  39   1.0000      -7.750295      -210.8962
  40   1.0000      -7.726024      -210.2358
  41   1.0000      -7.712048      -209.8555
  42   1.0000      -7.703126      -209.6127
  43   1.0000      -7.699750      -209.5208
  44   1.0000      -5.792108      -157.6113
  45   1.0000      -5.786864      -157.4686
  46   1.0000      -5.785811      -157.4399
  47   1.0000      -5.777386      -157.2107
  48   1.0000      -5.772717      -157.0836
  49   1.0000      -5.770009      -157.0099
  50   1.0000      -5.759997      -156.7375
  51   1.0000      -5.756169      -156.6333
  52   1.0000      -5.753530      -156.5615
  53   1.0000      -5.750191      -156.4706
  54   1.0000      -5.749355      -156.4479
  55   1.0000      -5.744609      -156.3188
  56   1.0000      -5.737670      -156.1299
  57   1.0000      -5.735678      -156.0757
  58   1.0000      -5.734645      -156.0476
  59   1.0000      -5.731727      -155.9682
  60   1.0000      -5.727995      -155.8667
  61   1.0000      -5.725713      -155.8046
  62   1.0000      -5.718425      -155.6063
  63   1.0000      -5.715000      -155.5131
  64   1.0000      -5.714737      -155.5059
  65   1.0000      -5.711549      -155.4191
  66   1.0000      -5.708574      -155.3382
  67   1.0000      -5.706016      -155.2686
  68   1.0000      -5.690499      -154.8464
  69   1.0000      -5.684418      -154.6809
  70   1.0000      -5.684069      -154.6714
  71   1.0000      -5.676975      -154.4783
  72   1.0000      -5.670867      -154.3121
  73   1.0000      -5.669583      -154.2772
  74   1.0000      -5.668731      -154.2540
  75   1.0000      -5.665701      -154.1716
  76   1.0000      -5.662090      -154.0733
  77   1.0000      -5.660225      -154.0226
  78   1.0000      -5.658798      -153.9837
  79   1.0000      -5.656628      -153.9247
  80   1.0000      -2.412287       -65.6417
  81   1.0000      -1.479050       -40.2470
  82   1.0000      -1.425141       -38.7801
  83   1.0000      -1.423891       -38.7461
  84   1.0000      -0.760130       -20.6842
  85   1.0000      -0.728111       -19.8129
  86   1.0000      -0.697688       -18.9851
  87   1.0000      -0.696251       -18.9460
  88   1.0000      -0.671066       -18.2606
  89   1.0000      -0.637439       -17.3456
  90   1.0000      -0.633568       -17.2403
  91   1.0000      -0.628690       -17.1075
  92   1.0000      -0.618755       -16.8372
  93   1.0000      -0.600572       -16.3424
  94   1.0000      -0.586747       -15.9662
  95   1.0000      -0.555457       -15.1147
  96   1.0000      -0.546141       -14.8613
  97   1.0000      -0.508718       -13.8429
  98   1.0000      -0.504718       -13.7341
  99   1.0000      -0.491573       -13.3764
 100   1.0000      -0.488464       -13.2918
 101   1.0000      -0.481040       -13.0898
 102   1.0000      -0.469913       -12.7870
 103   1.0000      -0.444759       -12.1025
 104   1.0000      -0.432728       -11.7751
 105   1.0000      -0.416624       -11.3369
 106   1.0000      -0.403996       -10.9933
 107   1.0000      -0.387723       -10.5505
 108   1.0000      -0.370905       -10.0928
 109   1.0000      -0.343115        -9.3366
 110   1.0000      -0.333487        -9.0746
 111   1.0000      -0.319759        -8.7011
 112   1.0000      -0.310820        -8.4579
 113   1.0000      -0.295766        -8.0482
 114   1.0000      -0.288752        -7.8573
 115   1.0000      -0.286840        -7.8053
 116   1.0000      -0.277880        -7.5615
 117   1.0000      -0.275435        -7.4950
 118   1.0000      -0.269356        -7.3295
 119   1.0000      -0.250432        -6.8146
 120   1.0000      -0.245345        -6.6762
 121   1.0000      -0.239528        -6.5179
 122   1.0000      -0.237532        -6.4636
 123   1.0000      -0.232047        -6.3143
 124   1.0000      -0.227137        -6.1807
 125   1.0000      -0.222195        -6.0462
 126   1.0000      -0.221635        -6.0310
 127   1.0000      -0.219745        -5.9796
 128   1.0000      -0.216009        -5.8779
 129   1.0000      -0.196996        -5.3605
 130   1.0000      -0.192778        -5.2458
 131   1.0000      -0.187446        -5.1007
 132   1.0000      -0.178077        -4.8457
 133   1.0000      -0.175098        -4.7647
 134   1.0000      -0.161110        -4.3840
 135   1.0000      -0.153158        -4.1677
 136   1.0000      -0.150089        -4.0841
 137   1.0000      -0.145274        -3.9531
 138   1.0000      -0.142580        -3.8798
 139   1.0000      -0.136748        -3.7211
 140   1.0000      -0.130664        -3.5555
 141   1.0000      -0.127149        -3.4599
 142   1.0000      -0.121167        -3.2971
 143   1.0000      -0.115761        -3.1500
 144   1.0000      -0.101947        -2.7741
 145   1.0000      -0.084179        -2.2906
 146   1.0000      -0.083040        -2.2596
 147   1.0000      -0.073568        -2.0019
 148   1.0000      -0.065714        -1.7882
 149   1.0000      -0.065499        -1.7823
 150   1.0000      -0.057338        -1.5602
 151   1.0000      -0.054232        -1.4757
 152   1.0000      -0.048231        -1.3124
 153   1.0000      -0.044890        -1.2215
 154   1.0000      -0.041861        -1.1391
 155   1.0000      -0.037557        -1.0220
 156   1.0000      -0.028465        -0.7746
 157   1.0000      -0.018374        -0.5000
 158   1.0000       0.011701         0.3184
 159   1.0000       0.027549         0.7497
 160   0.0000       0.106251         2.8912
 161   0.0000       0.121562         3.3079
 162   0.0000       0.126377         3.4389
 163   0.0000       0.137191         3.7332
 164   0.0000       0.145964         3.9719

MULLIKEN ATOMIC CHARGES AND SPIN POPULATIONS
--------------------------------------------
   0 V :    0.453526    1.210306
   1 S :   -0.326418   -0.026041
   2 S :   -0.221572   -0.025403
   3 S :   -0.157760   -0.019650
   4 S :   -0.317273   -0.026643
   5 O :   -0.458524   -0.147900
   6 C :   -0.017471    0.007524
   7 C :   -0.152428    0.010617
   8 C :   -0.210660    0.011901
   9 C :    0.015027    0.005286
  10 S :   -0.045783   -0.000533
  11 S :    0.279656   -0.000631
  12 S :   -0.150341    0.000602
  13 S :    0.410174   -0.000222
  14 C :   -0.168132    0.001146
  15 C :   -0.130471   -0.000515
  16 C :   -0.251495    0.000358
  17 C :   -0.314406    0.000263
  18 S :    0.090034   -0.000101
  19 S :   -0.097203   -0.000173
  20 S :   -0.187212   -0.000329
  21 S :    0.139402   -0.000087
  22 C :   -0.279474    0.000028
  23 C :   -0.277068   -0.000016
  24 C :   -0.169191   -0.000010
  25 H :    0.134291    0.000007
  26 H :    0.093906   -0.000002
  27 H :    0.081542   -0.000008
  28 H :    0.084303    0.000001
  29 H :    0.105172   -0.000010
  30 H :    0.124101   -0.000009
  31 C :   -0.293874    0.000134
  32 C :   -0.293443    0.000290
  33 C :   -0.159826   -0.000227
  34 H :    0.141739   -0.000022
  35 H :    0.108991    0.000042
  36 H :    0.090370    0.000024
  37 H :    0.083268    0.000011
  38 H :    0.111257    0.000002
  39 H :    0.133267   -0.000011
Sum of atomic charges         :   -2.0000000

LOEWDIN ATOMIC CHARGES AND SPIN POPULATIONS
-------------------------------------------
   0 V :   -0.159323    1.163322
   1 S :    0.017588   -0.017276
   2 S :    0.143786   -0.016621
   3 S :    0.219798   -0.012662
   4 S :    0.046137   -0.016811
   5 O :   -0.313534   -0.132697
   6 C :   -0.506106    0.007216
   7 C :   -0.590348    0.010260
   8 C :   -0.620149    0.012208
   9 C :   -0.473800    0.006080
  10 S :    0.315635   -0.001091
  11 S :    0.656094   -0.000727
  12 S :    0.197319   -0.000253
  13 S :    0.801649   -0.000527
  14 C :   -0.473384   -0.000006
  15 C :   -0.496378   -0.001192
  16 C :   -0.632530    0.000727
  17 C :   -0.655321    0.000488
  18 S :    0.441150   -0.000058
  19 S :    0.260918   -0.000147
  20 S :    0.174858   -0.000298
  21 S :    0.503380   -0.000096
  22 C :   -0.296579    0.000028
  23 C :   -0.296818   -0.000012
  24 C :   -0.177146   -0.000002
  25 H :    0.062379    0.000001
  26 H :    0.045605    0.000001
  27 H :    0.056075   -0.000006
  28 H :    0.057354   -0.000000
  29 H :    0.048239   -0.000008
  30 H :    0.052901   -0.000011
  31 C :   -0.291085    0.000013
  32 C :   -0.283848    0.000128
  33 C :   -0.176525    0.000007
  34 H :    0.063867    0.000001
  35 H :    0.051995    0.000017
  36 H :    0.059711    0.000005
  37 H :    0.057711    0.000001
  38 H :    0.051743    0.000002
  39 H :    0.056982   -0.000002

  Mayer bond orders larger than 0.100000
B(  0-V ,  1-S ) :   0.8159 B(  0-V ,  2-S ) :   0.7582 B(  0-V ,  3-S ) :   0.7053
B(  0-V ,  4-S ) :   0.8051 B(  0-V ,  5-O ) :   2.1552 B(  1-S ,  8-C ) :   0.9605
B(  2-S ,  6-C ) :   1.1966 B(  3-S ,  9-C ) :   1.3158 B(  4-S ,  7-C ) :   1.0270
B(  6-C ,  7-C ) :   1.6472 B(  6-C , 10-S ) :   0.9016 B(  7-C , 11-S ) :   0.9739
B(  8-C ,  9-C ) :   1.5995 B(  8-C , 13-S ) :   1.0085 B(  9-C , 12-S ) :   0.8466
B( 10-S , 14-C ) :   1.0293 B( 11-S , 14-C ) :   1.4278 B( 12-S , 15-C ) :   0.8835
B( 13-S , 15-C ) :   1.6099 B( 13-S , 17-C ) :   0.1308 B( 14-C , 16-C ) :   1.4533
B( 15-C , 17-C ) :   1.2960 B( 16-C , 18-S ) :   1.2754 B( 16-C , 19-S ) :   0.9199
B( 17-C , 20-S ) :   0.7846 B( 17-C , 21-S ) :   1.5013 B( 18-S , 32-C ) :   0.9191
B( 19-S , 31-C ) :   1.0306 B( 20-S , 23-C ) :   1.0367 B( 21-S , 22-C ) :   0.8423
B( 22-C , 24-C ) :   0.9346 B( 22-C , 25-H ) :   0.9696 B( 22-C , 26-H ) :   0.9570
B( 23-C , 24-C ) :   0.9009 B( 23-C , 29-H ) :   0.9669 B( 23-C , 30-H ) :   0.9702
B( 24-C , 27-H ) :   0.9666 B( 24-C , 28-H ) :   0.9706 B( 31-C , 33-C ) :   0.9036
B( 31-C , 38-H ) :   0.9665 B( 31-C , 39-H ) :   0.9686 B( 32-C , 33-C ) :   0.9273
B( 32-C , 34-H ) :   0.9669 B( 32-C , 35-H ) :   0.9620 B( 33-C , 36-H ) :   0.9711
B( 33-C , 37-H ) :   0.9635

FINAL SINGLE POINT ENERGY     -6337.374860299527

DIPOLE MOMENT
-------------
                                X             Y             Z
Electronic contribution:    -11.16614      -7.97739      -1.39108
Nuclear contribution   :     12.94006       7.78261       1.06331
                        -----------------------------------------
Total Dipole Moment    :      1.77392      -0.19478      -0.32777
                        -----------------------------------------
Magnitude (a.u.)       :      1.81444
Magnitude (Debye)      :      4.61193

Rotational constants in cm-1:     0.010733     0.000804     0.000783
Rotational constants in MHz :   321.752464    24.115230    23.481516

                             ****ORCA TERMINATED NORMALLY****
TOTAL RUN TIME: 0 days 1 hours 7 minutes 21 seconds 384 msec
