                         Program Version 5.0.4 -  RELEASE  -
|  1> ! nofrozencore ReducedPop printbasis
|  2> ! B3LYP TZVP
|  3>
|  4> %basis
|  5> newgto V "CP(PPP)" end
|  6> end
|  7>
|  8> %pal
|  9> nprocs 8
| 10> end
| 11>
| 12> % sym SymThresh 1e-2 end
| 13> * xyz -2 2
| 14> V -0.6594669563370794 -0.06673766487713927 0.8942380396769394
| 15> S -1.3086019629187786 -2.1158742568735978 -0.32924111464049965
| 16> S 1.43977803775336 -1.2696764242840297 1.4154233552949465
| 17> S -2.0051131208610005 1.1559644371320175 -0.7860807158689989
| 18> S 0.7354567436739854 1.9670354042293563 0.8554105072085046
| 19> O -1.4825617327316158 -0.050100687330207144 2.252714088859674
| 20> C 2.407237141930625 0.11041626238292845 1.9730413509280695
| 21> C 2.1373245141997215 1.355975019218793 1.7543112150004965
| 22> C -2.5280474324738895 -1.416575654154684 -1.4518432619299524
| 23> C -2.7764756905846175 -0.23770933648781825 -1.6178556121802699
| 24> S 3.939359252842831 -0.25608448326899425 2.8588595374700416
| 25> S 3.3280648803985895 2.5783139172356258 2.3440404701164206
| 26> S -4.026338523175314 0.21686854890761495 -2.8647470763100777
| 27> S -3.4308220277960118 -2.6391924944014966 -2.4595229073872167
| 28> C 4.530810613171359 1.4392905433604195 3.0642902383300843
| 29> C -4.4425055343448685 -1.4805584873818167 -3.514255830063157
| 30> C 5.586806264076068 1.7697027600699127 3.6117430641931536
| 31> C -5.109829934058957 -1.7274696347508143 -4.281072644041669
| 32> S 6.7414939741850795 0.5914763710137109 4.376572785618641
| 33> S 6.131177853053381 3.495600690037404 3.7857756200390114
| 34> S -5.484909212655375 -3.4533084507139495 -4.9016445719706985
| 35> S -6.0807644272567 -0.5164214551623545 -5.327862705845047
| 36> C -5.345159495638383 -0.8558240129833813 -6.987083014017641
| 37> C -4.848351921896159 -3.3283902550450732 -6.630723788013479
| 38> C -5.542544344929746 -2.2785114627707377 -7.485053126145641
| 39> H -4.31753019106233 -0.4240951396719237 -7.041285510793674
| 40> H -5.6372531385271465 -0.06032281902888411 -7.718849863520228
| 41> H -5.064881302777617 -2.325506531958277 -8.473563403826168
| 42> H -6.615606553480605 -2.4901926281978493 -7.463667727005775
| 43> H -4.7920428059481255 -4.340731117241063 -7.100280328890542
| 44> H -3.734751978815498 -3.328793015666123 -6.6232869141654405
| 45> C 6.123777903287274 3.6310733769507175 5.63021216584262
| 46> C 6.634369737659721 1.1705855850686677 6.12994420395262
| 47> C 7.038374335843713 2.628374446779363 6.3297356372410105
| 48> H 5.640422467126913 0.926374229763868 6.526390571825467
| 49> H 7.232024624443425 0.4839420053877193 6.745758209915047
| 50> H 8.057186538988518 2.762782144388206 5.954998242991759
| 51> H 6.98735044833356 2.8367528615508553 7.406728047555805
| 52> H 6.380612416323002 4.667222658128043 5.884893369390131
| 53> H 5.0863622643629745 3.594649255503386 5.982041775000347
| 54> *
| 55>
| 56> % eprnmr
| 57> gtensor true
| 58> Nuclei = all H {aiso,adip,aorb,fgrad,rho}
| 59> Nuclei = all V {aiso,adip,aorb,fgrad,rho}
| 60> end
| 61>
| 62>                          ****END OF INPUT****

CARTESIAN COORDINATES (ANGSTROEM)
---------------------------------
  V     -0.655882   -0.066149    0.893013
  S     -1.305017   -2.115286   -0.330466
  S      1.443363   -1.269088    1.414198
  S     -2.001528    1.156553   -0.787306
  S      0.739042    1.967624    0.854185
  O     -1.478977   -0.049512    2.251489
  C      2.410822    0.111005    1.971816
  C      2.140910    1.356563    1.753086
  C     -2.524462   -1.415987   -1.453068
  C     -2.772891   -0.237121   -1.619081
  S      3.942944   -0.255496    2.857634
  S      3.331650    2.578902    2.342815
  S     -4.022754    0.217457   -2.865972
  S     -3.427237   -2.638604   -2.460748
  C      4.534396    1.439879    3.063065
  C     -4.438921   -1.479970   -3.515481
  C      5.590391    1.770291    3.610518
  C     -5.106245   -1.726881   -4.282298
  S      6.745079    0.592065    4.375348
  S      6.134763    3.496189    3.784551
  S     -5.481324   -3.452720   -4.902870
  S     -6.077179   -0.515833   -5.329088
  C     -5.341574   -0.855236   -6.988308
  C     -4.844767   -3.327802   -6.631949
  C     -5.538959   -2.277923   -7.486278
  H     -4.313945   -0.423507   -7.042511
  H     -5.633668   -0.059734   -7.720075
  H     -5.061296   -2.324918   -8.474788
  H     -6.612022   -2.489604   -7.464893
  H     -4.788458   -4.340143   -7.101505
  H     -3.731167   -3.328205   -6.624512
  C      6.127363    3.631662    5.628987
  C      6.637955    1.171174    6.128719
  C      7.041959    2.628963    6.328511
  H      5.644007    0.926963    6.525166
  H      7.235610    0.484530    6.744533
  H      8.060772    2.763371    5.953773
  H      6.990935    2.837341    7.405503
  H      6.384197    4.667811    5.883668
  H      5.089947    3.595238    5.980817

 Total Charge           Charge          ....   -2
 Multiplicity           Mult            ....    2
 Number of Electrons    NEL             ....  321
 Basis Dimension        Dim             ....  681

ORBITAL ENERGIES
----------------
                 SPIN UP ORBITALS
  NO   OCC          E(Eh)            E(eV)
   0   1.0000    -196.667796     -5351.6028
   1   1.0000     -88.742801     -2414.8144
   2   1.0000     -88.742781     -2414.8138
   3   1.0000     -88.737688     -2414.6752
   4   1.0000     -88.737539     -2414.6712
   5   1.0000     -88.721201     -2414.2266
   6   1.0000     -88.721061     -2414.2228
   7   1.0000     -88.717286     -2414.1201
   8   1.0000     -88.717218     -2414.1182
   9   1.0000     -88.632731     -2411.8192
  10   1.0000     -88.632552     -2411.8144
  11   1.0000     -88.632446     -2411.8115
  12   1.0000     -88.631891     -2411.7964
  13   1.0000     -22.043210      -599.8262
  14   1.0000     -18.883057      -513.8341
  15   1.0000     -18.549759      -504.7646
  16   1.0000     -18.544422      -504.6194
  17   1.0000     -18.544358      -504.6176
  18   1.0000     -10.077559      -274.2243
  19   1.0000     -10.077252      -274.2160
  20   1.0000     -10.068834      -273.9869
  21   1.0000     -10.068641      -273.9816
  22   1.0000     -10.064302      -273.8636
  23   1.0000     -10.061334      -273.7828
  24   1.0000     -10.056668      -273.6558
  25   1.0000     -10.045935      -273.3638
  26   1.0000     -10.039769      -273.1960
  27   1.0000     -10.030580      -272.9460
  28   1.0000     -10.006696      -272.2961
  29   1.0000     -10.005412      -272.2611
  30   1.0000      -9.998089      -272.0618
  31   1.0000      -9.995886      -272.0019
  32   1.0000      -7.795736      -212.1327
  33   1.0000      -7.795718      -212.1323
  34   1.0000      -7.790876      -212.0005
  35   1.0000      -7.790765      -211.9975
  36   1.0000      -7.774093      -211.5438
  37   1.0000      -7.773989      -211.5410
  38   1.0000      -7.769517      -211.4193
  39   1.0000      -7.769464      -211.4179
  40   1.0000      -7.686817      -209.1689
  41   1.0000      -7.686528      -209.1611
  42   1.0000      -7.686122      -209.1500
  43   1.0000      -7.685643      -209.1370
  44   1.0000      -5.760824      -156.7600
  45   1.0000      -5.760810      -156.7596
  46   1.0000      -5.757650      -156.6736
  47   1.0000      -5.757630      -156.6731
  48   1.0000      -5.755927      -156.6267
  49   1.0000      -5.755817      -156.6237
  50   1.0000      -5.752607      -156.5364
  51   1.0000      -5.752482      -156.5330
  52   1.0000      -5.750072      -156.4674
  53   1.0000      -5.750055      -156.4670
  54   1.0000      -5.745452      -156.3417
  55   1.0000      -5.745348      -156.3389
  56   1.0000      -5.739436      -156.1780
  57   1.0000      -5.739335      -156.1752
  58   1.0000      -5.735446      -156.0694
  59   1.0000      -5.735401      -156.0682
  60   1.0000      -5.734724      -156.0498
  61   1.0000      -5.734614      -156.0468
  62   1.0000      -5.730302      -155.9294
  63   1.0000      -5.730241      -155.9278
  64   1.0000      -5.729441      -155.9060
  65   1.0000      -5.729334      -155.9031
  66   1.0000      -5.724200      -155.7634
  67   1.0000      -5.724147      -155.7620
  68   1.0000      -5.652268      -153.8060
  69   1.0000      -5.652033      -153.7996
  70   1.0000      -5.651804      -153.7934
  71   1.0000      -5.651301      -153.7797
  72   1.0000      -5.645499      -153.6218
  73   1.0000      -5.645231      -153.6145
  74   1.0000      -5.644894      -153.6054
  75   1.0000      -5.644421      -153.5925
  76   1.0000      -5.643983      -153.5806
  77   1.0000      -5.643682      -153.5724
  78   1.0000      -5.643089      -153.5563
  79   1.0000      -5.642590      -153.5427
  80   1.0000      -2.436762       -66.3077
  81   1.0000      -1.478248       -40.2252
  82   1.0000      -1.466240       -39.8984
  83   1.0000      -1.465573       -39.8803
  84   1.0000      -0.731985       -19.9183
  85   1.0000      -0.715300       -19.4643
  86   1.0000      -0.689682       -18.7672
  87   1.0000      -0.684013       -18.6130
  88   1.0000      -0.653777       -17.7902
  89   1.0000      -0.642971       -17.4961
  90   1.0000      -0.640397       -17.4261
  91   1.0000      -0.622922       -16.9506
  92   1.0000      -0.619926       -16.8690
  93   1.0000      -0.573118       -15.5953
  94   1.0000      -0.571196       -15.5430
  95   1.0000      -0.561192       -15.2708
  96   1.0000      -0.551035       -14.9944
  97   1.0000      -0.520188       -14.1550
  98   1.0000      -0.508609       -13.8400
  99   1.0000      -0.500905       -13.6303
 100   1.0000      -0.497445       -13.5362
 101   1.0000      -0.468295       -12.7430
 102   1.0000      -0.464145       -12.6300
 103   1.0000      -0.460144       -12.5212
 104   1.0000      -0.453428       -12.3384
 105   1.0000      -0.432007       -11.7555
 106   1.0000      -0.418638       -11.3917
 107   1.0000      -0.351766        -9.5720
 108   1.0000      -0.351673        -9.5695
 109   1.0000      -0.334283        -9.0963
 110   1.0000      -0.331447        -9.0191
 111   1.0000      -0.323218        -8.7952
 112   1.0000      -0.314218        -8.5503
 113   1.0000      -0.304203        -8.2778
 114   1.0000      -0.301125        -8.1940
 115   1.0000      -0.296877        -8.0784
 116   1.0000      -0.290831        -7.9139
 117   1.0000      -0.269238        -7.3263
 118   1.0000      -0.260748        -7.0953
 119   1.0000      -0.254149        -6.9157
 120   1.0000      -0.254078        -6.9138
 121   1.0000      -0.244262        -6.6467
 122   1.0000      -0.238545        -6.4912
 123   1.0000      -0.237643        -6.4666
 124   1.0000      -0.236695        -6.4408
 125   1.0000      -0.220817        -6.0087
 126   1.0000      -0.218912        -5.9569
 127   1.0000      -0.213569        -5.8115
 128   1.0000      -0.210842        -5.7373
 129   1.0000      -0.187917        -5.1135
 130   1.0000      -0.186543        -5.0761
 131   1.0000      -0.186151        -5.0654
 132   1.0000      -0.182327        -4.9614
 133   1.0000      -0.180358        -4.9078
 134   1.0000      -0.161584        -4.3969
 135   1.0000      -0.153814        -4.1855
 136   1.0000      -0.143088        -3.8936
 137   1.0000      -0.136311        -3.7092
 138   1.0000      -0.120342        -3.2747
 139   1.0000      -0.120095        -3.2679
 140   1.0000      -0.112066        -3.0495
 141   1.0000      -0.105957        -2.8832
 142   1.0000      -0.105833        -2.8799
 143   1.0000      -0.103931        -2.8281
 144   1.0000      -0.100811        -2.7432
 145   1.0000      -0.097367        -2.6495
 146   1.0000      -0.088923        -2.4197
 147   1.0000      -0.082390        -2.2420
 148   1.0000      -0.070339        -1.9140
 149   1.0000      -0.070180        -1.9097
 150   1.0000      -0.068600        -1.8667
 151   1.0000      -0.046265        -1.2589
 152   1.0000      -0.044224        -1.2034
 153   1.0000      -0.040132        -1.0921
 154   1.0000      -0.036534        -0.9941
 155   1.0000      -0.028830        -0.7845
 156   1.0000      -0.014864        -0.4045
 157   1.0000      -0.012288        -0.3344
 158   1.0000      -0.004811        -0.1309
 159   1.0000       0.018059         0.4914
 160   1.0000       0.040887         1.1126
 161   0.0000       0.127622         3.4728
 162   0.0000       0.141879         3.8607
 163   0.0000       0.142691         3.8828
 164   0.0000       0.153046         4.1646
 165   0.0000       0.159913         4.3515

                 SPIN DOWN ORBITALS
  NO   OCC          E(Eh)            E(eV)
   0   1.0000    -196.667944     -5351.6068
   1   1.0000     -88.742804     -2414.8145
   2   1.0000     -88.742784     -2414.8139
   3   1.0000     -88.737689     -2414.6753
   4   1.0000     -88.737540     -2414.6712
   5   1.0000     -88.721208     -2414.2268
   6   1.0000     -88.721069     -2414.2230
   7   1.0000     -88.717294     -2414.1203
   8   1.0000     -88.717226     -2414.1185
   9   1.0000     -88.632871     -2411.8230
  10   1.0000     -88.632694     -2411.8182
  11   1.0000     -88.632584     -2411.8152
  12   1.0000     -88.632030     -2411.8002
  13   1.0000     -22.028304      -599.4206
  14   1.0000     -18.886838      -513.9370
  15   1.0000     -18.544509      -504.6218
  16   1.0000     -18.528423      -504.1840
  17   1.0000     -18.528253      -504.1794
  18   1.0000     -10.077559      -274.2243
  19   1.0000     -10.077252      -274.2160
  20   1.0000     -10.068834      -273.9869
  21   1.0000     -10.068640      -273.9816
  22   1.0000     -10.064302      -273.8636
  23   1.0000     -10.061330      -273.7827
  24   1.0000     -10.056667      -273.6558
  25   1.0000     -10.045928      -273.3636
  26   1.0000     -10.039767      -273.1960
  27   1.0000     -10.030578      -272.9459
  28   1.0000     -10.006453      -272.2894
  29   1.0000     -10.005178      -272.2547
  30   1.0000      -9.997856      -272.0555
  31   1.0000      -9.995656      -271.9956
  32   1.0000      -7.795738      -212.1328
  33   1.0000      -7.795721      -212.1324
  34   1.0000      -7.790877      -212.0005
  35   1.0000      -7.790766      -211.9975
  36   1.0000      -7.774102      -211.5441
  37   1.0000      -7.773998      -211.5412
  38   1.0000      -7.769527      -211.4196
  39   1.0000      -7.769474      -211.4181
  40   1.0000      -7.686948      -209.1725
  41   1.0000      -7.686660      -209.1646
  42   1.0000      -7.686250      -209.1535
  43   1.0000      -7.685772      -209.1405
  44   1.0000      -5.760829      -156.7601
  45   1.0000      -5.760815      -156.7597
  46   1.0000      -5.757655      -156.6738
  47   1.0000      -5.757634      -156.6732
  48   1.0000      -5.755929      -156.6268
  49   1.0000      -5.755818      -156.6238
  50   1.0000      -5.752609      -156.5364
  51   1.0000      -5.752483      -156.5330
  52   1.0000      -5.750074      -156.4675
  53   1.0000      -5.750057      -156.4670
  54   1.0000      -5.745453      -156.3417
  55   1.0000      -5.745349      -156.3389
  56   1.0000      -5.739445      -156.1782
  57   1.0000      -5.739344      -156.1755
  58   1.0000      -5.735453      -156.0696
  59   1.0000      -5.735407      -156.0684
  60   1.0000      -5.734739      -156.0502
  61   1.0000      -5.734629      -156.0472
  62   1.0000      -5.730319      -155.9299
  63   1.0000      -5.730258      -155.9282
  64   1.0000      -5.729447      -155.9062
  65   1.0000      -5.729342      -155.9033
  66   1.0000      -5.724207      -155.7636
  67   1.0000      -5.724154      -155.7622
  68   1.0000      -5.652409      -153.8099
  69   1.0000      -5.652177      -153.8036
  70   1.0000      -5.651952      -153.7974
  71   1.0000      -5.651448      -153.7837
  72   1.0000      -5.645888      -153.6324
  73   1.0000      -5.645615      -153.6250
  74   1.0000      -5.645255      -153.6152
  75   1.0000      -5.644790      -153.6026
  76   1.0000      -5.644069      -153.5829
  77   1.0000      -5.643776      -153.5749
  78   1.0000      -5.643187      -153.5589
  79   1.0000      -5.642688      -153.5453
  80   1.0000      -2.391940       -65.0880
  81   1.0000      -1.459016       -39.7019
  82   1.0000      -1.403955       -38.2036
  83   1.0000      -1.403868       -38.2012
  84   1.0000      -0.731992       -19.9185
  85   1.0000      -0.715287       -19.4640
  86   1.0000      -0.689669       -18.7668
  87   1.0000      -0.683965       -18.6116
  88   1.0000      -0.653716       -17.7885
  89   1.0000      -0.650770       -17.7084
  90   1.0000      -0.640439       -17.4272
  91   1.0000      -0.622930       -16.9508
  92   1.0000      -0.619928       -16.8691
  93   1.0000      -0.573100       -15.5948
  94   1.0000      -0.571130       -15.5412
  95   1.0000      -0.561159       -15.2699
  96   1.0000      -0.551012       -14.9938
  97   1.0000      -0.520159       -14.1542
  98   1.0000      -0.508606       -13.8399
  99   1.0000      -0.500920       -13.6307
 100   1.0000      -0.497459       -13.5366
 101   1.0000      -0.468553       -12.7500
 102   1.0000      -0.464151       -12.6302
 103   1.0000      -0.460445       -12.5293
 104   1.0000      -0.453441       -12.3388
 105   1.0000      -0.432066       -11.7571
 106   1.0000      -0.418753       -11.3948
 107   1.0000      -0.351765        -9.5720
 108   1.0000      -0.351666        -9.5693
 109   1.0000      -0.334285        -9.0964
 110   1.0000      -0.331444        -9.0191
 111   1.0000      -0.323221        -8.7953
 112   1.0000      -0.314219        -8.5503
 113   1.0000      -0.304136        -8.2760
 114   1.0000      -0.301053        -8.1921
 115   1.0000      -0.296876        -8.0784
 116   1.0000      -0.290827        -7.9138
 117   1.0000      -0.269196        -7.3252
 118   1.0000      -0.260689        -7.0937
 119   1.0000      -0.254077        -6.9138
 120   1.0000      -0.254047        -6.9130
 121   1.0000      -0.244086        -6.6419
 122   1.0000      -0.238532        -6.4908
 123   1.0000      -0.237638        -6.4665
 124   1.0000      -0.236652        -6.4396
 125   1.0000      -0.220359        -5.9963
 126   1.0000      -0.218811        -5.9542
 127   1.0000      -0.213119        -5.7993
 128   1.0000      -0.210738        -5.7345
 129   1.0000      -0.187149        -5.0926
 130   1.0000      -0.186410        -5.0725
 131   1.0000      -0.185854        -5.0573
 132   1.0000      -0.181364        -4.9352
 133   1.0000      -0.180239        -4.9046
 134   1.0000      -0.161391        -4.3917
 135   1.0000      -0.153161        -4.1677
 136   1.0000      -0.142832        -3.8867
 137   1.0000      -0.136133        -3.7044
 138   1.0000      -0.120111        -3.2684
 139   1.0000      -0.118929        -3.2362
 140   1.0000      -0.111936        -3.0459
 141   1.0000      -0.107914        -2.9365
 142   1.0000      -0.106768        -2.9053
 143   1.0000      -0.104334        -2.8391
 144   1.0000      -0.100523        -2.7354
 145   1.0000      -0.097916        -2.6644
 146   1.0000      -0.089009        -2.4220
 147   1.0000      -0.082501        -2.2450
 148   1.0000      -0.070291        -1.9127
 149   1.0000      -0.068604        -1.8668
 150   1.0000      -0.066545        -1.8108
 151   1.0000      -0.046371        -1.2618
 152   1.0000      -0.041576        -1.1313
 153   1.0000      -0.039064        -1.0630
 154   1.0000      -0.036875        -1.0034
 155   1.0000      -0.028253        -0.7688
 156   1.0000      -0.015764        -0.4290
 157   1.0000      -0.005037        -0.1371
 158   1.0000       0.018360         0.4996
 159   1.0000       0.039636         1.0785
 160   0.0000       0.128392         3.4937
 161   0.0000       0.141874         3.8606
 162   0.0000       0.142701         3.8831
 163   0.0000       0.153000         4.1633
 164   0.0000       0.159338         4.3358

MULLIKEN ATOMIC CHARGES AND SPIN POPULATIONS
--------------------------------------------
   0 V :    0.479772    1.210078
   1 S :   -0.313695   -0.023096
   2 S :   -0.302389   -0.025392
   3 S :   -0.312006   -0.023970
   4 S :   -0.297901   -0.025843
   5 O :   -0.471014   -0.146431
   6 C :   -0.057556    0.010108
   7 C :   -0.066146    0.008563
   8 C :   -0.037023    0.009061
   9 C :   -0.038937    0.008665
  10 S :    0.059886   -0.000555
  11 S :    0.061358   -0.000608
  12 S :    0.020826   -0.000610
  13 S :    0.020129   -0.000569
  14 C :   -0.303089    0.002007
  15 C :   -0.562309    0.002041
  16 C :   -0.049355   -0.000935
  17 C :    0.271937   -0.001557
  18 S :    0.008236   -0.000152
  19 S :    0.007720   -0.000153
  20 S :    0.003446   -0.000352
  21 S :    0.004630   -0.000357
  22 C :   -0.325474    0.000008
  23 C :   -0.323422    0.000007
  24 C :   -0.144988   -0.000003
  25 H :    0.144175   -0.000010
  26 H :    0.126290   -0.000019
  27 H :    0.075437    0.000000
  28 H :    0.113231    0.000000
  29 H :    0.126240   -0.000019
  30 H :    0.144868   -0.000010
  31 C :   -0.308057    0.000132
  32 C :   -0.311487    0.000127
  33 C :   -0.156453   -0.000169
  34 H :    0.145488   -0.000014
  35 H :    0.119849    0.000007
  36 H :    0.101166    0.000014
  37 H :    0.081007    0.000011
  38 H :    0.119759    0.000009
  39 H :    0.145852   -0.000015
Sum of atomic charges         :   -2.0000000

LOEWDIN ATOMIC CHARGES AND SPIN POPULATIONS
-------------------------------------------
   0 V :   -0.155563    1.163217
   1 S :    0.054565   -0.015004
   2 S :    0.066617   -0.016264
   3 S :    0.055618   -0.015726
   4 S :    0.070782   -0.016459
   5 O :   -0.320532   -0.131416
   6 C :   -0.540011    0.009410
   7 C :   -0.542188    0.008456
   8 C :   -0.525088    0.009193
   9 C :   -0.525372    0.008738
  10 S :    0.433192   -0.000828
  11 S :    0.434272   -0.000884
  12 S :    0.396098   -0.000844
  13 S :    0.395508   -0.000858
  14 C :   -0.447200    0.000081
  15 C :   -0.436487   -0.000102
  16 C :   -0.564597    0.000226
  17 C :   -0.486952    0.000020
  18 S :    0.355432   -0.000136
  19 S :    0.356407   -0.000135
  20 S :    0.345257   -0.000328
  21 S :    0.345471   -0.000332
  22 C :   -0.307563   -0.000006
  23 C :   -0.305709   -0.000006
  24 C :   -0.168172   -0.000001
  25 H :    0.067915   -0.000008
  26 H :    0.066213   -0.000016
  27 H :    0.065336   -0.000000
  28 H :    0.069294   -0.000000
  29 H :    0.065480   -0.000015
  30 H :    0.067356   -0.000008
  31 C :   -0.288406    0.000017
  32 C :   -0.290069    0.000013
  33 C :   -0.172397    0.000004
  34 H :    0.063267   -0.000003
  35 H :    0.057244    0.000002
  36 H :    0.064128    0.000002
  37 H :    0.060690    0.000001
  38 H :    0.056963    0.000002
  39 H :    0.063199   -0.000003

  Mayer bond orders larger than 0.100000
B(  0-V ,  1-S ) :   0.7704 B(  0-V ,  2-S ) :   0.7687 B(  0-V ,  3-S ) :   0.7637
B(  0-V ,  4-S ) :   0.7761 B(  0-V ,  5-O ) :   2.1469 B(  1-S ,  8-C ) :   1.0669
B(  2-S ,  6-C ) :   1.0878 B(  3-S ,  9-C ) :   1.0681 B(  4-S ,  7-C ) :   1.0885
B(  6-C ,  7-C ) :   1.7678 B(  6-C , 10-S ) :   0.9138 B(  7-C , 11-S ) :   0.9180
B(  8-C ,  9-C ) :   1.8962 B(  8-C , 13-S ) :   0.8879 B(  9-C , 12-S ) :   0.8901
B( 10-S , 14-C ) :   1.2395 B( 11-S , 14-C ) :   1.2398 B( 12-S , 15-C ) :   1.2331
B( 12-S , 17-C ) :  -0.1934 B( 13-S , 15-C ) :   1.2341 B( 13-S , 17-C ) :  -0.1941
B( 14-C , 16-C ) :   1.5776 B( 15-C , 17-C ) :   1.6596 B( 16-C , 18-S ) :   1.0469
B( 16-C , 19-S ) :   1.0505 B( 17-C , 20-S ) :   0.9867 B( 17-C , 21-S ) :   0.9852
B( 18-S , 32-C ) :   0.9994 B( 19-S , 31-C ) :   0.9993 B( 20-S , 23-C ) :   1.0156
B( 21-S , 22-C ) :   1.0163 B( 22-C , 24-C ) :   0.9240 B( 22-C , 25-H ) :   0.9542
B( 22-C , 26-H ) :   0.9588 B( 23-C , 24-C ) :   0.9227 B( 23-C , 29-H ) :   0.9595
B( 23-C , 30-H ) :   0.9553 B( 24-C , 27-H ) :   0.9536 B( 24-C , 28-H ) :   0.9810
B( 31-C , 33-C ) :   0.9138 B( 31-C , 38-H ) :   0.9650 B( 31-C , 39-H ) :   0.9641
B( 32-C , 33-C ) :   0.9154 B( 32-C , 34-H ) :   0.9632 B( 32-C , 35-H ) :   0.9647
B( 33-C , 36-H ) :   0.9762 B( 33-C , 37-H ) :   0.9593

FINAL SINGLE POINT ENERGY     -6337.465366529113

DIPOLE MOMENT
-------------
                                X             Y             Z
Electronic contribution:    -10.60142      -2.28711       8.23868
Nuclear contribution   :     11.70212       2.47839      -9.63317
                        -----------------------------------------
Total Dipole Moment    :      1.10070       0.19128      -1.39449
                        -----------------------------------------
Magnitude (a.u.)       :      1.78682
Magnitude (Debye)      :      4.54173

Rotational constants in cm-1:     0.010766     0.000805     0.000784
Rotational constants in MHz :   322.756045    24.119854    23.492966

                             ****ORCA TERMINATED NORMALLY****
TOTAL RUN TIME: 0 days 1 hours 1 minutes 58 seconds 339 msec
