                         Program Version 5.0.4 -  RELEASE  -
|  1> ! nofrozencore ReducedPop printbasis
|  2> ! B3LYP TZVP
|  3>
|  4> %basis
|  5> newgto V "CP(PPP)" end
|  6> end
|  7>
|  8> %pal
|  9> nprocs 6
| 10> end
| 11>
| 12> % sym SymThresh 1e-2 end
| 13> * xyz -2 2
| 14> V 0.4865514337545953 -0.9651960904972477 -0.2657626913172285
| 15> S 0.25053470568457303 0.07835276886192653 -2.4960463113358324
| 16> S 2.277060557165744 0.7001648408468597 0.11836917997065081
| 17> S -1.9415942046791415 -1.4252066682268547 -0.41875446860312066
| 18> S 0.01585936832525971 -0.7363148849861559 2.144822869453361
| 19> O 1.2379453722956957 -2.349838520507391 -0.4716438860128557
| 20> C 2.4360518900187675 0.5369005607468168 1.8699821270300272
| 21> C 1.5445610760217905 -0.025336664685055858 2.667044937207291
| 22> C -1.3916695641870265 -0.3820930716128058 -2.9176017078165386
| 23> C -2.2695545423194874 -0.9812810384772868 -2.084419890537634
| 24> S 3.8883533768315597 1.2536593767766375 2.6596225212145472
| 25> S 1.8907950329070389 0.013710472219363274 4.432849732778182
| 26> S -3.908858007787055 -1.2967144356927174 -2.744037373415518
| 27> S -1.9938710022452906 0.003896654209131275 -4.564542929830689
| 28> C 3.441112126910461 0.8878658497554198 4.346090919533766
| 29> C -3.6465984701335423 -0.5707816919498133 -4.33097609292162
| 30> C 4.165992281683418 1.2135477703096438 5.396043431729649
| 31> C -4.627943091668694 -0.472046473177652 -5.291222897827548
| 32> S 5.75315933177338 2.044037039454104 5.261134868804124
| 33> S 3.6625075272756527 0.821843750209831 7.075130367017573
| 34> S -4.3160115658525795 0.27132095846200727 -6.877536787023027
| 35> S -6.28624178017995 -1.048617291903668 -4.997927282140131
| 36> C -7.16092341384106 0.5774098042772677 -5.142125346462532
| 37> C -5.492207215446204 1.6954398199197391 -6.7416210565008905
| 38> C -6.946592213007767 1.2814120242587466 -6.487272931941354
| 39> H -6.8564690399698005 1.2020152701063767 -4.298329906782948
| 40> H -8.221362180480773 0.3600722131296303 -4.981691124755364
| 41> H -7.519658282908325 2.2192203973488405 -6.430279300079202
| 42> H -7.220775311176758 0.5659735414563749 -7.272409633918084
| 43> H -5.404325267271883 2.243159043435127 -7.684809302087522
| 44> H -5.1177366048071065 2.37216011009345 -5.969314448916966
| 45> C 5.039567223223705 -0.3225908121672795 7.53620560149148
| 46> C 6.830844891629981 0.7210399501508337 5.975094155877719
| 47> C 6.40485725585621 0.31778910009522243 7.374373935566648
| 48> H 6.707599732736554 -0.17910859938574056 5.362136117591626
| 49> H 7.816298387366224 1.1893970064492383 6.036978993299444
| 50> H 6.784417341175918 1.0085269515965911 8.270321476978738
| 51> H 7.2765883325306735 -0.11621422560426964 8.08364295572174
| 52> H 4.874387035321119 -0.5189225438389022 8.598427300462692
| 53> H 5.025668030600385 -1.1636797199175737 6.833836044453423
| 54> *
| 55>
| 56> % eprnmr
| 57> gtensor true
| 58> Nuclei = all H {aiso,adip,aorb,fgrad,rho}
| 59> Nuclei = all V {aiso,adip,aorb,fgrad,rho}
| 60> end
| 61>
| 62>                          ****END OF INPUT****

CARTESIAN COORDINATES (ANGSTROEM)
---------------------------------
  V      0.486672   -0.962151   -0.263437
  S      0.250655    0.081398   -2.493721
  S      2.277181    0.703210    0.120695
  S     -1.941474   -1.422161   -0.416429
  S      0.015980   -0.733269    2.147149
  O      1.238066   -2.346793   -0.469318
  C      2.436172    0.539946    1.872308
  C      1.544682   -0.022291    2.669371
  C     -1.391549   -0.379048   -2.915276
  C     -2.269434   -0.978236   -2.082094
  S      3.888474    1.256705    2.661948
  S      1.890915    0.016756    4.435175
  S     -3.908738   -1.293669   -2.741712
  S     -1.993751    0.006942   -4.562217
  C      3.441233    0.890911    4.348417
  C     -3.646478   -0.567736   -4.328650
  C      4.166113    1.216593    5.398369
  C     -4.627823   -0.469001   -5.288897
  S      5.753280    2.047083    5.263461
  S      3.662628    0.824889    7.077456
  S     -4.315891    0.274366   -6.875211
  S     -6.286121   -1.045572   -4.995602
  C     -7.160803    0.580455   -5.139800
  C     -5.492087    1.698485   -6.739295
  C     -6.946472    1.284458   -6.484947
  H     -6.856349    1.205061   -4.296004
  H     -8.221242    0.363118   -4.979365
  H     -7.519538    2.222266   -6.427954
  H     -7.220655    0.569019   -7.270084
  H     -5.404205    2.246205   -7.682484
  H     -5.117616    2.375206   -5.966989
  C      5.039688   -0.319545    7.538531
  C      6.830965    0.724085    5.977420
  C      6.404978    0.320835    7.376700
  H      6.707720   -0.176063    5.364462
  H      7.816419    1.192443    6.039305
  H      6.784538    1.011572    8.272647
  H      7.276709   -0.113169    8.085969
  H      4.874508   -0.515877    8.600753
  H      5.025788   -1.160634    6.836162

 Total Charge           Charge          ....   -2
 Multiplicity           Mult            ....    2
 Number of Electrons    NEL             ....  321
 Basis Dimension        Dim             ....  681

ORBITAL ENERGIES
----------------
                 SPIN UP ORBITALS
  NO   OCC          E(Eh)            E(eV)
   0   1.0000    -196.673752     -5351.7649
   1   1.0000     -88.734524     -2414.5891
   2   1.0000     -88.734454     -2414.5873
   3   1.0000     -88.732342     -2414.5298
   4   1.0000     -88.732280     -2414.5281
   5   1.0000     -88.729643     -2414.4563
   6   1.0000     -88.729562     -2414.4541
   7   1.0000     -88.728037     -2414.4126
   8   1.0000     -88.727867     -2414.4080
   9   1.0000     -88.638949     -2411.9884
  10   1.0000     -88.638465     -2411.9753
  11   1.0000     -88.638319     -2411.9713
  12   1.0000     -88.638046     -2411.9639
  13   1.0000     -22.049139      -599.9876
  14   1.0000     -18.889024      -513.9965
  15   1.0000     -18.555602      -504.9236
  16   1.0000     -18.550407      -504.7823
  17   1.0000     -18.550310      -504.7796
  18   1.0000     -10.075493      -274.1681
  19   1.0000     -10.073139      -274.1040
  20   1.0000     -10.073053      -274.1017
  21   1.0000     -10.072665      -274.0911
  22   1.0000     -10.069916      -274.0163
  23   1.0000     -10.061632      -273.7909
  24   1.0000     -10.061591      -273.7898
  25   1.0000     -10.052098      -273.5315
  26   1.0000     -10.049345      -273.4566
  27   1.0000     -10.047419      -273.4042
  28   1.0000     -10.017516      -272.5905
  29   1.0000     -10.016750      -272.5696
  30   1.0000     -10.014760      -272.5155
  31   1.0000     -10.013692      -272.4864
  32   1.0000      -7.788158      -211.9266
  33   1.0000      -7.788079      -211.9244
  34   1.0000      -7.785786      -211.8620
  35   1.0000      -7.785715      -211.8601
  36   1.0000      -7.782950      -211.7848
  37   1.0000      -7.782908      -211.7837
  38   1.0000      -7.781108      -211.7347
  39   1.0000      -7.780988      -211.7315
  40   1.0000      -7.693253      -209.3440
  41   1.0000      -7.692833      -209.3326
  42   1.0000      -7.692521      -209.3241
  43   1.0000      -7.692199      -209.3154
  44   1.0000      -5.753192      -156.5523
  45   1.0000      -5.753113      -156.5502
  46   1.0000      -5.750757      -156.4861
  47   1.0000      -5.750693      -156.4843
  48   1.0000      -5.749751      -156.4587
  49   1.0000      -5.749680      -156.4567
  50   1.0000      -5.747870      -156.4075
  51   1.0000      -5.747830      -156.4064
  52   1.0000      -5.747343      -156.3932
  53   1.0000      -5.747274      -156.3913
  54   1.0000      -5.746202      -156.3621
  55   1.0000      -5.746080      -156.3588
  56   1.0000      -5.743459      -156.2875
  57   1.0000      -5.743410      -156.2861
  58   1.0000      -5.742812      -156.2699
  59   1.0000      -5.742729      -156.2676
  60   1.0000      -5.741679      -156.2390
  61   1.0000      -5.741554      -156.2356
  62   1.0000      -5.740621      -156.2103
  63   1.0000      -5.740548      -156.2083
  64   1.0000      -5.738791      -156.1605
  65   1.0000      -5.738752      -156.1594
  66   1.0000      -5.736755      -156.1050
  67   1.0000      -5.736629      -156.1016
  68   1.0000      -5.658546      -153.9769
  69   1.0000      -5.658131      -153.9656
  70   1.0000      -5.657901      -153.9593
  71   1.0000      -5.657600      -153.9511
  72   1.0000      -5.651920      -153.7966
  73   1.0000      -5.651496      -153.7850
  74   1.0000      -5.651177      -153.7763
  75   1.0000      -5.650883      -153.7683
  76   1.0000      -5.650586      -153.7603
  77   1.0000      -5.650162      -153.7487
  78   1.0000      -5.649776      -153.7382
  79   1.0000      -5.649415      -153.7284
  80   1.0000      -2.442760       -66.4709
  81   1.0000      -1.484080       -40.3839
  82   1.0000      -1.472385       -40.0656
  83   1.0000      -1.471575       -40.0436
  84   1.0000      -0.713309       -19.4101
  85   1.0000      -0.708351       -19.2752
  86   1.0000      -0.686819       -18.6893
  87   1.0000      -0.684792       -18.6341
  88   1.0000      -0.648663       -17.6510
  89   1.0000      -0.636154       -17.3106
  90   1.0000      -0.629752       -17.1364
  91   1.0000      -0.622421       -16.9369
  92   1.0000      -0.615806       -16.7569
  93   1.0000      -0.574370       -15.6294
  94   1.0000      -0.573734       -15.6121
  95   1.0000      -0.571957       -15.5637
  96   1.0000      -0.570372       -15.5206
  97   1.0000      -0.505238       -13.7482
  98   1.0000      -0.497365       -13.5340
  99   1.0000      -0.495154       -13.4738
 100   1.0000      -0.493457       -13.4277
 101   1.0000      -0.478782       -13.0283
 102   1.0000      -0.474923       -12.9233
 103   1.0000      -0.455091       -12.3836
 104   1.0000      -0.444507       -12.0957
 105   1.0000      -0.420008       -11.4290
 106   1.0000      -0.411201       -11.1893
 107   1.0000      -0.373934       -10.1753
 108   1.0000      -0.354320        -9.6415
 109   1.0000      -0.324742        -8.8367
 110   1.0000      -0.323389        -8.7999
 111   1.0000      -0.319088        -8.6828
 112   1.0000      -0.314715        -8.5638
 113   1.0000      -0.307084        -8.3562
 114   1.0000      -0.304716        -8.2917
 115   1.0000      -0.296151        -8.0587
 116   1.0000      -0.289303        -7.8723
 117   1.0000      -0.264585        -7.1997
 118   1.0000      -0.262036        -7.1304
 119   1.0000      -0.255635        -6.9562
 120   1.0000      -0.255250        -6.9457
 121   1.0000      -0.243189        -6.6175
 122   1.0000      -0.231094        -6.2884
 123   1.0000      -0.229469        -6.2442
 124   1.0000      -0.228254        -6.2111
 125   1.0000      -0.220230        -5.9928
 126   1.0000      -0.217059        -5.9065
 127   1.0000      -0.210978        -5.7410
 128   1.0000      -0.203533        -5.5384
 129   1.0000      -0.190883        -5.1942
 130   1.0000      -0.186921        -5.0864
 131   1.0000      -0.184612        -5.0235
 132   1.0000      -0.179500        -4.8844
 133   1.0000      -0.158751        -4.3198
 134   1.0000      -0.155912        -4.2426
 135   1.0000      -0.150379        -4.0920
 136   1.0000      -0.144888        -3.9426
 137   1.0000      -0.132940        -3.6175
 138   1.0000      -0.131033        -3.5656
 139   1.0000      -0.128671        -3.5013
 140   1.0000      -0.123459        -3.3595
 141   1.0000      -0.118515        -3.2249
 142   1.0000      -0.112193        -3.0529
 143   1.0000      -0.108647        -2.9564
 144   1.0000      -0.098604        -2.6832
 145   1.0000      -0.097326        -2.6484
 146   1.0000      -0.095843        -2.6080
 147   1.0000      -0.094783        -2.5792
 148   1.0000      -0.073686        -2.0051
 149   1.0000      -0.067637        -1.8405
 150   1.0000      -0.066779        -1.8171
 151   1.0000      -0.051004        -1.3879
 152   1.0000      -0.044634        -1.2146
 153   1.0000      -0.038908        -1.0587
 154   1.0000      -0.035875        -0.9762
 155   1.0000      -0.031343        -0.8529
 156   1.0000      -0.023657        -0.6437
 157   1.0000      -0.018016        -0.4902
 158   1.0000      -0.013685        -0.3724
 159   1.0000       0.020416         0.5555
 160   1.0000       0.041615         1.1324
 161   0.0000       0.133921         3.6442
 162   0.0000       0.137908         3.7527
 163   0.0000       0.139938         3.8079
 164   0.0000       0.163758         4.4561
 165   0.0000       0.169446         4.6109

                 SPIN DOWN ORBITALS
  NO   OCC          E(Eh)            E(eV)
   0   1.0000    -196.673899     -5351.7689
   1   1.0000     -88.734525     -2414.5892
   2   1.0000     -88.734455     -2414.5873
   3   1.0000     -88.732342     -2414.5298
   4   1.0000     -88.732281     -2414.5281
   5   1.0000     -88.729651     -2414.4566
   6   1.0000     -88.729570     -2414.4544
   7   1.0000     -88.728045     -2414.4128
   8   1.0000     -88.727875     -2414.4082
   9   1.0000     -88.639086     -2411.9921
  10   1.0000     -88.638604     -2411.9790
  11   1.0000     -88.638460     -2411.9751
  12   1.0000     -88.638189     -2411.9677
  13   1.0000     -22.034212      -599.5814
  14   1.0000     -18.892796      -514.0991
  15   1.0000     -18.550340      -504.7804
  16   1.0000     -18.534379      -504.3461
  17   1.0000     -18.534194      -504.3411
  18   1.0000     -10.075493      -274.1681
  19   1.0000     -10.073138      -274.1040
  20   1.0000     -10.073053      -274.1017
  21   1.0000     -10.072660      -274.0910
  22   1.0000     -10.069915      -274.0163
  23   1.0000     -10.061632      -273.7909
  24   1.0000     -10.061591      -273.7898
  25   1.0000     -10.052098      -273.5315
  26   1.0000     -10.049336      -273.4563
  27   1.0000     -10.047415      -273.4041
  28   1.0000     -10.017302      -272.5846
  29   1.0000     -10.016539      -272.5639
  30   1.0000     -10.014521      -272.5090
  31   1.0000     -10.013465      -272.4802
  32   1.0000      -7.788159      -211.9266
  33   1.0000      -7.788080      -211.9244
  34   1.0000      -7.785787      -211.8620
  35   1.0000      -7.785715      -211.8601
  36   1.0000      -7.782959      -211.7851
  37   1.0000      -7.782917      -211.7839
  38   1.0000      -7.781117      -211.7350
  39   1.0000      -7.780998      -211.7317
  40   1.0000      -7.693380      -209.3475
  41   1.0000      -7.692962      -209.3361
  42   1.0000      -7.692653      -209.3277
  43   1.0000      -7.692332      -209.3190
  44   1.0000      -5.753193      -156.5523
  45   1.0000      -5.753114      -156.5502
  46   1.0000      -5.750758      -156.4861
  47   1.0000      -5.750694      -156.4843
  48   1.0000      -5.749752      -156.4587
  49   1.0000      -5.749681      -156.4568
  50   1.0000      -5.747881      -156.4078
  51   1.0000      -5.747841      -156.4067
  52   1.0000      -5.747344      -156.3932
  53   1.0000      -5.747274      -156.3913
  54   1.0000      -5.746212      -156.3624
  55   1.0000      -5.746090      -156.3591
  56   1.0000      -5.743473      -156.2878
  57   1.0000      -5.743424      -156.2865
  58   1.0000      -5.742813      -156.2699
  59   1.0000      -5.742730      -156.2676
  60   1.0000      -5.741694      -156.2394
  61   1.0000      -5.741567      -156.2360
  62   1.0000      -5.740622      -156.2103
  63   1.0000      -5.740549      -156.2083
  64   1.0000      -5.738797      -156.1606
  65   1.0000      -5.738758      -156.1596
  66   1.0000      -5.736762      -156.1052
  67   1.0000      -5.736638      -156.1019
  68   1.0000      -5.658687      -153.9807
  69   1.0000      -5.658272      -153.9694
  70   1.0000      -5.658041      -153.9631
  71   1.0000      -5.657743      -153.9550
  72   1.0000      -5.652269      -153.8060
  73   1.0000      -5.651854      -153.7948
  74   1.0000      -5.651568      -153.7870
  75   1.0000      -5.651269      -153.7788
  76   1.0000      -5.650692      -153.7631
  77   1.0000      -5.650268      -153.7516
  78   1.0000      -5.649864      -153.7406
  79   1.0000      -5.649510      -153.7310
  80   1.0000      -2.397889       -65.2499
  81   1.0000      -1.464808       -39.8594
  82   1.0000      -1.410010       -38.3683
  83   1.0000      -1.409866       -38.3644
  84   1.0000      -0.713291       -19.4096
  85   1.0000      -0.708335       -19.2748
  86   1.0000      -0.686760       -18.6877
  87   1.0000      -0.684750       -18.6330
  88   1.0000      -0.656745       -17.8709
  89   1.0000      -0.636070       -17.3084
  90   1.0000      -0.629696       -17.1349
  91   1.0000      -0.622422       -16.9370
  92   1.0000      -0.615808       -16.7570
  93   1.0000      -0.574347       -15.6288
  94   1.0000      -0.573656       -15.6100
  95   1.0000      -0.571891       -15.5619
  96   1.0000      -0.570342       -15.5198
  97   1.0000      -0.505246       -13.7484
  98   1.0000      -0.497393       -13.5347
  99   1.0000      -0.495200       -13.4751
 100   1.0000      -0.493485       -13.4284
 101   1.0000      -0.478979       -13.0337
 102   1.0000      -0.475192       -12.9306
 103   1.0000      -0.455115       -12.3843
 104   1.0000      -0.444543       -12.0966
 105   1.0000      -0.420041       -11.4299
 106   1.0000      -0.411292       -11.1918
 107   1.0000      -0.373930       -10.1752
 108   1.0000      -0.354314        -9.6414
 109   1.0000      -0.324738        -8.8366
 110   1.0000      -0.323350        -8.7988
 111   1.0000      -0.319024        -8.6811
 112   1.0000      -0.314734        -8.5644
 113   1.0000      -0.307045        -8.3551
 114   1.0000      -0.304708        -8.2915
 115   1.0000      -0.296131        -8.0581
 116   1.0000      -0.289299        -7.8722
 117   1.0000      -0.264507        -7.1976
 118   1.0000      -0.261978        -7.1288
 119   1.0000      -0.255542        -6.9536
 120   1.0000      -0.255196        -6.9442
 121   1.0000      -0.243151        -6.6165
 122   1.0000      -0.231029        -6.2866
 123   1.0000      -0.229438        -6.2433
 124   1.0000      -0.228210        -6.2099
 125   1.0000      -0.219977        -5.9859
 126   1.0000      -0.216694        -5.8965
 127   1.0000      -0.210797        -5.7361
 128   1.0000      -0.203400        -5.5348
 129   1.0000      -0.188969        -5.1421
 130   1.0000      -0.186833        -5.0840
 131   1.0000      -0.184410        -5.0180
 132   1.0000      -0.179383        -4.8812
 133   1.0000      -0.158093        -4.3019
 134   1.0000      -0.155787        -4.2392
 135   1.0000      -0.150204        -4.0873
 136   1.0000      -0.144800        -3.9402
 137   1.0000      -0.132381        -3.6023
 138   1.0000      -0.130812        -3.5596
 139   1.0000      -0.128150        -3.4871
 140   1.0000      -0.123080        -3.3492
 141   1.0000      -0.118194        -3.2162
 142   1.0000      -0.113982        -3.1016
 143   1.0000      -0.110182        -2.9982
 144   1.0000      -0.098693        -2.6856
 145   1.0000      -0.097370        -2.6496
 146   1.0000      -0.096051        -2.6137
 147   1.0000      -0.095067        -2.5869
 148   1.0000      -0.069877        -1.9014
 149   1.0000      -0.067634        -1.8404
 150   1.0000      -0.066776        -1.8171
 151   1.0000      -0.048388        -1.3167
 152   1.0000      -0.043673        -1.1884
 153   1.0000      -0.039025        -1.0619
 154   1.0000      -0.035326        -0.9613
 155   1.0000      -0.031389        -0.8541
 156   1.0000      -0.024675        -0.6714
 157   1.0000      -0.013920        -0.3788
 158   1.0000       0.020663         0.5623
 159   1.0000       0.040539         1.1031
 160   0.0000       0.133915         3.6440
 161   0.0000       0.137899         3.7524
 162   0.0000       0.139950         3.8082
 163   0.0000       0.157296         4.2802
 164   0.0000       0.164525         4.4770

MULLIKEN ATOMIC CHARGES AND SPIN POPULATIONS
--------------------------------------------
   0 V :    0.472020    1.210542
   1 S :   -0.290683   -0.022325
   2 S :   -0.294368   -0.025487
   3 S :   -0.288737   -0.023248
   4 S :   -0.290092   -0.025933
   5 O :   -0.468344   -0.146445
   6 C :   -0.069416    0.009866
   7 C :   -0.077385    0.008289
   8 C :   -0.085596    0.007683
   9 C :   -0.086032    0.007351
  10 S :    0.084723   -0.000559
  11 S :    0.086102   -0.000607
  12 S :    0.102594   -0.000382
  13 S :    0.101696   -0.000338
  14 C :   -0.255509    0.001633
  15 C :   -0.212292    0.000975
  16 C :   -0.131614   -0.000380
  17 C :   -0.190766   -0.000380
  18 S :    0.018260   -0.000122
  19 S :    0.018680   -0.000121
  20 S :    0.006591   -0.000065
  21 S :    0.006594   -0.000068
  22 C :   -0.301213   -0.000001
  23 C :   -0.300326   -0.000002
  24 C :   -0.161415   -0.000012
  25 H :    0.141497   -0.000001
  26 H :    0.113664   -0.000004
  27 H :    0.085027   -0.000000
  28 H :    0.095822   -0.000001
  29 H :    0.113379   -0.000005
  30 H :    0.141126   -0.000001
  31 C :   -0.273855    0.000133
  32 C :   -0.274116    0.000129
  33 C :   -0.151338   -0.000120
  34 H :    0.152032   -0.000018
  35 H :    0.111105    0.000025
  36 H :    0.040018    0.000000
  37 H :    0.049010   -0.000009
  38 H :    0.110940    0.000026
  39 H :    0.152215   -0.000018
Sum of atomic charges         :   -2.0000000

LOEWDIN ATOMIC CHARGES AND SPIN POPULATIONS
-------------------------------------------
   0 V :   -0.156080    1.163889
   1 S :    0.080698   -0.014371
   2 S :    0.073967   -0.016320
   3 S :    0.082049   -0.015161
   4 S :    0.077946   -0.016518
   5 O :   -0.319359   -0.131377
   6 C :   -0.544898    0.009190
   7 C :   -0.547080    0.008160
   8 C :   -0.553474    0.008105
   9 C :   -0.553454    0.007645
  10 S :    0.456905   -0.000863
  11 S :    0.457818   -0.000915
  12 S :    0.473768   -0.000820
  13 S :    0.473009   -0.000828
  14 C :   -0.457220    0.000129
  15 C :   -0.466689   -0.000083
  16 C :   -0.603085    0.000351
  17 C :   -0.625763    0.000087
  18 S :    0.356675   -0.000102
  19 S :    0.358268   -0.000099
  20 S :    0.358710   -0.000070
  21 S :    0.358300   -0.000072
  22 C :   -0.286795   -0.000007
  23 C :   -0.286845   -0.000009
  24 C :   -0.174785   -0.000002
  25 H :    0.061495   -0.000001
  26 H :    0.052496   -0.000002
  27 H :    0.062230   -0.000001
  28 H :    0.064760   -0.000001
  29 H :    0.052442   -0.000002
  30 H :    0.061330   -0.000001
  31 C :   -0.276451    0.000029
  32 C :   -0.276071    0.000024
  33 C :   -0.233849    0.000008
  34 H :    0.067609   -0.000001
  35 H :    0.061623    0.000007
  36 H :    0.068348    0.000001
  37 H :    0.072287   -0.000003
  38 H :    0.061694    0.000007
  39 H :    0.067470   -0.000001

  Mayer bond orders larger than 0.100000
B(  0-V ,  1-S ) :   0.7705 B(  0-V ,  2-S ) :   0.7723 B(  0-V ,  3-S ) :   0.7638
B(  0-V ,  4-S ) :   0.7797 B(  0-V ,  5-O ) :   2.1482 B(  1-S ,  8-C ) :   1.1050
B(  2-S ,  6-C ) :   1.0969 B(  3-S ,  9-C ) :   1.1079 B(  4-S ,  7-C ) :   1.0976
B(  6-C ,  7-C ) :   1.7211 B(  6-C , 10-S ) :   0.9262 B(  7-C , 11-S ) :   0.9302
B(  8-C ,  9-C ) :   1.6913 B(  8-C , 13-S ) :   0.9353 B(  9-C , 12-S ) :   0.9370
B( 10-S , 14-C ) :   1.2445 B( 11-S , 14-C ) :   1.2446 B( 12-S , 15-C ) :   1.2482
B( 13-S , 15-C ) :   1.2482 B( 14-C , 16-C ) :   1.5306 B( 15-C , 17-C ) :   1.4396
B( 16-C , 18-S ) :   1.0497 B( 16-C , 19-S ) :   1.0506 B( 17-C , 20-S ) :   1.0863
B( 17-C , 21-S ) :   1.0866 B( 18-S , 32-C ) :   0.9949 B( 19-S , 31-C ) :   0.9952
B( 20-S , 23-C ) :   0.9879 B( 21-S , 22-C ) :   0.9873 B( 22-C , 24-C ) :   0.9146
B( 22-C , 25-H ) :   0.9647 B( 22-C , 26-H ) :   0.9661 B( 23-C , 24-C ) :   0.9149
B( 23-C , 29-H ) :   0.9662 B( 23-C , 30-H ) :   0.9645 B( 24-C , 27-H ) :   0.9619
B( 24-C , 28-H ) :   0.9715 B( 31-C , 33-C ) :   0.9763 B( 31-C , 38-H ) :   0.9574
B( 31-C , 39-H ) :   0.9621 B( 32-C , 33-C ) :   0.9759 B( 32-C , 34-H ) :   0.9620
B( 32-C , 35-H ) :   0.9574 B( 33-C , 36-H ) :   0.8947 B( 33-C , 37-H ) :   0.8962

FINAL SINGLE POINT ENERGY     -6337.635921599867

DIPOLE MOMENT
-------------
                                X             Y             Z
Electronic contribution:      3.65907     -11.64141      -6.46131
Nuclear contribution   :     -3.95068      13.04228       7.39188
                        -----------------------------------------
Total Dipole Moment    :     -0.29161       1.40087       0.93058
                        -----------------------------------------
Magnitude (a.u.)       :      1.70688
Magnitude (Debye)      :      4.33855

Rotational constants in cm-1:     0.010768     0.000804     0.000783
Rotational constants in MHz :   322.820530    24.115989    23.486364

                             ****ORCA TERMINATED NORMALLY****
TOTAL RUN TIME: 0 days 1 hours 6 minutes 32 seconds 331 msec
