                         Program Version 5.0.4 -  RELEASE  -
|  1> ! nofrozencore ReducedPop printbasis
|  2> ! B3LYP TZVP
|  3>
|  4> %basis
|  5> newgto V "CP(PPP)" end
|  6> end
|  7>
|  8> %pal
|  9> nprocs 6
| 10> end
| 11>
| 12> % sym SymThresh 1e-2 end
| 13> * xyz -2 2
| 14> V -0.5444881407866983 0.33360403721647575 -0.9117070754872495
| 15> S 1.1372225865755425 -1.191768631692105 -1.8935705332844512
| 16> S -1.6507781336636906 -1.7197214626508976 -0.0828378740956037
| 17> S 1.318237767036023 1.9468736676158336 -0.6695702556722133
| 18> S -1.3676091546827411 1.386920493410752 1.1614618754299404
| 19> O -1.460007571678786 0.8527981288678093 -2.101877087789431
| 20> C -2.7484040409433494 -1.0001164688062705 1.087843114225459
| 21> C -2.632343051468538 0.24415961819824955 1.5888381089637775
| 22> C 2.5181860957351914 -0.11586377837869802 -2.058400031151566
| 23> C 2.5906260207506664 1.134841615415929 -1.5672650556643999
| 24> S -4.09221300857804 -1.998542894753717 1.7399847877530714
| 25> S -3.824128258041331 0.7180562430329585 2.8441472319157763
| 26> S 4.139131372043153 2.0077407911644283 -1.823840641999352
| 27> S 3.9801041948194236 -0.726933618734768 -2.9052433720790076
| 28> C -4.716375591298707 -0.8068744344963574 2.8871989810449428
| 29> C 4.99409638373772 0.6980657225251173 -2.646412579908569
| 30> C -5.78294897936819 -1.0334656230873962 3.7130472927765132
| 31> C 6.29825837756885 0.7821150590487616 -3.048884139976289
| 32> S -6.6914113729901095 -2.5663950711348056 3.684880286815653
| 33> S -6.365512660037439 0.20463276068166517 4.854750928944646
| 34> S 7.119111390216111 -0.5676353712363034 -3.8731607804867414
| 35> S 7.284861137570621 2.2352443364142016 -2.7445939377313224
| 36> C 8.525262671760135 1.4419188790545963 -1.6189310880776289
| 37> C 8.445075368990477 -0.9218561911336435 -2.6313801886150885
| 38> C 9.30071076094469 0.29534449049785994 -2.2767743256698147
| 39> H 8.215418978676656 1.251592565065108 -1.0013991371402173
| 40> H 9.455982674022986 2.510754466186399 -1.3205424630038023
| 41> H 10.085925385168563 -0.02973565973437605 -1.5814100579683827
| 42> H 9.799765953775184 0.6369815797292412 -3.196820833958079
| 43> H 8.857854663460168 -1.4992323024717173 -2.901773420180205
| 44> H 7.775320844028548 -1.3911286826140448 -1.4435530805653523
| 45> C -8.058273164220337 0.45694732347928907 4.149370595314124
| 46> C -8.332605455647428 -1.8969293859049332 3.148697260934285
| 47> C -8.894158605000834 -0.8229876471390485 4.083226001072211
| 48> H -8.22547680582933 -1.510154826436654 2.131803618403627
| 49> H -9.001565087139495 -2.75954807096034 3.117242228931759
| 50> H -9.00119799530706 -1.2390856498429461 5.089946399304858
| 51> H -9.90053691167598 -0.5559567674017886 3.73134448690812
| 52> H -8.538470862110119 1.1910414876280542 4.802627309317187
| 53> H -7.948896303381341 0.9015799782027701 3.158519293704465
| 54> *
| 55>
| 56> % eprnmr
| 57> gtensor true
| 58> Nuclei = all H {aiso,adip,aorb,fgrad,rho}
| 59> Nuclei = all V {aiso,adip,aorb,fgrad,rho}
| 60> end
| 61>
| 62>                          ****END OF INPUT****

CARTESIAN COORDINATES (ANGSTROEM)
---------------------------------
  V     -0.544864    0.332233   -0.908146
  S      1.136847   -1.193139   -1.890010
  S     -1.651154   -1.721092   -0.079277
  S      1.317862    1.945503   -0.666010
  S     -1.367985    1.385550    1.165023
  O     -1.460383    0.851427   -2.098316
  C     -2.748780   -1.001487    1.091404
  C     -2.632719    0.242789    1.592399
  C      2.517810   -0.117235   -2.054839
  C      2.590250    1.133471   -1.563704
  S     -4.092589   -1.999914    1.743545
  S     -3.824504    0.716685    2.847708
  S      4.138756    2.006370   -1.820280
  S      3.979728   -0.728304   -2.901683
  C     -4.716751   -0.808245    2.890760
  C      4.993721    0.696695   -2.642852
  C     -5.783325   -1.034836    3.716608
  C      6.297883    0.780744   -3.045323
  S     -6.691787   -2.567766    3.688441
  S     -6.365888    0.203262    4.858312
  S      7.118736   -0.569006   -3.869600
  S      7.284485    2.233873   -2.741033
  C      8.524887    1.440548   -1.615370
  C      8.444700   -0.923227   -2.627820
  C      9.300335    0.293974   -2.273214
  H      8.215043    1.250222   -0.997838
  H      9.455607    2.509384   -1.316982
  H     10.085550   -0.031107   -1.577849
  H      9.799390    0.635611   -3.193260
  H      8.857479   -1.500603   -2.898213
  H      7.774945   -1.392500   -1.439992
  C     -8.058649    0.455576    4.152931
  C     -8.332981   -1.898300    3.152258
  C     -8.894534   -0.824359    4.086787
  H     -8.225853   -1.511526    2.135364
  H     -9.001941   -2.760919    3.120803
  H     -9.001574   -1.240457    5.093507
  H     -9.900913   -0.557328    3.734905
  H     -8.538847    1.189671    4.806188
  H     -7.949272    0.900209    3.162080

 Total Charge           Charge          ....   -2
 Multiplicity           Mult            ....    2
 Number of Electrons    NEL             ....  321
 Basis Dimension        Dim             ....  681

ORBITAL ENERGIES
----------------
                 SPIN UP ORBITALS
  NO   OCC          E(Eh)            E(eV)
   0   1.0000    -196.675553     -5351.8139
   1   1.0000     -88.738466     -2414.6964
   2   1.0000     -88.736452     -2414.6416
   3   1.0000     -88.733409     -2414.5588
   4   1.0000     -88.733377     -2414.5579
   5   1.0000     -88.732271     -2414.5279
   6   1.0000     -88.732239     -2414.5270
   7   1.0000     -88.730495     -2414.4795
   8   1.0000     -88.730338     -2414.4753
   9   1.0000     -88.640921     -2412.0421
  10   1.0000     -88.640403     -2412.0280
  11   1.0000     -88.640141     -2412.0209
  12   1.0000     -88.639915     -2412.0147
  13   1.0000     -22.050948      -600.0368
  14   1.0000     -18.890833      -514.0457
  15   1.0000     -18.557394      -504.9724
  16   1.0000     -18.552222      -504.8316
  17   1.0000     -18.552126      -504.8290
  18   1.0000     -10.078407      -274.2474
  19   1.0000     -10.076036      -274.1829
  20   1.0000     -10.063672      -273.8464
  21   1.0000     -10.063603      -273.8446
  22   1.0000     -10.062248      -273.8077
  23   1.0000     -10.062115      -273.8041
  24   1.0000     -10.056148      -273.6417
  25   1.0000     -10.051471      -273.5144
  26   1.0000     -10.051402      -273.5126
  27   1.0000     -10.048506      -273.4338
  28   1.0000     -10.019533      -272.6454
  29   1.0000     -10.018734      -272.6236
  30   1.0000     -10.018539      -272.6183
  31   1.0000     -10.017596      -272.5927
  32   1.0000      -7.791740      -212.0240
  33   1.0000      -7.789588      -211.9655
  34   1.0000      -7.786835      -211.8906
  35   1.0000      -7.786828      -211.8904
  36   1.0000      -7.785510      -211.8545
  37   1.0000      -7.785478      -211.8536
  38   1.0000      -7.783749      -211.8066
  39   1.0000      -7.783619      -211.8031
  40   1.0000      -7.695172      -209.3963
  41   1.0000      -7.694753      -209.3849
  42   1.0000      -7.694465      -209.3770
  43   1.0000      -7.694185      -209.3694
  44   1.0000      -5.756746      -156.6490
  45   1.0000      -5.754606      -156.5908
  46   1.0000      -5.753220      -156.5531
  47   1.0000      -5.751822      -156.5150
  48   1.0000      -5.751812      -156.5148
  49   1.0000      -5.751281      -156.5003
  50   1.0000      -5.750443      -156.4775
  51   1.0000      -5.750440      -156.4774
  52   1.0000      -5.748690      -156.4298
  53   1.0000      -5.748561      -156.4263
  54   1.0000      -5.748418      -156.4224
  55   1.0000      -5.748410      -156.4222
  56   1.0000      -5.746668      -156.3748
  57   1.0000      -5.746013      -156.3570
  58   1.0000      -5.745977      -156.3560
  59   1.0000      -5.744266      -156.3094
  60   1.0000      -5.744252      -156.3090
  61   1.0000      -5.744127      -156.3057
  62   1.0000      -5.741629      -156.2377
  63   1.0000      -5.741627      -156.2376
  64   1.0000      -5.741354      -156.2302
  65   1.0000      -5.741305      -156.2289
  66   1.0000      -5.739574      -156.1817
  67   1.0000      -5.739452      -156.1784
  68   1.0000      -5.660500      -154.0300
  69   1.0000      -5.660073      -154.0184
  70   1.0000      -5.659762      -154.0099
  71   1.0000      -5.659513      -154.0032
  72   1.0000      -5.653841      -153.8488
  73   1.0000      -5.653406      -153.8370
  74   1.0000      -5.653107      -153.8289
  75   1.0000      -5.652842      -153.8217
  76   1.0000      -5.652499      -153.8123
  77   1.0000      -5.652054      -153.8002
  78   1.0000      -5.651791      -153.7931
  79   1.0000      -5.651478      -153.7845
  80   1.0000      -2.444597       -66.5209
  81   1.0000      -1.485900       -40.4334
  82   1.0000      -1.474234       -40.1159
  83   1.0000      -1.473422       -40.0939
  84   1.0000      -0.717152       -19.5147
  85   1.0000      -0.709738       -19.3130
  86   1.0000      -0.693618       -18.8743
  87   1.0000      -0.685875       -18.6636
  88   1.0000      -0.650413       -17.6986
  89   1.0000      -0.642265       -17.4769
  90   1.0000      -0.636733       -17.3264
  91   1.0000      -0.631590       -17.1864
  92   1.0000      -0.617464       -16.8021
  93   1.0000      -0.577215       -15.7068
  94   1.0000      -0.575417       -15.6579
  95   1.0000      -0.574702       -15.6384
  96   1.0000      -0.573360       -15.6019
  97   1.0000      -0.521762       -14.1979
  98   1.0000      -0.508340       -13.8326
  99   1.0000      -0.496479       -13.5099
 100   1.0000      -0.496140       -13.5007
 101   1.0000      -0.482985       -13.1427
 102   1.0000      -0.478355       -13.0167
 103   1.0000      -0.475955       -12.9514
 104   1.0000      -0.446590       -12.1523
 105   1.0000      -0.419920       -11.4266
 106   1.0000      -0.412617       -11.2279
 107   1.0000      -0.355574        -9.6757
 108   1.0000      -0.355144        -9.6640
 109   1.0000      -0.337541        -9.1850
 110   1.0000      -0.326889        -8.8951
 111   1.0000      -0.320380        -8.7180
 112   1.0000      -0.315690        -8.5904
 113   1.0000      -0.305949        -8.3253
 114   1.0000      -0.304101        -8.2750
 115   1.0000      -0.293071        -7.9749
 116   1.0000      -0.292619        -7.9626
 117   1.0000      -0.268132        -7.2962
 118   1.0000      -0.258418        -7.0319
 119   1.0000      -0.256997        -6.9932
 120   1.0000      -0.255945        -6.9646
 121   1.0000      -0.234723        -6.3871
 122   1.0000      -0.233675        -6.3586
 123   1.0000      -0.230900        -6.2831
 124   1.0000      -0.220182        -5.9915
 125   1.0000      -0.218215        -5.9379
 126   1.0000      -0.216514        -5.8916
 127   1.0000      -0.214284        -5.8310
 128   1.0000      -0.201926        -5.4947
 129   1.0000      -0.193923        -5.2769
 130   1.0000      -0.191050        -5.1987
 131   1.0000      -0.186335        -5.0704
 132   1.0000      -0.183727        -4.9995
 133   1.0000      -0.178990        -4.8706
 134   1.0000      -0.160213        -4.3596
 135   1.0000      -0.152198        -4.1415
 136   1.0000      -0.147428        -4.0117
 137   1.0000      -0.136540        -3.7154
 138   1.0000      -0.135705        -3.6927
 139   1.0000      -0.133931        -3.6444
 140   1.0000      -0.125932        -3.4268
 141   1.0000      -0.121885        -3.3167
 142   1.0000      -0.114111        -3.1051
 143   1.0000      -0.110508        -3.0071
 144   1.0000      -0.100823        -2.7435
 145   1.0000      -0.099191        -2.6991
 146   1.0000      -0.098754        -2.6872
 147   1.0000      -0.095454        -2.5974
 148   1.0000      -0.075213        -2.0466
 149   1.0000      -0.070248        -1.9115
 150   1.0000      -0.067687        -1.8418
 151   1.0000      -0.052958        -1.4410
 152   1.0000      -0.046275        -1.2592
 153   1.0000      -0.038818        -1.0563
 154   1.0000      -0.037800        -1.0286
 155   1.0000      -0.032224        -0.8769
 156   1.0000      -0.025716        -0.6998
 157   1.0000      -0.019787        -0.5384
 158   1.0000      -0.016043        -0.4366
 159   1.0000       0.019590         0.5331
 160   1.0000       0.040496         1.1020
 161   0.0000       0.126502         3.4423
 162   0.0000       0.136662         3.7188
 163   0.0000       0.144323         3.9272
 164   0.0000       0.152035         4.1371
 165   0.0000       0.161817         4.4033

                 SPIN DOWN ORBITALS
  NO   OCC          E(Eh)            E(eV)
   0   1.0000    -196.675700     -5351.8179
   1   1.0000     -88.738466     -2414.6964
   2   1.0000     -88.736453     -2414.6416
   3   1.0000     -88.733410     -2414.5588
   4   1.0000     -88.733377     -2414.5580
   5   1.0000     -88.732279     -2414.5281
   6   1.0000     -88.732247     -2414.5272
   7   1.0000     -88.730503     -2414.4797
   8   1.0000     -88.730347     -2414.4755
   9   1.0000     -88.641057     -2412.0458
  10   1.0000     -88.640541     -2412.0318
  11   1.0000     -88.640282     -2412.0247
  12   1.0000     -88.640057     -2412.0186
  13   1.0000     -22.036013      -599.6304
  14   1.0000     -18.894631      -514.1490
  15   1.0000     -18.552122      -504.8289
  16   1.0000     -18.536189      -504.3953
  17   1.0000     -18.536005      -504.3903
  18   1.0000     -10.078407      -274.2474
  19   1.0000     -10.076030      -274.1827
  20   1.0000     -10.063671      -273.8464
  21   1.0000     -10.063602      -273.8445
  22   1.0000     -10.062249      -273.8077
  23   1.0000     -10.062115      -273.8041
  24   1.0000     -10.056148      -273.6417
  25   1.0000     -10.051471      -273.5144
  26   1.0000     -10.051398      -273.5124
  27   1.0000     -10.048495      -273.4334
  28   1.0000     -10.019318      -272.6395
  29   1.0000     -10.018522      -272.6178
  30   1.0000     -10.018300      -272.6118
  31   1.0000     -10.017373      -272.5866
  32   1.0000      -7.791741      -212.0240
  33   1.0000      -7.789588      -211.9655
  34   1.0000      -7.786836      -211.8906
  35   1.0000      -7.786828      -211.8904
  36   1.0000      -7.785520      -211.8548
  37   1.0000      -7.785487      -211.8539
  38   1.0000      -7.783758      -211.8068
  39   1.0000      -7.783629      -211.8033
  40   1.0000      -7.695300      -209.3997
  41   1.0000      -7.694881      -209.3884
  42   1.0000      -7.694597      -209.3806
  43   1.0000      -7.694317      -209.3730
  44   1.0000      -5.756747      -156.6490
  45   1.0000      -5.754607      -156.5908
  46   1.0000      -5.753221      -156.5531
  47   1.0000      -5.751823      -156.5151
  48   1.0000      -5.751813      -156.5148
  49   1.0000      -5.751281      -156.5003
  50   1.0000      -5.750453      -156.4778
  51   1.0000      -5.750450      -156.4777
  52   1.0000      -5.748700      -156.4301
  53   1.0000      -5.748572      -156.4266
  54   1.0000      -5.748419      -156.4224
  55   1.0000      -5.748411      -156.4222
  56   1.0000      -5.746668      -156.3748
  57   1.0000      -5.746027      -156.3573
  58   1.0000      -5.745991      -156.3564
  59   1.0000      -5.744280      -156.3098
  60   1.0000      -5.744253      -156.3091
  61   1.0000      -5.744141      -156.3060
  62   1.0000      -5.741629      -156.2377
  63   1.0000      -5.741628      -156.2376
  64   1.0000      -5.741360      -156.2304
  65   1.0000      -5.741311      -156.2290
  66   1.0000      -5.739582      -156.1820
  67   1.0000      -5.739461      -156.1787
  68   1.0000      -5.660642      -154.0339
  69   1.0000      -5.660214      -154.0223
  70   1.0000      -5.659901      -154.0137
  71   1.0000      -5.659655      -154.0070
  72   1.0000      -5.654190      -153.8583
  73   1.0000      -5.653765      -153.8468
  74   1.0000      -5.653497      -153.8395
  75   1.0000      -5.653227      -153.8321
  76   1.0000      -5.652604      -153.8152
  77   1.0000      -5.652159      -153.8031
  78   1.0000      -5.651878      -153.7954
  79   1.0000      -5.651572      -153.7871
  80   1.0000      -2.399701       -65.2992
  81   1.0000      -1.466584       -39.9078
  82   1.0000      -1.411852       -38.4185
  83   1.0000      -1.411690       -38.4140
  84   1.0000      -0.717146       -19.5145
  85   1.0000      -0.709712       -19.3122
  86   1.0000      -0.693572       -18.8731
  87   1.0000      -0.685819       -18.6621
  88   1.0000      -0.658558       -17.9203
  89   1.0000      -0.642265       -17.4769
  90   1.0000      -0.636679       -17.3249
  91   1.0000      -0.631515       -17.1844
  92   1.0000      -0.617464       -16.8021
  93   1.0000      -0.577192       -15.7062
  94   1.0000      -0.575349       -15.6560
  95   1.0000      -0.574672       -15.6376
  96   1.0000      -0.573277       -15.5997
  97   1.0000      -0.521766       -14.1980
  98   1.0000      -0.508349       -13.8329
  99   1.0000      -0.496498       -13.5104
 100   1.0000      -0.496186       -13.5019
 101   1.0000      -0.483215       -13.1490
 102   1.0000      -0.478598       -13.0233
 103   1.0000      -0.475996       -12.9525
 104   1.0000      -0.446621       -12.1532
 105   1.0000      -0.419941       -11.4272
 106   1.0000      -0.412719       -11.2307
 107   1.0000      -0.355564        -9.6754
 108   1.0000      -0.355138        -9.6638
 109   1.0000      -0.337538        -9.1849
 110   1.0000      -0.326874        -8.8947
 111   1.0000      -0.320311        -8.7161
 112   1.0000      -0.315709        -8.5909
 113   1.0000      -0.305909        -8.3242
 114   1.0000      -0.304065        -8.2740
 115   1.0000      -0.293066        -7.9747
 116   1.0000      -0.292615        -7.9625
 117   1.0000      -0.268053        -7.2941
 118   1.0000      -0.258323        -7.0293
 119   1.0000      -0.256907        -6.9908
 120   1.0000      -0.255901        -6.9634
 121   1.0000      -0.234675        -6.3858
 122   1.0000      -0.233626        -6.3573
 123   1.0000      -0.230860        -6.2820
 124   1.0000      -0.219735        -5.9793
 125   1.0000      -0.218135        -5.9358
 126   1.0000      -0.216434        -5.8895
 127   1.0000      -0.214131        -5.8268
 128   1.0000      -0.201832        -5.4921
 129   1.0000      -0.192267        -5.2318
 130   1.0000      -0.190868        -5.1938
 131   1.0000      -0.186012        -5.0617
 132   1.0000      -0.183540        -4.9944
 133   1.0000      -0.178874        -4.8674
 134   1.0000      -0.159592        -4.3427
 135   1.0000      -0.152031        -4.1370
 136   1.0000      -0.147352        -4.0096
 137   1.0000      -0.135827        -3.6960
 138   1.0000      -0.135478        -3.6865
 139   1.0000      -0.133709        -3.6384
 140   1.0000      -0.125308        -3.4098
 141   1.0000      -0.121551        -3.3076
 142   1.0000      -0.115923        -3.1544
 143   1.0000      -0.112090        -3.0501
 144   1.0000      -0.100862        -2.7446
 145   1.0000      -0.099213        -2.6997
 146   1.0000      -0.099028        -2.6947
 147   1.0000      -0.095778        -2.6062
 148   1.0000      -0.071368        -1.9420
 149   1.0000      -0.070235        -1.9112
 150   1.0000      -0.067690        -1.8419
 151   1.0000      -0.050355        -1.3702
 152   1.0000      -0.045336        -1.2337
 153   1.0000      -0.038854        -1.0573
 154   1.0000      -0.037248        -1.0136
 155   1.0000      -0.032295        -0.8788
 156   1.0000      -0.026749        -0.7279
 157   1.0000      -0.016258        -0.4424
 158   1.0000       0.019896         0.5414
 159   1.0000       0.039383         1.0717
 160   0.0000       0.126512         3.4426
 161   0.0000       0.136671         3.7190
 162   0.0000       0.144288         3.9263
 163   0.0000       0.151816         4.1311
 164   0.0000       0.155850         4.2409

MULLIKEN ATOMIC CHARGES AND SPIN POPULATIONS
--------------------------------------------
   0 V :    0.470721    1.210874
   1 S :   -0.289423   -0.022306
   2 S :   -0.289588   -0.025303
   3 S :   -0.287223   -0.023241
   4 S :   -0.285137   -0.025782
   5 O :   -0.467364   -0.146997
   6 C :   -0.077365    0.009705
   7 C :   -0.084105    0.008057
   8 C :   -0.084046    0.007719
   9 C :   -0.085129    0.007394
  10 S :    0.099695   -0.000587
  11 S :    0.101089   -0.000631
  12 S :    0.104113   -0.000395
  13 S :    0.102803   -0.000343
  14 C :   -0.213162    0.001525
  15 C :   -0.209327    0.000993
  16 C :   -0.191973   -0.000080
  17 C :   -0.191445   -0.000402
  18 S :    0.009162   -0.000113
  19 S :    0.009382   -0.000112
  20 S :    0.018067   -0.000068
  21 S :    0.010595   -0.000072
  22 C :   -0.323329    0.000001
  23 C :   -0.369869   -0.000002
  24 C :   -0.153636   -0.000013
  25 H :    0.259992   -0.000000
  26 H :    0.013193   -0.000001
  27 H :    0.087956    0.000000
  28 H :    0.094882   -0.000000
  29 H :    0.230236   -0.000002
  30 H :    0.062487   -0.000004
  31 C :   -0.299650    0.000194
  32 C :   -0.301078    0.000188
  33 C :   -0.157924   -0.000237
  34 H :    0.142056   -0.000017
  35 H :    0.113824    0.000019
  36 H :    0.092346    0.000023
  37 H :    0.082770    0.000015
  38 H :    0.113248    0.000020
  39 H :    0.142157   -0.000018
Sum of atomic charges         :   -2.0000000

LOEWDIN ATOMIC CHARGES AND SPIN POPULATIONS
-------------------------------------------
   0 V :   -0.155772    1.164225
   1 S :    0.080912   -0.014366
   2 S :    0.079546   -0.016151
   3 S :    0.082464   -0.015152
   4 S :    0.083584   -0.016386
   5 O :   -0.318773   -0.131882
   6 C :   -0.549892    0.009062
   7 C :   -0.552046    0.007958
   8 C :   -0.551667    0.008134
   9 C :   -0.551913    0.007671
  10 S :    0.471332   -0.000900
  11 S :    0.472336   -0.000954
  12 S :    0.475329   -0.000824
  13 S :    0.474011   -0.000829
  14 C :   -0.465049    0.000165
  15 C :   -0.463297   -0.000080
  16 C :   -0.622585    0.000470
  17 C :   -0.621426    0.000084
  18 S :    0.358835   -0.000090
  19 S :    0.360228   -0.000087
  20 S :    0.372784   -0.000072
  21 S :    0.369326   -0.000076
  22 C :   -0.163998   -0.000007
  23 C :   -0.201065   -0.000008
  24 C :   -0.157946   -0.000001
  25 H :   -0.091565   -0.000001
  26 H :    0.056554   -0.000001
  27 H :    0.061100   -0.000001
  28 H :    0.064889   -0.000001
  29 H :   -0.071388   -0.000002
  30 H :    0.069841   -0.000004
  31 C :   -0.283978    0.000043
  32 C :   -0.283803    0.000036
  33 C :   -0.176308    0.000007
  34 H :    0.062278   -0.000001
  35 H :    0.053417    0.000008
  36 H :    0.060260    0.000004
  37 H :    0.057828    0.000002
  38 H :    0.053762    0.000009
  39 H :    0.061853   -0.000000

  Mayer bond orders larger than 0.100000
B(  0-V ,  1-S ) :   0.7701 B(  0-V ,  2-S ) :   0.7724 B(  0-V ,  3-S ) :   0.7637
B(  0-V ,  4-S ) :   0.7797 B(  0-V ,  5-O ) :   2.1489 B(  1-S ,  8-C ) :   1.1054
B(  2-S ,  6-C ) :   1.1039 B(  3-S ,  9-C ) :   1.1080 B(  4-S ,  7-C ) :   1.1044
B(  6-C ,  7-C ) :   1.6845 B(  6-C , 10-S ) :   0.9351 B(  7-C , 11-S ) :   0.9389
B(  8-C ,  9-C ) :   1.6946 B(  8-C , 13-S ) :   0.9349 B(  9-C , 12-S ) :   0.9362
B( 10-S , 14-C ) :   1.2482 B( 11-S , 14-C ) :   1.2481 B( 12-S , 15-C ) :   1.2504
B( 13-S , 15-C ) :   1.2486 B( 14-C , 16-C ) :   1.4518 B( 15-C , 17-C ) :   1.4444
B( 16-C , 18-S ) :   1.0884 B( 16-C , 19-S ) :   1.0897 B( 17-C , 20-S ) :   1.0791
B( 17-C , 21-S ) :   1.0965 B( 18-S , 32-C ) :   0.9917 B( 19-S , 31-C ) :   0.9918
B( 20-S , 23-C ) :   0.9980 B( 21-S , 22-C ) :   0.9844 B( 22-C , 24-C ) :   0.9027
B( 22-C , 25-H ) :   0.9685 B( 22-C , 26-H ) :   0.9270 B( 23-C , 24-C ) :   0.9127
B( 23-C , 29-H ) :   0.9548 B( 23-C , 30-H ) :   0.9451 B( 24-C , 27-H ) :   0.9636
B( 24-C , 28-H ) :   0.9629 B( 31-C , 33-C ) :   0.9136 B( 31-C , 38-H ) :   0.9656
B( 31-C , 39-H ) :   0.9658 B( 32-C , 33-C ) :   0.9131 B( 32-C , 34-H ) :   0.9656
B( 32-C , 35-H ) :   0.9656 B( 33-C , 36-H ) :   0.9718 B( 33-C , 37-H ) :   0.9624

FINAL SINGLE POINT ENERGY     -6337.297542179896

DIPOLE MOMENT
-------------
                                X             Y             Z
Electronic contribution:     -3.75265       3.35058     -12.90136
Nuclear contribution   :      3.94174      -3.86937      14.12973
                        -----------------------------------------
Total Dipole Moment    :      0.18909      -0.51879       1.22837
                        -----------------------------------------
Magnitude (a.u.)       :      1.34677
Magnitude (Debye)      :      3.42322

Rotational constants in cm-1:     0.010760     0.000804     0.000783
Rotational constants in MHz :   322.573155    24.115785    23.486448

                             ****ORCA TERMINATED NORMALLY****
TOTAL RUN TIME: 0 days 1 hours 7 minutes 20 seconds 546 msec
