                         Program Version 5.0.4 -  RELEASE  -
|  1> ! nofrozencore ReducedPop printbasis
|  2> ! B3LYP TZVP
|  3>
|  4> %basis
|  5> newgto V "CP(PPP)" end
|  6> end
|  7>
|  8> %pal
|  9> nprocs 8
| 10> end
| 11>
| 12> % sym SymThresh 1e-2 end
| 13> * xyz -2 2
| 14> V 0.24537479683358912 0.5596847966629103 0.9298306963804065
| 15> S 2.486219177007498 -0.23781060731704004 0.2516711731022432
| 16> S 0.44735244997804474 2.1323947753156847 -0.9709148674724328
| 17> S -0.1803627066059933 -1.757907741614148 1.6893769618083485
| 18> S -2.1660635235747576 0.5314711867076921 0.4107740183475863
| 19> O 0.43841883744284404 1.4495176536922108 2.233837781604764
| 20> C -1.284522974414133 2.623066749662393 -1.0622237436900182
| 21> C -2.2272777722904777 2.043344255371454 -0.5660482072069866
| 22> C 2.24321864362136 -2.0156337628413503 1.1041340081364959
| 23> C 1.699061077421914 -2.3261955590572465 1.3958193669892351
| 24> S -1.6180604837078645 4.107150450505004 -2.0730031174944274
| 25> S -3.906273441402639 2.6858274190843874 -0.8788224844869901
| 26> S 1.690789322878047 -4.143585368479928 2.1317581658742757
| 27> S 4.020180281565581 -2.8171463228601765 0.8915629835831439
| 28> C -3.3579521289492686 4.012235540856526 -1.8837873260139573
| 29> C 3.296352664114017 -4.17263038202459 1.5999232159759276
| 30> C -4.251120183390011 4.940296883523672 -2.4816119636481004
| 31> C 4.174319504372569 -5.546159876940572 1.782531358927605
| 32> S -3.657303143768561 6.300380070608976 -3.4441248252494905
| 33> S -6.000560570482632 4.795176086329223 -2.263418524872167
| 34> S 5.800919579403481 -5.548881742520801 1.2374821398673475
| 35> S 3.4090545417906655 -6.909787088531028 2.489864999329751
| 36> C 3.560165481047141 -8.019041930514257 1.014658605597746
| 37> C 5.58985128774554 -6.869830260624583 -0.04322161743057719
| 38> C 4.98693861534004 -8.16464633713753 0.49378130163269335
| 39> H 2.8797230076997615 -7.658814180909216 0.23826328890438178
| 40> H 3.1521445645469677 -8.978959046710408 1.3436074996558112
| 41> H 4.983379345127706 -8.904623259466783 -0.3177789804608065
| 42> H 5.625075330491861 -8.55921920122089 1.290789837433471
| 43> H 6.5941837756102615 -7.031018238532859 -0.4448876450944819
| 44> H 5.001768371599486 -6.46174899946845 -0.8697012119943954
| 45> C -6.290789148995118 6.3943384657365 -1.3770580512864599
| 46> C -4.2959088557082215 7.670938325682107 -2.374776705423709
| 47> C -5.807696002652199 7.622805947911728 -2.1488400612086633
| 48> H -3.75615672229017 7.642084988515519 -1.4253403547076564
| 49> H -4.013516935048652 8.592948439617551 -2.889550772764857
| 50> H -6.320192406720764 7.6695339899798505 -3.114965340509578
| 51> H -6.09762965115581 8.518566259641554 -1.58199253791508
| 52> H -7.370852859234264 6.441671346657939 -1.2156235716294592
| 53> H -5.810866024920933 6.332030590635333 -0.39756495454700275
| 54> *
| 55>
| 56> % eprnmr
| 57> gtensor true
| 58> Nuclei = all H {aiso,adip,aorb,fgrad,rho}
| 59> Nuclei = all V {aiso,adip,aorb,fgrad,rho}
| 60> end
| 61>
| 62>                          ****END OF INPUT****

CARTESIAN COORDINATES (ANGSTROEM)
---------------------------------
  V      0.243505    0.559811    0.926487
  S      2.484349   -0.237685    0.248327
  S      0.445482    2.132521   -0.974259
  S     -0.182233   -1.757782    1.686033
  S     -2.167934    0.531597    0.407430
  O      0.436549    1.449644    2.230494
  C     -1.286393    2.623193   -1.065568
  C     -2.229148    2.043470   -0.569392
  C      2.241348   -2.015508    1.100790
  C      1.697191   -2.326070    1.392475
  S     -1.619931    4.107276   -2.076347
  S     -3.908144    2.685953   -0.882167
  S      1.688919   -4.143459    2.128414
  S      4.018310   -2.817020    0.888219
  C     -3.359822    4.012361   -1.887132
  C      3.294482   -4.172505    1.596579
  C     -4.252990    4.940423   -2.484956
  C      4.172449   -5.546034    1.779187
  S     -3.659173    6.300506   -3.447469
  S     -6.002431    4.795302   -2.266763
  S      5.799049   -5.548756    1.234138
  S      3.407184   -6.909661    2.486521
  C      3.558295   -8.018916    1.011314
  C      5.587981   -6.869704   -0.046566
  C      4.985068   -8.164520    0.490437
  H      2.877853   -7.658688    0.234919
  H      3.150274   -8.978833    1.340263
  H      4.981509   -8.904497   -0.321123
  H      5.623205   -8.559093    1.287446
  H      6.592314   -7.030892   -0.448232
  H      4.999898   -6.461623   -0.873045
  C     -6.292659    6.394464   -1.380402
  C     -4.297779    7.671064   -2.378121
  C     -5.809566    7.622932   -2.152184
  H     -3.758027    7.642211   -1.428685
  H     -4.015387    8.593074   -2.892895
  H     -6.322063    7.669660   -3.118310
  H     -6.099500    8.518692   -1.585337
  H     -7.372723    6.441797   -1.218968
  H     -5.812736    6.332156   -0.400909

 Total Charge           Charge          ....   -2
 Multiplicity           Mult            ....    2
 Number of Electrons    NEL             ....  321
 Basis Dimension        Dim             ....  681

ORBITAL ENERGIES
----------------
                 SPIN UP ORBITALS
  NO   OCC          E(Eh)            E(eV)
   0   1.0000    -196.681491     -5351.9755
   1   1.0000     -88.736612     -2414.6460
   2   1.0000     -88.736349     -2414.6388
   3   1.0000     -88.734783     -2414.5962
   4   1.0000     -88.734637     -2414.5922
   5   1.0000     -88.734621     -2414.5918
   6   1.0000     -88.734607     -2414.5914
   7   1.0000     -88.725587     -2414.3460
   8   1.0000     -88.725542     -2414.3448
   9   1.0000     -88.643597     -2412.1149
  10   1.0000     -88.643410     -2412.1098
  11   1.0000     -88.642333     -2412.0805
  12   1.0000     -88.641910     -2412.0690
  13   1.0000     -22.057625      -600.2185
  14   1.0000     -18.893228      -514.1109
  15   1.0000     -18.563872      -505.1486
  16   1.0000     -18.559096      -505.0187
  17   1.0000     -18.559027      -505.0168
  18   1.0000     -10.178905      -276.9821
  19   1.0000     -10.087683      -274.4998
  20   1.0000     -10.082750      -274.3656
  21   1.0000     -10.064190      -273.8605
  22   1.0000     -10.064134      -273.8590
  23   1.0000     -10.052599      -273.5451
  24   1.0000     -10.052489      -273.5421
  25   1.0000     -10.051831      -273.5242
  26   1.0000     -10.051806      -273.5235
  27   1.0000     -10.047705      -273.4119
  28   1.0000     -10.044156      -273.3154
  29   1.0000     -10.011499      -272.4267
  30   1.0000     -10.009191      -272.3639
  31   1.0000      -9.978000      -271.5152
  32   1.0000      -7.789990      -211.9764
  33   1.0000      -7.789748      -211.9698
  34   1.0000      -7.788224      -211.9284
  35   1.0000      -7.788192      -211.9275
  36   1.0000      -7.787999      -211.9222
  37   1.0000      -7.787873      -211.9188
  38   1.0000      -7.779621      -211.6942
  39   1.0000      -7.779570      -211.6929
  40   1.0000      -7.695967      -209.4179
  41   1.0000      -7.695841      -209.4145
  42   1.0000      -7.695672      -209.4099
  43   1.0000      -7.695488      -209.4049
  44   1.0000      -5.754761      -156.5950
  45   1.0000      -5.754513      -156.5882
  46   1.0000      -5.753191      -156.5523
  47   1.0000      -5.753168      -156.5516
  48   1.0000      -5.752958      -156.5459
  49   1.0000      -5.752837      -156.5426
  50   1.0000      -5.750685      -156.4841
  51   1.0000      -5.750435      -156.4773
  52   1.0000      -5.749752      -156.4587
  53   1.0000      -5.749725      -156.4580
  54   1.0000      -5.748564      -156.4264
  55   1.0000      -5.748434      -156.4228
  56   1.0000      -5.745719      -156.3490
  57   1.0000      -5.745493      -156.3428
  58   1.0000      -5.744559      -156.3174
  59   1.0000      -5.744513      -156.3161
  60   1.0000      -5.743751      -156.2954
  61   1.0000      -5.743616      -156.2917
  62   1.0000      -5.743070      -156.2769
  63   1.0000      -5.743024      -156.2756
  64   1.0000      -5.740909      -156.2181
  65   1.0000      -5.740860      -156.2168
  66   1.0000      -5.734684      -156.0487
  67   1.0000      -5.734634      -156.0473
  68   1.0000      -5.662996      -154.0980
  69   1.0000      -5.662869      -154.0945
  70   1.0000      -5.661674      -154.0620
  71   1.0000      -5.661218      -154.0496
  72   1.0000      -5.654679      -153.8716
  73   1.0000      -5.654247      -153.8599
  74   1.0000      -5.654223      -153.8592
  75   1.0000      -5.654075      -153.8552
  76   1.0000      -5.652931      -153.8241
  77   1.0000      -5.652415      -153.8100
  78   1.0000      -5.651945      -153.7972
  79   1.0000      -5.651739      -153.7916
  80   1.0000      -2.448026       -66.6142
  81   1.0000      -1.489034       -40.5187
  82   1.0000      -1.476876       -40.1878
  83   1.0000      -1.476594       -40.1802
  84   1.0000      -0.713760       -19.4224
  85   1.0000      -0.706636       -19.2286
  86   1.0000      -0.693181       -18.8624
  87   1.0000      -0.687806       -18.7161
  88   1.0000      -0.652604       -17.7583
  89   1.0000      -0.636416       -17.3178
  90   1.0000      -0.619091       -16.8463
  91   1.0000      -0.616269       -16.7695
  92   1.0000      -0.611975       -16.6527
  93   1.0000      -0.584559       -15.9067
  94   1.0000      -0.573373       -15.6023
  95   1.0000      -0.572402       -15.5759
  96   1.0000      -0.561908       -15.2903
  97   1.0000      -0.496405       -13.5079
  98   1.0000      -0.491996       -13.3879
  99   1.0000      -0.489387       -13.3169
 100   1.0000      -0.474451       -12.9105
 101   1.0000      -0.471660       -12.8345
 102   1.0000      -0.452667       -12.3177
 103   1.0000      -0.447121       -12.1668
 104   1.0000      -0.443468       -12.0674
 105   1.0000      -0.430060       -11.7025
 106   1.0000      -0.401364       -10.9217
 107   1.0000      -0.357826        -9.7369
 108   1.0000      -0.350045        -9.5252
 109   1.0000      -0.330411        -8.9909
 110   1.0000      -0.328410        -8.9365
 111   1.0000      -0.320488        -8.7209
 112   1.0000      -0.313659        -8.5351
 113   1.0000      -0.313031        -8.5180
 114   1.0000      -0.303624        -8.2620
 115   1.0000      -0.292934        -7.9711
 116   1.0000      -0.288122        -7.8402
 117   1.0000      -0.284884        -7.7521
 118   1.0000      -0.275837        -7.5059
 119   1.0000      -0.259134        -7.0514
 120   1.0000      -0.258380        -7.0309
 121   1.0000      -0.248906        -6.7731
 122   1.0000      -0.236311        -6.4303
 123   1.0000      -0.233610        -6.3569
 124   1.0000      -0.231723        -6.3055
 125   1.0000      -0.227398        -6.1878
 126   1.0000      -0.220463        -5.9991
 127   1.0000      -0.219037        -5.9603
 128   1.0000      -0.218925        -5.9573
 129   1.0000      -0.200495        -5.4557
 130   1.0000      -0.195042        -5.3074
 131   1.0000      -0.189636        -5.1603
 132   1.0000      -0.184015        -5.0073
 133   1.0000      -0.177857        -4.8397
 134   1.0000      -0.166567        -4.5325
 135   1.0000      -0.164570        -4.4782
 136   1.0000      -0.157461        -4.2847
 137   1.0000      -0.153299        -4.1715
 138   1.0000      -0.141411        -3.8480
 139   1.0000      -0.129402        -3.5212
 140   1.0000      -0.121707        -3.3118
 141   1.0000      -0.114862        -3.1255
 142   1.0000      -0.113080        -3.0771
 143   1.0000      -0.100089        -2.7236
 144   1.0000      -0.099009        -2.6942
 145   1.0000      -0.094668        -2.5761
 146   1.0000      -0.091509        -2.4901
 147   1.0000      -0.079072        -2.1517
 148   1.0000      -0.075081        -2.0431
 149   1.0000      -0.069009        -1.8778
 150   1.0000      -0.053667        -1.4604
 151   1.0000      -0.046675        -1.2701
 152   1.0000      -0.046143        -1.2556
 153   1.0000      -0.035054        -0.9539
 154   1.0000      -0.034732        -0.9451
 155   1.0000      -0.022728        -0.6185
 156   1.0000      -0.020572        -0.5598
 157   1.0000      -0.018436        -0.5017
 158   1.0000      -0.011744        -0.3196
 159   1.0000      -0.006182        -0.1682
 160   1.0000       0.018278         0.4974
 161   0.0000       0.075049         2.0422
 162   0.0000       0.120623         3.2823
 163   0.0000       0.130220         3.5435
 164   0.0000       0.154264         4.1977
 165   0.0000       0.168146         4.5755

                 SPIN DOWN ORBITALS
  NO   OCC          E(Eh)            E(eV)
   0   1.0000    -196.681634     -5351.9794
   1   1.0000     -88.736511     -2414.6432
   2   1.0000     -88.736260     -2414.6364
   3   1.0000     -88.734791     -2414.5964
   4   1.0000     -88.734638     -2414.5923
   5   1.0000     -88.734630     -2414.5920
   6   1.0000     -88.734608     -2414.5914
   7   1.0000     -88.725584     -2414.3459
   8   1.0000     -88.725539     -2414.3447
   9   1.0000     -88.643678     -2412.1171
  10   1.0000     -88.643482     -2412.1118
  11   1.0000     -88.642467     -2412.0842
  12   1.0000     -88.642051     -2412.0728
  13   1.0000     -22.043827      -599.8430
  14   1.0000     -18.896850      -514.2094
  15   1.0000     -18.558944      -505.0145
  16   1.0000     -18.544330      -504.6169
  17   1.0000     -18.544169      -504.6125
  18   1.0000     -10.178484      -276.9706
  19   1.0000     -10.087719      -274.5008
  20   1.0000     -10.082740      -274.3653
  21   1.0000     -10.064189      -273.8605
  22   1.0000     -10.064133      -273.8590
  23   1.0000     -10.052599      -273.5451
  24   1.0000     -10.052479      -273.5419
  25   1.0000     -10.051832      -273.5242
  26   1.0000     -10.051807      -273.5236
  27   1.0000     -10.047663      -273.4108
  28   1.0000     -10.044154      -273.3153
  29   1.0000     -10.011194      -272.4184
  30   1.0000     -10.008893      -272.3558
  31   1.0000      -9.977636      -271.5053
  32   1.0000      -7.789894      -211.9738
  33   1.0000      -7.789663      -211.9675
  34   1.0000      -7.788225      -211.9284
  35   1.0000      -7.788192      -211.9275
  36   1.0000      -7.788009      -211.9225
  37   1.0000      -7.787883      -211.9191
  38   1.0000      -7.779618      -211.6942
  39   1.0000      -7.779567      -211.6928
  40   1.0000      -7.696086      -209.4211
  41   1.0000      -7.695907      -209.4163
  42   1.0000      -7.695729      -209.4114
  43   1.0000      -7.695614      -209.4083
  44   1.0000      -5.754537      -156.5889
  45   1.0000      -5.754311      -156.5828
  46   1.0000      -5.753192      -156.5523
  47   1.0000      -5.753168      -156.5517
  48   1.0000      -5.752970      -156.5463
  49   1.0000      -5.752849      -156.5430
  50   1.0000      -5.750530      -156.4799
  51   1.0000      -5.750300      -156.4736
  52   1.0000      -5.749753      -156.4587
  53   1.0000      -5.749726      -156.4580
  54   1.0000      -5.748579      -156.4268
  55   1.0000      -5.748448      -156.4232
  56   1.0000      -5.745660      -156.3474
  57   1.0000      -5.745442      -156.3414
  58   1.0000      -5.744558      -156.3174
  59   1.0000      -5.744511      -156.3161
  60   1.0000      -5.743759      -156.2956
  61   1.0000      -5.743625      -156.2920
  62   1.0000      -5.743071      -156.2769
  63   1.0000      -5.743025      -156.2756
  64   1.0000      -5.740908      -156.2180
  65   1.0000      -5.740859      -156.2167
  66   1.0000      -5.734674      -156.0484
  67   1.0000      -5.734622      -156.0470
  68   1.0000      -5.662925      -154.0960
  69   1.0000      -5.662767      -154.0917
  70   1.0000      -5.661818      -154.0659
  71   1.0000      -5.661368      -154.0537
  72   1.0000      -5.655073      -153.8824
  73   1.0000      -5.654638      -153.8705
  74   1.0000      -5.654622      -153.8701
  75   1.0000      -5.654463      -153.8658
  76   1.0000      -5.652994      -153.8258
  77   1.0000      -5.652499      -153.8123
  78   1.0000      -5.651993      -153.7986
  79   1.0000      -5.651780      -153.7927
  80   1.0000      -2.406274       -65.4780
  81   1.0000      -1.470898       -40.0252
  82   1.0000      -1.419131       -38.6165
  83   1.0000      -1.419018       -38.6134
  84   1.0000      -0.713666       -19.4198
  85   1.0000      -0.706302       -19.2195
  86   1.0000      -0.693077       -18.8596
  87   1.0000      -0.687600       -18.7105
  88   1.0000      -0.660433       -17.9713
  89   1.0000      -0.636282       -17.3141
  90   1.0000      -0.619091       -16.8463
  91   1.0000      -0.616095       -16.7648
  92   1.0000      -0.611955       -16.6521
  93   1.0000      -0.584398       -15.9023
  94   1.0000      -0.573325       -15.6010
  95   1.0000      -0.571612       -15.5543
  96   1.0000      -0.561399       -15.2764
  97   1.0000      -0.496411       -13.5080
  98   1.0000      -0.491971       -13.3872
  99   1.0000      -0.489367       -13.3164
 100   1.0000      -0.474656       -12.9160
 101   1.0000      -0.471238       -12.8230
 102   1.0000      -0.452453       -12.3119
 103   1.0000      -0.446588       -12.1523
 104   1.0000      -0.443527       -12.0690
 105   1.0000      -0.430035       -11.7019
 106   1.0000      -0.401040       -10.9128
 107   1.0000      -0.357806        -9.7364
 108   1.0000      -0.349764        -9.5176
 109   1.0000      -0.329981        -8.9792
 110   1.0000      -0.328386        -8.9358
 111   1.0000      -0.320327        -8.7165
 112   1.0000      -0.313515        -8.5312
 113   1.0000      -0.311475        -8.4757
 114   1.0000      -0.303550        -8.2600
 115   1.0000      -0.292921        -7.9708
 116   1.0000      -0.288029        -7.8377
 117   1.0000      -0.284771        -7.7490
 118   1.0000      -0.275588        -7.4991
 119   1.0000      -0.259063        -7.0495
 120   1.0000      -0.258251        -7.0274
 121   1.0000      -0.248699        -6.7674
 122   1.0000      -0.236266        -6.4291
 123   1.0000      -0.233378        -6.3505
 124   1.0000      -0.231681        -6.3044
 125   1.0000      -0.227135        -6.1807
 126   1.0000      -0.220418        -5.9979
 127   1.0000      -0.218870        -5.9558
 128   1.0000      -0.218811        -5.9541
 129   1.0000      -0.200392        -5.4530
 130   1.0000      -0.194721        -5.2986
 131   1.0000      -0.187635        -5.1058
 132   1.0000      -0.183815        -5.0019
 133   1.0000      -0.177566        -4.8318
 134   1.0000      -0.166473        -4.5300
 135   1.0000      -0.163416        -4.4468
 136   1.0000      -0.157423        -4.2837
 137   1.0000      -0.153237        -4.1698
 138   1.0000      -0.140993        -3.8366
 139   1.0000      -0.128545        -3.4979
 140   1.0000      -0.121199        -3.2980
 141   1.0000      -0.116806        -3.1784
 142   1.0000      -0.114751        -3.1225
 143   1.0000      -0.100149        -2.7252
 144   1.0000      -0.099086        -2.6963
 145   1.0000      -0.094520        -2.5720
 146   1.0000      -0.091279        -2.4838
 147   1.0000      -0.076097        -2.0707
 148   1.0000      -0.074620        -2.0305
 149   1.0000      -0.069006        -1.8777
 150   1.0000      -0.050710        -1.3799
 151   1.0000      -0.045548        -1.2394
 152   1.0000      -0.044752        -1.2178
 153   1.0000      -0.035004        -0.9525
 154   1.0000      -0.034732        -0.9451
 155   1.0000      -0.021365        -0.5814
 156   1.0000      -0.019804        -0.5389
 157   1.0000      -0.011817        -0.3216
 158   1.0000      -0.006543        -0.1780
 159   1.0000       0.017177         0.4674
 160   0.0000       0.069798         1.8993
 161   0.0000       0.120654         3.2831
 162   0.0000       0.130227         3.5437
 163   0.0000       0.142607         3.8805
 164   0.0000       0.154340         4.1998

MULLIKEN ATOMIC CHARGES AND SPIN POPULATIONS
--------------------------------------------
   0 V :    0.500652    1.139860
   1 S :   -0.333439   -0.011525
   2 S :   -0.306715   -0.025768
   3 S :   -0.330452   -0.010575
   4 S :   -0.302699   -0.025428
   5 O :   -0.463936   -0.140410
   6 C :   -0.051794    0.013189
   7 C :   -0.061023    0.011922
   8 C :   -0.055352    0.011597
   9 C :   -0.051924    0.009950
  10 S :    0.097266   -0.000748
  11 S :    0.098377   -0.000777
  12 S :    0.100864    0.015418
  13 S :    0.099361    0.013542
  14 C :   -0.185084    0.001473
  15 C :   -0.098586   -0.005372
  16 C :   -0.227381   -0.000038
  17 C :   -0.327924    0.003248
  18 S :    0.012334   -0.000084
  19 S :    0.012638   -0.000086
  20 S :    0.022329    0.000133
  21 S :    0.022205    0.000185
  22 C :   -0.283003   -0.000265
  23 C :   -0.282784   -0.000255
  24 C :   -0.164137    0.000385
  25 H :    0.130912    0.000095
  26 H :    0.101505    0.000012
  27 H :    0.082461    0.000090
  28 H :    0.085586   -0.000009
  29 H :    0.101153    0.000013
  30 H :    0.130586    0.000092
  31 C :   -0.297180    0.000132
  32 C :   -0.297574    0.000128
  33 C :   -0.160935   -0.000134
  34 H :    0.140515   -0.000012
  35 H :    0.112946    0.000010
  36 H :    0.092707    0.000008
  37 H :    0.084090    0.000004
  38 H :    0.112842    0.000011
  39 H :    0.140591   -0.000013
Sum of atomic charges         :   -2.0000000

LOEWDIN ATOMIC CHARGES AND SPIN POPULATIONS
-------------------------------------------
   0 V :   -0.152401    1.092651
   1 S :   -0.001365   -0.006449
   2 S :    0.055958   -0.016363
   3 S :    0.000029   -0.005529
   4 S :    0.060180   -0.015793
   5 O :   -0.315642   -0.125906
   6 C :   -0.512830    0.012176
   7 C :   -0.514954    0.011486
   8 C :   -0.420313    0.014477
   9 C :   -0.421167    0.013863
  10 S :    0.470063   -0.000896
  11 S :    0.470765   -0.000938
  12 S :    0.465725    0.013486
  13 S :    0.464511    0.011937
  14 C :   -0.468907    0.000263
  15 C :   -0.497457   -0.001508
  16 C :   -0.637198    0.000386
  17 C :   -0.700927    0.001806
  18 S :    0.362266   -0.000071
  19 S :    0.363588   -0.000070
  20 S :    0.373073    0.000302
  21 S :    0.372625    0.000373
  22 C :   -0.288238    0.000009
  23 C :   -0.288363    0.000016
  24 C :   -0.173431    0.000108
  25 H :    0.058650    0.000027
  26 H :    0.047656    0.000010
  27 H :    0.057672    0.000017
  28 H :    0.059219    0.000023
  29 H :    0.047614    0.000010
  30 H :    0.058500    0.000026
  31 C :   -0.284130    0.000031
  32 C :   -0.283818    0.000028
  33 C :   -0.175482    0.000000
  34 H :    0.061685   -0.000002
  35 H :    0.053093    0.000006
  36 H :    0.060614    0.000001
  37 H :    0.058393    0.000001
  38 H :    0.053158    0.000006
  39 H :    0.061585   -0.000002

  Mayer bond orders larger than 0.100000
B(  0-V ,  1-S ) :   0.8260 B(  0-V ,  2-S ) :   0.7791 B(  0-V ,  3-S ) :   0.8184
B(  0-V ,  4-S ) :   0.7869 B(  0-V ,  5-O ) :   2.1520 B(  1-S ,  8-C ) :   0.4464
B(  1-S ,  9-C ) :   0.3079 B(  1-S , 12-S ) :   0.1338 B(  2-S ,  6-C ) :   1.0680
B(  3-S ,  8-C ) :   0.3096 B(  3-S ,  9-C ) :   0.4448 B(  3-S , 13-S ) :   0.1341
B(  4-S ,  7-C ) :   1.0675 B(  6-C ,  7-C ) :   1.8588 B(  6-C , 10-S ) :   0.9177
B(  7-C , 11-S ) :   0.9215 B(  8-C ,  9-C ) :   3.7756 B(  8-C , 13-S ) :   0.7874
B(  9-C , 12-S ) :   0.7856 B( 10-S , 14-C ) :   1.2421 B( 11-S , 14-C ) :   1.2416
B( 12-S , 13-S ) :   0.1364 B( 12-S , 15-C ) :   1.2300 B( 13-S , 15-C ) :   1.2304
B( 14-C , 16-C ) :   1.4191 B( 15-C , 17-C ) :   1.2393 B( 16-C , 18-S ) :   1.0950
B( 16-C , 19-S ) :   1.0963 B( 17-C , 20-S ) :   1.1303 B( 17-C , 21-S ) :   1.1302
B( 18-S , 32-C ) :   0.9887 B( 19-S , 31-C ) :   0.9886 B( 20-S , 23-C ) :   0.9742
B( 21-S , 22-C ) :   0.9736 B( 22-C , 24-C ) :   0.9248 B( 22-C , 25-H ) :   0.9632
B( 22-C , 26-H ) :   0.9634 B( 23-C , 24-C ) :   0.9253 B( 23-C , 29-H ) :   0.9634
B( 23-C , 30-H ) :   0.9630 B( 24-C , 27-H ) :   0.9638 B( 24-C , 28-H ) :   0.9712
B( 31-C , 33-C ) :   0.9156 B( 31-C , 38-H ) :   0.9655 B( 31-C , 39-H ) :   0.9652
B( 32-C , 33-C ) :   0.9155 B( 32-C , 34-H ) :   0.9650 B( 32-C , 35-H ) :   0.9655
B( 33-C , 36-H ) :   0.9720 B( 33-C , 37-H ) :   0.9627

FINAL SINGLE POINT ENERGY     -6335.787959916132

DIPOLE MOMENT
-------------
                                X             Y             Z
Electronic contribution:      4.96046       4.95118      11.70967
Nuclear contribution   :     -5.96484      -4.78984     -13.07642
                        -----------------------------------------
Total Dipole Moment    :     -1.00438       0.16133      -1.36675
                        -----------------------------------------
Magnitude (a.u.)       :      1.70376
Magnitude (Debye)      :      4.33062

Rotational constants in cm-1:     0.010813     0.000804     0.000784
Rotational constants in MHz :   324.155493    24.109828    23.489220

                             ****ORCA TERMINATED NORMALLY****
TOTAL RUN TIME: 0 days 1 hours 5 minutes 30 seconds 736 msec
