                         Program Version 5.0.4 -  RELEASE  -
|  1> ! nofrozencore ReducedPop printbasis
|  2> ! B3LYP TZVP
|  3>
|  4> %basis
|  5> newgto V "CP(PPP)" end
|  6> end
|  7>
|  8> %pal
|  9> nprocs 8
| 10> end
| 11>
| 12> % sym SymThresh 1e-2 end
| 13> * xyz -2 2
| 14> V -0.26344720640296576 0.19452991283149673 -1.0638083288418283
| 15> S 1.3106437620583937 2.0822576475452657 -0.6782566414991291
| 16> S 1.7600239001917695 -1.2684807063748387 -1.1213199479441824
| 17> S -1.8677542255747333 1.4822322060123212 0.29277009450348085
| 18> S -1.391734869884006 -1.720366232070618 -0.03828463223140139
| 19> O -0.7773214710300348 0.28021558125268414 -2.5682158663256724
| 20> C 0.9788655651351219 -2.8324160742178255 -0.9068469873772433
| 21> C -0.308870313230963 -3.0082765459460377 -0.5542077114815223
| 22> C 0.247501028306133 3.248984499011947 0.10377371617850886
| 23> C -1.0390555990312493 3.025309955509076 0.42870475834598515
| 24> S 1.964392502324064 -4.332519889288602 -1.077657460238496
| 25> S -0.9271377805837087 -4.699161020662139 -0.5512885288430067
| 26> S -1.961163139649735 4.42588151226282 1.0809329758219859
| 27> S 0.9191486475863826 4.852795162039751 0.5742721446184864
| 28> C 0.6352668310837366 -5.486599064226749 -0.8446437978964859
| 29> C -0.5866009914011252 5.529926226296796 1.2260687968752395
| 30> C 0.8164159442459147 -6.841139440326162 -0.9039540145122966
| 31> C -0.6692586998701905 6.780999564004993 1.7719679070121908
| 32> S 2.367100760112787 -7.540357658087768 -1.4392022113100165
| 33> S -0.4707987413648979 -8.003005284975606 -0.4953018230561716
| 34> S 0.7311583830247734 7.881192272900863 1.7574045194485928
| 35> S -2.1447073392664966 7.394425350494541 2.564634902749536
| 36> C -1.454105114375449 7.610033738397137 4.271638270362962
| 37> C 0.9901146009050258 8.025420523496921 3.583081928969825
| 38> C -0.23925121955954518 8.53940787843323 4.335751489466361
| 39> H -1.2077123088841069 6.62036726639132 4.662734255010805
| 40> H -2.275467960665975 8.017713789265825 4.8665328595997694
| 41> H 0.035326521596282176 8.669683107987346 5.3919958259114775
| 42> H -0.5160865180568004 9.524704293552793 3.9477124415852556
| 43> H 1.8274159295870136 8.71709810607396 3.7057933154576252
| 44> H 1.2969893205357361 7.0474894334113385 3.960635215023064
| 45> C -0.6428730946319714 -8.864211805912953 -2.1272627597111247
| 46> C 1.7389499215940911 -8.361337410782909 -2.9750870359791337
| 47> C 0.6709617902538463 -9.422661232734733 -2.6869560133836097
| 48> H 1.3538384528618155 -7.581682549760683 -3.642604068477396
| 49> H 2.616038436619049 -8.818202634028724 -3.4494848647145373
| 50> H 1.0811962343646568 -10.165855744504935 -1.99213558897976
| 51> H 0.44032442739097055 -9.94576630839343 -3.625624625438346
| 52> H -1.3563085832053756 -9.677783711251838 -1.947176642283147
| 53> H -1.0968570613129252 -8.162196081864026 -2.836729742130103
| 54> *
| 55>
| 56> % eprnmr
| 57> gtensor true
| 58> Nuclei = all H {aiso,adip,aorb,fgrad,rho}
| 59> Nuclei = all V {aiso,adip,aorb,fgrad,rho}
| 60> end
| 61>
| 62>                          ****END OF INPUT****

CARTESIAN COORDINATES (ANGSTROEM)
---------------------------------
  V     -0.262339    0.191870   -1.061279
  S      1.311751    2.079598   -0.675727
  S      1.761132   -1.271140   -1.118790
  S     -1.866646    1.479573    0.295300
  S     -1.390627   -1.723026   -0.035755
  O     -0.776214    0.277556   -2.565686
  C      0.979973   -2.835076   -0.904318
  C     -0.307763   -3.010936   -0.551678
  C      0.248609    3.246325    0.106303
  C     -1.037948    3.022650    0.431234
  S      1.965500   -4.335179   -1.075128
  S     -0.926030   -4.701821   -0.548759
  S     -1.960055    4.423222    1.083462
  S      0.920256    4.850136    0.576802
  C      0.636375   -5.489259   -0.842114
  C     -0.585493    5.527267    1.228598
  C      0.817524   -6.843799   -0.901425
  C     -0.668151    6.778340    1.774497
  S      2.368208   -7.543017   -1.436673
  S     -0.469691   -8.005665   -0.492772
  S      0.732266    7.878533    1.759934
  S     -2.143600    7.391766    2.567164
  C     -1.452997    7.607374    4.274168
  C      0.991222    8.022761    3.585611
  C     -0.238143    8.536748    4.338281
  H     -1.206605    6.617708    4.665264
  H     -2.274360    8.015054    4.869062
  H      0.036434    8.667024    5.394525
  H     -0.514979    9.522045    3.950242
  H      1.828524    8.714439    3.708323
  H      1.298097    7.044830    3.963165
  C     -0.641765   -8.866871   -2.124733
  C      1.740058   -8.363997   -2.972558
  C      0.672070   -9.425321   -2.684427
  H      1.354946   -7.584342   -3.640075
  H      2.617146   -8.820862   -3.446955
  H      1.082304  -10.168515   -1.989606
  H      0.441432   -9.948426   -3.623095
  H     -1.355201   -9.680443   -1.944647
  H     -1.095749   -8.164856   -2.834200

 Total Charge           Charge          ....   -2
 Multiplicity           Mult            ....    2
 Number of Electrons    NEL             ....  321
 Basis Dimension        Dim             ....  681

ORBITAL ENERGIES
----------------
                 SPIN UP ORBITALS
  NO   OCC          E(Eh)            E(eV)
   0   1.0000    -196.674815     -5351.7938
   1   1.0000     -88.734108     -2414.5778
   2   1.0000     -88.733166     -2414.5522
   3   1.0000     -88.732842     -2414.5434
   4   1.0000     -88.731885     -2414.5173
   5   1.0000     -88.730496     -2414.4795
   6   1.0000     -88.730123     -2414.4694
   7   1.0000     -88.730045     -2414.4673
   8   1.0000     -88.729949     -2414.4647
   9   1.0000     -88.639707     -2412.0090
  10   1.0000     -88.639697     -2412.0088
  11   1.0000     -88.639625     -2412.0068
  12   1.0000     -88.639375     -2412.0000
  13   1.0000     -22.050128      -600.0145
  14   1.0000     -18.889430      -514.0075
  15   1.0000     -18.556611      -504.9511
  16   1.0000     -18.551390      -504.8090
  17   1.0000     -18.551293      -504.8064
  18   1.0000     -10.076152      -274.1860
  19   1.0000     -10.075969      -274.1811
  20   1.0000     -10.065118      -273.8858
  21   1.0000     -10.063756      -273.8487
  22   1.0000     -10.063268      -273.8354
  23   1.0000     -10.062980      -273.8276
  24   1.0000     -10.051900      -273.5261
  25   1.0000     -10.051006      -273.5018
  26   1.0000     -10.048460      -273.4325
  27   1.0000     -10.048432      -273.4317
  28   1.0000     -10.018819      -272.6259
  29   1.0000     -10.017925      -272.6016
  30   1.0000     -10.017077      -272.5785
  31   1.0000     -10.017064      -272.5782
  32   1.0000      -7.787415      -211.9063
  33   1.0000      -7.786520      -211.8820
  34   1.0000      -7.786395      -211.8786
  35   1.0000      -7.785448      -211.8528
  36   1.0000      -7.783479      -211.7992
  37   1.0000      -7.783319      -211.7949
  38   1.0000      -7.783076      -211.7883
  39   1.0000      -7.782956      -211.7850
  40   1.0000      -7.694102      -209.3672
  41   1.0000      -7.693818      -209.3594
  42   1.0000      -7.693783      -209.3585
  43   1.0000      -7.693651      -209.3549
  44   1.0000      -5.752428      -156.5315
  45   1.0000      -5.751541      -156.5074
  46   1.0000      -5.751359      -156.5024
  47   1.0000      -5.750430      -156.4772
  48   1.0000      -5.748983      -156.4378
  49   1.0000      -5.748458      -156.4235
  50   1.0000      -5.748270      -156.4184
  51   1.0000      -5.748106      -156.4139
  52   1.0000      -5.748020      -156.4116
  53   1.0000      -5.747957      -156.4099
  54   1.0000      -5.747926      -156.4090
  55   1.0000      -5.747048      -156.3851
  56   1.0000      -5.744063      -156.3039
  57   1.0000      -5.743855      -156.2982
  58   1.0000      -5.743653      -156.2927
  59   1.0000      -5.743544      -156.2898
  60   1.0000      -5.742219      -156.2537
  61   1.0000      -5.741294      -156.2286
  62   1.0000      -5.741204      -156.2261
  63   1.0000      -5.740202      -156.1988
  64   1.0000      -5.739263      -156.1733
  65   1.0000      -5.739139      -156.1699
  66   1.0000      -5.738885      -156.1630
  67   1.0000      -5.738731      -156.1588
  68   1.0000      -5.659413      -154.0005
  69   1.0000      -5.659164      -153.9937
  70   1.0000      -5.659071      -153.9912
  71   1.0000      -5.658998      -153.9892
  72   1.0000      -5.652797      -153.8204
  73   1.0000      -5.652478      -153.8117
  74   1.0000      -5.652476      -153.8117
  75   1.0000      -5.652317      -153.8074
  76   1.0000      -5.651334      -153.7806
  77   1.0000      -5.651144      -153.7755
  78   1.0000      -5.651059      -153.7731
  79   1.0000      -5.650982      -153.7710
  80   1.0000      -2.443625       -66.4944
  81   1.0000      -1.484628       -40.3988
  82   1.0000      -1.473280       -40.0900
  83   1.0000      -1.472508       -40.0690
  84   1.0000      -0.708670       -19.2839
  85   1.0000      -0.708036       -19.2666
  86   1.0000      -0.684407       -18.6237
  87   1.0000      -0.683613       -18.6021
  88   1.0000      -0.648870       -17.6567
  89   1.0000      -0.630764       -17.1639
  90   1.0000      -0.630360       -17.1530
  91   1.0000      -0.616928       -16.7875
  92   1.0000      -0.616518       -16.7763
  93   1.0000      -0.573331       -15.6011
  94   1.0000      -0.572731       -15.5848
  95   1.0000      -0.572490       -15.5782
  96   1.0000      -0.571528       -15.5521
  97   1.0000      -0.496653       -13.5146
  98   1.0000      -0.495474       -13.4825
  99   1.0000      -0.495039       -13.4707
 100   1.0000      -0.494512       -13.4564
 101   1.0000      -0.479373       -13.0444
 102   1.0000      -0.476641       -12.9701
 103   1.0000      -0.446795       -12.1579
 104   1.0000      -0.444595       -12.0980
 105   1.0000      -0.416104       -11.3228
 106   1.0000      -0.410750       -11.1771
 107   1.0000      -0.354844        -9.6558
 108   1.0000      -0.354323        -9.6416
 109   1.0000      -0.326060        -8.8725
 110   1.0000      -0.325675        -8.8621
 111   1.0000      -0.317779        -8.6472
 112   1.0000      -0.313134        -8.5208
 113   1.0000      -0.303445        -8.2572
 114   1.0000      -0.302655        -8.2357
 115   1.0000      -0.292037        -7.9467
 116   1.0000      -0.291258        -7.9255
 117   1.0000      -0.258105        -7.0234
 118   1.0000      -0.257607        -7.0098
 119   1.0000      -0.255742        -6.9591
 120   1.0000      -0.254569        -6.9272
 121   1.0000      -0.234216        -6.3733
 122   1.0000      -0.233617        -6.3570
 123   1.0000      -0.231227        -6.2920
 124   1.0000      -0.229920        -6.2564
 125   1.0000      -0.219542        -5.9740
 126   1.0000      -0.217610        -5.9215
 127   1.0000      -0.212698        -5.7878
 128   1.0000      -0.211150        -5.7457
 129   1.0000      -0.193133        -5.2554
 130   1.0000      -0.188214        -5.1216
 131   1.0000      -0.186268        -5.0686
 132   1.0000      -0.182464        -4.9651
 133   1.0000      -0.178583        -4.8595
 134   1.0000      -0.158965        -4.3256
 135   1.0000      -0.152386        -4.1466
 136   1.0000      -0.147733        -4.0200
 137   1.0000      -0.134926        -3.6715
 138   1.0000      -0.133442        -3.6311
 139   1.0000      -0.131606        -3.5812
 140   1.0000      -0.123747        -3.3673
 141   1.0000      -0.119861        -3.2616
 142   1.0000      -0.112183        -3.0526
 143   1.0000      -0.108553        -2.9539
 144   1.0000      -0.100038        -2.7222
 145   1.0000      -0.097686        -2.6582
 146   1.0000      -0.095694        -2.6040
 147   1.0000      -0.092987        -2.5303
 148   1.0000      -0.074160        -2.0180
 149   1.0000      -0.067432        -1.8349
 150   1.0000      -0.066914        -1.8208
 151   1.0000      -0.051987        -1.4146
 152   1.0000      -0.045120        -1.2278
 153   1.0000      -0.038864        -1.0575
 154   1.0000      -0.035427        -0.9640
 155   1.0000      -0.031248        -0.8503
 156   1.0000      -0.025167        -0.6848
 157   1.0000      -0.018305        -0.4981
 158   1.0000      -0.014965        -0.4072
 159   1.0000       0.020803         0.5661
 160   1.0000       0.041632         1.1329
 161   0.0000       0.136185         3.7058
 162   0.0000       0.137089         3.7304
 163   0.0000       0.160825         4.3763
 164   0.0000       0.161585         4.3970
 165   0.0000       0.169817         4.6210

                 SPIN DOWN ORBITALS
  NO   OCC          E(Eh)            E(eV)
   0   1.0000    -196.674961     -5351.7978
   1   1.0000     -88.734109     -2414.5779
   2   1.0000     -88.733167     -2414.5522
   3   1.0000     -88.732842     -2414.5434
   4   1.0000     -88.731886     -2414.5174
   5   1.0000     -88.730504     -2414.4798
   6   1.0000     -88.730131     -2414.4696
   7   1.0000     -88.730053     -2414.4675
   8   1.0000     -88.729958     -2414.4649
   9   1.0000     -88.639849     -2412.0129
  10   1.0000     -88.639832     -2412.0124
  11   1.0000     -88.639766     -2412.0107
  12   1.0000     -88.639519     -2412.0039
  13   1.0000     -22.035168      -599.6074
  14   1.0000     -18.893242      -514.1113
  15   1.0000     -18.551321      -504.8071
  16   1.0000     -18.535323      -504.3718
  17   1.0000     -18.535161      -504.3674
  18   1.0000     -10.076147      -274.1859
  19   1.0000     -10.075968      -274.1810
  20   1.0000     -10.065117      -273.8858
  21   1.0000     -10.063755      -273.8487
  22   1.0000     -10.063268      -273.8355
  23   1.0000     -10.062980      -273.8276
  24   1.0000     -10.051900      -273.5261
  25   1.0000     -10.051006      -273.5018
  26   1.0000     -10.048449      -273.4322
  27   1.0000     -10.048429      -273.4316
  28   1.0000     -10.018592      -272.6197
  29   1.0000     -10.017713      -272.5958
  30   1.0000     -10.016852      -272.5724
  31   1.0000     -10.016841      -272.5721
  32   1.0000      -7.787415      -211.9063
  33   1.0000      -7.786520      -211.8820
  34   1.0000      -7.786395      -211.8786
  35   1.0000      -7.785448      -211.8528
  36   1.0000      -7.783488      -211.7995
  37   1.0000      -7.783328      -211.7951
  38   1.0000      -7.783086      -211.7885
  39   1.0000      -7.782966      -211.7853
  40   1.0000      -7.694234      -209.3708
  41   1.0000      -7.693944      -209.3629
  42   1.0000      -7.693917      -209.3621
  43   1.0000      -7.693783      -209.3585
  44   1.0000      -5.752429      -156.5316
  45   1.0000      -5.751541      -156.5074
  46   1.0000      -5.751359      -156.5024
  47   1.0000      -5.750431      -156.4772
  48   1.0000      -5.748984      -156.4378
  49   1.0000      -5.748468      -156.4238
  50   1.0000      -5.748280      -156.4187
  51   1.0000      -5.748106      -156.4139
  52   1.0000      -5.748031      -156.4119
  53   1.0000      -5.747958      -156.4099
  54   1.0000      -5.747937      -156.4093
  55   1.0000      -5.747049      -156.3852
  56   1.0000      -5.744075      -156.3042
  57   1.0000      -5.743869      -156.2986
  58   1.0000      -5.743668      -156.2932
  59   1.0000      -5.743559      -156.2902
  60   1.0000      -5.742219      -156.2537
  61   1.0000      -5.741295      -156.2286
  62   1.0000      -5.741204      -156.2261
  63   1.0000      -5.740203      -156.1989
  64   1.0000      -5.739272      -156.1735
  65   1.0000      -5.739145      -156.1701
  66   1.0000      -5.738893      -156.1632
  67   1.0000      -5.738737      -156.1590
  68   1.0000      -5.659555      -154.0043
  69   1.0000      -5.659302      -153.9974
  70   1.0000      -5.659217      -153.9951
  71   1.0000      -5.659137      -153.9929
  72   1.0000      -5.653199      -153.8314
  73   1.0000      -5.652849      -153.8218
  74   1.0000      -5.652823      -153.8211
  75   1.0000      -5.652689      -153.8175
  76   1.0000      -5.651411      -153.7827
  77   1.0000      -5.651246      -153.7782
  78   1.0000      -5.651172      -153.7762
  79   1.0000      -5.651088      -153.7739
  80   1.0000      -2.398653       -65.2707
  81   1.0000      -1.465237       -39.8711
  82   1.0000      -1.410859       -38.3914
  83   1.0000      -1.410652       -38.3858
  84   1.0000      -0.708656       -19.2835
  85   1.0000      -0.708012       -19.2660
  86   1.0000      -0.684364       -18.6225
  87   1.0000      -0.683555       -18.6005
  88   1.0000      -0.657090       -17.8803
  89   1.0000      -0.630708       -17.1624
  90   1.0000      -0.630283       -17.1509
  91   1.0000      -0.616930       -16.7875
  92   1.0000      -0.616518       -16.7763
  93   1.0000      -0.573307       -15.6005
  94   1.0000      -0.572702       -15.5840
  95   1.0000      -0.572420       -15.5763
  96   1.0000      -0.571454       -15.5501
  97   1.0000      -0.496676       -13.5152
  98   1.0000      -0.495512       -13.4836
  99   1.0000      -0.495075       -13.4717
 100   1.0000      -0.494549       -13.4574
 101   1.0000      -0.479569       -13.0497
 102   1.0000      -0.476899       -12.9771
 103   1.0000      -0.446817       -12.1585
 104   1.0000      -0.444642       -12.0993
 105   1.0000      -0.416106       -11.3228
 106   1.0000      -0.410865       -11.1802
 107   1.0000      -0.354839        -9.6557
 108   1.0000      -0.354314        -9.6414
 109   1.0000      -0.326048        -8.8722
 110   1.0000      -0.325664        -8.8618
 111   1.0000      -0.317699        -8.6450
 112   1.0000      -0.313160        -8.5215
 113   1.0000      -0.303393        -8.2557
 114   1.0000      -0.302631        -8.2350
 115   1.0000      -0.292031        -7.9466
 116   1.0000      -0.291252        -7.9254
 117   1.0000      -0.258030        -7.0213
 118   1.0000      -0.257466        -7.0060
 119   1.0000      -0.255692        -6.9577
 120   1.0000      -0.254530        -6.9261
 121   1.0000      -0.234170        -6.3721
 122   1.0000      -0.233607        -6.3568
 123   1.0000      -0.231178        -6.2907
 124   1.0000      -0.229890        -6.2556
 125   1.0000      -0.219174        -5.9640
 126   1.0000      -0.217482        -5.9180
 127   1.0000      -0.212519        -5.7829
 128   1.0000      -0.211033        -5.7425
 129   1.0000      -0.191569        -5.2129
 130   1.0000      -0.187964        -5.1148
 131   1.0000      -0.185818        -5.0564
 132   1.0000      -0.182320        -4.9612
 133   1.0000      -0.178482        -4.8568
 134   1.0000      -0.158350        -4.3089
 135   1.0000      -0.152209        -4.1418
 136   1.0000      -0.147645        -4.0176
 137   1.0000      -0.134496        -3.6598
 138   1.0000      -0.133375        -3.6293
 139   1.0000      -0.130792        -3.5590
 140   1.0000      -0.123331        -3.3560
 141   1.0000      -0.119601        -3.2545
 142   1.0000      -0.114018        -3.1026
 143   1.0000      -0.110042        -2.9944
 144   1.0000      -0.100043        -2.7223
 145   1.0000      -0.098090        -2.6692
 146   1.0000      -0.095687        -2.6038
 147   1.0000      -0.093277        -2.5382
 148   1.0000      -0.070512        -1.9187
 149   1.0000      -0.067412        -1.8344
 150   1.0000      -0.066885        -1.8200
 151   1.0000      -0.049427        -1.3450
 152   1.0000      -0.044180        -1.2022
 153   1.0000      -0.038665        -1.0521
 154   1.0000      -0.035024        -0.9531
 155   1.0000      -0.031268        -0.8508
 156   1.0000      -0.025725        -0.7000
 157   1.0000      -0.015259        -0.4152
 158   1.0000       0.021082         0.5737
 159   1.0000       0.040527         1.1028
 160   0.0000       0.136194         3.7060
 161   0.0000       0.137082         3.7302
 162   0.0000       0.155891         4.2420
 163   0.0000       0.161331         4.3900
 164   0.0000       0.163112         4.4385

MULLIKEN ATOMIC CHARGES AND SPIN POPULATIONS
--------------------------------------------
   0 V :    0.472333    1.212533
   1 S :   -0.295165   -0.021560
   2 S :   -0.293321   -0.024428
   3 S :   -0.282302   -0.024919
   4 S :   -0.276534   -0.026812
   5 O :   -0.469412   -0.147926
   6 C :   -0.073077    0.008969
   7 C :   -0.091307    0.009000
   8 C :   -0.077968    0.006746
   9 C :   -0.092110    0.008475
  10 S :    0.097384   -0.000607
  11 S :    0.098503   -0.000561
  12 S :    0.098547   -0.000390
  13 S :    0.097138   -0.000347
  14 C :   -0.199857    0.001575
  15 C :   -0.205095    0.001059
  16 C :   -0.204684   -0.000154
  17 C :   -0.196643   -0.000456
  18 S :    0.009386   -0.000119
  19 S :    0.010192   -0.000100
  20 S :    0.008931   -0.000055
  21 S :    0.007917   -0.000081
  22 C :   -0.300004    0.000001
  23 C :   -0.299474   -0.000002
  24 C :   -0.159199   -0.000013
  25 H :    0.142839   -0.000002
  26 H :    0.113291   -0.000004
  27 H :    0.083381   -0.000000
  28 H :    0.092069   -0.000001
  29 H :    0.113732   -0.000003
  30 H :    0.143500   -0.000002
  31 C :   -0.293443    0.000191
  32 C :   -0.303978    0.000190
  33 C :   -0.161066   -0.000242
  34 H :    0.145384   -0.000022
  35 H :    0.115113    0.000026
  36 H :    0.092737    0.000023
  37 H :    0.082990    0.000014
  38 H :    0.111264    0.000014
  39 H :    0.138009   -0.000011
Sum of atomic charges         :   -2.0000000

LOEWDIN ATOMIC CHARGES AND SPIN POPULATIONS
-------------------------------------------
   0 V :   -0.153849    1.165979
   1 S :    0.072834   -0.014049
   2 S :    0.071173   -0.016066
   3 S :    0.087749   -0.016213
   4 S :    0.090913   -0.016657
   5 O :   -0.321696   -0.132829
   6 C :   -0.544998    0.008424
   7 C :   -0.551874    0.008706
   8 C :   -0.550012    0.007706
   9 C :   -0.551536    0.008064
  10 S :    0.466224   -0.000953
  11 S :    0.467714   -0.000872
  12 S :    0.470607   -0.000754
  13 S :    0.464846   -0.000897
  14 C :   -0.460492    0.000178
  15 C :   -0.462302   -0.000056
  16 C :   -0.622014    0.000461
  17 C :   -0.621441    0.000072
  18 S :    0.356178   -0.000099
  19 S :    0.361568   -0.000073
  20 S :    0.362203   -0.000064
  21 S :    0.355285   -0.000083
  22 C :   -0.282909   -0.000008
  23 C :   -0.283925   -0.000009
  24 C :   -0.176081   -0.000002
  25 H :    0.062435   -0.000002
  26 H :    0.053536   -0.000002
  27 H :    0.057989   -0.000002
  28 H :    0.060154   -0.000001
  29 H :    0.053688   -0.000002
  30 H :    0.062445   -0.000001
  31 C :   -0.286032    0.000043
  32 C :   -0.283470    0.000032
  33 C :   -0.176914    0.000006
  34 H :    0.064511   -0.000002
  35 H :    0.054161    0.000011
  36 H :    0.060642    0.000004
  37 H :    0.057558    0.000002
  38 H :    0.054268    0.000006
  39 H :    0.060862    0.000002

  Mayer bond orders larger than 0.100000
B(  0-V ,  1-S ) :   0.7618 B(  0-V ,  2-S ) :   0.7555 B(  0-V ,  3-S ) :   0.7739
B(  0-V ,  4-S ) :   0.7927 B(  0-V ,  5-O ) :   2.1470 B(  1-S ,  8-C ) :   1.1075
B(  2-S ,  6-C ) :   1.1157 B(  3-S ,  9-C ) :   1.1039 B(  4-S ,  7-C ) :   1.0952
B(  6-C ,  7-C ) :   1.6827 B(  6-C , 10-S ) :   0.9332 B(  7-C , 11-S ) :   0.9322
B(  8-C ,  9-C ) :   1.6948 B(  8-C , 13-S ) :   0.9309 B(  9-C , 12-S ) :   0.9321
B( 10-S , 14-C ) :   1.2368 B( 11-S , 14-C ) :   1.2424 B( 12-S , 15-C ) :   1.2407
B( 13-S , 15-C ) :   1.2427 B( 14-C , 16-C ) :   1.4541 B( 15-C , 17-C ) :   1.4566
B( 16-C , 18-S ) :   1.0864 B( 16-C , 19-S ) :   1.0865 B( 17-C , 20-S ) :   1.0913
B( 17-C , 21-S ) :   1.0831 B( 18-S , 32-C ) :   0.9846 B( 19-S , 31-C ) :   0.9984
B( 20-S , 23-C ) :   0.9918 B( 21-S , 22-C ) :   0.9908 B( 22-C , 24-C ) :   0.9142
B( 22-C , 25-H ) :   0.9652 B( 22-C , 26-H ) :   0.9654 B( 23-C , 24-C ) :   0.9131
B( 23-C , 29-H ) :   0.9657 B( 23-C , 30-H ) :   0.9664 B( 24-C , 27-H ) :   0.9624
B( 24-C , 28-H ) :   0.9719 B( 31-C , 33-C ) :   0.9189 B( 31-C , 38-H ) :   0.9655
B( 31-C , 39-H ) :   0.9644 B( 32-C , 33-C ) :   0.9088 B( 32-C , 34-H ) :   0.9662
B( 32-C , 35-H ) :   0.9646 B( 33-C , 36-H ) :   0.9714 B( 33-C , 37-H ) :   0.9624

FINAL SINGLE POINT ENERGY     -6337.702688399698

DIPOLE MOMENT
-------------
                                X             Y             Z
Electronic contribution:     -2.95073       5.71266     -11.97827
Nuclear contribution   :      3.26794      -6.32677      13.35404
                        -----------------------------------------
Total Dipole Moment    :      0.31721      -0.61411       1.37576
                        -----------------------------------------
Magnitude (a.u.)       :      1.53963
Magnitude (Debye)      :      3.91343

Rotational constants in cm-1:     0.010732     0.000804     0.000784
Rotational constants in MHz :   321.727132    24.114472    23.489392

                             ****ORCA TERMINATED NORMALLY****
TOTAL RUN TIME: 0 days 1 hours 1 minutes 27 seconds 77 msec
