                         Program Version 5.0.4 -  RELEASE  -
|  1> ! nofrozencore ReducedPop printbasis
|  2> ! B3LYP TZVP
|  3>
|  4> %basis
|  5> newgto V "CP(PPP)" end
|  6> end
|  7>
|  8> %pal
|  9> nprocs 8
| 10> end
| 11>
| 12> % sym SymThresh 1e-2 end
| 13> * xyz -2 2
| 14> V -0.8823047943415836 0.1634855873952426 0.6585980289158844
| 15> S 0.4766107069792576 2.163972504182761 1.1786983817074328
| 16> S -1.3441202465366895 1.269118412804237 -1.5073368572032608
| 17> S 0.729093162629411 -1.080601948227178 2.0681342049839686
| 18> S -0.9863125028692907 -1.9481083155403474 -0.6123502611400317
| 19> O -2.232264629045803 0.2835684958322452 1.4878104942627748
| 20> C -1.9995437856965825 -0.1004225667689103 -2.3939448350936834
| 21> C -1.85259892337696 -1.391997322190073 -2.035935856716561
| 22> C 1.5562801775684565 1.53090823362457 2.4136863828484416
| 23> C 1.6584627481349996 0.2361384122440928 2.765725971765342
| 24> S -2.8714494735196148 0.2031463850932151 -3.934841280900856
| 25> S -2.5336984682175747 -2.616723537859785 -3.1564829465589526
| 26> S 2.8819154747314766 -0.15885133951572153 4.019864640384712
| 27> S 2.6551112522089126 2.676194799340171 3.2555412129449754
| 28> C -3.1532481519883264 -1.4861637630433473 -4.360833241160805
| 29> C 3.514582157753652 1.4776197361038357 4.229874347968166
| 30> C -3.7979345843961045 -1.8844321328898588 -5.510633906685978
| 31> C 4.552728680012849 1.7851614453636333 5.0660881599712315
| 32> S -4.464378865270498 -0.712270537033903 -6.668364942684941
| 33> S -4.056026049313445 -3.6015886600164886 -5.888477559002956
| 34> S 5.158591369994423 3.451258878036131 5.242057690809387
| 35> S 5.401165404965665 0.5350760932748548 6.0113408227320475
| 36> C 7.0744219741230205 0.7054797123159102 5.238929631663801
| 37> C 6.870430061585769 3.1869128051637627 4.589977811242641
| 38> C 7.662592671640833 2.1178815788544494 5.354139833147261
| 39> H 6.988146089318132 0.3800601034585617 4.20004414200372
| 40> H 7.727898890413611 0.004426581846899821 5.765089666766183
| 41> H 8.682535016264561 2.095114584473229 4.945167895080239
| 42> H 7.742180280054641 2.3997300107148725 6.408938304898046
| 43> H 7.385661777549483 4.146359196486558 4.686190074945098
| 44> H 6.781841577641367 2.9502229199670755 3.5275989534263674
| 45> C -5.896475855522198 -3.6161135308029038 -5.831348002136121
| 46> C -6.244573183640671 -1.1514697918782877 -6.489282024793003
| 47> C -6.549320190711662 -2.6469638688355097 -6.893115440426404
| 48> H -6.459341411584774 -0.7079101146527913 -5.4947502649776805
| 49> H -6.9247476311326235 -0.7149751846151364 -7.278832964779909
| 50> H -6.296698228960922 -2.888788127717769 -7.935418839608357
| 51> H -7.6395327637631105 -2.7749005936512225 -6.793433908139982
| 52> H -6.38024340854402 -4.542661197356483 -6.260937562168015
| 53> H -6.06030486022767 -3.5578134164544606 -4.734955093099778
| 54> *
| 55>
| 56> % eprnmr
| 57> gtensor true
| 58> Nuclei = all H {aiso,adip,aorb,fgrad,rho}
| 59> Nuclei = all V {aiso,adip,aorb,fgrad,rho}
| 60> end
| 61>
| 62>                          ****END OF INPUT****

CARTESIAN COORDINATES (ANGSTROEM)
---------------------------------
  V     -0.881151    0.162606    0.655049
  S      0.477764    2.163093    1.175150
  S     -1.342967    1.268239   -1.510886
  S      0.730247   -1.081481    2.064585
  S     -0.985159   -1.948987   -0.615899
  O     -2.231111    0.282689    1.484262
  C     -1.998390   -0.101302   -2.397494
  C     -1.851445   -1.392877   -2.039485
  C      1.557434    1.530029    2.410138
  C      1.659616    0.235259    2.762177
  S     -2.870296    0.202267   -3.938390
  S     -2.532545   -2.617603   -3.160032
  S      2.883069   -0.159731    4.016316
  S      2.656265    2.675316    3.251992
  C     -3.152095   -1.487043   -4.364382
  C      3.515736    1.476741    4.226326
  C     -3.796781   -1.885311   -5.514183
  C      4.553882    1.784282    5.062539
  S     -4.463225   -0.713150   -6.671914
  S     -4.054872   -3.602468   -5.892026
  S      5.159745    3.450380    5.238509
  S      5.402319    0.534197    6.007792
  C      7.075576    0.704601    5.235381
  C      6.871584    3.186034    4.586429
  C      7.663746    2.117002    5.350591
  H      6.989300    0.379181    4.196495
  H      7.729053    0.003547    5.761541
  H      8.683689    2.094235    4.941619
  H      7.743334    2.398851    6.405390
  H      7.386815    4.145480    4.682641
  H      6.782995    2.949344    3.524050
  C     -5.895322   -3.616993   -5.834897
  C     -6.243420   -1.152349   -6.492831
  C     -6.548167   -2.647843   -6.896664
  H     -6.458188   -0.708789   -5.498299
  H     -6.923594   -0.715854   -7.282382
  H     -6.295545   -2.889667   -7.938968
  H     -7.638379   -2.775780   -6.796983
  H     -6.379090   -4.543540   -6.264486
  H     -6.059151   -3.558693   -4.738504

 Total Charge           Charge          ....   -2
 Multiplicity           Mult            ....    2
 Number of Electrons    NEL             ....  321
 Basis Dimension        Dim             ....  681

ORBITAL ENERGIES
----------------
                 SPIN UP ORBITALS
  NO   OCC          E(Eh)            E(eV)
   0   1.0000    -196.675342     -5351.8081
   1   1.0000     -88.733051     -2414.5491
   2   1.0000     -88.732962     -2414.5466
   3   1.0000     -88.731996     -2414.5204
   4   1.0000     -88.731829     -2414.5158
   5   1.0000     -88.730469     -2414.4788
   6   1.0000     -88.730464     -2414.4787
   7   1.0000     -88.730360     -2414.4759
   8   1.0000     -88.730329     -2414.4750
   9   1.0000     -88.640398     -2412.0279
  10   1.0000     -88.640293     -2412.0250
  11   1.0000     -88.640160     -2412.0214
  12   1.0000     -88.639637     -2412.0071
  13   1.0000     -22.050734      -600.0310
  14   1.0000     -18.890639      -514.0404
  15   1.0000     -18.557181      -504.9666
  16   1.0000     -18.552010      -504.8259
  17   1.0000     -18.551910      -504.8231
  18   1.0000     -10.077632      -274.2263
  19   1.0000     -10.076125      -274.1853
  20   1.0000     -10.067748      -273.9574
  21   1.0000     -10.067736      -273.9570
  22   1.0000     -10.063299      -273.8363
  23   1.0000     -10.063254      -273.8351
  24   1.0000     -10.063130      -273.8317
  25   1.0000     -10.051876      -273.5255
  26   1.0000     -10.048767      -273.4409
  27   1.0000     -10.048548      -273.4349
  28   1.0000     -10.019503      -272.6445
  29   1.0000     -10.018575      -272.6193
  30   1.0000     -10.018185      -272.6087
  31   1.0000     -10.017391      -272.5871
  32   1.0000      -7.786530      -211.8822
  33   1.0000      -7.786437      -211.8797
  34   1.0000      -7.785245      -211.8473
  35   1.0000      -7.785121      -211.8439
  36   1.0000      -7.784209      -211.8191
  37   1.0000      -7.784180      -211.8183
  38   1.0000      -7.783629      -211.8033
  39   1.0000      -7.783604      -211.8026
  40   1.0000      -7.694758      -209.3850
  41   1.0000      -7.694516      -209.3784
  42   1.0000      -7.694433      -209.3762
  43   1.0000      -7.694003      -209.3645
  44   1.0000      -5.751518      -156.5068
  45   1.0000      -5.751431      -156.5044
  46   1.0000      -5.750153      -156.4696
  47   1.0000      -5.750028      -156.4662
  48   1.0000      -5.749151      -156.4423
  49   1.0000      -5.749118      -156.4415
  50   1.0000      -5.748578      -156.4268
  51   1.0000      -5.748555      -156.4261
  52   1.0000      -5.748097      -156.4137
  53   1.0000      -5.748009      -156.4113
  54   1.0000      -5.745798      -156.3511
  55   1.0000      -5.745784      -156.3507
  56   1.0000      -5.745735      -156.3494
  57   1.0000      -5.745612      -156.3460
  58   1.0000      -5.744142      -156.3060
  59   1.0000      -5.744123      -156.3055
  60   1.0000      -5.741326      -156.2294
  61   1.0000      -5.741226      -156.2267
  62   1.0000      -5.741133      -156.2242
  63   1.0000      -5.740998      -156.2205
  64   1.0000      -5.739443      -156.1782
  65   1.0000      -5.739421      -156.1776
  66   1.0000      -5.738965      -156.1652
  67   1.0000      -5.738932      -156.1643
  68   1.0000      -5.660046      -154.0177
  69   1.0000      -5.659851      -154.0124
  70   1.0000      -5.659749      -154.0096
  71   1.0000      -5.659294      -153.9972
  72   1.0000      -5.653384      -153.8364
  73   1.0000      -5.653184      -153.8309
  74   1.0000      -5.653112      -153.8290
  75   1.0000      -5.652669      -153.8169
  76   1.0000      -5.652084      -153.8010
  77   1.0000      -5.651830      -153.7941
  78   1.0000      -5.651757      -153.7921
  79   1.0000      -5.651312      -153.7800
  80   1.0000      -2.444375       -66.5148
  81   1.0000      -1.485670       -40.4271
  82   1.0000      -1.474020       -40.1101
  83   1.0000      -1.473198       -40.0877
  84   1.0000      -0.709491       -19.3062
  85   1.0000      -0.708545       -19.2805
  86   1.0000      -0.685273       -18.6472
  87   1.0000      -0.682122       -18.5615
  88   1.0000      -0.650209       -17.6931
  89   1.0000      -0.631094       -17.1729
  90   1.0000      -0.628433       -17.1005
  91   1.0000      -0.617058       -16.7910
  92   1.0000      -0.614166       -16.7123
  93   1.0000      -0.575938       -15.6721
  94   1.0000      -0.574758       -15.6400
  95   1.0000      -0.574226       -15.6255
  96   1.0000      -0.572958       -15.5910
  97   1.0000      -0.497276       -13.5316
  98   1.0000      -0.495854       -13.4929
  99   1.0000      -0.495541       -13.4843
 100   1.0000      -0.491889       -13.3850
 101   1.0000      -0.479461       -13.0468
 102   1.0000      -0.476911       -12.9774
 103   1.0000      -0.446865       -12.1598
 104   1.0000      -0.443644       -12.0722
 105   1.0000      -0.415954       -11.3187
 106   1.0000      -0.410782       -11.1779
 107   1.0000      -0.353937        -9.6311
 108   1.0000      -0.342043        -9.3075
 109   1.0000      -0.325972        -8.8701
 110   1.0000      -0.319405        -8.6914
 111   1.0000      -0.315002        -8.5716
 112   1.0000      -0.314790        -8.5659
 113   1.0000      -0.309791        -8.4298
 114   1.0000      -0.303642        -8.2625
 115   1.0000      -0.298902        -8.1335
 116   1.0000      -0.294068        -8.0020
 117   1.0000      -0.267913        -7.2903
 118   1.0000      -0.257526        -7.0076
 119   1.0000      -0.255238        -6.9454
 120   1.0000      -0.250425        -6.8144
 121   1.0000      -0.246850        -6.7171
 122   1.0000      -0.236275        -6.4294
 123   1.0000      -0.229524        -6.2457
 124   1.0000      -0.220762        -6.0072
 125   1.0000      -0.219021        -5.9599
 126   1.0000      -0.215995        -5.8775
 127   1.0000      -0.212513        -5.7828
 128   1.0000      -0.204580        -5.5669
 129   1.0000      -0.193302        -5.2600
 130   1.0000      -0.187176        -5.0933
 131   1.0000      -0.183087        -4.9821
 132   1.0000      -0.182941        -4.9781
 133   1.0000      -0.173696        -4.7265
 134   1.0000      -0.159958        -4.3527
 135   1.0000      -0.149167        -4.0590
 136   1.0000      -0.138791        -3.7767
 137   1.0000      -0.137048        -3.7293
 138   1.0000      -0.134755        -3.6669
 139   1.0000      -0.133111        -3.6221
 140   1.0000      -0.125718        -3.4210
 141   1.0000      -0.121703        -3.3117
 142   1.0000      -0.113942        -3.1005
 143   1.0000      -0.110189        -2.9984
 144   1.0000      -0.100670        -2.7394
 145   1.0000      -0.098635        -2.6840
 146   1.0000      -0.097091        -2.6420
 147   1.0000      -0.093645        -2.5482
 148   1.0000      -0.074896        -2.0380
 149   1.0000      -0.067206        -1.8288
 150   1.0000      -0.064390        -1.7521
 151   1.0000      -0.052820        -1.4373
 152   1.0000      -0.046007        -1.2519
 153   1.0000      -0.037526        -1.0211
 154   1.0000      -0.037289        -1.0147
 155   1.0000      -0.031184        -0.8486
 156   1.0000      -0.025442        -0.6923
 157   1.0000      -0.019520        -0.5312
 158   1.0000      -0.016020        -0.4359
 159   1.0000       0.019936         0.5425
 160   1.0000       0.040802         1.1103
 161   0.0000       0.134447         3.6585
 162   0.0000       0.137207         3.7336
 163   0.0000       0.157909         4.2969
 164   0.0000       0.162013         4.4086
 165   0.0000       0.170504         4.6397

                 SPIN DOWN ORBITALS
  NO   OCC          E(Eh)            E(eV)
   0   1.0000    -196.675489     -5351.8121
   1   1.0000     -88.733052     -2414.5491
   2   1.0000     -88.732962     -2414.5467
   3   1.0000     -88.732004     -2414.5206
   4   1.0000     -88.731838     -2414.5161
   5   1.0000     -88.730470     -2414.4788
   6   1.0000     -88.730465     -2414.4787
   7   1.0000     -88.730368     -2414.4761
   8   1.0000     -88.730337     -2414.4752
   9   1.0000     -88.640538     -2412.0317
  10   1.0000     -88.640434     -2412.0288
  11   1.0000     -88.640297     -2412.0251
  12   1.0000     -88.639776     -2412.0109
  13   1.0000     -22.035806      -599.6248
  14   1.0000     -18.894417      -514.1432
  15   1.0000     -18.551916      -504.8233
  16   1.0000     -18.535980      -504.3897
  17   1.0000     -18.535796      -504.3846
  18   1.0000     -10.077626      -274.2261
  19   1.0000     -10.076124      -274.1853
  20   1.0000     -10.067748      -273.9573
  21   1.0000     -10.067735      -273.9570
  22   1.0000     -10.063299      -273.8363
  23   1.0000     -10.063254      -273.8351
  24   1.0000     -10.063129      -273.8317
  25   1.0000     -10.051876      -273.5255
  26   1.0000     -10.048755      -273.4405
  27   1.0000     -10.048544      -273.4348
  28   1.0000     -10.019265      -272.6381
  29   1.0000     -10.018353      -272.6132
  30   1.0000     -10.017971      -272.6029
  31   1.0000     -10.017179      -272.5813
  32   1.0000      -7.786530      -211.8823
  33   1.0000      -7.786438      -211.8797
  34   1.0000      -7.785254      -211.8475
  35   1.0000      -7.785131      -211.8442
  36   1.0000      -7.784210      -211.8191
  37   1.0000      -7.784181      -211.8183
  38   1.0000      -7.783638      -211.8036
  39   1.0000      -7.783613      -211.8029
  40   1.0000      -7.694888      -209.3886
  41   1.0000      -7.694647      -209.3820
  42   1.0000      -7.694561      -209.3796
  43   1.0000      -7.694133      -209.3680
  44   1.0000      -5.751519      -156.5068
  45   1.0000      -5.751432      -156.5044
  46   1.0000      -5.750164      -156.4699
  47   1.0000      -5.750039      -156.4665
  48   1.0000      -5.749152      -156.4424
  49   1.0000      -5.749119      -156.4415
  50   1.0000      -5.748589      -156.4271
  51   1.0000      -5.748566      -156.4264
  52   1.0000      -5.748097      -156.4137
  53   1.0000      -5.748010      -156.4113
  54   1.0000      -5.745799      -156.3511
  55   1.0000      -5.745785      -156.3508
  56   1.0000      -5.745749      -156.3498
  57   1.0000      -5.745626      -156.3464
  58   1.0000      -5.744156      -156.3064
  59   1.0000      -5.744137      -156.3059
  60   1.0000      -5.741327      -156.2294
  61   1.0000      -5.741227      -156.2267
  62   1.0000      -5.741141      -156.2244
  63   1.0000      -5.741007      -156.2207
  64   1.0000      -5.739448      -156.1783
  65   1.0000      -5.739427      -156.1778
  66   1.0000      -5.738966      -156.1652
  67   1.0000      -5.738933      -156.1643
  68   1.0000      -5.660184      -154.0214
  69   1.0000      -5.659992      -154.0162
  70   1.0000      -5.659892      -154.0135
  71   1.0000      -5.659436      -154.0011
  72   1.0000      -5.653770      -153.8469
  73   1.0000      -5.653565      -153.8413
  74   1.0000      -5.653463      -153.8385
  75   1.0000      -5.653030      -153.8268
  76   1.0000      -5.652171      -153.8034
  77   1.0000      -5.651923      -153.7966
  78   1.0000      -5.651863      -153.7950
  79   1.0000      -5.651418      -153.7829
  80   1.0000      -2.399501       -65.2937
  81   1.0000      -1.466387       -39.9024
  82   1.0000      -1.411647       -38.4129
  83   1.0000      -1.411491       -38.4086
  84   1.0000      -0.709475       -19.3058
  85   1.0000      -0.708511       -19.2796
  86   1.0000      -0.685230       -18.6461
  87   1.0000      -0.682069       -18.5600
  88   1.0000      -0.658315       -17.9137
  89   1.0000      -0.631036       -17.1714
  90   1.0000      -0.628361       -17.0986
  91   1.0000      -0.617060       -16.7911
  92   1.0000      -0.614165       -16.7123
  93   1.0000      -0.575909       -15.6713
  94   1.0000      -0.574735       -15.6393
  95   1.0000      -0.574144       -15.6233
  96   1.0000      -0.572892       -15.5892
  97   1.0000      -0.497289       -13.5319
  98   1.0000      -0.495903       -13.4942
  99   1.0000      -0.495571       -13.4852
 100   1.0000      -0.491977       -13.3874
 101   1.0000      -0.479637       -13.0516
 102   1.0000      -0.477126       -12.9833
 103   1.0000      -0.446890       -12.1605
 104   1.0000      -0.443691       -12.0734
 105   1.0000      -0.415954       -11.3187
 106   1.0000      -0.410884       -11.1807
 107   1.0000      -0.353932        -9.6310
 108   1.0000      -0.342020        -9.3068
 109   1.0000      -0.325961        -8.8699
 110   1.0000      -0.319324        -8.6892
 111   1.0000      -0.314995        -8.5714
 112   1.0000      -0.314815        -8.5666
 113   1.0000      -0.309789        -8.4298
 114   1.0000      -0.303604        -8.2615
 115   1.0000      -0.298865        -8.1325
 116   1.0000      -0.294065        -8.0019
 117   1.0000      -0.267887        -7.2896
 118   1.0000      -0.257420        -7.0048
 119   1.0000      -0.255165        -6.9434
 120   1.0000      -0.250352        -6.8124
 121   1.0000      -0.246761        -6.7147
 122   1.0000      -0.236243        -6.4285
 123   1.0000      -0.229493        -6.2448
 124   1.0000      -0.220379        -5.9968
 125   1.0000      -0.218921        -5.9571
 126   1.0000      -0.215821        -5.8728
 127   1.0000      -0.212352        -5.7784
 128   1.0000      -0.204578        -5.5669
 129   1.0000      -0.191381        -5.2077
 130   1.0000      -0.187105        -5.0914
 131   1.0000      -0.182924        -4.9776
 132   1.0000      -0.182710        -4.9718
 133   1.0000      -0.173520        -4.7217
 134   1.0000      -0.159333        -4.3357
 135   1.0000      -0.149030        -4.0553
 136   1.0000      -0.138693        -3.7740
 137   1.0000      -0.136496        -3.7142
 138   1.0000      -0.134375        -3.6565
 139   1.0000      -0.132939        -3.6175
 140   1.0000      -0.125066        -3.4032
 141   1.0000      -0.121374        -3.3027
 142   1.0000      -0.115717        -3.1488
 143   1.0000      -0.111791        -3.0420
 144   1.0000      -0.100701        -2.7402
 145   1.0000      -0.098934        -2.6921
 146   1.0000      -0.097067        -2.6413
 147   1.0000      -0.093950        -2.5565
 148   1.0000      -0.071066        -1.9338
 149   1.0000      -0.067195        -1.8285
 150   1.0000      -0.064391        -1.7522
 151   1.0000      -0.050241        -1.3671
 152   1.0000      -0.045076        -1.2266
 153   1.0000      -0.037331        -1.0158
 154   1.0000      -0.036946        -1.0053
 155   1.0000      -0.031194        -0.8488
 156   1.0000      -0.026481        -0.7206
 157   1.0000      -0.016228        -0.4416
 158   1.0000       0.020221         0.5502
 159   1.0000       0.039709         1.0805
 160   0.0000       0.134423         3.6578
 161   0.0000       0.137198         3.7334
 162   0.0000       0.154977         4.2171
 163   0.0000       0.158925         4.3246
 164   0.0000       0.162864         4.4317

MULLIKEN ATOMIC CHARGES AND SPIN POPULATIONS
--------------------------------------------
   0 V :    0.470912    1.210562
   1 S :   -0.290930   -0.022543
   2 S :   -0.287914   -0.025071
   3 S :   -0.288981   -0.023487
   4 S :   -0.283772   -0.025577
   5 O :   -0.467423   -0.146603
   6 C :   -0.079547    0.009654
   7 C :   -0.086320    0.007981
   8 C :   -0.084065    0.007735
   9 C :   -0.084474    0.007425
  10 S :    0.103018   -0.000605
  11 S :    0.104051   -0.000641
  12 S :    0.100286   -0.000394
  13 S :    0.099452   -0.000348
  14 C :   -0.172594    0.001454
  15 C :   -0.208558    0.000990
  16 C :   -0.260898    0.000023
  17 C :   -0.196507   -0.000397
  18 S :    0.018253   -0.000106
  19 S :    0.018696   -0.000105
  20 S :    0.009114   -0.000067
  21 S :    0.009133   -0.000070
  22 C :   -0.302783   -0.000002
  23 C :   -0.302388   -0.000002
  24 C :   -0.156492   -0.000010
  25 H :    0.145399   -0.000001
  26 H :    0.112768   -0.000004
  27 H :    0.083106   -0.000000
  28 H :    0.093528   -0.000001
  29 H :    0.112501   -0.000004
  30 H :    0.145056   -0.000001
  31 C :   -0.311168    0.000173
  32 C :   -0.311971    0.000168
  33 C :   -0.142448   -0.000205
  34 H :    0.158751   -0.000016
  35 H :    0.091577    0.000032
  36 H :    0.111737    0.000021
  37 H :    0.081752    0.000028
  38 H :    0.091450    0.000032
  39 H :    0.158694   -0.000017
Sum of atomic charges         :   -2.0000000

LOEWDIN ATOMIC CHARGES AND SPIN POPULATIONS
-------------------------------------------
   0 V :   -0.155840    1.163917
   1 S :    0.080130   -0.014543
   2 S :    0.080367   -0.015980
   3 S :    0.081459   -0.015332
   4 S :    0.084264   -0.016233
   5 O :   -0.318871   -0.131515
   6 C :   -0.549988    0.009023
   7 C :   -0.552154    0.007913
   8 C :   -0.552323    0.008129
   9 C :   -0.552331    0.007669
  10 S :    0.476012   -0.000924
  11 S :    0.476850   -0.000968
  12 S :    0.471657   -0.000823
  13 S :    0.470905   -0.000831
  14 C :   -0.465963    0.000197
  15 C :   -0.465210   -0.000080
  16 C :   -0.629186    0.000491
  17 C :   -0.622405    0.000086
  18 S :    0.355910   -0.000084
  19 S :    0.357385   -0.000080
  20 S :    0.358765   -0.000072
  21 S :    0.358351   -0.000074
  22 C :   -0.283972   -0.000007
  23 C :   -0.284103   -0.000008
  24 C :   -0.175479   -0.000002
  25 H :    0.062907   -0.000001
  26 H :    0.053585   -0.000002
  27 H :    0.057790   -0.000001
  28 H :    0.060925   -0.000001
  29 H :    0.053557   -0.000002
  30 H :    0.062737   -0.000001
  31 C :   -0.304373    0.000048
  32 C :   -0.303970    0.000041
  33 C :   -0.172625    0.000012
  34 H :    0.071078   -0.000000
  35 H :    0.059327    0.000014
  36 H :    0.068823    0.000007
  37 H :    0.055559    0.000005
  38 H :    0.059446    0.000014
  39 H :    0.071006    0.000000

  Mayer bond orders larger than 0.100000
B(  0-V ,  1-S ) :   0.7727 B(  0-V ,  2-S ) :   0.7700 B(  0-V ,  3-S ) :   0.7659
B(  0-V ,  4-S ) :   0.7774 B(  0-V ,  5-O ) :   2.1489 B(  1-S ,  8-C ) :   1.1034
B(  2-S ,  6-C ) :   1.1066 B(  3-S ,  9-C ) :   1.1060 B(  4-S ,  7-C ) :   1.1066
B(  6-C ,  7-C ) :   1.6790 B(  6-C , 10-S ) :   0.9362 B(  7-C , 11-S ) :   0.9402
B(  8-C ,  9-C ) :   1.6982 B(  8-C , 13-S ) :   0.9337 B(  9-C , 12-S ) :   0.9355
B( 10-S , 14-C ) :   1.2474 B( 11-S , 14-C ) :   1.2466 B( 12-S , 15-C ) :   1.2462
B( 13-S , 15-C ) :   1.2463 B( 14-C , 16-C ) :   1.4199 B( 15-C , 17-C ) :   1.4521
B( 16-C , 18-S ) :   1.1178 B( 16-C , 19-S ) :   1.1191 B( 17-C , 20-S ) :   1.0911
B( 17-C , 21-S ) :   1.0917 B( 18-S , 32-C ) :   0.9917 B( 19-S , 31-C ) :   0.9918
B( 20-S , 23-C ) :   0.9907 B( 21-S , 22-C ) :   0.9900 B( 22-C , 24-C ) :   0.9113
B( 22-C , 25-H ) :   0.9659 B( 22-C , 26-H ) :   0.9655 B( 23-C , 24-C ) :   0.9119
B( 23-C , 29-H ) :   0.9656 B( 23-C , 30-H ) :   0.9656 B( 24-C , 27-H ) :   0.9629
B( 24-C , 28-H ) :   0.9715 B( 31-C , 33-C ) :   0.8901 B( 31-C , 38-H ) :   0.9634
B( 31-C , 39-H ) :   0.9649 B( 32-C , 33-C ) :   0.8899 B( 32-C , 34-H ) :   0.9647
B( 32-C , 35-H ) :   0.9635 B( 33-C , 36-H ) :   0.9600 B( 33-C , 37-H ) :   0.9730

FINAL SINGLE POINT ENERGY     -6337.670876161197

DIPOLE MOMENT
-------------
                                X             Y             Z
Electronic contribution:     -8.20723       3.43121      10.41242
Nuclear contribution   :      9.22777      -3.77507     -11.45668
                        -----------------------------------------
Total Dipole Moment    :      1.02054      -0.34386      -1.04425
                        -----------------------------------------
Magnitude (a.u.)       :      1.50007
Magnitude (Debye)      :      3.81287

Rotational constants in cm-1:     0.010771     0.000804     0.000783
Rotational constants in MHz :   322.919208    24.113342    23.484558

                             ****ORCA TERMINATED NORMALLY****
TOTAL RUN TIME: 0 days 1 hours 1 minutes 47 seconds 899 msec
