                         Program Version 5.0.4 -  RELEASE  -
|  1> ! nofrozencore ReducedPop printbasis
|  2> ! B3LYP TZVP
|  3>
|  4> %basis
|  5> newgto V "CP(PPP)" end
|  6> end
|  7>
|  8> %pal
|  9> nprocs 6
| 10> end
| 11>
| 12> % sym SymThresh 1e-2 end
| 13> * xyz -2 2
| 14> V -0.8150569730675311 0.3315214843849069 0.6817331629481007
| 15> S -0.3694263685010169 -1.943589764029242 1.5443919327094096
| 16> S 1.3409226527145701 0.9496968602841384 1.7289910207168138
| 17> S -1.9826825104209786 -0.7967365339673981 -1.18766181875582
| 18> S -0.23996701577952226 1.9999972189714514 -1.0418068111518235
| 19> O -1.932565211868913 0.9755691414030992 1.609380587361822
| 20> C 1.6022876242786528 2.5039858333194434 0.948823448070294
| 21> C 0.9705426837949749 2.9230923881746853 -0.16412232344584055
| 22> C -1.3655500413726391 -2.916422362628646 0.4705322194278837
| 23> C -2.006223622462501 -2.4587546855073454 -0.6206422684212801
| 24> S 2.8516517975412277 3.6079719355644833 1.6181705118225203
| 25> S 1.478632319650048 4.512466171237798 -0.8245968305922622
| 26> S -2.91512042386771 -3.67201286295886 -1.5837492924992949
| 27> S -1.5190636627381318 -4.674394598485888 0.8078003720651303
| 28> C 2.7138529429311204 4.869491282799813 0.3875278601839176
| 29> C -2.4897077996393957 -5.085233526289806 -0.611555285225222
| 30> C 3.473276607881487 6.007990346893346 0.3779891457788605
| 31> C -2.8789017367869945 -6.359331422606231 -0.9195158567593235
| 32> S 4.669441624656814 6.356738775921421 1.6518963416005694
| 33> S 3.294373804675138 7.2444409220804 -0.892541991526524
| 34> S -2.422369572387278 -7.754277520637459 0.09096050634125036
| 35> S -3.8403481754955195 -6.723570699177454 -2.375683391724503
| 36> C -2.6065722896870285 -7.78990515430865 -3.249763667895135
| 37> C -1.4060803100001293 -8.66953752639043 -1.15560336257388
| 38> C -2.1588262135567415 -9.006709945296317 -2.4419649536430055
| 39> H -1.7236254549535108 -7.145450412467941 -3.525834453352573
| 40> H -3.1119171140826043 -8.114405035549082 -4.200687122849607
| 41> H -1.5024484167096743 -9.618701857239994 -3.0747088178311235
| 42> H -3.063305511535052 -9.638291324039345 -2.1896199555100564
| 43> H -1.077265369351822 -9.60479462866795 -0.6405540461604856
| 44> H -0.4952369072101146 -8.05610801954581 -1.377579505319617
| 45> C 2.7061921033121403 8.663865894390195 0.16299554595571444
| 46> C 3.8888106490544008 7.893517067859472 2.3556212790413222
| 47> C 3.731222261605398 9.008804505593169 1.2847137436781468
| 48> H 3.162380896902071 7.6895608455377324 2.687255508226353
| 49> H 4.428175188791985 8.164059680899333 2.9730900279705526
| 50> H 4.388124175337265 9.185912420998482 0.9942013672030722
| 51> H 3.3305494263696915 9.894506358175246 1.8096152084073458
| 52> H 2.640977041830622 9.280358113475696 -0.329586403659774
| 53> H 2.034169832627531 8.484596302610203 0.4525421839191666
| 54> *
| 55>
| 56> % eprnmr
| 57> gtensor true
| 58> Nuclei = all H {aiso,adip,aorb,fgrad,rho}
| 59> Nuclei = all V {aiso,adip,aorb,fgrad,rho}
| 60> end
| 61>
| 62>                          ****END OF INPUT****

CARTESIAN COORDINATES (ANGSTROEM)
---------------------------------
  V     -0.811697    0.332476    0.680154
  S     -0.366066   -1.942635    1.542813
  S      1.344283    0.950652    1.727412
  S     -1.979322   -0.795782   -1.189241
  S     -0.236607    2.000952   -1.043386
  O     -1.929205    0.976524    1.607801
  C      1.605648    2.504941    0.947244
  C      0.973903    2.924047   -0.165701
  C     -1.362190   -2.915468    0.468953
  C     -2.002863   -2.457800   -0.622221
  S      2.855012    3.608927    1.616591
  S      1.481993    4.513421   -0.826176
  S     -2.911760   -3.671058   -1.585328
  S     -1.515703   -4.673440    0.806221
  C      2.717213    4.870446    0.385949
  C     -2.486347   -5.084279   -0.613134
  C      3.476637    6.008945    0.376410
  C     -2.875541   -6.358377   -0.921095
  S      4.672802    6.357694    1.650317
  S      3.297734    7.245396   -0.894121
  S     -2.419009   -7.753323    0.089381
  S     -3.836988   -6.722616   -2.377263
  C     -2.603212   -7.788950   -3.251343
  C     -1.402720   -8.668583   -1.157182
  C     -2.155466   -9.005755   -2.443544
  H     -1.720265   -7.144496   -3.527414
  H     -3.108557   -8.113450   -4.202266
  H     -1.499088   -9.617747   -3.076288
  H     -3.059945   -9.637337   -2.191199
  H     -1.073905   -9.603840   -0.642133
  H     -0.491876   -8.055153   -1.379159
  C      2.709553    8.664821    0.161416
  C      3.892171    7.894472    2.354042
  C      3.734583    9.009759    1.283135
  H      3.165741    7.690516    2.685676
  H      4.431536    8.165014    2.971511
  H      4.391485    9.186867    0.992622
  H      3.333910    9.895461    1.808036
  H      2.644337    9.281313   -0.331166
  H      2.037530    8.485551    0.450963

 Total Charge           Charge          ....   -2
 Multiplicity           Mult            ....    2
 Number of Electrons    NEL             ....  321
 Basis Dimension        Dim             ....  681

ORBITAL ENERGIES
----------------
                 SPIN UP ORBITALS
  NO   OCC          E(Eh)            E(eV)
   0   1.0000    -196.673676     -5351.7628
   1   1.0000     -88.733160     -2414.5520
   2   1.0000     -88.733124     -2414.5510
   3   1.0000     -88.730172     -2414.4707
   4   1.0000     -88.730169     -2414.4706
   5   1.0000     -88.729647     -2414.4564
   6   1.0000     -88.729601     -2414.4552
   7   1.0000     -88.727974     -2414.4109
   8   1.0000     -88.727812     -2414.4065
   9   1.0000     -88.638967     -2411.9889
  10   1.0000     -88.638419     -2411.9740
  11   1.0000     -88.638183     -2411.9676
  12   1.0000     -88.638040     -2411.9637
  13   1.0000     -22.049091      -599.9863
  14   1.0000     -18.888974      -513.9951
  15   1.0000     -18.555543      -504.9220
  16   1.0000     -18.550363      -504.7810
  17   1.0000     -18.550264      -504.7783
  18   1.0000     -10.075514      -274.1687
  19   1.0000     -10.073240      -274.1068
  20   1.0000     -10.069428      -274.0031
  21   1.0000     -10.068140      -273.9680
  22   1.0000     -10.054769      -273.6042
  23   1.0000     -10.048036      -273.4210
  24   1.0000     -10.046705      -273.3847
  25   1.0000     -10.017234      -272.5828
  26   1.0000     -10.016439      -272.5612
  27   1.0000     -10.016312      -272.5577
  28   1.0000     -10.016250      -272.5560
  29   1.0000     -10.015367      -272.5320
  30   1.0000     -10.010863      -272.4094
  31   1.0000      -9.999936      -272.1121
  32   1.0000      -7.786595      -211.8840
  33   1.0000      -7.786560      -211.8831
  34   1.0000      -7.783653      -211.8040
  35   1.0000      -7.783644      -211.8037
  36   1.0000      -7.782919      -211.7840
  37   1.0000      -7.782888      -211.7831
  38   1.0000      -7.781262      -211.7389
  39   1.0000      -7.781123      -211.7351
  40   1.0000      -7.693225      -209.3433
  41   1.0000      -7.692783      -209.3313
  42   1.0000      -7.692540      -209.3247
  43   1.0000      -7.692275      -209.3174
  44   1.0000      -5.751593      -156.5088
  45   1.0000      -5.751559      -156.5079
  46   1.0000      -5.748602      -156.4274
  47   1.0000      -5.748597      -156.4273
  48   1.0000      -5.748162      -156.4154
  49   1.0000      -5.748132      -156.4146
  50   1.0000      -5.747870      -156.4075
  51   1.0000      -5.747833      -156.4065
  52   1.0000      -5.746204      -156.3622
  53   1.0000      -5.746068      -156.3584
  54   1.0000      -5.745236      -156.3358
  55   1.0000      -5.745219      -156.3354
  56   1.0000      -5.743430      -156.2867
  57   1.0000      -5.743404      -156.2860
  58   1.0000      -5.741791      -156.2421
  59   1.0000      -5.741643      -156.2380
  60   1.0000      -5.741389      -156.2311
  61   1.0000      -5.741346      -156.2300
  62   1.0000      -5.738733      -156.1589
  63   1.0000      -5.738709      -156.1582
  64   1.0000      -5.738502      -156.1526
  65   1.0000      -5.738499      -156.1525
  66   1.0000      -5.737067      -156.1135
  67   1.0000      -5.736931      -156.1098
  68   1.0000      -5.658545      -153.9769
  69   1.0000      -5.658079      -153.9642
  70   1.0000      -5.657821      -153.9571
  71   1.0000      -5.657606      -153.9513
  72   1.0000      -5.651896      -153.7959
  73   1.0000      -5.651456      -153.7839
  74   1.0000      -5.651176      -153.7763
  75   1.0000      -5.650952      -153.7702
  76   1.0000      -5.650561      -153.7596
  77   1.0000      -5.650084      -153.7466
  78   1.0000      -5.649863      -153.7406
  79   1.0000      -5.649582      -153.7330
  80   1.0000      -2.442740       -66.4703
  81   1.0000      -1.484057       -40.3832
  82   1.0000      -1.472368       -40.0652
  83   1.0000      -1.471559       -40.0431
  84   1.0000      -0.724026       -19.7017
  85   1.0000      -0.708789       -19.2871
  86   1.0000      -0.694698       -18.9037
  87   1.0000      -0.684225       -18.6187
  88   1.0000      -0.656241       -17.8572
  89   1.0000      -0.648642       -17.6504
  90   1.0000      -0.637602       -17.3500
  91   1.0000      -0.630207       -17.1488
  92   1.0000      -0.614703       -16.7269
  93   1.0000      -0.576816       -15.6960
  94   1.0000      -0.573871       -15.6158
  95   1.0000      -0.573568       -15.6076
  96   1.0000      -0.572305       -15.5732
  97   1.0000      -0.544055       -14.8045
  98   1.0000      -0.520054       -14.1514
  99   1.0000      -0.494666       -13.4605
 100   1.0000      -0.493054       -13.4167
 101   1.0000      -0.479926       -13.0595
 102   1.0000      -0.477812       -13.0019
 103   1.0000      -0.476442       -12.9647
 104   1.0000      -0.440896       -11.9974
 105   1.0000      -0.417412       -11.3584
 106   1.0000      -0.410861       -11.1801
 107   1.0000      -0.393605       -10.7105
 108   1.0000      -0.358875        -9.7655
 109   1.0000      -0.351788        -9.5726
 110   1.0000      -0.334495        -9.1021
 111   1.0000      -0.325189        -8.8489
 112   1.0000      -0.317424        -8.6376
 113   1.0000      -0.312067        -8.4918
 114   1.0000      -0.308009        -8.3813
 115   1.0000      -0.302596        -8.2341
 116   1.0000      -0.286505        -7.7962
 117   1.0000      -0.279569        -7.6075
 118   1.0000      -0.259544        -7.0625
 119   1.0000      -0.256962        -6.9923
 120   1.0000      -0.255139        -6.9427
 121   1.0000      -0.251770        -6.8510
 122   1.0000      -0.240519        -6.5448
 123   1.0000      -0.232349        -6.3225
 124   1.0000      -0.228544        -6.2190
 125   1.0000      -0.222188        -6.0460
 126   1.0000      -0.217732        -5.9248
 127   1.0000      -0.214469        -5.8360
 128   1.0000      -0.209819        -5.7095
 129   1.0000      -0.191566        -5.2128
 130   1.0000      -0.186589        -5.0773
 131   1.0000      -0.184619        -5.0237
 132   1.0000      -0.183614        -4.9964
 133   1.0000      -0.178338        -4.8528
 134   1.0000      -0.158228        -4.3056
 135   1.0000      -0.151308        -4.1173
 136   1.0000      -0.146323        -3.9816
 137   1.0000      -0.134216        -3.6522
 138   1.0000      -0.133065        -3.6209
 139   1.0000      -0.131852        -3.5879
 140   1.0000      -0.123978        -3.3736
 141   1.0000      -0.119819        -3.2605
 142   1.0000      -0.112287        -3.0555
 143   1.0000      -0.108633        -2.9561
 144   1.0000      -0.098578        -2.6825
 145   1.0000      -0.096739        -2.6324
 146   1.0000      -0.096548        -2.6272
 147   1.0000      -0.093585        -2.5466
 148   1.0000      -0.073254        -1.9933
 149   1.0000      -0.067056        -1.8247
 150   1.0000      -0.066227        -1.8021
 151   1.0000      -0.051059        -1.3894
 152   1.0000      -0.044329        -1.2063
 153   1.0000      -0.036210        -0.9853
 154   1.0000      -0.035914        -0.9773
 155   1.0000      -0.029610        -0.8057
 156   1.0000      -0.023786        -0.6473
 157   1.0000      -0.017893        -0.4869
 158   1.0000      -0.014111        -0.3840
 159   1.0000       0.021747         0.5918
 160   1.0000       0.042558         1.1581
 161   0.0000       0.136822         3.7231
 162   0.0000       0.142628         3.8811
 163   0.0000       0.162098         4.4109
 164   0.0000       0.167686         4.5630
 165   0.0000       0.171512         4.6671

                 SPIN DOWN ORBITALS
  NO   OCC          E(Eh)            E(eV)
   0   1.0000    -196.673823     -5351.7668
   1   1.0000     -88.733161     -2414.5521
   2   1.0000     -88.733124     -2414.5511
   3   1.0000     -88.730173     -2414.4707
   4   1.0000     -88.730170     -2414.4707
   5   1.0000     -88.729655     -2414.4567
   6   1.0000     -88.729609     -2414.4554
   7   1.0000     -88.727982     -2414.4111
   8   1.0000     -88.727821     -2414.4068
   9   1.0000     -88.639103     -2411.9926
  10   1.0000     -88.638558     -2411.9778
  11   1.0000     -88.638323     -2411.9714
  12   1.0000     -88.638182     -2411.9676
  13   1.0000     -22.034156      -599.5799
  14   1.0000     -18.892764      -514.0982
  15   1.0000     -18.550272      -504.7786
  16   1.0000     -18.534324      -504.3446
  17   1.0000     -18.534146      -504.3397
  18   1.0000     -10.075514      -274.1687
  19   1.0000     -10.073235      -274.1067
  20   1.0000     -10.069428      -274.0031
  21   1.0000     -10.068140      -273.9680
  22   1.0000     -10.054769      -273.6042
  23   1.0000     -10.048032      -273.4209
  24   1.0000     -10.046694      -273.3844
  25   1.0000     -10.017020      -272.5770
  26   1.0000     -10.016250      -272.5560
  27   1.0000     -10.016227      -272.5554
  28   1.0000     -10.016073      -272.5512
  29   1.0000     -10.015144      -272.5259
  30   1.0000     -10.010862      -272.4094
  31   1.0000      -9.999935      -272.1121
  32   1.0000      -7.786596      -211.8840
  33   1.0000      -7.786561      -211.8831
  34   1.0000      -7.783654      -211.8040
  35   1.0000      -7.783644      -211.8037
  36   1.0000      -7.782929      -211.7843
  37   1.0000      -7.782897      -211.7834
  38   1.0000      -7.781271      -211.7392
  39   1.0000      -7.781133      -211.7354
  40   1.0000      -7.693352      -209.3468
  41   1.0000      -7.692913      -209.3348
  42   1.0000      -7.692671      -209.3282
  43   1.0000      -7.692408      -209.3211
  44   1.0000      -5.751594      -156.5088
  45   1.0000      -5.751560      -156.5079
  46   1.0000      -5.748603      -156.4274
  47   1.0000      -5.748598      -156.4273
  48   1.0000      -5.748162      -156.4154
  49   1.0000      -5.748133      -156.4147
  50   1.0000      -5.747881      -156.4078
  51   1.0000      -5.747844      -156.4068
  52   1.0000      -5.746214      -156.3624
  53   1.0000      -5.746078      -156.3587
  54   1.0000      -5.745237      -156.3359
  55   1.0000      -5.745221      -156.3354
  56   1.0000      -5.743445      -156.2871
  57   1.0000      -5.743418      -156.2863
  58   1.0000      -5.741805      -156.2425
  59   1.0000      -5.741656      -156.2384
  60   1.0000      -5.741390      -156.2312
  61   1.0000      -5.741346      -156.2300
  62   1.0000      -5.738739      -156.1590
  63   1.0000      -5.738715      -156.1584
  64   1.0000      -5.738503      -156.1526
  65   1.0000      -5.738500      -156.1525
  66   1.0000      -5.737074      -156.1137
  67   1.0000      -5.736940      -156.1101
  68   1.0000      -5.658688      -153.9807
  69   1.0000      -5.658221      -153.9680
  70   1.0000      -5.657960      -153.9609
  71   1.0000      -5.657748      -153.9552
  72   1.0000      -5.652246      -153.8054
  73   1.0000      -5.651816      -153.7937
  74   1.0000      -5.651566      -153.7869
  75   1.0000      -5.651337      -153.7807
  76   1.0000      -5.650666      -153.7624
  77   1.0000      -5.650190      -153.7495
  78   1.0000      -5.649951      -153.7430
  79   1.0000      -5.649677      -153.7355
  80   1.0000      -2.397844       -65.2486
  81   1.0000      -1.464748       -39.8578
  82   1.0000      -1.409986       -38.3677
  83   1.0000      -1.409817       -38.3631
  84   1.0000      -0.724022       -19.7016
  85   1.0000      -0.708774       -19.2867
  86   1.0000      -0.694633       -18.9019
  87   1.0000      -0.684183       -18.6176
  88   1.0000      -0.656772       -17.8717
  89   1.0000      -0.656230       -17.8569
  90   1.0000      -0.637534       -17.3482
  91   1.0000      -0.630149       -17.1472
  92   1.0000      -0.614705       -16.7270
  93   1.0000      -0.576735       -15.6938
  94   1.0000      -0.573847       -15.6152
  95   1.0000      -0.573541       -15.6068
  96   1.0000      -0.572241       -15.5715
  97   1.0000      -0.544042       -14.8041
  98   1.0000      -0.520057       -14.1515
  99   1.0000      -0.494693       -13.4613
 100   1.0000      -0.493114       -13.4183
 101   1.0000      -0.480156       -13.0657
 102   1.0000      -0.477857       -13.0031
 103   1.0000      -0.476677       -12.9710
 104   1.0000      -0.440933       -11.9984
 105   1.0000      -0.417431       -11.3589
 106   1.0000      -0.410959       -11.1828
 107   1.0000      -0.393606       -10.7106
 108   1.0000      -0.358875        -9.7655
 109   1.0000      -0.351782        -9.5725
 110   1.0000      -0.334470        -9.1014
 111   1.0000      -0.325181        -8.8486
 112   1.0000      -0.317349        -8.6355
 113   1.0000      -0.312086        -8.4923
 114   1.0000      -0.307979        -8.3805
 115   1.0000      -0.302559        -8.2331
 116   1.0000      -0.286502        -7.7961
 117   1.0000      -0.279568        -7.6074
 118   1.0000      -0.259404        -7.0587
 119   1.0000      -0.256896        -6.9905
 120   1.0000      -0.255083        -6.9412
 121   1.0000      -0.251743        -6.8503
 122   1.0000      -0.240453        -6.5431
 123   1.0000      -0.232307        -6.3214
 124   1.0000      -0.228508        -6.2180
 125   1.0000      -0.222093        -6.0435
 126   1.0000      -0.217375        -5.9151
 127   1.0000      -0.214187        -5.8283
 128   1.0000      -0.209716        -5.7067
 129   1.0000      -0.189767        -5.1638
 130   1.0000      -0.186512        -5.0752
 131   1.0000      -0.184345        -5.0163
 132   1.0000      -0.183383        -4.9901
 133   1.0000      -0.178229        -4.8499
 134   1.0000      -0.157612        -4.2888
 135   1.0000      -0.151136        -4.1126
 136   1.0000      -0.146242        -3.9795
 137   1.0000      -0.133556        -3.6342
 138   1.0000      -0.132729        -3.6117
 139   1.0000      -0.131625        -3.5817
 140   1.0000      -0.123415        -3.3583
 141   1.0000      -0.119490        -3.2515
 142   1.0000      -0.114098        -3.1048
 143   1.0000      -0.110203        -2.9988
 144   1.0000      -0.098616        -2.6835
 145   1.0000      -0.096847        -2.6353
 146   1.0000      -0.096700        -2.6313
 147   1.0000      -0.093928        -2.5559
 148   1.0000      -0.069417        -1.8889
 149   1.0000      -0.067042        -1.8243
 150   1.0000      -0.066233        -1.8023
 151   1.0000      -0.048454        -1.3185
 152   1.0000      -0.043397        -1.1809
 153   1.0000      -0.036240        -0.9861
 154   1.0000      -0.035362        -0.9622
 155   1.0000      -0.029656        -0.8070
 156   1.0000      -0.024819        -0.6754
 157   1.0000      -0.014328        -0.3899
 158   1.0000       0.022051         0.6000
 159   1.0000       0.041449         1.1279
 160   0.0000       0.136813         3.7229
 161   0.0000       0.142649         3.8817
 162   0.0000       0.157056         4.2737
 163   0.0000       0.162867         4.4318
 164   0.0000       0.168407         4.5826

MULLIKEN ATOMIC CHARGES AND SPIN POPULATIONS
--------------------------------------------
   0 V :    0.471157    1.210798
   1 S :   -0.291133   -0.022354
   2 S :   -0.291014   -0.025303
   3 S :   -0.289191   -0.023325
   4 S :   -0.286950   -0.025794
   5 O :   -0.468405   -0.146758
   6 C :   -0.077326    0.009686
   7 C :   -0.084155    0.008078
   8 C :   -0.084201    0.007729
   9 C :   -0.084756    0.007383
  10 S :    0.097602   -0.000577
  11 S :    0.099092   -0.000621
  12 S :    0.100305   -0.000392
  13 S :    0.099392   -0.000344
  14 C :   -0.203822    0.001480
  15 C :   -0.213207    0.001013
  16 C :   -0.191579   -0.000059
  17 C :   -0.190274   -0.000425
  18 S :   -0.018293   -0.000111
  19 S :   -0.022759   -0.000112
  20 S :    0.011205   -0.000068
  21 S :    0.012043   -0.000071
  22 C :   -0.295903    0.000001
  23 C :   -0.296088   -0.000000
  24 C :   -0.151905   -0.000014
  25 H :    0.137495   -0.000001
  26 H :    0.108195   -0.000004
  27 H :    0.087043   -0.000000
  28 H :    0.084654   -0.000001
  29 H :    0.109288   -0.000005
  30 H :    0.138247   -0.000001
  31 C :   -0.400930    0.000198
  32 C :   -0.366702    0.000187
  33 C :   -0.261698   -0.000195
  34 H :    0.208942   -0.000028
  35 H :    0.152085    0.000006
  36 H :    0.203796    0.000025
  37 H :    0.048802    0.000011
  38 H :    0.168230    0.000005
  39 H :    0.232715   -0.000034
Sum of atomic charges         :   -2.0000000

LOEWDIN ATOMIC CHARGES AND SPIN POPULATIONS
-------------------------------------------
   0 V :   -0.156180    1.164140
   1 S :    0.079797   -0.014397
   2 S :    0.078536   -0.016171
   3 S :    0.081128   -0.015206
   4 S :    0.082446   -0.016397
   5 O :   -0.319491   -0.131655
   6 C :   -0.550452    0.009055
   7 C :   -0.552637    0.007963
   8 C :   -0.552391    0.008131
   9 C :   -0.552368    0.007663
  10 S :    0.469137   -0.000894
  11 S :    0.470108   -0.000944
  12 S :    0.471652   -0.000823
  13 S :    0.470875   -0.000829
  14 C :   -0.466463    0.000147
  15 C :   -0.464856   -0.000082
  16 C :   -0.617028    0.000471
  17 C :   -0.622903    0.000083
  18 S :    0.358631   -0.000088
  19 S :    0.362528   -0.000086
  20 S :    0.359640   -0.000073
  21 S :    0.359367   -0.000075
  22 C :   -0.293124   -0.000007
  23 C :   -0.291496   -0.000009
  24 C :   -0.183380   -0.000002
  25 H :    0.067639   -0.000002
  26 H :    0.057792   -0.000002
  27 H :    0.058052   -0.000001
  28 H :    0.064739   -0.000001
  29 H :    0.056848   -0.000002
  30 H :    0.066570   -0.000002
  31 C :   -0.123197    0.000041
  32 C :   -0.166543    0.000035
  33 C :   -0.040296    0.000006
  34 H :   -0.007857    0.000001
  35 H :    0.002908    0.000004
  36 H :   -0.060769    0.000002
  37 H :    0.064184    0.000001
  38 H :   -0.022495    0.000004
  39 H :   -0.038647    0.000003

  Mayer bond orders larger than 0.100000
B(  0-V ,  1-S ) :   0.7705 B(  0-V ,  2-S ) :   0.7726 B(  0-V ,  3-S ) :   0.7639
B(  0-V ,  4-S ) :   0.7800 B(  0-V ,  5-O ) :   2.1480 B(  1-S ,  8-C ) :   1.1040
B(  2-S ,  6-C ) :   1.1029 B(  3-S ,  9-C ) :   1.1068 B(  4-S ,  7-C ) :   1.1029
B(  6-C ,  7-C ) :   1.6874 B(  6-C , 10-S ) :   0.9343 B(  7-C , 11-S ) :   0.9383
B(  8-C ,  9-C ) :   1.6979 B(  8-C , 13-S ) :   0.9337 B(  9-C , 12-S ) :   0.9355
B( 10-S , 14-C ) :   1.2457 B( 11-S , 14-C ) :   1.2457 B( 12-S , 15-C ) :   1.2475
B( 13-S , 15-C ) :   1.2475 B( 14-C , 16-C ) :   1.4457 B( 15-C , 17-C ) :   1.4532
B( 16-C , 18-S ) :   1.1011 B( 16-C , 19-S ) :   1.1027 B( 17-C , 20-S ) :   1.0866
B( 17-C , 21-S ) :   1.0873 B( 18-S , 32-C ) :   0.9720 B( 19-S , 31-C ) :   0.9551
B( 20-S , 23-C ) :   0.9919 B( 21-S , 22-C ) :   0.9914 B( 22-C , 24-C ) :   0.9159
B( 22-C , 25-H ) :   0.9615 B( 22-C , 26-H ) :   0.9629 B( 23-C , 24-C ) :   0.9160
B( 23-C , 29-H ) :   0.9635 B( 23-C , 30-H ) :   0.9620 B( 24-C , 27-H ) :   0.9619
B( 24-C , 28-H ) :   0.9670 B( 31-C , 33-C ) :   0.8605 B( 31-C , 38-H ) :   0.9868
B( 31-C , 39-H ) :   0.9821 B( 32-C , 33-C ) :   0.8719 B( 32-C , 34-H ) :   0.9819
B( 32-C , 35-H ) :   0.9817 B( 33-C , 36-H ) :   0.9914 B( 33-C , 37-H ) :   0.9635

FINAL SINGLE POINT ENERGY     -6337.168704032435

DIPOLE MOMENT
-------------
                                X             Y             Z
Electronic contribution:    -10.97083       1.16594       8.30910
Nuclear contribution   :     12.20454      -0.99748      -9.14959
                        -----------------------------------------
Total Dipole Moment    :      1.23372       0.16845      -0.84049
                        -----------------------------------------
Magnitude (a.u.)       :      1.50228
Magnitude (Debye)      :      3.81850

Rotational constants in cm-1:     0.010773     0.000804     0.000783
Rotational constants in MHz :   322.975514    24.118176    23.488199

                             ****ORCA TERMINATED NORMALLY****
TOTAL RUN TIME: 0 days 1 hours 6 minutes 35 seconds 104 msec
