                         Program Version 5.0.4 -  RELEASE  -
|  1> ! nofrozencore ReducedPop printbasis
|  2> ! B3LYP TZVP
|  3>
|  4> %basis
|  5> newgto V "CP(PPP)" end
|  6> end
|  7>
|  8> %pal
|  9> nprocs 6
| 10> end
| 11>
| 12> % sym SymThresh 1e-2 end
| 13> * xyz -2 2
| 14> V 0.009196131811570583 0.9665668315637879 0.5496668581153904
| 15> S 1.0111856180450578 1.701952141547238 -1.7881370855266119
| 16> S -1.9868358686656273 0.8347566417947112 -0.543790023891868
| 17> S 2.0711094007795476 0.03743250955117965 0.9648845644947817
| 18> S -0.8638631243260557 -1.0655777149726953 2.0009903797960136
| 19> O -0.09384636299982715 2.261562159518767 1.46460375560167
| 20> C -3.052741188831416 -0.091169187625385 0.5771059249816094
| 21> C -2.532128881434016 -0.8327240207405845 1.5751699291956895
| 22> C 2.6523055759458103 1.2449666837995061 -1.4335924728994724
| 23> C 3.14715502703203 0.591777025018865 -0.36430139931908584
| 24> S -4.880732177388104 -0.22583734195698807 0.4620965124735011
| 25> S -3.600286231285885 -1.7293076219689165 2.6443462811446414
| 26> S 4.955581484926191 0.28907502387341927 -0.4776293497193225
| 27> S 3.731966111748068 1.7517598631207831 -2.7216535486084683
| 28> C -5.091513303369275 -1.3596117623575843 1.8629135998208832
| 29> C 5.184825898445431 1.0666712907014477 -2.1025548426987184
| 30> C -6.2834390101412145 -1.8719618058047205 2.307638005193391
| 31> C 6.365535740262905 1.1291777040699258 -2.796248614911765
| 32> S -7.6996012898640815 -1.2873772275637998 1.4609481513933025
| 33> S -6.582914618508086 -3.008702220405717 3.702599564320754
| 34> S 6.712004297466934 1.8905595725339324 -4.418192274720026
| 35> S 7.704910982666484 0.31854848637326494 -2.0183484363111592
| 36> C 8.135484880944869 -0.9328070163336368 -3.3188885544326694
| 37> C 7.0801650391220745 0.3014605576899519 -5.311303028941936
| 38> C 8.321677825094538 -0.38173051443054856 -4.736758463156363
| 39> H 7.358581859403577 -1.7094653139021412 -3.3211807263291235
| 40> H 9.071165395576296 -1.3871854628669593 -2.9684787639772177
| 41> H 8.59551653907591 -1.2266344558859843 -5.385655481618538
| 42> H 9.155927709803004 0.3279176485080382 -4.753866950108664
| 43> H 7.229322057492434 0.5667151073676092 -6.36661953060301
| 44> H 6.194776741150065 -0.3422283241511738 -5.2361384919690455
| 45> C -7.516702660702709 -1.802009056473929 4.7652026784605654
| 46> C -8.625667378082204 -0.494857096030601 2.858989567134978
| 47> C -8.82362373825922 -1.372187476016729 4.098438708532825
| 48> H -8.10811660859827 0.4318530587386652 3.138013338588436
| 49> H -9.598235958279771 -0.2268596307176926 2.429318158325471
| 50> H -9.399605649285267 -2.265860949558047 3.8345956089198525
| 51> H -9.420723353295944 -0.7970569905192518 4.821386140406286
| 52> H -7.707820173866423 -2.3150036114032 5.717620302986718
| 53> H -6.862926393191035 -0.9419811711973511 4.958544689384735
| 54> *
| 55>
| 56> % eprnmr
| 57> gtensor true
| 58> Nuclei = all H {aiso,adip,aorb,fgrad,rho}
| 59> Nuclei = all V {aiso,adip,aorb,fgrad,rho}
| 60> end
| 61>
| 62>                          ****END OF INPUT****

CARTESIAN COORDINATES (ANGSTROEM)
---------------------------------
  V      0.007097    0.963488    0.548765
  S      1.009086    1.698874   -1.789039
  S     -1.988935    0.831678   -0.544692
  S      2.069010    0.034354    0.963983
  S     -0.865963   -1.068656    2.000088
  O     -0.095946    2.258484    1.463702
  C     -3.054841   -0.094248    0.576204
  C     -2.534228   -0.835803    1.574268
  C      2.650206    1.241888   -1.434494
  C      3.145056    0.588699   -0.365203
  S     -4.882832   -0.228916    0.461194
  S     -3.602386   -1.732386    2.643444
  S      4.953482    0.285997   -0.478531
  S      3.729867    1.748681   -2.722556
  C     -5.093613   -1.362690    1.862012
  C      5.182726    1.063593   -2.103457
  C     -6.285538   -1.875040    2.306736
  C      6.363436    1.126099   -2.797151
  S     -7.701701   -1.290456    1.460046
  S     -6.585014   -3.011781    3.701698
  S      6.709905    1.887481   -4.419094
  S      7.702812    0.315470   -2.019250
  C      8.133385   -0.935886   -3.319791
  C      7.078066    0.298382   -5.312205
  C      8.319578   -0.384809   -4.737660
  H      7.356482   -1.712544   -3.322083
  H      9.069066   -1.390264   -2.969381
  H      8.593417   -1.229713   -5.386558
  H      9.153828    0.324839   -4.754769
  H      7.227223    0.563637   -6.367522
  H      6.192677   -0.345307   -5.237041
  C     -7.518802   -1.805088    4.764301
  C     -8.627767   -0.497936    2.858088
  C     -8.825723   -1.375266    4.097537
  H     -8.110216    0.428775    3.137111
  H     -9.600335   -0.229938    2.428416
  H     -9.401705   -2.268939    3.833694
  H     -9.422823   -0.800135    4.820484
  H     -7.709920   -2.318082    5.716718
  H     -6.865026   -0.945060    4.957643

 Total Charge           Charge          ....   -2
 Multiplicity           Mult            ....    2
 Number of Electrons    NEL             ....  321
 Basis Dimension        Dim             ....  681

ORBITAL ENERGIES
----------------
                 SPIN UP ORBITALS
  NO   OCC          E(Eh)            E(eV)
   0   1.0000    -196.671018     -5351.6905
   1   1.0000     -88.739840     -2414.7338
   2   1.0000     -88.739722     -2414.7306
   3   1.0000     -88.734917     -2414.5999
   4   1.0000     -88.734513     -2414.5889
   5   1.0000     -88.727925     -2414.4096
   6   1.0000     -88.727333     -2414.3935
   7   1.0000     -88.725705     -2414.3492
   8   1.0000     -88.724922     -2414.3279
   9   1.0000     -88.642529     -2412.0858
  10   1.0000     -88.640921     -2412.0421
  11   1.0000     -88.636710     -2411.9275
  12   1.0000     -88.636228     -2411.9144
  13   1.0000     -22.046787      -599.9236
  14   1.0000     -18.887433      -513.9532
  15   1.0000     -18.553027      -504.8535
  16   1.0000     -18.548215      -504.7226
  17   1.0000     -18.547957      -504.7156
  18   1.0000     -10.075666      -274.1728
  19   1.0000     -10.075144      -274.1586
  20   1.0000     -10.066927      -273.9350
  21   1.0000     -10.066477      -273.9228
  22   1.0000     -10.062470      -273.8137
  23   1.0000     -10.062041      -273.8020
  24   1.0000     -10.051538      -273.5163
  25   1.0000     -10.051267      -273.5089
  26   1.0000     -10.049047      -273.4485
  27   1.0000     -10.048555      -273.4351
  28   1.0000     -10.020337      -272.6672
  29   1.0000     -10.019460      -272.6434
  30   1.0000     -10.016579      -272.5650
  31   1.0000     -10.015678      -272.5405
  32   1.0000      -7.792147      -212.0351
  33   1.0000      -7.792037      -212.0321
  34   1.0000      -7.786307      -211.8762
  35   1.0000      -7.785866      -211.8642
  36   1.0000      -7.782186      -211.7640
  37   1.0000      -7.781636      -211.7491
  38   1.0000      -7.780883      -211.7286
  39   1.0000      -7.780216      -211.7104
  40   1.0000      -7.697284      -209.4538
  41   1.0000      -7.695600      -209.4079
  42   1.0000      -7.690961      -209.2817
  43   1.0000      -7.690555      -209.2706
  44   1.0000      -5.757189      -156.6611
  45   1.0000      -5.757075      -156.6580
  46   1.0000      -5.754018      -156.5748
  47   1.0000      -5.753916      -156.5720
  48   1.0000      -5.751510      -156.5065
  49   1.0000      -5.751081      -156.4949
  50   1.0000      -5.747209      -156.3895
  51   1.0000      -5.747118      -156.3870
  52   1.0000      -5.746820      -156.3789
  53   1.0000      -5.746702      -156.3757
  54   1.0000      -5.746695      -156.3755
  55   1.0000      -5.746655      -156.3744
  56   1.0000      -5.745659      -156.3473
  57   1.0000      -5.744984      -156.3290
  58   1.0000      -5.743520      -156.2891
  59   1.0000      -5.742954      -156.2737
  60   1.0000      -5.741927      -156.2458
  61   1.0000      -5.741461      -156.2331
  62   1.0000      -5.741040      -156.2217
  63   1.0000      -5.740353      -156.2029
  64   1.0000      -5.737015      -156.1121
  65   1.0000      -5.736843      -156.1074
  66   1.0000      -5.736478      -156.0975
  67   1.0000      -5.736192      -156.0897
  68   1.0000      -5.662925      -154.0960
  69   1.0000      -5.661244      -154.0503
  70   1.0000      -5.656056      -153.9091
  71   1.0000      -5.655644      -153.8979
  72   1.0000      -5.655491      -153.8937
  73   1.0000      -5.654549      -153.8681
  74   1.0000      -5.653894      -153.8503
  75   1.0000      -5.652845      -153.8217
  76   1.0000      -5.649925      -153.7423
  77   1.0000      -5.649504      -153.7308
  78   1.0000      -5.648213      -153.6957
  79   1.0000      -5.647789      -153.6842
  80   1.0000      -2.441854       -66.4462
  81   1.0000      -1.482759       -40.3479
  82   1.0000      -1.472772       -40.0762
  83   1.0000      -1.471138       -40.0317
  84   1.0000      -0.709626       -19.3099
  85   1.0000      -0.709466       -19.3056
  86   1.0000      -0.685923       -18.6649
  87   1.0000      -0.685390       -18.6504
  88   1.0000      -0.647673       -17.6241
  89   1.0000      -0.632395       -17.2083
  90   1.0000      -0.632219       -17.2035
  91   1.0000      -0.614832       -16.7304
  92   1.0000      -0.614228       -16.7140
  93   1.0000      -0.574635       -15.6366
  94   1.0000      -0.574312       -15.6278
  95   1.0000      -0.571016       -15.5381
  96   1.0000      -0.570199       -15.5159
  97   1.0000      -0.498548       -13.5662
  98   1.0000      -0.497735       -13.5441
  99   1.0000      -0.493369       -13.4253
 100   1.0000      -0.492553       -13.4030
 101   1.0000      -0.477273       -12.9873
 102   1.0000      -0.475070       -12.9273
 103   1.0000      -0.445726       -12.1288
 104   1.0000      -0.443187       -12.0597
 105   1.0000      -0.417194       -11.3524
 106   1.0000      -0.411566       -11.1993
 107   1.0000      -0.354912        -9.6576
 108   1.0000      -0.354228        -9.6390
 109   1.0000      -0.327505        -8.9119
 110   1.0000      -0.326525        -8.8852
 111   1.0000      -0.317561        -8.6413
 112   1.0000      -0.313790        -8.5387
 113   1.0000      -0.304172        -8.2769
 114   1.0000      -0.303580        -8.2608
 115   1.0000      -0.290796        -7.9130
 116   1.0000      -0.290165        -7.8958
 117   1.0000      -0.257844        -7.0163
 118   1.0000      -0.256919        -6.9911
 119   1.0000      -0.254155        -6.9159
 120   1.0000      -0.253869        -6.9081
 121   1.0000      -0.234494        -6.3809
 122   1.0000      -0.233886        -6.3644
 123   1.0000      -0.230206        -6.2642
 124   1.0000      -0.228726        -6.2240
 125   1.0000      -0.219092        -5.9618
 126   1.0000      -0.217245        -5.9115
 127   1.0000      -0.214330        -5.8322
 128   1.0000      -0.211102        -5.7444
 129   1.0000      -0.194284        -5.2867
 130   1.0000      -0.188377        -5.1260
 131   1.0000      -0.187639        -5.1059
 132   1.0000      -0.182134        -4.9561
 133   1.0000      -0.176542        -4.8039
 134   1.0000      -0.159821        -4.3490
 135   1.0000      -0.151453        -4.1212
 136   1.0000      -0.147741        -4.0202
 137   1.0000      -0.135919        -3.6985
 138   1.0000      -0.134702        -3.6654
 139   1.0000      -0.130174        -3.5422
 140   1.0000      -0.124034        -3.3751
 141   1.0000      -0.120651        -3.2831
 142   1.0000      -0.114693        -3.1210
 143   1.0000      -0.107108        -2.9145
 144   1.0000      -0.099667        -2.7121
 145   1.0000      -0.097507        -2.6533
 146   1.0000      -0.095871        -2.6088
 147   1.0000      -0.093423        -2.5422
 148   1.0000      -0.075105        -2.0437
 149   1.0000      -0.068336        -1.8595
 150   1.0000      -0.067432        -1.8349
 151   1.0000      -0.051636        -1.4051
 152   1.0000      -0.046496        -1.2652
 153   1.0000      -0.036216        -0.9855
 154   1.0000      -0.031899        -0.8680
 155   1.0000      -0.030292        -0.8243
 156   1.0000      -0.021988        -0.5983
 157   1.0000      -0.016835        -0.4581
 158   1.0000      -0.013881        -0.3777
 159   1.0000       0.019631         0.5342
 160   1.0000       0.040433         1.1002
 161   0.0000       0.135868         3.6972
 162   0.0000       0.136679         3.7192
 163   0.0000       0.161143         4.3849
 164   0.0000       0.161557         4.3962
 165   0.0000       0.167220         4.5503

                 SPIN DOWN ORBITALS
  NO   OCC          E(Eh)            E(eV)
   0   1.0000    -196.671162     -5351.6944
   1   1.0000     -88.739840     -2414.7338
   2   1.0000     -88.739722     -2414.7306
   3   1.0000     -88.734919     -2414.5999
   4   1.0000     -88.734516     -2414.5889
   5   1.0000     -88.727926     -2414.4096
   6   1.0000     -88.727334     -2414.3935
   7   1.0000     -88.725714     -2414.3494
   8   1.0000     -88.724930     -2414.3281
   9   1.0000     -88.642646     -2412.0890
  10   1.0000     -88.641040     -2412.0453
  11   1.0000     -88.636859     -2411.9316
  12   1.0000     -88.636380     -2411.9185
  13   1.0000     -22.032219      -599.5272
  14   1.0000     -18.891064      -514.0520
  15   1.0000     -18.547910      -504.7143
  16   1.0000     -18.532526      -504.2957
  17   1.0000     -18.532259      -504.2884
  18   1.0000     -10.075657      -274.1726
  19   1.0000     -10.075139      -274.1585
  20   1.0000     -10.066926      -273.9350
  21   1.0000     -10.066477      -273.9228
  22   1.0000     -10.062470      -273.8137
  23   1.0000     -10.062041      -273.8021
  24   1.0000     -10.051538      -273.5163
  25   1.0000     -10.051267      -273.5089
  26   1.0000     -10.049036      -273.4482
  27   1.0000     -10.048551      -273.4350
  28   1.0000     -10.019789      -272.6523
  29   1.0000     -10.018993      -272.6307
  30   1.0000     -10.016495      -272.5627
  31   1.0000     -10.015595      -272.5382
  32   1.0000      -7.792147      -212.0351
  33   1.0000      -7.792037      -212.0321
  34   1.0000      -7.786308      -211.8762
  35   1.0000      -7.785869      -211.8643
  36   1.0000      -7.782187      -211.7641
  37   1.0000      -7.781637      -211.7491
  38   1.0000      -7.780894      -211.7289
  39   1.0000      -7.780226      -211.7107
  40   1.0000      -7.697383      -209.4564
  41   1.0000      -7.695703      -209.4107
  42   1.0000      -7.691103      -209.2855
  43   1.0000      -7.690701      -209.2746
  44   1.0000      -5.757189      -156.6611
  45   1.0000      -5.757075      -156.6580
  46   1.0000      -5.754018      -156.5748
  47   1.0000      -5.753916      -156.5720
  48   1.0000      -5.751515      -156.5067
  49   1.0000      -5.751088      -156.4951
  50   1.0000      -5.747211      -156.3895
  51   1.0000      -5.747119      -156.3871
  52   1.0000      -5.746820      -156.3789
  53   1.0000      -5.746702      -156.3757
  54   1.0000      -5.746700      -156.3757
  55   1.0000      -5.746656      -156.3745
  56   1.0000      -5.745671      -156.3477
  57   1.0000      -5.744995      -156.3293
  58   1.0000      -5.743522      -156.2892
  59   1.0000      -5.742955      -156.2738
  60   1.0000      -5.741926      -156.2457
  61   1.0000      -5.741461      -156.2331
  62   1.0000      -5.741052      -156.2220
  63   1.0000      -5.740364      -156.2032
  64   1.0000      -5.737016      -156.1121
  65   1.0000      -5.736855      -156.1078
  66   1.0000      -5.736480      -156.0976
  67   1.0000      -5.736200      -156.0900
  68   1.0000      -5.663117      -154.1012
  69   1.0000      -5.661431      -154.0554
  70   1.0000      -5.656178      -153.9124
  71   1.0000      -5.655764      -153.9012
  72   1.0000      -5.655755      -153.9009
  73   1.0000      -5.654625      -153.8702
  74   1.0000      -5.654151      -153.8573
  75   1.0000      -5.652939      -153.8243
  76   1.0000      -5.650340      -153.7536
  77   1.0000      -5.649945      -153.7428
  78   1.0000      -5.648322      -153.6987
  79   1.0000      -5.647889      -153.6869
  80   1.0000      -2.397941       -65.2513
  81   1.0000      -1.463986       -39.8371
  82   1.0000      -1.412174       -38.4272
  83   1.0000      -1.410285       -38.3758
  84   1.0000      -0.709589       -19.3089
  85   1.0000      -0.709442       -19.3049
  86   1.0000      -0.685857       -18.6631
  87   1.0000      -0.685341       -18.6491
  88   1.0000      -0.655435       -17.8353
  89   1.0000      -0.632326       -17.2065
  90   1.0000      -0.632152       -17.2017
  91   1.0000      -0.614823       -16.7302
  92   1.0000      -0.614221       -16.7138
  93   1.0000      -0.574391       -15.6300
  94   1.0000      -0.574092       -15.6218
  95   1.0000      -0.571026       -15.5384
  96   1.0000      -0.570202       -15.5160
  97   1.0000      -0.498559       -13.5665
  98   1.0000      -0.497787       -13.5455
  99   1.0000      -0.493271       -13.4226
 100   1.0000      -0.492449       -13.4002
 101   1.0000      -0.477410       -12.9910
 102   1.0000      -0.475250       -12.9322
 103   1.0000      -0.445751       -12.1295
 104   1.0000      -0.443241       -12.0612
 105   1.0000      -0.417078       -11.3493
 106   1.0000      -0.411561       -11.1991
 107   1.0000      -0.354897        -9.6573
 108   1.0000      -0.354219        -9.6388
 109   1.0000      -0.327505        -8.9119
 110   1.0000      -0.326529        -8.8853
 111   1.0000      -0.317401        -8.6369
 112   1.0000      -0.313711        -8.5365
 113   1.0000      -0.304125        -8.2757
 114   1.0000      -0.303551        -8.2600
 115   1.0000      -0.290765        -7.9121
 116   1.0000      -0.290137        -7.8950
 117   1.0000      -0.257557        -7.0085
 118   1.0000      -0.256769        -6.9870
 119   1.0000      -0.254153        -6.9158
 120   1.0000      -0.253857        -6.9078
 121   1.0000      -0.234441        -6.3795
 122   1.0000      -0.233859        -6.3636
 123   1.0000      -0.230147        -6.2626
 124   1.0000      -0.228688        -6.2229
 125   1.0000      -0.218688        -5.9508
 126   1.0000      -0.217081        -5.9071
 127   1.0000      -0.214061        -5.8249
 128   1.0000      -0.210910        -5.7391
 129   1.0000      -0.191860        -5.2208
 130   1.0000      -0.188044        -5.1169
 131   1.0000      -0.187508        -5.1024
 132   1.0000      -0.181820        -4.9476
 133   1.0000      -0.176441        -4.8012
 134   1.0000      -0.158789        -4.3209
 135   1.0000      -0.151358        -4.1187
 136   1.0000      -0.147631        -4.0172
 137   1.0000      -0.135146        -3.6775
 138   1.0000      -0.134489        -3.6596
 139   1.0000      -0.129807        -3.5322
 140   1.0000      -0.123085        -3.3493
 141   1.0000      -0.120441        -3.2774
 142   1.0000      -0.115373        -3.1395
 143   1.0000      -0.109183        -2.9710
 144   1.0000      -0.099558        -2.7091
 145   1.0000      -0.097701        -2.6586
 146   1.0000      -0.095863        -2.6086
 147   1.0000      -0.093699        -2.5497
 148   1.0000      -0.069965        -1.9038
 149   1.0000      -0.068226        -1.8565
 150   1.0000      -0.067402        -1.8341
 151   1.0000      -0.049831        -1.3560
 152   1.0000      -0.045095        -1.2271
 153   1.0000      -0.035924        -0.9775
 154   1.0000      -0.031617        -0.8603
 155   1.0000      -0.030594        -0.8325
 156   1.0000      -0.022812        -0.6207
 157   1.0000      -0.014132        -0.3845
 158   1.0000       0.019959         0.5431
 159   1.0000       0.039391         1.0719
 160   0.0000       0.135901         3.6980
 161   0.0000       0.136680         3.7192
 162   0.0000       0.150856         4.1050
 163   0.0000       0.161632         4.3982
 164   0.0000       0.162580         4.4240

MULLIKEN ATOMIC CHARGES AND SPIN POPULATIONS
--------------------------------------------
   0 V :    0.471530    1.190875
   1 S :   -0.335205   -0.025578
   2 S :   -0.245397   -0.020458
   3 S :   -0.246399   -0.019553
   4 S :   -0.324459   -0.027937
   5 O :   -0.468599   -0.141649
   6 C :    0.001203    0.022589
   7 C :   -0.169268    0.000967
   8 C :   -0.173263    0.001014
   9 C :   -0.001601    0.018852
  10 S :    0.075999    0.000168
  11 S :    0.129174   -0.000792
  12 S :    0.075760    0.000129
  13 S :    0.128453   -0.000563
  14 C :   -0.221501    0.001478
  15 C :   -0.217796    0.001055
  16 C :   -0.175194   -0.000033
  17 C :   -0.177839   -0.000375
  18 S :    0.003732   -0.000123
  19 S :    0.006054   -0.000065
  20 S :    0.004550    0.000012
  21 S :    0.004326   -0.000117
  22 C :   -0.293780   -0.000030
  23 C :   -0.305441    0.000006
  24 C :   -0.161475   -0.000004
  25 H :    0.132532   -0.000000
  26 H :    0.107575   -0.000010
  27 H :    0.083851   -0.000004
  28 H :    0.093868   -0.000004
  29 H :    0.119027   -0.000004
  30 H :    0.152966    0.000003
  31 C :   -0.305736    0.000210
  32 C :   -0.294842    0.000127
  33 C :   -0.162783   -0.000213
  34 H :    0.132373   -0.000012
  35 H :    0.108471    0.000000
  36 H :    0.095255    0.000015
  37 H :    0.083155    0.000011
  38 H :    0.119230    0.000028
  39 H :    0.151495   -0.000016
Sum of atomic charges         :   -2.0000000

LOEWDIN ATOMIC CHARGES AND SPIN POPULATIONS
-------------------------------------------
   0 V :   -0.185835    1.141943
   1 S :    0.028134   -0.018694
   2 S :    0.143411   -0.008375
   3 S :    0.136013   -0.008937
   4 S :    0.032551   -0.020416
   5 O :   -0.321443   -0.126821
   6 C :   -0.533135    0.020039
   7 C :   -0.560832    0.002796
   8 C :   -0.562403    0.002934
   9 C :   -0.535544    0.017224
  10 S :    0.436621   -0.000068
  11 S :    0.506675   -0.001069
  12 S :    0.435406   -0.000211
  13 S :    0.506992   -0.000930
  14 C :   -0.467195    0.000265
  15 C :   -0.467768    0.000045
  16 C :   -0.619771    0.000407
  17 C :   -0.619605    0.000064
  18 S :    0.371260   -0.000099
  19 S :    0.344999   -0.000026
  20 S :    0.343156    0.000009
  21 S :    0.371934   -0.000103
  22 C :   -0.286517   -0.000031
  23 C :   -0.280220    0.000000
  24 C :   -0.177390   -0.000001
  25 H :    0.059336   -0.000002
  26 H :    0.053925   -0.000006
  27 H :    0.057970   -0.000003
  28 H :    0.060049   -0.000002
  29 H :    0.054456   -0.000001
  30 H :    0.067861    0.000001
  31 C :   -0.281148    0.000066
  32 C :   -0.286744   -0.000021
  33 C :   -0.178025    0.000008
  34 H :    0.059026   -0.000000
  35 H :    0.053887   -0.000001
  36 H :    0.060322    0.000002
  37 H :    0.057671   -0.000000
  38 H :    0.054639    0.000013
  39 H :    0.067281    0.000001

  Mayer bond orders larger than 0.100000
B(  0-V ,  1-S ) :   0.6630 B(  0-V ,  2-S ) :   0.8916 B(  0-V ,  3-S ) :   0.8710
B(  0-V ,  4-S ) :   0.6667 B(  0-V ,  5-O ) :   2.1389 B(  1-S ,  8-C ) :   1.1564
B(  2-S ,  6-C ) :   1.0024 B(  3-S ,  9-C ) :   1.0158 B(  4-S ,  7-C ) :   1.1658
B(  6-C ,  7-C ) :   1.6837 B(  6-C , 10-S ) :   0.8875 B(  7-C , 11-S ) :   0.9914
B(  8-C ,  9-C ) :   1.6956 B(  8-C , 13-S ) :   0.9904 B(  9-C , 12-S ) :   0.8847
B( 10-S , 14-C ) :   1.2306 B( 11-S , 14-C ) :   1.2535 B( 12-S , 15-C ) :   1.2273
B( 13-S , 15-C ) :   1.2530 B( 14-C , 16-C ) :   1.4409 B( 15-C , 17-C ) :   1.4440
B( 16-C , 18-S ) :   1.0659 B( 16-C , 19-S ) :   1.0841 B( 17-C , 20-S ) :   1.0837
B( 17-C , 21-S ) :   1.0689 B( 18-S , 32-C ) :   0.9932 B( 19-S , 31-C ) :   0.9815
B( 20-S , 23-C ) :   0.9802 B( 21-S , 22-C ) :   0.9922 B( 22-C , 24-C ) :   0.9181
B( 22-C , 25-H ) :   0.9623 B( 22-C , 26-H ) :   0.9657 B( 23-C , 24-C ) :   0.9054
B( 23-C , 29-H ) :   0.9643 B( 23-C , 30-H ) :   0.9687 B( 24-C , 27-H ) :   0.9618
B( 24-C , 28-H ) :   0.9725 B( 31-C , 33-C ) :   0.9053 B( 31-C , 38-H ) :   0.9643
B( 31-C , 39-H ) :   0.9690 B( 32-C , 33-C ) :   0.9166 B( 32-C , 34-H ) :   0.9623
B( 32-C , 35-H ) :   0.9660 B( 33-C , 36-H ) :   0.9723 B( 33-C , 37-H ) :   0.9612

FINAL SINGLE POINT ENERGY     -6337.665118891931

DIPOLE MOMENT
-------------
                                X             Y             Z
Electronic contribution:      2.99912      12.33673       4.87510
Nuclear contribution   :     -3.34995     -13.71527      -5.44305
                        -----------------------------------------
Total Dipole Moment    :     -0.35083      -1.37854      -0.56795
                        -----------------------------------------
Magnitude (a.u.)       :      1.53167
Magnitude (Debye)      :      3.89320

Rotational constants in cm-1:     0.010754     0.000804     0.000783
Rotational constants in MHz :   322.404304    24.105658    23.477786

                             ****ORCA TERMINATED NORMALLY****
TOTAL RUN TIME: 0 days 1 hours 6 minutes 25 seconds 666 msec
