                         Program Version 5.0.4 -  RELEASE  -
|  1> ! nofrozencore ReducedPop printbasis
|  2> ! B3LYP TZVP
|  3>
|  4> %basis
|  5> newgto V "CP(PPP)" end
|  6> end
|  7>
|  8> %pal
|  9> nprocs 8
| 10> end
| 11>
| 12> % sym SymThresh 1e-2 end
| 13> * xyz -2 2
| 14> V 0.6731262132674626 -0.5096230377412474 0.7253652732117726
| 15> S 2.1951752937872038 -0.2009608807235441 -1.2000158926447932
| 16> S 0.9090277917564648 1.9308357383273862 1.065325837836529
| 17> S -0.3348446494218919 -2.3482415650624353 -0.5916308252488663
| 18> S -1.6273506239693878 -0.2131821684913002 1.564986646232418
| 19> O 1.519466880893455 -1.179850994104428 1.8910169024825523
| 20> C -0.42876164306918607 2.1951811357280397 2.1759524506857595
| 21> C -1.4470924115049535 1.3367306850800142 2.3732565859521584
| 22> C 1.8090740442102657 -1.6154428358607924 -2.1700825964132684
| 23> C 0.7975007366506797 -2.4701654969404916 -1.928365099132256
| 24> S -0.5120096304497059 3.7487325796379314 3.07453970172852
| 25> S -2.744829160611735 1.8744968404475657 3.4901187585607407
| 26> S 0.5809290986367094 -3.808518784520518 -3.10609954492455
| 27> S 2.798626309588035 -1.9437823448178273 -3.633095898367006
| 28> C -2.0588418846256733 3.456064662655935 3.8790326660702306
| 29> C 1.8868077337862605 -3.346288643441615 -4.203137701011713
| 30> C -2.6579936512260915 4.351243737314165 4.7223184258620305
| 31> C 2.166839021765492 -4.012061565443006 -5.365866049906424
| 32> S -1.9045667385552916 5.913192784256992 5.132898217842518
| 33> S -4.222382066184519 4.003990253148627 5.50178173811204
| 34> S 3.494280152815688 -3.5048688664242897 -6.443361580784992
| 35> S 1.2042069595463947 -5.408753787071704 -5.90660502651316
| 36> C 0.5634897564566702 -4.678520527216619 -7.473281860864551
| 37> C 2.4911369918115334 -3.0383135357286997 -7.9387916621930525
| 38> C 1.6190256321576169 -4.21676424493481 -8.448346311139773
| 39> H -0.32764358587218156 -4.001596195516256 -7.278752567109534
| 40> H -0.2732996583037814 -5.328940007909291 -7.87702562284526
| 41> H 1.1200991550706616 -3.893529566310527 -9.37286986404216
| 42> H 2.256450087274621 -5.0680640149647065 -8.70737648437801
| 43> H 3.2993386711359154 -2.9993571550207183 -8.713513615586256
| 44> H 1.7154761843096293 -2.343597420744565 -7.520371629312403
| 45> C -3.6619348770080915 4.020060055626731 7.265792976309959
| 46> C -1.6864700058484894 5.637473060314625 6.951195067507545
| 47> C -2.9928327932646877 5.329538430956427 7.687326189608907
| 48> H -0.9675331231103239 4.826368732866963 7.085862220315501
| 49> H -1.248382105994394 6.562976674651732 7.332882592060525
| 50> H -3.6937481389753146 6.1578533657174805 7.543366813220491
| 51> H -2.7734196173093504 5.270474375549837 8.762630140740919
| 52> H -4.562292204109706 3.8422475917633077 7.859530818374329
| 53> H -2.991301494148037 3.170978086795525 7.416948603864483
| 54> *
| 55>
| 56> % eprnmr
| 57> gtensor true
| 58> Nuclei = all H {aiso,adip,aorb,fgrad,rho}
| 59> Nuclei = all V {aiso,adip,aorb,fgrad,rho}
| 60> end
| 61>
| 62>                          ****END OF INPUT****

CARTESIAN COORDINATES (ANGSTROEM)
---------------------------------
  V      0.670601   -0.506779    0.724883
  S      2.192650   -0.198117   -1.200498
  S      0.906503    1.933680    1.064844
  S     -0.337370   -2.345397   -0.592113
  S     -1.629876   -0.210338    1.564504
  O      1.516942   -1.177007    1.890535
  C     -0.431287    2.198025    2.175470
  C     -1.449617    1.339575    2.372774
  C      1.806549   -1.612599   -2.170565
  C      0.794976   -2.467321   -1.928847
  S     -0.514535    3.751577    3.074057
  S     -2.747354    1.877341    3.489636
  S      0.578404   -3.805674   -3.106582
  S      2.796101   -1.940938   -3.633578
  C     -2.061367    3.458909    3.878550
  C      1.884283   -3.343444   -4.203620
  C     -2.660519    4.354088    4.721836
  C      2.164314   -4.009217   -5.366348
  S     -1.907092    5.916037    5.132416
  S     -4.224907    4.006835    5.501299
  S      3.491755   -3.502025   -6.443844
  S      1.201682   -5.405909   -5.907087
  C      0.560965   -4.675676   -7.473764
  C      2.488612   -3.035469   -7.939274
  C      1.616501   -4.213920   -8.448829
  H     -0.330169   -3.998752   -7.279235
  H     -0.275825   -5.326096   -7.877508
  H      1.117574   -3.890685   -9.373352
  H      2.253925   -5.065220   -8.707859
  H      3.296814   -2.996513   -8.713996
  H      1.712951   -2.340753   -7.520854
  C     -3.664460    4.022904    7.265311
  C     -1.688995    5.640317    6.950713
  C     -2.995358    5.332383    7.686844
  H     -0.970058    4.829213    7.085380
  H     -1.250907    6.565821    7.332400
  H     -3.696273    6.160698    7.542885
  H     -2.775945    5.273319    8.762148
  H     -4.564817    3.845092    7.859049
  H     -2.993826    3.173822    7.416466

 Total Charge           Charge          ....   -2
 Multiplicity           Mult            ....    2
 Number of Electrons    NEL             ....  321
 Basis Dimension        Dim             ....  681

ORBITAL ENERGIES
----------------
                 SPIN UP ORBITALS
  NO   OCC          E(Eh)            E(eV)
   0   1.0000    -196.674776     -5351.7927
   1   1.0000     -88.735878     -2414.6260
   2   1.0000     -88.733128     -2414.5512
   3   1.0000     -88.733051     -2414.5491
   4   1.0000     -88.731369     -2414.5033
   5   1.0000     -88.730474     -2414.4789
   6   1.0000     -88.730360     -2414.4759
   7   1.0000     -88.730108     -2414.4690
   8   1.0000     -88.729937     -2414.4643
   9   1.0000     -88.639817     -2412.0120
  10   1.0000     -88.639575     -2412.0055
  11   1.0000     -88.639359     -2411.9996
  12   1.0000     -88.639327     -2411.9987
  13   1.0000     -22.050173      -600.0157
  14   1.0000     -18.890081      -514.0252
  15   1.0000     -18.556622      -504.9513
  16   1.0000     -18.551448      -504.8106
  17   1.0000     -18.551347      -504.8078
  18   1.0000     -10.076316      -274.1905
  19   1.0000     -10.075699      -274.1737
  20   1.0000     -10.072729      -274.0929
  21   1.0000     -10.068245      -273.9709
  22   1.0000     -10.063444      -273.8402
  23   1.0000     -10.063309      -273.8366
  24   1.0000     -10.052276      -273.5363
  25   1.0000     -10.051236      -273.5080
  26   1.0000     -10.048231      -273.4263
  27   1.0000     -10.048180      -273.4249
  28   1.0000     -10.018157      -272.6079
  29   1.0000     -10.018072      -272.6056
  30   1.0000     -10.017367      -272.5864
  31   1.0000     -10.017138      -272.5802
  32   1.0000      -7.789050      -211.9508
  33   1.0000      -7.786590      -211.8839
  34   1.0000      -7.786496      -211.8813
  35   1.0000      -7.784964      -211.8396
  36   1.0000      -7.783781      -211.8075
  37   1.0000      -7.783618      -211.8030
  38   1.0000      -7.783365      -211.7961
  39   1.0000      -7.783244      -211.7928
  40   1.0000      -7.694112      -209.3674
  41   1.0000      -7.693896      -209.3616
  42   1.0000      -7.693716      -209.3567
  43   1.0000      -7.693594      -209.3533
  44   1.0000      -5.754080      -156.5765
  45   1.0000      -5.751577      -156.5084
  46   1.0000      -5.751488      -156.5060
  47   1.0000      -5.750680      -156.4840
  48   1.0000      -5.749924      -156.4634
  49   1.0000      -5.748722      -156.4307
  50   1.0000      -5.748558      -156.4262
  51   1.0000      -5.748309      -156.4194
  52   1.0000      -5.748188      -156.4161
  53   1.0000      -5.748165      -156.4155
  54   1.0000      -5.748074      -156.4130
  55   1.0000      -5.746478      -156.3696
  56   1.0000      -5.744277      -156.3097
  57   1.0000      -5.744124      -156.3056
  58   1.0000      -5.743875      -156.2988
  59   1.0000      -5.743806      -156.2969
  60   1.0000      -5.743750      -156.2954
  61   1.0000      -5.741378      -156.2308
  62   1.0000      -5.741287      -156.2284
  63   1.0000      -5.739813      -156.1883
  64   1.0000      -5.739621      -156.1830
  65   1.0000      -5.739450      -156.1784
  66   1.0000      -5.739197      -156.1715
  67   1.0000      -5.739066      -156.1679
  68   1.0000      -5.659431      -154.0009
  69   1.0000      -5.659200      -153.9947
  70   1.0000      -5.659031      -153.9901
  71   1.0000      -5.658919      -153.9870
  72   1.0000      -5.652765      -153.8195
  73   1.0000      -5.652543      -153.8135
  74   1.0000      -5.652379      -153.8090
  75   1.0000      -5.652259      -153.8058
  76   1.0000      -5.651437      -153.7834
  77   1.0000      -5.651223      -153.7776
  78   1.0000      -5.651024      -153.7722
  79   1.0000      -5.650883      -153.7684
  80   1.0000      -2.443822       -66.4998
  81   1.0000      -1.485128       -40.4124
  82   1.0000      -1.473464       -40.0950
  83   1.0000      -1.472639       -40.0725
  84   1.0000      -0.709779       -19.3141
  85   1.0000      -0.709412       -19.3041
  86   1.0000      -0.685799       -18.6615
  87   1.0000      -0.685542       -18.6546
  88   1.0000      -0.649677       -17.6786
  89   1.0000      -0.631465       -17.1830
  90   1.0000      -0.631213       -17.1762
  91   1.0000      -0.617193       -16.7947
  92   1.0000      -0.616357       -16.7719
  93   1.0000      -0.574779       -15.6405
  94   1.0000      -0.574302       -15.6276
  95   1.0000      -0.573663       -15.6102
  96   1.0000      -0.572711       -15.5843
  97   1.0000      -0.497528       -13.5384
  98   1.0000      -0.496184       -13.5019
  99   1.0000      -0.495781       -13.4909
 100   1.0000      -0.494397       -13.4532
 101   1.0000      -0.479933       -13.0596
 102   1.0000      -0.477272       -12.9872
 103   1.0000      -0.446895       -12.1606
 104   1.0000      -0.444384       -12.0923
 105   1.0000      -0.416287       -11.3278
 106   1.0000      -0.411076       -11.1859
 107   1.0000      -0.362170        -9.8552
 108   1.0000      -0.355306        -9.6684
 109   1.0000      -0.336329        -9.1520
 110   1.0000      -0.326617        -8.8877
 111   1.0000      -0.318599        -8.6695
 112   1.0000      -0.313839        -8.5400
 113   1.0000      -0.306346        -8.3361
 114   1.0000      -0.303809        -8.2671
 115   1.0000      -0.292390        -7.9563
 116   1.0000      -0.276227        -7.5165
 117   1.0000      -0.259593        -7.0639
 118   1.0000      -0.256902        -6.9907
 119   1.0000      -0.256553        -6.9812
 120   1.0000      -0.249536        -6.7902
 121   1.0000      -0.238160        -6.4807
 122   1.0000      -0.234335        -6.3766
 123   1.0000      -0.230582        -6.2745
 124   1.0000      -0.227684        -6.1956
 125   1.0000      -0.218448        -5.9443
 126   1.0000      -0.214920        -5.8483
 127   1.0000      -0.213616        -5.8128
 128   1.0000      -0.198294        -5.3959
 129   1.0000      -0.193070        -5.2537
 130   1.0000      -0.186018        -5.0618
 131   1.0000      -0.183810        -5.0017
 132   1.0000      -0.182160        -4.9568
 133   1.0000      -0.178098        -4.8463
 134   1.0000      -0.159385        -4.3371
 135   1.0000      -0.150509        -4.0956
 136   1.0000      -0.145462        -3.9582
 137   1.0000      -0.135683        -3.6921
 138   1.0000      -0.133938        -3.6446
 139   1.0000      -0.132841        -3.6148
 140   1.0000      -0.124992        -3.4012
 141   1.0000      -0.121019        -3.2931
 142   1.0000      -0.113364        -3.0848
 143   1.0000      -0.109531        -2.9805
 144   1.0000      -0.099676        -2.7123
 145   1.0000      -0.098070        -2.6686
 146   1.0000      -0.096778        -2.6335
 147   1.0000      -0.094271        -2.5653
 148   1.0000      -0.074381        -2.0240
 149   1.0000      -0.067586        -1.8391
 150   1.0000      -0.067131        -1.8267
 151   1.0000      -0.052204        -1.4205
 152   1.0000      -0.045465        -1.2372
 153   1.0000      -0.037434        -1.0186
 154   1.0000      -0.036990        -1.0066
 155   1.0000      -0.031203        -0.8491
 156   1.0000      -0.024877        -0.6769
 157   1.0000      -0.018998        -0.5169
 158   1.0000      -0.015313        -0.4167
 159   1.0000       0.020512         0.5581
 160   1.0000       0.041366         1.1256
 161   0.0000       0.135325         3.6824
 162   0.0000       0.136954         3.7267
 163   0.0000       0.159342         4.3359
 164   0.0000       0.162078         4.4104
 165   0.0000       0.166681         4.5356

                 SPIN DOWN ORBITALS
  NO   OCC          E(Eh)            E(eV)
   0   1.0000    -196.674923     -5351.7967
   1   1.0000     -88.735879     -2414.6260
   2   1.0000     -88.733129     -2414.5512
   3   1.0000     -88.733052     -2414.5491
   4   1.0000     -88.731370     -2414.5033
   5   1.0000     -88.730482     -2414.4792
   6   1.0000     -88.730368     -2414.4761
   7   1.0000     -88.730117     -2414.4692
   8   1.0000     -88.729946     -2414.4646
   9   1.0000     -88.639954     -2412.0158
  10   1.0000     -88.639716     -2412.0093
  11   1.0000     -88.639498     -2412.0034
  12   1.0000     -88.639469     -2412.0026
  13   1.0000     -22.035240      -599.6094
  14   1.0000     -18.893870      -514.1283
  15   1.0000     -18.551352      -504.8080
  16   1.0000     -18.535413      -504.3742
  17   1.0000     -18.535229      -504.3692
  18   1.0000     -10.076315      -274.1905
  19   1.0000     -10.075694      -274.1736
  20   1.0000     -10.072730      -274.0929
  21   1.0000     -10.068245      -273.9709
  22   1.0000     -10.063443      -273.8402
  23   1.0000     -10.063308      -273.8365
  24   1.0000     -10.052276      -273.5363
  25   1.0000     -10.051235      -273.5080
  26   1.0000     -10.048227      -273.4261
  27   1.0000     -10.048169      -273.4246
  28   1.0000     -10.017943      -272.6021
  29   1.0000     -10.017833      -272.5991
  30   1.0000     -10.017155      -272.5806
  31   1.0000     -10.016914      -272.5741
  32   1.0000      -7.789051      -211.9508
  33   1.0000      -7.786590      -211.8839
  34   1.0000      -7.786496      -211.8813
  35   1.0000      -7.784964      -211.8397
  36   1.0000      -7.783790      -211.8077
  37   1.0000      -7.783627      -211.8033
  38   1.0000      -7.783375      -211.7964
  39   1.0000      -7.783254      -211.7931
  40   1.0000      -7.694239      -209.3709
  41   1.0000      -7.694027      -209.3651
  42   1.0000      -7.693845      -209.3602
  43   1.0000      -7.693725      -209.3569
  44   1.0000      -5.754081      -156.5765
  45   1.0000      -5.751579      -156.5084
  46   1.0000      -5.751490      -156.5060
  47   1.0000      -5.750681      -156.4840
  48   1.0000      -5.749925      -156.4634
  49   1.0000      -5.748733      -156.4310
  50   1.0000      -5.748569      -156.4265
  51   1.0000      -5.748320      -156.4197
  52   1.0000      -5.748198      -156.4164
  53   1.0000      -5.748166      -156.4156
  54   1.0000      -5.748075      -156.4131
  55   1.0000      -5.746478      -156.3696
  56   1.0000      -5.744291      -156.3101
  57   1.0000      -5.744138      -156.3060
  58   1.0000      -5.743889      -156.2992
  59   1.0000      -5.743807      -156.2969
  60   1.0000      -5.743763      -156.2957
  61   1.0000      -5.741379      -156.2309
  62   1.0000      -5.741288      -156.2284
  63   1.0000      -5.739814      -156.1883
  64   1.0000      -5.739627      -156.1832
  65   1.0000      -5.739456      -156.1785
  66   1.0000      -5.739205      -156.1717
  67   1.0000      -5.739075      -156.1682
  68   1.0000      -5.659573      -154.0048
  69   1.0000      -5.659339      -153.9984
  70   1.0000      -5.659173      -153.9939
  71   1.0000      -5.659061      -153.9909
  72   1.0000      -5.653115      -153.8291
  73   1.0000      -5.652931      -153.8241
  74   1.0000      -5.652738      -153.8188
  75   1.0000      -5.652642      -153.8162
  76   1.0000      -5.651542      -153.7863
  77   1.0000      -5.651309      -153.7799
  78   1.0000      -5.651129      -153.7750
  79   1.0000      -5.650977      -153.7709
  80   1.0000      -2.398933       -65.2783
  81   1.0000      -1.465827       -39.8872
  82   1.0000      -1.411076       -38.3973
  83   1.0000      -1.410921       -38.3931
  84   1.0000      -0.709764       -19.3136
  85   1.0000      -0.709385       -19.3034
  86   1.0000      -0.685756       -18.6604
  87   1.0000      -0.685487       -18.6530
  88   1.0000      -0.657806       -17.8998
  89   1.0000      -0.631410       -17.1815
  90   1.0000      -0.631136       -17.1741
  91   1.0000      -0.617193       -16.7947
  92   1.0000      -0.616359       -16.7720
  93   1.0000      -0.574755       -15.6399
  94   1.0000      -0.574274       -15.6268
  95   1.0000      -0.573589       -15.6081
  96   1.0000      -0.572635       -15.5822
  97   1.0000      -0.497549       -13.5390
  98   1.0000      -0.496214       -13.5027
  99   1.0000      -0.495821       -13.4920
 100   1.0000      -0.494440       -13.4544
 101   1.0000      -0.480121       -13.0648
 102   1.0000      -0.477524       -12.9941
 103   1.0000      -0.446915       -12.1612
 104   1.0000      -0.444431       -12.0936
 105   1.0000      -0.416285       -11.3277
 106   1.0000      -0.411185       -11.1889
 107   1.0000      -0.362168        -9.8551
 108   1.0000      -0.355296        -9.6681
 109   1.0000      -0.336318        -9.1517
 110   1.0000      -0.326602        -8.8873
 111   1.0000      -0.318519        -8.6673
 112   1.0000      -0.313865        -8.5407
 113   1.0000      -0.306315        -8.3353
 114   1.0000      -0.303771        -8.2660
 115   1.0000      -0.292385        -7.9562
 116   1.0000      -0.276184        -7.5154
 117   1.0000      -0.259540        -7.0625
 118   1.0000      -0.256820        -6.9884
 119   1.0000      -0.256484        -6.9793
 120   1.0000      -0.249478        -6.7886
 121   1.0000      -0.238100        -6.4790
 122   1.0000      -0.234310        -6.3759
 123   1.0000      -0.230543        -6.2734
 124   1.0000      -0.227577        -6.1927
 125   1.0000      -0.218142        -5.9359
 126   1.0000      -0.214603        -5.8396
 127   1.0000      -0.213537        -5.8106
 128   1.0000      -0.198189        -5.3930
 129   1.0000      -0.191401        -5.2083
 130   1.0000      -0.185706        -5.0533
 131   1.0000      -0.183555        -4.9948
 132   1.0000      -0.182081        -4.9547
 133   1.0000      -0.177972        -4.8429
 134   1.0000      -0.158765        -4.3202
 135   1.0000      -0.150347        -4.0912
 136   1.0000      -0.145385        -3.9561
 137   1.0000      -0.135039        -3.6746
 138   1.0000      -0.133595        -3.6353
 139   1.0000      -0.132625        -3.6089
 140   1.0000      -0.124419        -3.3856
 141   1.0000      -0.120690        -3.2841
 142   1.0000      -0.115167        -3.1338
 143   1.0000      -0.111127        -3.0239
 144   1.0000      -0.099660        -2.7119
 145   1.0000      -0.098406        -2.6778
 146   1.0000      -0.096784        -2.6336
 147   1.0000      -0.094561        -2.5731
 148   1.0000      -0.070550        -1.9198
 149   1.0000      -0.067575        -1.8388
 150   1.0000      -0.067132        -1.8267
 151   1.0000      -0.049608        -1.3499
 152   1.0000      -0.044530        -1.2117
 153   1.0000      -0.037474        -1.0197
 154   1.0000      -0.036424        -0.9912
 155   1.0000      -0.031251        -0.8504
 156   1.0000      -0.025912        -0.7051
 157   1.0000      -0.015524        -0.4224
 158   1.0000       0.020807         0.5662
 159   1.0000       0.040263         1.0956
 160   0.0000       0.135319         3.6822
 161   0.0000       0.136963         3.7270
 162   0.0000       0.155680         4.2363
 163   0.0000       0.160053         4.3553
 164   0.0000       0.162911         4.4330

MULLIKEN ATOMIC CHARGES AND SPIN POPULATIONS
--------------------------------------------
   0 V :    0.471093    1.210721
   1 S :   -0.289935   -0.022423
   2 S :   -0.289606   -0.025215
   3 S :   -0.288779   -0.023312
   4 S :   -0.285662   -0.025731
   5 O :   -0.467821   -0.146783
   6 C :   -0.077623    0.009660
   7 C :   -0.084299    0.008089
   8 C :   -0.085068    0.007754
   9 C :   -0.084327    0.007354
  10 S :    0.099706   -0.000585
  11 S :    0.100907   -0.000631
  12 S :    0.099792   -0.000389
  13 S :    0.102460   -0.000344
  14 C :   -0.213226    0.001527
  15 C :   -0.209321    0.000984
  16 C :   -0.192075   -0.000077
  17 C :   -0.195635   -0.000395
  18 S :    0.008926   -0.000113
  19 S :    0.009353   -0.000112
  20 S :    0.009421   -0.000070
  21 S :    0.028553   -0.000071
  22 C :   -0.341486    0.000001
  23 C :   -0.296544   -0.000003
  24 C :   -0.147126   -0.000011
  25 H :    0.125186   -0.000001
  26 H :    0.107798   -0.000005
  27 H :    0.082379   -0.000000
  28 H :    0.093196   -0.000001
  29 H :    0.121803   -0.000005
  30 H :    0.160599   -0.000001
  31 C :   -0.300875    0.000195
  32 C :   -0.299826    0.000191
  33 C :   -0.157613   -0.000241
  34 H :    0.142111   -0.000018
  35 H :    0.113454    0.000020
  36 H :    0.092217    0.000024
  37 H :    0.082575    0.000015
  38 H :    0.113300    0.000020
  39 H :    0.142020   -0.000018
Sum of atomic charges         :   -2.0000000

LOEWDIN ATOMIC CHARGES AND SPIN POPULATIONS
-------------------------------------------
   0 V :   -0.155915    1.164082
   1 S :    0.080640   -0.014455
   2 S :    0.079426   -0.016080
   3 S :    0.081356   -0.015217
   4 S :    0.083173   -0.016331
   5 O :   -0.319066   -0.131686
   6 C :   -0.549990    0.009047
   7 C :   -0.552146    0.007954
   8 C :   -0.552313    0.008131
   9 C :   -0.552380    0.007660
  10 S :    0.471361   -0.000902
  11 S :    0.472239   -0.000950
  12 S :    0.471792   -0.000821
  13 S :    0.472999   -0.000827
  14 C :   -0.465095    0.000164
  15 C :   -0.464795   -0.000082
  16 C :   -0.622836    0.000472
  17 C :   -0.625787    0.000085
  18 S :    0.358599   -0.000090
  19 S :    0.360278   -0.000087
  20 S :    0.350507   -0.000074
  21 S :    0.369416   -0.000074
  22 C :   -0.325757   -0.000007
  23 C :   -0.288039   -0.000009
  24 C :   -0.180594   -0.000002
  25 H :    0.065792   -0.000002
  26 H :    0.062702   -0.000002
  27 H :    0.058808   -0.000001
  28 H :    0.058742   -0.000001
  29 H :    0.067812   -0.000003
  30 H :    0.084095   -0.000001
  31 C :   -0.284489    0.000043
  32 C :   -0.283401    0.000036
  33 C :   -0.176343    0.000007
  34 H :    0.062264   -0.000001
  35 H :    0.053547    0.000008
  36 H :    0.060216    0.000005
  37 H :    0.057783    0.000002
  38 H :    0.053551    0.000009
  39 H :    0.061851   -0.000000

  Mayer bond orders larger than 0.100000
B(  0-V ,  1-S ) :   0.7715 B(  0-V ,  2-S ) :   0.7714 B(  0-V ,  3-S ) :   0.7646
B(  0-V ,  4-S ) :   0.7786 B(  0-V ,  5-O ) :   2.1486 B(  1-S ,  8-C ) :   1.1046
B(  2-S ,  6-C ) :   1.1041 B(  3-S ,  9-C ) :   1.1061 B(  4-S ,  7-C ) :   1.1045
B(  6-C ,  7-C ) :   1.6847 B(  6-C , 10-S ) :   0.9351 B(  7-C , 11-S ) :   0.9387
B(  8-C ,  9-C ) :   1.6965 B(  8-C , 13-S ) :   0.9341 B(  9-C , 12-S ) :   0.9361
B( 10-S , 14-C ) :   1.2487 B( 11-S , 14-C ) :   1.2486 B( 12-S , 15-C ) :   1.2454
B( 13-S , 15-C ) :   1.2496 B( 14-C , 16-C ) :   1.4507 B( 15-C , 17-C ) :   1.4416
B( 16-C , 18-S ) :   1.0889 B( 16-C , 19-S ) :   1.0891 B( 17-C , 20-S ) :   1.1090
B( 17-C , 21-S ) :   1.0578 B( 18-S , 32-C ) :   0.9919 B( 19-S , 31-C ) :   0.9918
B( 20-S , 23-C ) :   1.0053 B( 21-S , 22-C ) :   1.0084 B( 22-C , 24-C ) :   0.9442
B( 22-C , 25-H ) :   0.9458 B( 22-C , 26-H ) :   0.9535 B( 23-C , 24-C ) :   0.9031
B( 23-C , 29-H ) :   0.9587 B( 23-C , 30-H ) :   0.9569 B( 24-C , 27-H ) :   0.9604
B( 24-C , 28-H ) :   0.9724 B( 31-C , 33-C ) :   0.9138 B( 31-C , 38-H ) :   0.9655
B( 31-C , 39-H ) :   0.9658 B( 32-C , 33-C ) :   0.9131 B( 32-C , 34-H ) :   0.9658
B( 32-C , 35-H ) :   0.9656 B( 33-C , 36-H ) :   0.9718 B( 33-C , 37-H ) :   0.9624

FINAL SINGLE POINT ENERGY     -6337.665460582197

DIPOLE MOMENT
-------------
                                X             Y             Z
Electronic contribution:      9.90375      -7.35824       5.92896
Nuclear contribution   :    -11.02501       8.16826      -6.55264
                        -----------------------------------------
Total Dipole Moment    :     -1.12125       0.81002      -0.62368
                        -----------------------------------------
Magnitude (a.u.)       :      1.51734
Magnitude (Debye)      :      3.85677

Rotational constants in cm-1:     0.010760     0.000804     0.000783
Rotational constants in MHz :   322.588848    24.115927    23.486554

                             ****ORCA TERMINATED NORMALLY****
TOTAL RUN TIME: 0 days 1 hours 2 minutes 18 seconds 966 msec
