                         Program Version 5.0.4 -  RELEASE  -
|  1> ! nofrozencore ReducedPop printbasis
|  2> ! B3LYP TZVP
|  3>
|  4> %basis
|  5> newgto V "CP(PPP)" end
|  6> end
|  7>
|  8> %pal
|  9> nprocs 6
| 10> end
| 11>
| 12> % sym SymThresh 1e-2 end
| 13> * xyz -2 2
| 14> V -0.9304220677933582 0.45680010633573437 0.40518617707023674
| 15> S -1.8294528581350873 -0.8379860356582365 -1.5053222526622505
| 16> S -0.629965749619787 -1.7391121720947966 1.5052999327435372
| 17> S -0.12088485688431308 2.0792233545985286 -1.2856827313194725
| 18> S 1.1032503675790328 1.1332460298371119 1.6247503284136158
| 19> O -2.168948862783895 1.1293920015389634 1.1388563344075768
| 20> C 0.4264127084336016 -1.255430001349793 2.824157022976268
| 21> C 1.1236489361899717 -0.10517338934818593 2.869857715844665
| 22> C -1.5822383928856867 0.3017889139638113 -2.8324195289006995
| 23> C -0.8986571027435435 1.462583033173852 -2.7446912133350363
| 24> S 0.6778364154912316 -2.3913001634753557 4.191837930766257
| 25> S 2.211208693609999 0.11617276199542136 4.278769664338561
| 26> S -0.7245521061880604 2.4679105516211184 -4.24368479562686
| 27> S -2.279081760225445 -0.15777322761487156 -4.442896516972309
| 28> C 1.8446658349277887 -1.4111933406210908 5.087969808609506
| 29> C -1.5333862585951001 1.2483522607121085 -5.321233501344184
| 30> C 2.4527482132744964 -1.819229689055353 6.244252841190475
| 31> C -1.7519982957974973 1.4795713368476522 -6.652397195379686
| 32> S 2.022509748607157 -3.36416968916356 7.033776799623241
| 33> S 3.652277414877142 -0.7893868847353666 7.078585212636571
| 34> S -2.6566992506043183 0.2684580585218014 -7.676478033090967
| 35> S -1.0454809316202924 2.950934871162166 -7.472168256498946
| 36> C 0.07915144591705914 1.9692727818760667 -8.613397800772198
| 37> C -1.1889055177843357 -0.13595906849163683 -8.778507471593668
| 38> C -0.516880489641879 0.9662033066915382 -9.617539019127912
| 39> H 0.6995838028966568 1.370802645393673 -7.911741049543732
| 40> H 0.74927117374526 2.7129283867525182 -9.101728069801569
| 41> H 0.3640744696901835 0.474057515533626 -10.112956412907943
| 42> H -1.153270926551584 1.4129319095103614 -10.41673025505985
| 43> H -1.4982150219113335 -1.0103544171520902 -9.395133784685052
| 44> H -0.41712665127718584 -0.4893231850659577 -8.060968600933275
| 45> C 2.6991929576559417 -0.50948530262537 8.649687836904537
| 46> C 1.334670482871441 -2.654289833294846 8.608694435988383
| 47> C 2.2984849356261554 -1.7758422754127832 9.412654132781805
| 48> H 0.45241066050643364 -2.069450163355817 8.333486904241747
| 49> H 1.0013150401703395 -3.5130878069725986 9.19899655563182
| 50> H 3.1838827063653534 -2.3454717120447817 9.716694264528208
| 51> H 1.7769392367938275 -1.4613700640756075 10.329896836142373
| 52> H 3.330104790494991 0.13760843576408285 9.266400667020656
| 53> H 1.80088863515265 0.05223817296201729 8.378225117571061
| 54> *
| 55>
| 56> % eprnmr
| 57> gtensor true
| 58> Nuclei = all H {aiso,adip,aorb,fgrad,rho}
| 59> Nuclei = all V {aiso,adip,aorb,fgrad,rho}
| 60> end
| 61>
| 62>                          ****END OF INPUT****

CARTESIAN COORDINATES (ANGSTROEM)
---------------------------------
  V     -0.927233    0.454862    0.406065
  S     -1.826264   -0.839924   -1.504444
  S     -0.626777   -1.741050    1.506178
  S     -0.117696    2.077285   -1.284804
  S      1.106439    1.131308    1.625629
  O     -2.165760    1.127454    1.139735
  C      0.429602   -1.257368    2.825035
  C      1.126838   -0.107112    2.870736
  C     -1.579049    0.299851   -2.831541
  C     -0.895468    1.460645   -2.743813
  S      0.681026   -2.393238    4.192716
  S      2.214398    0.114235    4.279648
  S     -0.721363    2.465972   -4.242806
  S     -2.275893   -0.159711   -4.442018
  C      1.847855   -1.413132    5.088848
  C     -1.530197    1.246414   -5.320355
  C      2.455937   -1.821168    6.245131
  C     -1.748809    1.477633   -6.651519
  S      2.025699   -3.366108    7.034655
  S      3.655467   -0.791325    7.079464
  S     -2.653510    0.266520   -7.675600
  S     -1.042292    2.948997   -7.471290
  C      0.082341    1.967335   -8.612519
  C     -1.185716   -0.137897   -8.777629
  C     -0.513691    0.964265   -9.616661
  H      0.702773    1.368864   -7.910863
  H      0.752460    2.710990   -9.100850
  H      0.367264    0.472119  -10.112078
  H     -1.150082    1.410994  -10.415852
  H     -1.495026   -1.012293   -9.394255
  H     -0.413938   -0.491261   -8.060090
  C      2.702382   -0.511423    8.650566
  C      1.337860   -2.656228    8.609573
  C      2.301674   -1.777780    9.413533
  H      0.455600   -2.071388    8.334365
  H      1.004504   -3.515026    9.199875
  H      3.187072   -2.347410    9.717573
  H      1.780128   -1.463308   10.330775
  H      3.333294    0.135670    9.267279
  H      1.804078    0.050300    8.379103

 Total Charge           Charge          ....   -2
 Multiplicity           Mult            ....    2
 Number of Electrons    NEL             ....  321
 Basis Dimension        Dim             ....  681

ORBITAL ENERGIES
----------------
                 SPIN UP ORBITALS
  NO   OCC          E(Eh)            E(eV)
   0   1.0000    -196.672880     -5351.7411
   1   1.0000     -88.742999     -2414.8198
   2   1.0000     -88.742867     -2414.8162
   3   1.0000     -88.733834     -2414.5704
   4   1.0000     -88.733824     -2414.5701
   5   1.0000     -88.730580     -2414.4818
   6   1.0000     -88.730520     -2414.4802
   7   1.0000     -88.728779     -2414.4328
   8   1.0000     -88.728588     -2414.4276
   9   1.0000     -88.638001     -2411.9626
  10   1.0000     -88.637811     -2411.9575
  11   1.0000     -88.637638     -2411.9527
  12   1.0000     -88.637178     -2411.9402
  13   1.0000     -22.048262      -599.9637
  14   1.0000     -18.888218      -513.9745
  15   1.0000     -18.554732      -504.8999
  16   1.0000     -18.549526      -504.7583
  17   1.0000     -18.549429      -504.7556
  18   1.0000     -10.079602      -274.2799
  19   1.0000     -10.074533      -274.1420
  20   1.0000     -10.072152      -274.0772
  21   1.0000     -10.072053      -274.0745
  22   1.0000     -10.064936      -273.8808
  23   1.0000     -10.063302      -273.8364
  24   1.0000     -10.063271      -273.8355
  25   1.0000     -10.058079      -273.6942
  26   1.0000     -10.052488      -273.5421
  27   1.0000     -10.047959      -273.4189
  28   1.0000     -10.017183      -272.5814
  29   1.0000     -10.016541      -272.5639
  30   1.0000     -10.016415      -272.5605
  31   1.0000     -10.015604      -272.5384
  32   1.0000      -7.794949      -212.1114
  33   1.0000      -7.794812      -212.1076
  34   1.0000      -7.786976      -211.8944
  35   1.0000      -7.786937      -211.8933
  36   1.0000      -7.782493      -211.7724
  37   1.0000      -7.782468      -211.7717
  38   1.0000      -7.782081      -211.7612
  39   1.0000      -7.781952      -211.7577
  40   1.0000      -7.692358      -209.3197
  41   1.0000      -7.692089      -209.3124
  42   1.0000      -7.691730      -209.3026
  43   1.0000      -7.691347      -209.2922
  44   1.0000      -5.760017      -156.7380
  45   1.0000      -5.759875      -156.7342
  46   1.0000      -5.756801      -156.6505
  47   1.0000      -5.756671      -156.6470
  48   1.0000      -5.751991      -156.5196
  49   1.0000      -5.751957      -156.5187
  50   1.0000      -5.749672      -156.4565
  51   1.0000      -5.749540      -156.4529
  52   1.0000      -5.748581      -156.4268
  53   1.0000      -5.748557      -156.4262
  54   1.0000      -5.747692      -156.4026
  55   1.0000      -5.747677      -156.4022
  56   1.0000      -5.747032      -156.3847
  57   1.0000      -5.746888      -156.3808
  58   1.0000      -5.743330      -156.2840
  59   1.0000      -5.743295      -156.2830
  60   1.0000      -5.742578      -156.2635
  61   1.0000      -5.742443      -156.2598
  62   1.0000      -5.741771      -156.2415
  63   1.0000      -5.741729      -156.2404
  64   1.0000      -5.738018      -156.1394
  65   1.0000      -5.737994      -156.1387
  66   1.0000      -5.737909      -156.1364
  67   1.0000      -5.737784      -156.1330
  68   1.0000      -5.657666      -153.9529
  69   1.0000      -5.657422      -153.9463
  70   1.0000      -5.657050      -153.9362
  71   1.0000      -5.656652      -153.9253
  72   1.0000      -5.650999      -153.7715
  73   1.0000      -5.650759      -153.7650
  74   1.0000      -5.650434      -153.7561
  75   1.0000      -5.650064      -153.7460
  76   1.0000      -5.649675      -153.7355
  77   1.0000      -5.649376      -153.7273
  78   1.0000      -5.649062      -153.7188
  79   1.0000      -5.648649      -153.7076
  80   1.0000      -2.441884       -66.4470
  81   1.0000      -1.483216       -40.3604
  82   1.0000      -1.471478       -40.0409
  83   1.0000      -1.470691       -40.0195
  84   1.0000      -0.707793       -19.2600
  85   1.0000      -0.701597       -19.0914
  86   1.0000      -0.684295       -18.6206
  87   1.0000      -0.676536       -18.4095
  88   1.0000      -0.647834       -17.6285
  89   1.0000      -0.630506       -17.1569
  90   1.0000      -0.627498       -17.0751
  91   1.0000      -0.614566       -16.7232
  92   1.0000      -0.611454       -16.6385
  93   1.0000      -0.573117       -15.5953
  94   1.0000      -0.572278       -15.5725
  95   1.0000      -0.568740       -15.4762
  96   1.0000      -0.566077       -15.4037
  97   1.0000      -0.495952       -13.4955
  98   1.0000      -0.494750       -13.4628
  99   1.0000      -0.494117       -13.4456
 100   1.0000      -0.492189       -13.3931
 101   1.0000      -0.477738       -12.9999
 102   1.0000      -0.473767       -12.8919
 103   1.0000      -0.445316       -12.1177
 104   1.0000      -0.441932       -12.0256
 105   1.0000      -0.415298       -11.3008
 106   1.0000      -0.409726       -11.1492
 107   1.0000      -0.357586        -9.7304
 108   1.0000      -0.355055        -9.6615
 109   1.0000      -0.325392        -8.8544
 110   1.0000      -0.322466        -8.7747
 111   1.0000      -0.316128        -8.6023
 112   1.0000      -0.307368        -8.3639
 113   1.0000      -0.303854        -8.2683
 114   1.0000      -0.301830        -8.2132
 115   1.0000      -0.288602        -7.8533
 116   1.0000      -0.280150        -7.6233
 117   1.0000      -0.255711        -6.9582
 118   1.0000      -0.255516        -6.9529
 119   1.0000      -0.252198        -6.8626
 120   1.0000      -0.250901        -6.8274
 121   1.0000      -0.246414        -6.7053
 122   1.0000      -0.236556        -6.4370
 123   1.0000      -0.227788        -6.1984
 124   1.0000      -0.223392        -6.0788
 125   1.0000      -0.218835        -5.9548
 126   1.0000      -0.217364        -5.9148
 127   1.0000      -0.212710        -5.7881
 128   1.0000      -0.206699        -5.6246
 129   1.0000      -0.190659        -5.1881
 130   1.0000      -0.185689        -5.0529
 131   1.0000      -0.185373        -5.0443
 132   1.0000      -0.185161        -5.0385
 133   1.0000      -0.180094        -4.9006
 134   1.0000      -0.156730        -4.2649
 135   1.0000      -0.150951        -4.1076
 136   1.0000      -0.146914        -3.9977
 137   1.0000      -0.134913        -3.6712
 138   1.0000      -0.132893        -3.6162
 139   1.0000      -0.132506        -3.6057
 140   1.0000      -0.123513        -3.3610
 141   1.0000      -0.119356        -3.2478
 142   1.0000      -0.111439        -3.0324
 143   1.0000      -0.108159        -2.9431
 144   1.0000      -0.097949        -2.6653
 145   1.0000      -0.097187        -2.6446
 146   1.0000      -0.096057        -2.6138
 147   1.0000      -0.093818        -2.5529
 148   1.0000      -0.074806        -2.0356
 149   1.0000      -0.072506        -1.9730
 150   1.0000      -0.068077        -1.8525
 151   1.0000      -0.050277        -1.3681
 152   1.0000      -0.043275        -1.1776
 153   1.0000      -0.037588        -1.0228
 154   1.0000      -0.035153        -0.9566
 155   1.0000      -0.030741        -0.8365
 156   1.0000      -0.022813        -0.6208
 157   1.0000      -0.017131        -0.4662
 158   1.0000      -0.013401        -0.3647
 159   1.0000       0.022063         0.6004
 160   1.0000       0.043020         1.1706
 161   0.0000       0.132377         3.6022
 162   0.0000       0.138015         3.7556
 163   0.0000       0.151831         4.1315
 164   0.0000       0.160849         4.3769
 165   0.0000       0.161733         4.4010

                 SPIN DOWN ORBITALS
  NO   OCC          E(Eh)            E(eV)
   0   1.0000    -196.673027     -5351.7451
   1   1.0000     -88.742999     -2414.8198
   2   1.0000     -88.742867     -2414.8162
   3   1.0000     -88.733835     -2414.5704
   4   1.0000     -88.733825     -2414.5701
   5   1.0000     -88.730588     -2414.4820
   6   1.0000     -88.730528     -2414.4804
   7   1.0000     -88.728788     -2414.4331
   8   1.0000     -88.728597     -2414.4279
   9   1.0000     -88.638140     -2411.9664
  10   1.0000     -88.637952     -2411.9613
  11   1.0000     -88.637777     -2411.9565
  12   1.0000     -88.637319     -2411.9441
  13   1.0000     -22.033325      -599.5573
  14   1.0000     -18.891992      -514.0772
  15   1.0000     -18.549467      -504.7567
  16   1.0000     -18.533468      -504.3213
  17   1.0000     -18.533319      -504.3173
  18   1.0000     -10.079604      -274.2800
  19   1.0000     -10.074529      -274.1419
  20   1.0000     -10.072152      -274.0772
  21   1.0000     -10.072053      -274.0745
  22   1.0000     -10.064936      -273.8808
  23   1.0000     -10.063301      -273.8364
  24   1.0000     -10.063270      -273.8355
  25   1.0000     -10.058075      -273.6941
  26   1.0000     -10.052488      -273.5421
  27   1.0000     -10.047947      -273.4185
  28   1.0000     -10.016965      -272.5755
  29   1.0000     -10.016304      -272.5575
  30   1.0000     -10.016200      -272.5546
  31   1.0000     -10.015382      -272.5324
  32   1.0000      -7.794950      -212.1114
  33   1.0000      -7.794813      -212.1076
  34   1.0000      -7.786976      -211.8944
  35   1.0000      -7.786938      -211.8934
  36   1.0000      -7.782502      -211.7726
  37   1.0000      -7.782477      -211.7720
  38   1.0000      -7.782090      -211.7614
  39   1.0000      -7.781961      -211.7579
  40   1.0000      -7.692488      -209.3232
  41   1.0000      -7.692220      -209.3160
  42   1.0000      -7.691860      -209.3061
  43   1.0000      -7.691478      -209.2958
  44   1.0000      -5.760018      -156.7381
  45   1.0000      -5.759876      -156.7342
  46   1.0000      -5.756801      -156.6505
  47   1.0000      -5.756671      -156.6470
  48   1.0000      -5.751993      -156.5197
  49   1.0000      -5.751959      -156.5188
  50   1.0000      -5.749673      -156.4566
  51   1.0000      -5.749541      -156.4530
  52   1.0000      -5.748582      -156.4269
  53   1.0000      -5.748558      -156.4262
  54   1.0000      -5.747700      -156.4029
  55   1.0000      -5.747686      -156.4025
  56   1.0000      -5.747043      -156.3850
  57   1.0000      -5.746899      -156.3811
  58   1.0000      -5.743345      -156.2844
  59   1.0000      -5.743310      -156.2834
  60   1.0000      -5.742592      -156.2639
  61   1.0000      -5.742456      -156.2602
  62   1.0000      -5.741772      -156.2416
  63   1.0000      -5.741729      -156.2404
  64   1.0000      -5.738024      -156.1396
  65   1.0000      -5.738000      -156.1389
  66   1.0000      -5.737916      -156.1366
  67   1.0000      -5.737793      -156.1333
  68   1.0000      -5.657804      -153.9567
  69   1.0000      -5.657563      -153.9501
  70   1.0000      -5.657195      -153.9401
  71   1.0000      -5.656796      -153.9292
  72   1.0000      -5.651383      -153.7820
  73   1.0000      -5.651138      -153.7753
  74   1.0000      -5.650794      -153.7659
  75   1.0000      -5.650431      -153.7560
  76   1.0000      -5.649761      -153.7378
  77   1.0000      -5.649469      -153.7299
  78   1.0000      -5.649168      -153.7217
  79   1.0000      -5.648755      -153.7104
  80   1.0000      -2.396986       -65.2253
  81   1.0000      -1.463933       -39.8357
  82   1.0000      -1.409113       -38.3439
  83   1.0000      -1.408903       -38.3382
  84   1.0000      -0.707766       -19.2593
  85   1.0000      -0.701591       -19.0913
  86   1.0000      -0.684242       -18.6192
  87   1.0000      -0.676485       -18.4081
  88   1.0000      -0.655927       -17.8487
  89   1.0000      -0.630433       -17.1550
  90   1.0000      -0.627431       -17.0733
  91   1.0000      -0.614566       -16.7232
  92   1.0000      -0.611457       -16.6386
  93   1.0000      -0.573088       -15.5945
  94   1.0000      -0.572194       -15.5702
  95   1.0000      -0.568717       -15.4756
  96   1.0000      -0.566015       -15.4021
  97   1.0000      -0.495966       -13.4959
  98   1.0000      -0.494792       -13.4640
  99   1.0000      -0.494147       -13.4464
 100   1.0000      -0.492225       -13.3941
 101   1.0000      -0.477943       -13.0055
 102   1.0000      -0.474027       -12.8989
 103   1.0000      -0.445340       -12.1183
 104   1.0000      -0.441967       -12.0265
 105   1.0000      -0.415298       -11.3008
 106   1.0000      -0.409842       -11.1524
 107   1.0000      -0.357584        -9.7303
 108   1.0000      -0.355046        -9.6613
 109   1.0000      -0.325376        -8.8539
 110   1.0000      -0.322459        -8.7746
 111   1.0000      -0.316072        -8.6007
 112   1.0000      -0.307364        -8.3638
 113   1.0000      -0.303810        -8.2671
 114   1.0000      -0.301801        -8.2124
 115   1.0000      -0.288597        -7.8531
 116   1.0000      -0.280148        -7.6232
 117   1.0000      -0.255637        -6.9562
 118   1.0000      -0.255385        -6.9494
 119   1.0000      -0.252142        -6.8611
 120   1.0000      -0.250849        -6.8259
 121   1.0000      -0.246360        -6.7038
 122   1.0000      -0.236539        -6.4365
 123   1.0000      -0.227746        -6.1973
 124   1.0000      -0.223352        -6.0777
 125   1.0000      -0.218566        -5.9475
 126   1.0000      -0.217234        -5.9112
 127   1.0000      -0.212484        -5.7820
 128   1.0000      -0.206580        -5.6213
 129   1.0000      -0.189096        -5.1456
 130   1.0000      -0.185555        -5.0492
 131   1.0000      -0.185314        -5.0426
 132   1.0000      -0.184537        -5.0215
 133   1.0000      -0.179970        -4.8972
 134   1.0000      -0.156117        -4.2482
 135   1.0000      -0.150797        -4.1034
 136   1.0000      -0.146844        -3.9958
 137   1.0000      -0.134361        -3.6562
 138   1.0000      -0.132558        -3.6071
 139   1.0000      -0.132226        -3.5981
 140   1.0000      -0.122815        -3.3420
 141   1.0000      -0.119012        -3.2385
 142   1.0000      -0.113227        -3.0811
 143   1.0000      -0.109683        -2.9846
 144   1.0000      -0.097982        -2.6662
 145   1.0000      -0.097189        -2.6446
 146   1.0000      -0.096325        -2.6211
 147   1.0000      -0.094180        -2.5628
 148   1.0000      -0.074793        -2.0352
 149   1.0000      -0.068771        -1.8714
 150   1.0000      -0.068077        -1.8525
 151   1.0000      -0.047696        -1.2979
 152   1.0000      -0.042367        -1.1529
 153   1.0000      -0.037598        -1.0231
 154   1.0000      -0.034607        -0.9417
 155   1.0000      -0.030874        -0.8401
 156   1.0000      -0.023814        -0.6480
 157   1.0000      -0.013604        -0.3702
 158   1.0000       0.022368         0.6087
 159   1.0000       0.041886         1.1398
 160   0.0000       0.132306         3.6002
 161   0.0000       0.138033         3.7561
 162   0.0000       0.151312         4.1174
 163   0.0000       0.158827         4.3219
 164   0.0000       0.160916         4.3788

MULLIKEN ATOMIC CHARGES AND SPIN POPULATIONS
--------------------------------------------
   0 V :    0.475576    1.211037
   1 S :   -0.296244   -0.023287
   2 S :   -0.290324   -0.024866
   3 S :   -0.294333   -0.024149
   4 S :   -0.286188   -0.025394
   5 O :   -0.468963   -0.146459
   6 C :   -0.078037    0.009539
   7 C :   -0.084530    0.007887
   8 C :   -0.075914    0.008159
   9 C :   -0.076742    0.007725
  10 S :    0.098385   -0.000530
  11 S :    0.099844   -0.000583
  12 S :    0.074686   -0.000330
  13 S :    0.073708   -0.000284
  14 C :   -0.219870    0.001120
  15 C :   -0.169593    0.001013
  16 C :   -0.179173    0.000125
  17 C :   -0.191489   -0.000501
  18 S :    0.007406   -0.000117
  19 S :    0.007646   -0.000114
  20 S :    0.009148   -0.000079
  21 S :    0.008763   -0.000083
  22 C :   -0.342644    0.000006
  23 C :   -0.342321    0.000006
  24 C :   -0.104002   -0.000025
  25 H :    0.144341   -0.000002
  26 H :    0.123677   -0.000005
  27 H :    0.090366    0.000000
  28 H :    0.094978   -0.000001
  29 H :    0.123363   -0.000005
  30 H :    0.143744   -0.000002
  31 C :   -0.312793    0.000196
  32 C :   -0.314055    0.000190
  33 C :   -0.138983   -0.000229
  34 H :    0.142049   -0.000019
  35 H :    0.115843    0.000021
  36 H :    0.091208    0.000018
  37 H :    0.083938    0.000016
  38 H :    0.115630    0.000023
  39 H :    0.141902   -0.000020
Sum of atomic charges         :   -2.0000000

LOEWDIN ATOMIC CHARGES AND SPIN POPULATIONS
-------------------------------------------
   0 V :   -0.154811    1.164299
   1 S :    0.072353   -0.015030
   2 S :    0.079492   -0.015908
   3 S :    0.073751   -0.015766
   4 S :    0.083361   -0.016165
   5 O :   -0.319714   -0.131405
   6 C :   -0.550977    0.009001
   7 C :   -0.553168    0.007882
   8 C :   -0.544827    0.008394
   9 C :   -0.544829    0.007920
  10 S :    0.470359   -0.000879
  11 S :    0.471411   -0.000936
  12 S :    0.438712   -0.000791
  13 S :    0.437863   -0.000796
  14 C :   -0.466891    0.000093
  15 C :   -0.436379   -0.000188
  16 C :   -0.619944    0.000476
  17 C :   -0.583188    0.000089
  18 S :    0.356001   -0.000093
  19 S :    0.357329   -0.000090
  20 S :    0.345002   -0.000084
  21 S :    0.344622   -0.000087
  22 C :   -0.288136   -0.000012
  23 C :   -0.288157   -0.000013
  24 C :   -0.167385   -0.000002
  25 H :    0.068848   -0.000002
  26 H :    0.054574   -0.000002
  27 H :    0.068669   -0.000002
  28 H :    0.062891   -0.000000
  29 H :    0.054513   -0.000002
  30 H :    0.068699   -0.000002
  31 C :   -0.284548    0.000041
  32 C :   -0.284346    0.000035
  33 C :   -0.172457    0.000006
  34 H :    0.062997   -0.000001
  35 H :    0.052873    0.000009
  36 H :    0.059931    0.000004
  37 H :    0.059684    0.000002
  38 H :    0.052933    0.000009
  39 H :    0.062889   -0.000001

  Mayer bond orders larger than 0.100000
B(  0-V ,  1-S ) :   0.7696 B(  0-V ,  2-S ) :   0.7699 B(  0-V ,  3-S ) :   0.7629
B(  0-V ,  4-S ) :   0.7771 B(  0-V ,  5-O ) :   2.1483 B(  1-S ,  8-C ) :   1.0918
B(  2-S ,  6-C ) :   1.1060 B(  3-S ,  9-C ) :   1.0945 B(  4-S ,  7-C ) :   1.1065
B(  6-C ,  7-C ) :   1.6843 B(  6-C , 10-S ) :   0.9360 B(  7-C , 11-S ) :   0.9396
B(  8-C ,  9-C ) :   1.7140 B(  8-C , 13-S ) :   0.9189 B(  9-C , 12-S ) :   0.9211
B( 10-S , 14-C ) :   1.2437 B( 11-S , 14-C ) :   1.2439 B( 12-S , 15-C ) :   1.1782
B( 13-S , 15-C ) :   1.1783 B( 14-C , 16-C ) :   1.4608 B( 15-C , 17-C ) :   1.5554
B( 16-C , 18-S ) :   1.0815 B( 16-C , 19-S ) :   1.0837 B( 17-C , 20-S ) :   1.0512
B( 17-C , 21-S ) :   1.0512 B( 18-S , 32-C ) :   0.9902 B( 19-S , 31-C ) :   0.9904
B( 20-S , 23-C ) :   0.9911 B( 21-S , 22-C ) :   0.9906 B( 22-C , 24-C ) :   0.9079
B( 22-C , 25-H ) :   0.9726 B( 22-C , 26-H ) :   0.9556 B( 23-C , 24-C ) :   0.9084
B( 23-C , 29-H ) :   0.9556 B( 23-C , 30-H ) :   0.9725 B( 24-C , 27-H ) :   0.9785
B( 24-C , 28-H ) :   0.9505 B( 31-C , 33-C ) :   0.9131 B( 31-C , 38-H ) :   0.9631
B( 31-C , 39-H ) :   0.9686 B( 32-C , 33-C ) :   0.9127 B( 32-C , 34-H ) :   0.9687
B( 32-C , 35-H ) :   0.9630 B( 33-C , 36-H ) :   0.9663 B( 33-C , 37-H ) :   0.9687

FINAL SINGLE POINT ENERGY     -6337.688786598502

DIPOLE MOMENT
-------------
                                X             Y             Z
Electronic contribution:    -12.58317       5.93736       1.14445
Nuclear contribution   :     13.93254      -6.53607      -1.61401
                        -----------------------------------------
Total Dipole Moment    :      1.34937      -0.59871      -0.46957
                        -----------------------------------------
Magnitude (a.u.)       :      1.54911
Magnitude (Debye)      :      3.93753

Rotational constants in cm-1:     0.010603     0.000804     0.000782
Rotational constants in MHz :   317.855064    24.101633    23.456563

                             ****ORCA TERMINATED NORMALLY****
TOTAL RUN TIME: 0 days 1 hours 6 minutes 22 seconds 294 msec
