                         Program Version 5.0.4 -  RELEASE  -
|  1> ! nofrozencore ReducedPop printbasis
|  2> ! B3LYP TZVP
|  3>
|  4> %basis
|  5> newgto V "CP(PPP)" end
|  6> end
|  7>
|  8> %pal
|  9> nprocs 8
| 10> end
| 11>
| 12> % sym SymThresh 1e-2 end
| 13> * xyz -2 2
| 14> V 0.39213895796521514 -1.0039973020280635 0.2778280546872918
| 15> S -1.6647532099694624 -0.9009009962328808 1.6480919318023413
| 16> S -1.130277074285855 -1.2975801027503004 -1.6517366960391502
| 17> S 1.3727776129976106 0.5359537385762789 1.9505525407739448
| 18> S 1.8472405823896056 0.21446196577027346 -1.2979911850882733
| 19> O 1.046007451830896 -2.43193134824143 0.5180789350676754
| 20> C -0.005593056577020745 -0.9926381622111224 -2.96084848702551
| 21> C 1.204293264765909 -0.37421944289125464 -2.8167724137827723
| 22> C -1.0838921932809402 -0.03924982186826393 3.0679774968851947
| 23> C 0.12320500876511242 0.5344510057910689 3.1862779323475694
| 24> S -0.4652859607090902 -1.4395256669135683 -4.634859519861747
| 25> S 2.1338983373855105 -0.09204922292381904 -4.320807859236912
| 26> S 0.45143054959715423 1.4049329428469577 4.72353901912494
| 27> S -2.1961713429848597 0.14065597039374697 4.4684101569833174
| 28> C 0.9648013407224412 -0.7958593201160618 -5.4256257671976025
| 29> C -1.1332117406302966 1.1442979263646977 5.466164866501659
| 30> C 1.1656169423687175 -0.8505290544614711 -6.818999069698783
| 31> C -1.4909832507944103 1.6514299590178367 6.676466669581365
| 32> S -0.013747475789933378 -1.6192835066577318 -7.8932867084509635
| 33> S 2.6257140302034445 -0.178525477178887 -7.562449349016747
| 34> S -3.1033513581818193 1.3637065436071307 7.383557229660724
| 35> S -0.3885490653545689 2.6768969084231 7.6344114026385785
| 36> C -1.391044805540035 4.233143439847188 7.626740496141442
| 37> C -3.703339321508289 3.114615608744109 7.419063007479386
| 38> C -2.7934057192856874 4.0557051395806205 8.207682180497084
| 39> H -1.4575133018614084 4.586085850409131 6.595358070118727
| 40> H -0.8231871517365607 4.94221845858598 8.233035584701783
| 41> H -3.2801384634241804 5.040558389148981 8.320079600730157
| 42> H -2.746733371106344 3.7637985198566217 9.265992602815949
| 43> H -4.688481562055652 3.0689672462715705 7.888287193273231
| 44> H -3.792834083606631 3.462004799503615 6.387579017712014
| 45> C 3.30520019668865 -1.7493945008696894 -8.272416878377033
| 46> C 1.0773748439341764 -2.968402211926641 -8.545231203364004
| 47> C 2.358521451147404 -2.4767312903542136 -9.248092004256439
| 48> H 1.2410736242224367 -3.694528100248107 -7.738640415657811
| 49> H 0.4524779229383033 -3.577855064226773 -9.214716600186154
| 50> H 1.9431308684562172 -1.5856269216047023 -9.839724662970452
| 51> H 2.9170471384343433 -3.4778359821954385 -9.32949652233215
| 52> H 4.260789212696745 -1.4867570509585015 -8.749703030300413
| 53> H 3.6771586637110616 -2.3644251929010713 -7.443039360570613
| 54> *
| 55>
| 56> % eprnmr
| 57> gtensor true
| 58> Nuclei = all H {aiso,adip,aorb,fgrad,rho}
| 59> Nuclei = all V {aiso,adip,aorb,fgrad,rho}
| 60> end
| 61>
| 62>                          ****END OF INPUT****

CARTESIAN COORDINATES (ANGSTROEM)
---------------------------------
  V      0.391310   -1.001641    0.274920
  S     -1.665582   -0.898545    1.645184
  S     -1.131106   -1.295224   -1.654645
  S      1.371949    0.538310    1.947644
  S      1.846412    0.216818   -1.300899
  O      1.045178   -2.429575    0.515171
  C     -0.006422   -0.990282   -2.963757
  C      1.203464   -0.371863   -2.819681
  C     -1.084721   -0.036893    3.065069
  C      0.122376    0.536807    3.183370
  S     -0.466115   -1.437169   -4.637768
  S      2.133069   -0.089693   -4.323716
  S      0.450601    1.407289    4.720631
  S     -2.197000    0.143012    4.465502
  C      0.963972   -0.793503   -5.428534
  C     -1.134041    1.146654    5.463257
  C      1.164788   -0.848173   -6.821907
  C     -1.491812    1.653786    6.673558
  S     -0.014577   -1.616927   -7.896195
  S      2.624885   -0.176169   -7.565358
  S     -3.104180    1.366063    7.380649
  S     -0.389378    2.679253    7.631503
  C     -1.391874    4.235500    7.623832
  C     -3.704168    3.116972    7.416155
  C     -2.794235    4.058061    8.204774
  H     -1.458342    4.588442    6.592450
  H     -0.824016    4.944575    8.230127
  H     -3.280968    5.042915    8.317171
  H     -2.747562    3.766155    9.263084
  H     -4.689311    3.071324    7.885379
  H     -3.793663    3.464361    6.384671
  C      3.304371   -1.747038   -8.275325
  C      1.076546   -2.966046   -8.548140
  C      2.357692   -2.474375   -9.251000
  H      1.240245   -3.692172   -7.741549
  H      0.451649   -3.575499   -9.217625
  H      1.942302   -1.583271   -9.842633
  H      2.916218   -3.475480   -9.332405
  H      4.259960   -1.484401   -8.752611
  H      3.676330   -2.362069   -7.445948

 Total Charge           Charge          ....   -2
 Multiplicity           Mult            ....    2
 Number of Electrons    NEL             ....  321
 Basis Dimension        Dim             ....  681

ORBITAL ENERGIES
----------------
                 SPIN UP ORBITALS
  NO   OCC          E(Eh)            E(eV)
   0   1.0000    -196.675659     -5351.8168
   1   1.0000     -88.733745     -2414.5680
   2   1.0000     -88.733680     -2414.5662
   3   1.0000     -88.732766     -2414.5413
   4   1.0000     -88.732753     -2414.5410
   5   1.0000     -88.732378     -2414.5307
   6   1.0000     -88.732171     -2414.5251
   7   1.0000     -88.730258     -2414.4731
   8   1.0000     -88.730156     -2414.4703
   9   1.0000     -88.640827     -2412.0395
  10   1.0000     -88.640661     -2412.0350
  11   1.0000     -88.640288     -2412.0249
  12   1.0000     -88.639840     -2412.0127
  13   1.0000     -22.051048      -600.0395
  14   1.0000     -18.890926      -514.0482
  15   1.0000     -18.557487      -504.9749
  16   1.0000     -18.552330      -504.8346
  17   1.0000     -18.552229      -504.8318
  18   1.0000     -10.077936      -274.2346
  19   1.0000     -10.075935      -274.1801
  20   1.0000     -10.064703      -273.8745
  21   1.0000     -10.064678      -273.8738
  22   1.0000     -10.064644      -273.8729
  23   1.0000     -10.060832      -273.7692
  24   1.0000     -10.060771      -273.7675
  25   1.0000     -10.051711      -273.5210
  26   1.0000     -10.049010      -273.4475
  27   1.0000     -10.047306      -273.4011
  28   1.0000     -10.021020      -272.6858
  29   1.0000     -10.020170      -272.6627
  30   1.0000     -10.017999      -272.6036
  31   1.0000     -10.017181      -272.5813
  32   1.0000      -7.787232      -211.9014
  33   1.0000      -7.787144      -211.8990
  34   1.0000      -7.786145      -211.8718
  35   1.0000      -7.786136      -211.8715
  36   1.0000      -7.785751      -211.8611
  37   1.0000      -7.785608      -211.8572
  38   1.0000      -7.783496      -211.7997
  39   1.0000      -7.783445      -211.7983
  40   1.0000      -7.695247      -209.3983
  41   1.0000      -7.694992      -209.3914
  42   1.0000      -7.694565      -209.3798
  43   1.0000      -7.694159      -209.3687
  44   1.0000      -5.752237      -156.5263
  45   1.0000      -5.752150      -156.5240
  46   1.0000      -5.751040      -156.4938
  47   1.0000      -5.751037      -156.4937
  48   1.0000      -5.750573      -156.4811
  49   1.0000      -5.750433      -156.4772
  50   1.0000      -5.748804      -156.4329
  51   1.0000      -5.748720      -156.4306
  52   1.0000      -5.748468      -156.4238
  53   1.0000      -5.748417      -156.4224
  54   1.0000      -5.747665      -156.4019
  55   1.0000      -5.747654      -156.4016
  56   1.0000      -5.746223      -156.3627
  57   1.0000      -5.746072      -156.3586
  58   1.0000      -5.744026      -156.3029
  59   1.0000      -5.743968      -156.3013
  60   1.0000      -5.741999      -156.2477
  61   1.0000      -5.741918      -156.2455
  62   1.0000      -5.741732      -156.2405
  63   1.0000      -5.741574      -156.2362
  64   1.0000      -5.741126      -156.2240
  65   1.0000      -5.741116      -156.2237
  66   1.0000      -5.739280      -156.1737
  67   1.0000      -5.739226      -156.1723
  68   1.0000      -5.660491      -154.0298
  69   1.0000      -5.660271      -154.0238
  70   1.0000      -5.659870      -154.0129
  71   1.0000      -5.659473      -154.0021
  72   1.0000      -5.653866      -153.8495
  73   1.0000      -5.653644      -153.8435
  74   1.0000      -5.653245      -153.8326
  75   1.0000      -5.652849      -153.8218
  76   1.0000      -5.652627      -153.8158
  77   1.0000      -5.652347      -153.8082
  78   1.0000      -5.651871      -153.7952
  79   1.0000      -5.651457      -153.7840
  80   1.0000      -2.444686       -66.5233
  81   1.0000      -1.485970       -40.4353
  82   1.0000      -1.474335       -40.1187
  83   1.0000      -1.473508       -40.0962
  84   1.0000      -0.710341       -19.3294
  85   1.0000      -0.708125       -19.2690
  86   1.0000      -0.685946       -18.6655
  87   1.0000      -0.685890       -18.6640
  88   1.0000      -0.650504       -17.7011
  89   1.0000      -0.632270       -17.2049
  90   1.0000      -0.627727       -17.0813
  91   1.0000      -0.618184       -16.8216
  92   1.0000      -0.614923       -16.7329
  93   1.0000      -0.577975       -15.7275
  94   1.0000      -0.574404       -15.6303
  95   1.0000      -0.573830       -15.6147
  96   1.0000      -0.572706       -15.5841
  97   1.0000      -0.497930       -13.5494
  98   1.0000      -0.496660       -13.5148
  99   1.0000      -0.495949       -13.4955
 100   1.0000      -0.488466       -13.2918
 101   1.0000      -0.481571       -13.1042
 102   1.0000      -0.478123       -13.0104
 103   1.0000      -0.447741       -12.1837
 104   1.0000      -0.442870       -12.0511
 105   1.0000      -0.416329       -11.3289
 106   1.0000      -0.409564       -11.1448
 107   1.0000      -0.359535        -9.7834
 108   1.0000      -0.357469        -9.7272
 109   1.0000      -0.326504        -8.8846
 110   1.0000      -0.319829        -8.7030
 111   1.0000      -0.315099        -8.5743
 112   1.0000      -0.314568        -8.5598
 113   1.0000      -0.310386        -8.4460
 114   1.0000      -0.300351        -8.1730
 115   1.0000      -0.294598        -8.0164
 116   1.0000      -0.285455        -7.7676
 117   1.0000      -0.258534        -7.0351
 118   1.0000      -0.258111        -7.0235
 119   1.0000      -0.255145        -6.9429
 120   1.0000      -0.254002        -6.9118
 121   1.0000      -0.238162        -6.4807
 122   1.0000      -0.230919        -6.2836
 123   1.0000      -0.228937        -6.2297
 124   1.0000      -0.220378        -5.9968
 125   1.0000      -0.218286        -5.9399
 126   1.0000      -0.215805        -5.8724
 127   1.0000      -0.212085        -5.7711
 128   1.0000      -0.205113        -5.5814
 129   1.0000      -0.192555        -5.2397
 130   1.0000      -0.186144        -5.0652
 131   1.0000      -0.185093        -5.0366
 132   1.0000      -0.183088        -4.9821
 133   1.0000      -0.179326        -4.8797
 134   1.0000      -0.159921        -4.3517
 135   1.0000      -0.152292        -4.1441
 136   1.0000      -0.147646        -4.0176
 137   1.0000      -0.135640        -3.6909
 138   1.0000      -0.134862        -3.6698
 139   1.0000      -0.132371        -3.6020
 140   1.0000      -0.125049        -3.4028
 141   1.0000      -0.122464        -3.3324
 142   1.0000      -0.114323        -3.1109
 143   1.0000      -0.110076        -2.9953
 144   1.0000      -0.101551        -2.7633
 145   1.0000      -0.098612        -2.6834
 146   1.0000      -0.097907        -2.6642
 147   1.0000      -0.095072        -2.5870
 148   1.0000      -0.074878        -2.0375
 149   1.0000      -0.068573        -1.8660
 150   1.0000      -0.067570        -1.8387
 151   1.0000      -0.053221        -1.4482
 152   1.0000      -0.046126        -1.2551
 153   1.0000      -0.037835        -1.0295
 154   1.0000      -0.037111        -1.0098
 155   1.0000      -0.029804        -0.8110
 156   1.0000      -0.025842        -0.7032
 157   1.0000      -0.019758        -0.5376
 158   1.0000      -0.016537        -0.4500
 159   1.0000       0.020563         0.5596
 160   1.0000       0.041276         1.1232
 161   0.0000       0.134425         3.6579
 162   0.0000       0.136950         3.7266
 163   0.0000       0.156312         4.2535
 164   0.0000       0.160372         4.3640
 165   0.0000       0.169831         4.6213

                 SPIN DOWN ORBITALS
  NO   OCC          E(Eh)            E(eV)
   0   1.0000    -196.675806     -5351.8208
   1   1.0000     -88.733746     -2414.5680
   2   1.0000     -88.733681     -2414.5662
   3   1.0000     -88.732767     -2414.5413
   4   1.0000     -88.732754     -2414.5410
   5   1.0000     -88.732386     -2414.5310
   6   1.0000     -88.732179     -2414.5254
   7   1.0000     -88.730266     -2414.4733
   8   1.0000     -88.730165     -2414.4705
   9   1.0000     -88.640965     -2412.0433
  10   1.0000     -88.640801     -2412.0388
  11   1.0000     -88.640425     -2412.0286
  12   1.0000     -88.639980     -2412.0165
  13   1.0000     -22.036121      -599.6333
  14   1.0000     -18.894704      -514.1510
  15   1.0000     -18.552222      -504.8316
  16   1.0000     -18.536298      -504.3983
  17   1.0000     -18.536117      -504.3934
  18   1.0000     -10.077930      -274.2344
  19   1.0000     -10.075934      -274.1801
  20   1.0000     -10.064702      -273.8745
  21   1.0000     -10.064678      -273.8738
  22   1.0000     -10.064644      -273.8729
  23   1.0000     -10.060831      -273.7691
  24   1.0000     -10.060770      -273.7675
  25   1.0000     -10.051711      -273.5210
  26   1.0000     -10.049006      -273.4474
  27   1.0000     -10.047292      -273.4007
  28   1.0000     -10.020783      -272.6794
  29   1.0000     -10.019950      -272.6567
  30   1.0000     -10.017785      -272.5978
  31   1.0000     -10.016969      -272.5756
  32   1.0000      -7.787233      -211.9014
  33   1.0000      -7.787145      -211.8990
  34   1.0000      -7.786145      -211.8718
  35   1.0000      -7.786137      -211.8716
  36   1.0000      -7.785761      -211.8613
  37   1.0000      -7.785618      -211.8574
  38   1.0000      -7.783506      -211.8000
  39   1.0000      -7.783455      -211.7986
  40   1.0000      -7.695376      -209.4018
  41   1.0000      -7.695123      -209.3949
  42   1.0000      -7.694693      -209.3832
  43   1.0000      -7.694289      -209.3722
  44   1.0000      -5.752237      -156.5263
  45   1.0000      -5.752151      -156.5240
  46   1.0000      -5.751042      -156.4938
  47   1.0000      -5.751039      -156.4937
  48   1.0000      -5.750584      -156.4814
  49   1.0000      -5.750444      -156.4775
  50   1.0000      -5.748804      -156.4329
  51   1.0000      -5.748721      -156.4307
  52   1.0000      -5.748479      -156.4241
  53   1.0000      -5.748427      -156.4227
  54   1.0000      -5.747666      -156.4020
  55   1.0000      -5.747656      -156.4017
  56   1.0000      -5.746237      -156.3631
  57   1.0000      -5.746085      -156.3589
  58   1.0000      -5.744040      -156.3033
  59   1.0000      -5.743982      -156.3017
  60   1.0000      -5.742000      -156.2478
  61   1.0000      -5.741919      -156.2456
  62   1.0000      -5.741741      -156.2407
  63   1.0000      -5.741584      -156.2364
  64   1.0000      -5.741127      -156.2240
  65   1.0000      -5.741117      -156.2237
  66   1.0000      -5.739286      -156.1739
  67   1.0000      -5.739232      -156.1725
  68   1.0000      -5.660628      -154.0335
  69   1.0000      -5.660411      -154.0276
  70   1.0000      -5.660013      -154.0168
  71   1.0000      -5.659615      -154.0060
  72   1.0000      -5.654250      -153.8600
  73   1.0000      -5.654022      -153.8538
  74   1.0000      -5.653597      -153.8422
  75   1.0000      -5.653211      -153.8317
  76   1.0000      -5.652713      -153.8181
  77   1.0000      -5.652439      -153.8107
  78   1.0000      -5.651976      -153.7981
  79   1.0000      -5.651563      -153.7869
  80   1.0000      -2.399813       -65.3022
  81   1.0000      -1.466685       -39.9105
  82   1.0000      -1.411976       -38.4218
  83   1.0000      -1.411802       -38.4171
  84   1.0000      -0.710326       -19.3290
  85   1.0000      -0.708094       -19.2682
  86   1.0000      -0.685901       -18.6643
  87   1.0000      -0.685841       -18.6627
  88   1.0000      -0.658611       -17.9217
  89   1.0000      -0.632210       -17.2033
  90   1.0000      -0.627658       -17.0795
  91   1.0000      -0.618186       -16.8217
  92   1.0000      -0.614922       -16.7329
  93   1.0000      -0.577945       -15.7267
  94   1.0000      -0.574382       -15.6297
  95   1.0000      -0.573759       -15.6128
  96   1.0000      -0.572627       -15.5820
  97   1.0000      -0.497953       -13.5500
  98   1.0000      -0.496712       -13.5162
  99   1.0000      -0.495998       -13.4968
 100   1.0000      -0.488491       -13.2925
 101   1.0000      -0.481752       -13.1091
 102   1.0000      -0.478364       -13.0169
 103   1.0000      -0.447771       -12.1845
 104   1.0000      -0.442905       -12.0520
 105   1.0000      -0.416344       -11.3293
 106   1.0000      -0.409651       -11.1472
 107   1.0000      -0.359523        -9.7831
 108   1.0000      -0.357465        -9.7271
 109   1.0000      -0.326487        -8.8842
 110   1.0000      -0.319747        -8.7008
 111   1.0000      -0.315126        -8.5750
 112   1.0000      -0.314560        -8.5596
 113   1.0000      -0.310343        -8.4449
 114   1.0000      -0.300319        -8.1721
 115   1.0000      -0.294593        -8.0163
 116   1.0000      -0.285450        -7.7675
 117   1.0000      -0.258399        -7.0314
 118   1.0000      -0.258038        -7.0216
 119   1.0000      -0.255077        -6.9410
 120   1.0000      -0.253950        -6.9103
 121   1.0000      -0.238125        -6.4797
 122   1.0000      -0.230873        -6.2824
 123   1.0000      -0.228919        -6.2292
 124   1.0000      -0.220067        -5.9883
 125   1.0000      -0.218104        -5.9349
 126   1.0000      -0.215661        -5.8684
 127   1.0000      -0.211955        -5.7676
 128   1.0000      -0.204963        -5.5773
 129   1.0000      -0.190670        -5.1884
 130   1.0000      -0.186071        -5.0633
 131   1.0000      -0.184855        -5.0302
 132   1.0000      -0.182970        -4.9789
 133   1.0000      -0.179202        -4.8763
 134   1.0000      -0.159316        -4.3352
 135   1.0000      -0.152133        -4.1398
 136   1.0000      -0.147570        -4.0156
 137   1.0000      -0.135117        -3.6767
 138   1.0000      -0.134627        -3.6634
 139   1.0000      -0.131677        -3.5831
 140   1.0000      -0.124736        -3.3942
 141   1.0000      -0.122139        -3.3236
 142   1.0000      -0.116085        -3.1588
 143   1.0000      -0.111611        -3.0371
 144   1.0000      -0.101642        -2.7658
 145   1.0000      -0.098865        -2.6902
 146   1.0000      -0.097875        -2.6633
 147   1.0000      -0.095406        -2.5961
 148   1.0000      -0.071023        -1.9326
 149   1.0000      -0.068569        -1.8659
 150   1.0000      -0.067564        -1.8385
 151   1.0000      -0.050657        -1.3785
 152   1.0000      -0.045199        -1.2299
 153   1.0000      -0.037243        -1.0134
 154   1.0000      -0.037136        -1.0105
 155   1.0000      -0.029779        -0.8103
 156   1.0000      -0.026882        -0.7315
 157   1.0000      -0.016737        -0.4554
 158   1.0000       0.020878         0.5681
 159   1.0000       0.040168         1.0930
 160   0.0000       0.134411         3.6575
 161   0.0000       0.136939         3.7263
 162   0.0000       0.154582         4.2064
 163   0.0000       0.157236         4.2786
 164   0.0000       0.161171         4.3857

MULLIKEN ATOMIC CHARGES AND SPIN POPULATIONS
--------------------------------------------
   0 V :    0.470056    1.210352
   1 S :   -0.291401   -0.022610
   2 S :   -0.285239   -0.024879
   3 S :   -0.289533   -0.023550
   4 S :   -0.281016   -0.025382
   5 O :   -0.467278   -0.146579
   6 C :   -0.084470    0.009539
   7 C :   -0.090704    0.007840
   8 C :   -0.082794    0.007788
   9 C :   -0.083486    0.007426
  10 S :    0.112215   -0.000611
  11 S :    0.113608   -0.000647
  12 S :    0.097992   -0.000401
  13 S :    0.097088   -0.000355
  14 C :   -0.204207    0.001423
  15 C :   -0.212493    0.001008
  16 C :   -0.212404    0.000216
  17 C :   -0.189286   -0.000421
  18 S :    0.009025   -0.000115
  19 S :    0.009154   -0.000113
  20 S :    0.010128   -0.000071
  21 S :    0.010238   -0.000074
  22 C :   -0.299853   -0.000000
  23 C :   -0.299388   -0.000000
  24 C :   -0.159337   -0.000012
  25 H :    0.144873   -0.000001
  26 H :    0.113642   -0.000004
  27 H :    0.082810   -0.000001
  28 H :    0.089551   -0.000001
  29 H :    0.113376   -0.000004
  30 H :    0.144475   -0.000001
  31 C :   -0.315626    0.000246
  32 C :   -0.316304    0.000239
  33 C :   -0.161643   -0.000291
  34 H :    0.138319   -0.000020
  35 H :    0.114465    0.000023
  36 H :    0.113851    0.000014
  37 H :    0.088877    0.000026
  38 H :    0.114485    0.000024
  39 H :    0.138234   -0.000021
Sum of atomic charges         :   -2.0000000

LOEWDIN ATOMIC CHARGES AND SPIN POPULATIONS
-------------------------------------------
   0 V :   -0.156022    1.163760
   1 S :    0.079359   -0.014594
   2 S :    0.083982   -0.015799
   3 S :    0.080664   -0.015385
   4 S :    0.087864   -0.016057
   5 O :   -0.318740   -0.131486
   6 C :   -0.553828    0.008936
   7 C :   -0.555984    0.007770
   8 C :   -0.551498    0.008147
   9 C :   -0.551498    0.007680
  10 S :    0.483437   -0.000942
  11 S :    0.484435   -0.000986
  12 S :    0.469386   -0.000825
  13 S :    0.468618   -0.000832
  14 C :   -0.472231    0.000190
  15 C :   -0.463925   -0.000079
  16 C :   -0.639222    0.000614
  17 C :   -0.619182    0.000083
  18 S :    0.359184   -0.000085
  19 S :    0.360398   -0.000082
  20 S :    0.359174   -0.000075
  21 S :    0.358746   -0.000077
  22 C :   -0.281017   -0.000007
  23 C :   -0.281176   -0.000009
  24 C :   -0.180672   -0.000002
  25 H :    0.063482   -0.000002
  26 H :    0.054693   -0.000002
  27 H :    0.056694   -0.000002
  28 H :    0.058349   -0.000001
  29 H :    0.054641   -0.000002
  30 H :    0.063292   -0.000002
  31 C :   -0.301005    0.000057
  32 C :   -0.300784    0.000050
  33 C :   -0.195797    0.000010
  34 H :    0.058616   -0.000001
  35 H :    0.051003    0.000012
  36 H :    0.089692    0.000007
  37 H :    0.087309    0.000004
  38 H :    0.051077    0.000012
  39 H :    0.058485   -0.000000

  Mayer bond orders larger than 0.100000
B(  0-V ,  1-S ) :   0.7734 B(  0-V ,  2-S ) :   0.7695 B(  0-V ,  3-S ) :   0.7667
B(  0-V ,  4-S ) :   0.7768 B(  0-V ,  5-O ) :   2.1489 B(  1-S ,  8-C ) :   1.1021
B(  2-S ,  6-C ) :   1.1111 B(  3-S ,  9-C ) :   1.1049 B(  4-S ,  7-C ) :   1.1112
B(  6-C ,  7-C ) :   1.6541 B(  6-C , 10-S ) :   0.9428 B(  7-C , 11-S ) :   0.9466
B(  8-C ,  9-C ) :   1.7045 B(  8-C , 13-S ) :   0.9323 B(  9-C , 12-S ) :   0.9342
B( 10-S , 14-C ) :   1.2534 B( 11-S , 14-C ) :   1.2534 B( 12-S , 15-C ) :   1.2453
B( 13-S , 15-C ) :   1.2453 B( 14-C , 16-C ) :   1.4093 B( 15-C , 17-C ) :   1.4659
B( 16-C , 18-S ) :   1.0901 B( 16-C , 19-S ) :   1.0915 B( 17-C , 20-S ) :   1.0884
B( 17-C , 21-S ) :   1.0893 B( 18-S , 32-C ) :   0.9831 B( 19-S , 31-C ) :   0.9831
B( 20-S , 23-C ) :   0.9949 B( 21-S , 22-C ) :   0.9944 B( 22-C , 24-C ) :   0.9161
B( 22-C , 25-H ) :   0.9663 B( 22-C , 26-H ) :   0.9644 B( 23-C , 24-C ) :   0.9167
B( 23-C , 29-H ) :   0.9645 B( 23-C , 30-H ) :   0.9661 B( 24-C , 27-H ) :   0.9600
B( 24-C , 28-H ) :   0.9689 B( 31-C , 33-C ) :   0.9373 B( 31-C , 38-H ) :   0.9641
B( 31-C , 39-H ) :   0.9607 B( 32-C , 33-C ) :   0.9370 B( 32-C , 34-H ) :   0.9606
B( 32-C , 35-H ) :   0.9639 B( 33-C , 36-H ) :   0.9478 B( 33-C , 37-H ) :   0.9421

FINAL SINGLE POINT ENERGY     -6337.665682704770

DIPOLE MOMENT
-------------
                                X             Y             Z
Electronic contribution:      3.48343     -11.39824       6.24387
Nuclear contribution   :     -3.94264      12.73768      -6.58540
                        -----------------------------------------
Total Dipole Moment    :     -0.45921       1.33944      -0.34153
                        -----------------------------------------
Magnitude (a.u.)       :      1.45658
Magnitude (Debye)      :      3.70233

Rotational constants in cm-1:     0.010755     0.000804     0.000783
Rotational constants in MHz :   322.414220    24.115427    23.486812

                             ****ORCA TERMINATED NORMALLY****
TOTAL RUN TIME: 0 days 1 hours 2 minutes 6 seconds 552 msec
