                         Program Version 5.0.4 -  RELEASE  -
|  1> ! nofrozencore ReducedPop printbasis
|  2> ! B3LYP TZVP
|  3>
|  4> %basis
|  5> newgto V "CP(PPP)" end
|  6> end
|  7>
|  8> %pal
|  9> nprocs 6
| 10> end
| 11>
| 12> % sym SymThresh 1e-2 end
| 13> * xyz -2 2
| 14> V -0.20920380088907864 1.0641639066389026 -0.2505138549753129
| 15> S 0.9789678342187966 1.3078132715408213 1.9053660409736641
| 16> S 2.0059225073882856 0.4897441964213764 -1.1940658018797266
| 17> S -2.153769310778167 0.3458754993864235 1.1036522024022486
| 18> S -1.115332482779231 -0.5277199291444818 -1.9027451543113332
| 19> O -0.5250959348705782 2.5279628719265443 -0.7813082502183717
| 20> C 1.493342393990546 -0.18916544514867378 -2.7333942238428195
| 21> C 0.24274232793479972 -0.6000049287946017 -3.015674445358447
| 22> C -0.34007738491539147 1.0893527362350117 3.0478323848578683
| 23> C -1.5878440843418835 0.7029095251991662 2.727518371495006
| 24> S 2.7216498860999723 -0.4350232937961817 -4.021354073102209
| 25> S -0.011900258872853845 -1.3466590839907435 -4.627642465263384
| 26> S -2.738411536813179 0.498996674588854 4.09165195774552
| 27> S -0.008426209934866131 1.35160883558536 4.794084540517691
| 28> C 1.655292408310195 -1.2117118033103849 -5.198487629532163
| 29> C -1.6057246539886405 0.8844497039947843 5.39263609121565
| 30> C 2.0703131812120388 -1.6516797991715477 -6.4250611790149765
| 31> C -1.930731286366773 0.8370357785484968 6.71833705356915
| 32> S 3.749489540591978 -1.4450648365413097 -6.985172047440005
| 33> S 0.9504445910143768 -2.4333146214487247 -7.570079086020988
| 34> S -0.754203472912406 1.2327541695571398 7.994316926988719
| 35> S -3.5526862468609206 0.3366884304909826 7.271249262830479
| 36> C -3.082162203885397 -1.2146915896796209 8.187692550860035
| 37> C -0.7208278227888988 -0.41277959039382095 8.820239548840481
| 38> C -2.0460966189816854 -0.9251794269268373 9.313500554369664
| 39> H -2.407346207586494 -1.7376215326842812 7.433667721968265
| 40> H -4.020942233692154 -1.3410777430953915 8.814224024797129
| 41> H -1.8729453699353322 -1.8626098623010396 9.860414666195114
| 42> H -2.458580108160353 -0.20104539111964748 10.023017269500874
| 43> H 0.20171180517119544 -0.49119909924571353 9.511956819282442
| 44> H 0.02797300731534371 -1.1353561206310983 8.310697202992312
| 45> C 1.0379564470757814 -1.1881459144377728 -8.937285354158815
| 46> C 3.4154097157591634 -0.3436399437797413 -8.435596179470304
| 47> C 2.456116696039796 -0.949968607739584 -9.461566517683046
| 48> H 3.036566148414509 0.609665795901632 -8.059693319507616
| 49> H 4.391497271969569 -0.1538760359883572 -8.889628512279259
| 50> H 2.8701348019363073 -1.8936470590111476 -9.830571059478359
| 51> H 2.392899986023533 -0.2637760871514109 -10.317743710220062
| 52> H 0.4047947556948569 -1.5886929557882674 -9.732764691737117
| 53> H 0.6001712001463246 -0.2564117618138012 -8.572472264371724
| 54> *
| 55>
| 56> % eprnmr
| 57> gtensor true
| 58> Nuclei = all H {aiso,adip,aorb,fgrad,rho}
| 59> Nuclei = all V {aiso,adip,aorb,fgrad,rho}
| 60> end
| 61>
| 62>                          ****END OF INPUT****

CARTESIAN COORDINATES (ANGSTROEM)
---------------------------------
  V     -0.207839    1.060833   -0.251834
  S      0.980332    1.304483    1.904046
  S      2.007287    0.486414   -1.195386
  S     -2.152405    0.342545    1.102332
  S     -1.113968   -0.531050   -1.904066
  O     -0.523731    2.524632   -0.782629
  C      1.494707   -0.192496   -2.734715
  C      0.244107   -0.603335   -3.016995
  C     -0.338713    1.086022    3.046512
  C     -1.586479    0.699579    2.726198
  S      2.723014   -0.438354   -4.022675
  S     -0.010536   -1.349990   -4.628963
  S     -2.737047    0.495666    4.090331
  S     -0.007062    1.348278    4.792764
  C      1.656657   -1.215042   -5.199808
  C     -1.604360    0.881119    5.391316
  C      2.071678   -1.655010   -6.426382
  C     -1.929367    0.833705    6.717017
  S      3.750854   -1.448395   -6.986493
  S      0.951809   -2.436645   -7.571400
  S     -0.752839    1.229424    7.992996
  S     -3.551322    0.333358    7.269929
  C     -3.080798   -1.218022    8.186372
  C     -0.719463   -0.416110    8.818919
  C     -2.044732   -0.928510    9.312180
  H     -2.405982   -1.740952    7.432347
  H     -4.019578   -1.344408    8.812904
  H     -1.871581   -1.865940    9.859094
  H     -2.457216   -0.204376   10.021697
  H      0.203076   -0.494530    9.510636
  H      0.029338   -1.138687    8.309377
  C      1.039321   -1.191476   -8.938606
  C      3.416774   -0.346970   -8.436917
  C      2.457481   -0.953299   -9.462887
  H      3.037931    0.606335   -8.061014
  H      4.392862   -0.157207   -8.890949
  H      2.871499   -1.896978   -9.831892
  H      2.394265   -0.267107  -10.319064
  H      0.406159   -1.592023   -9.734085
  H      0.601536   -0.259742   -8.573793

 Total Charge           Charge          ....   -2
 Multiplicity           Mult            ....    2
 Number of Electrons    NEL             ....  321
 Basis Dimension        Dim             ....  681

ORBITAL ENERGIES
----------------
                 SPIN UP ORBITALS
  NO   OCC          E(Eh)            E(eV)
   0   1.0000    -196.674832     -5351.7943
   1   1.0000     -88.737249     -2414.6633
   2   1.0000     -88.733197     -2414.5531
   3   1.0000     -88.733081     -2414.5499
   4   1.0000     -88.731298     -2414.5014
   5   1.0000     -88.730737     -2414.4861
   6   1.0000     -88.730459     -2414.4785
   7   1.0000     -88.730132     -2414.4697
   8   1.0000     -88.729928     -2414.4641
   9   1.0000     -88.639932     -2412.0152
  10   1.0000     -88.639638     -2412.0072
  11   1.0000     -88.639442     -2412.0018
  12   1.0000     -88.639435     -2412.0017
  13   1.0000     -22.050229      -600.0172
  14   1.0000     -18.890128      -514.0265
  15   1.0000     -18.556679      -504.9529
  16   1.0000     -18.551503      -504.8120
  17   1.0000     -18.551404      -504.8094
  18   1.0000     -10.076490      -274.1952
  19   1.0000     -10.076388      -274.1925
  20   1.0000     -10.075702      -274.1738
  21   1.0000     -10.072118      -274.0763
  22   1.0000     -10.063456      -273.8405
  23   1.0000     -10.063393      -273.8388
  24   1.0000     -10.053218      -273.5620
  25   1.0000     -10.051280      -273.5092
  26   1.0000     -10.048357      -273.4297
  27   1.0000     -10.048212      -273.4258
  28   1.0000     -10.018216      -272.6095
  29   1.0000     -10.018103      -272.6064
  30   1.0000     -10.017412      -272.5877
  31   1.0000     -10.017169      -272.5810
  32   1.0000      -7.790291      -211.9846
  33   1.0000      -7.786634      -211.8851
  34   1.0000      -7.786547      -211.8827
  35   1.0000      -7.784879      -211.8373
  36   1.0000      -7.784001      -211.8134
  37   1.0000      -7.783706      -211.8054
  38   1.0000      -7.783387      -211.7967
  39   1.0000      -7.783240      -211.7927
  40   1.0000      -7.694212      -209.3702
  41   1.0000      -7.693945      -209.3629
  42   1.0000      -7.693784      -209.3585
  43   1.0000      -7.693667      -209.3553
  44   1.0000      -5.755329      -156.6105
  45   1.0000      -5.751934      -156.5181
  46   1.0000      -5.751628      -156.5097
  47   1.0000      -5.751530      -156.5071
  48   1.0000      -5.749822      -156.4606
  49   1.0000      -5.748949      -156.4368
  50   1.0000      -5.748643      -156.4285
  51   1.0000      -5.748338      -156.4202
  52   1.0000      -5.748217      -156.4169
  53   1.0000      -5.748182      -156.4160
  54   1.0000      -5.748123      -156.4144
  55   1.0000      -5.746395      -156.3674
  56   1.0000      -5.745050      -156.3308
  57   1.0000      -5.744500      -156.3158
  58   1.0000      -5.744208      -156.3079
  59   1.0000      -5.743900      -156.2995
  60   1.0000      -5.743744      -156.2952
  61   1.0000      -5.741418      -156.2319
  62   1.0000      -5.741342      -156.2298
  63   1.0000      -5.739841      -156.1890
  64   1.0000      -5.739741      -156.1863
  65   1.0000      -5.739550      -156.1811
  66   1.0000      -5.739209      -156.1718
  67   1.0000      -5.739062      -156.1678
  68   1.0000      -5.659535      -154.0038
  69   1.0000      -5.659253      -153.9961
  70   1.0000      -5.659089      -153.9917
  71   1.0000      -5.658999      -153.9892
  72   1.0000      -5.652869      -153.8224
  73   1.0000      -5.652600      -153.8151
  74   1.0000      -5.652457      -153.8112
  75   1.0000      -5.652343      -153.8081
  76   1.0000      -5.651532      -153.7860
  77   1.0000      -5.651265      -153.7787
  78   1.0000      -5.651093      -153.7741
  79   1.0000      -5.650974      -153.7708
  80   1.0000      -2.443877       -66.5013
  81   1.0000      -1.485184       -40.4139
  82   1.0000      -1.473509       -40.0962
  83   1.0000      -1.472699       -40.0742
  84   1.0000      -0.710211       -19.3258
  85   1.0000      -0.709458       -19.3053
  86   1.0000      -0.686053       -18.6684
  87   1.0000      -0.685573       -18.6554
  88   1.0000      -0.649737       -17.6803
  89   1.0000      -0.632028       -17.1984
  90   1.0000      -0.631300       -17.1785
  91   1.0000      -0.617236       -16.7958
  92   1.0000      -0.616178       -16.7670
  93   1.0000      -0.574769       -15.6403
  94   1.0000      -0.574309       -15.6278
  95   1.0000      -0.573878       -15.6160
  96   1.0000      -0.572836       -15.5877
  97   1.0000      -0.498267       -13.5585
  98   1.0000      -0.496262       -13.5040
  99   1.0000      -0.495829       -13.4922
 100   1.0000      -0.494588       -13.4584
 101   1.0000      -0.480066       -13.0632
 102   1.0000      -0.477328       -12.9888
 103   1.0000      -0.446877       -12.1601
 104   1.0000      -0.444240       -12.0884
 105   1.0000      -0.416582       -11.3358
 106   1.0000      -0.411313       -11.1924
 107   1.0000      -0.363915        -9.9026
 108   1.0000      -0.355317        -9.6687
 109   1.0000      -0.339292        -9.2326
 110   1.0000      -0.326659        -8.8888
 111   1.0000      -0.318649        -8.6709
 112   1.0000      -0.313929        -8.5424
 113   1.0000      -0.307000        -8.3539
 114   1.0000      -0.303873        -8.2688
 115   1.0000      -0.292400        -7.9566
 116   1.0000      -0.273653        -7.4465
 117   1.0000      -0.260760        -7.0956
 118   1.0000      -0.256885        -6.9902
 119   1.0000      -0.256751        -6.9866
 120   1.0000      -0.249849        -6.7987
 121   1.0000      -0.234472        -6.3803
 122   1.0000      -0.233404        -6.3512
 123   1.0000      -0.230514        -6.2726
 124   1.0000      -0.228059        -6.2058
 125   1.0000      -0.218492        -5.9455
 126   1.0000      -0.214828        -5.8458
 127   1.0000      -0.213560        -5.8113
 128   1.0000      -0.195603        -5.3226
 129   1.0000      -0.193091        -5.2543
 130   1.0000      -0.186019        -5.0618
 131   1.0000      -0.183423        -4.9912
 132   1.0000      -0.178962        -4.8698
 133   1.0000      -0.175533        -4.7765
 134   1.0000      -0.159366        -4.3366
 135   1.0000      -0.149923        -4.0796
 136   1.0000      -0.144233        -3.9248
 137   1.0000      -0.135773        -3.6946
 138   1.0000      -0.134105        -3.6492
 139   1.0000      -0.132352        -3.6015
 140   1.0000      -0.125009        -3.4017
 141   1.0000      -0.121011        -3.2929
 142   1.0000      -0.113417        -3.0862
 143   1.0000      -0.109503        -2.9797
 144   1.0000      -0.099714        -2.7133
 145   1.0000      -0.098116        -2.6699
 146   1.0000      -0.096533        -2.6268
 147   1.0000      -0.094021        -2.5584
 148   1.0000      -0.074479        -2.0267
 149   1.0000      -0.067704        -1.8423
 150   1.0000      -0.067269        -1.8305
 151   1.0000      -0.052254        -1.4219
 152   1.0000      -0.045542        -1.2392
 153   1.0000      -0.037763        -1.0276
 154   1.0000      -0.037043        -1.0080
 155   1.0000      -0.031467        -0.8563
 156   1.0000      -0.024915        -0.6780
 157   1.0000      -0.019059        -0.5186
 158   1.0000      -0.015349        -0.4177
 159   1.0000       0.020347         0.5537
 160   1.0000       0.041226         1.1218
 161   0.0000       0.134002         3.6464
 162   0.0000       0.136944         3.7264
 163   0.0000       0.157380         4.2825
 164   0.0000       0.162053         4.4097
 165   0.0000       0.162594         4.4244

                 SPIN DOWN ORBITALS
  NO   OCC          E(Eh)            E(eV)
   0   1.0000    -196.674979     -5351.7983
   1   1.0000     -88.737250     -2414.6633
   2   1.0000     -88.733198     -2414.5531
   3   1.0000     -88.733081     -2414.5499
   4   1.0000     -88.731299     -2414.5014
   5   1.0000     -88.730745     -2414.4863
   6   1.0000     -88.730467     -2414.4788
   7   1.0000     -88.730141     -2414.4699
   8   1.0000     -88.729937     -2414.4643
   9   1.0000     -88.640069     -2412.0189
  10   1.0000     -88.639778     -2412.0110
  11   1.0000     -88.639583     -2412.0057
  12   1.0000     -88.639574     -2412.0054
  13   1.0000     -22.035296      -599.6109
  14   1.0000     -18.893918      -514.1296
  15   1.0000     -18.551409      -504.8095
  16   1.0000     -18.535468      -504.3757
  17   1.0000     -18.535287      -504.3708
  18   1.0000     -10.076489      -274.1952
  19   1.0000     -10.076389      -274.1925
  20   1.0000     -10.075696      -274.1736
  21   1.0000     -10.072118      -274.0763
  22   1.0000     -10.063455      -273.8405
  23   1.0000     -10.063392      -273.8388
  24   1.0000     -10.053218      -273.5620
  25   1.0000     -10.051280      -273.5092
  26   1.0000     -10.048353      -273.4296
  27   1.0000     -10.048201      -273.4255
  28   1.0000     -10.018001      -272.6037
  29   1.0000     -10.017865      -272.6000
  30   1.0000     -10.017201      -272.5819
  31   1.0000     -10.016945      -272.5749
  32   1.0000      -7.790292      -211.9846
  33   1.0000      -7.786635      -211.8851
  34   1.0000      -7.786548      -211.8827
  35   1.0000      -7.784880      -211.8373
  36   1.0000      -7.784010      -211.8137
  37   1.0000      -7.783715      -211.8057
  38   1.0000      -7.783396      -211.7970
  39   1.0000      -7.783249      -211.7930
  40   1.0000      -7.694340      -209.3736
  41   1.0000      -7.694075      -209.3664
  42   1.0000      -7.693913      -209.3620
  43   1.0000      -7.693799      -209.3589
  44   1.0000      -5.755330      -156.6105
  45   1.0000      -5.751934      -156.5181
  46   1.0000      -5.751629      -156.5098
  47   1.0000      -5.751532      -156.5071
  48   1.0000      -5.749823      -156.4606
  49   1.0000      -5.748959      -156.4371
  50   1.0000      -5.748653      -156.4288
  51   1.0000      -5.748349      -156.4205
  52   1.0000      -5.748219      -156.4170
  53   1.0000      -5.748192      -156.4163
  54   1.0000      -5.748124      -156.4144
  55   1.0000      -5.746396      -156.3674
  56   1.0000      -5.745051      -156.3308
  57   1.0000      -5.744514      -156.3162
  58   1.0000      -5.744222      -156.3082
  59   1.0000      -5.743914      -156.2998
  60   1.0000      -5.743758      -156.2956
  61   1.0000      -5.741419      -156.2320
  62   1.0000      -5.741342      -156.2299
  63   1.0000      -5.739847      -156.1892
  64   1.0000      -5.739742      -156.1863
  65   1.0000      -5.739556      -156.1813
  66   1.0000      -5.739217      -156.1720
  67   1.0000      -5.739072      -156.1681
  68   1.0000      -5.659677      -154.0076
  69   1.0000      -5.659392      -153.9999
  70   1.0000      -5.659231      -153.9955
  71   1.0000      -5.659141      -153.9931
  72   1.0000      -5.653219      -153.8319
  73   1.0000      -5.652988      -153.8256
  74   1.0000      -5.652817      -153.8210
  75   1.0000      -5.652726      -153.8185
  76   1.0000      -5.651637      -153.7889
  77   1.0000      -5.651352      -153.7811
  78   1.0000      -5.651199      -153.7769
  79   1.0000      -5.651068      -153.7734
  80   1.0000      -2.398987       -65.2797
  81   1.0000      -1.465881       -39.8887
  82   1.0000      -1.411135       -38.3989
  83   1.0000      -1.410969       -38.3944
  84   1.0000      -0.710196       -19.3254
  85   1.0000      -0.709432       -19.3046
  86   1.0000      -0.686010       -18.6673
  87   1.0000      -0.685517       -18.6539
  88   1.0000      -0.657868       -17.9015
  89   1.0000      -0.631972       -17.1968
  90   1.0000      -0.631224       -17.1765
  91   1.0000      -0.617236       -16.7958
  92   1.0000      -0.616180       -16.7671
  93   1.0000      -0.574746       -15.6396
  94   1.0000      -0.574280       -15.6270
  95   1.0000      -0.573806       -15.6141
  96   1.0000      -0.572758       -15.5856
  97   1.0000      -0.498292       -13.5592
  98   1.0000      -0.496286       -13.5046
  99   1.0000      -0.495870       -13.4933
 100   1.0000      -0.494629       -13.4595
 101   1.0000      -0.480257       -13.0685
 102   1.0000      -0.477581       -12.9956
 103   1.0000      -0.446898       -12.1607
 104   1.0000      -0.444286       -12.0896
 105   1.0000      -0.416580       -11.3357
 106   1.0000      -0.411423       -11.1954
 107   1.0000      -0.363914        -9.9026
 108   1.0000      -0.355307        -9.6684
 109   1.0000      -0.339282        -9.2323
 110   1.0000      -0.326644        -8.8884
 111   1.0000      -0.318569        -8.6687
 112   1.0000      -0.313954        -8.5431
 113   1.0000      -0.306968        -8.3530
 114   1.0000      -0.303834        -8.2677
 115   1.0000      -0.292395        -7.9565
 116   1.0000      -0.273599        -7.4450
 117   1.0000      -0.260718        -7.0945
 118   1.0000      -0.256833        -6.9888
 119   1.0000      -0.256651        -6.9838
 120   1.0000      -0.249800        -6.7974
 121   1.0000      -0.234434        -6.3793
 122   1.0000      -0.233333        -6.3493
 123   1.0000      -0.230478        -6.2716
 124   1.0000      -0.227946        -6.2027
 125   1.0000      -0.218194        -5.9373
 126   1.0000      -0.214507        -5.8370
 127   1.0000      -0.213488        -5.8093
 128   1.0000      -0.195437        -5.3181
 129   1.0000      -0.191456        -5.2098
 130   1.0000      -0.185684        -5.0527
 131   1.0000      -0.183200        -4.9851
 132   1.0000      -0.178894        -4.8680
 133   1.0000      -0.175406        -4.7730
 134   1.0000      -0.158753        -4.3199
 135   1.0000      -0.149768        -4.0754
 136   1.0000      -0.144147        -3.9224
 137   1.0000      -0.135106        -3.6764
 138   1.0000      -0.133835        -3.6418
 139   1.0000      -0.132085        -3.5942
 140   1.0000      -0.124454        -3.3866
 141   1.0000      -0.120684        -3.2840
 142   1.0000      -0.115222        -3.1354
 143   1.0000      -0.111105        -3.0233
 144   1.0000      -0.099700        -2.7130
 145   1.0000      -0.098447        -2.6789
 146   1.0000      -0.096576        -2.6280
 147   1.0000      -0.094264        -2.5651
 148   1.0000      -0.070656        -1.9226
 149   1.0000      -0.067681        -1.8417
 150   1.0000      -0.067272        -1.8306
 151   1.0000      -0.049657        -1.3512
 152   1.0000      -0.044605        -1.2138
 153   1.0000      -0.037804        -1.0287
 154   1.0000      -0.036478        -0.9926
 155   1.0000      -0.031525        -0.8578
 156   1.0000      -0.025951        -0.7062
 157   1.0000      -0.015560        -0.4234
 158   1.0000       0.020646         0.5618
 159   1.0000       0.040118         1.0917
 160   0.0000       0.133998         3.6463
 161   0.0000       0.136953         3.7267
 162   0.0000       0.155241         4.2243
 163   0.0000       0.158480         4.3125
 164   0.0000       0.162574         4.4239

MULLIKEN ATOMIC CHARGES AND SPIN POPULATIONS
--------------------------------------------
   0 V :    0.471202    1.210767
   1 S :   -0.291060   -0.022420
   2 S :   -0.289895   -0.025243
   3 S :   -0.288051   -0.023356
   4 S :   -0.285342   -0.025716
   5 O :   -0.467799   -0.146806
   6 C :   -0.077404    0.009691
   7 C :   -0.084491    0.008078
   8 C :   -0.082913    0.007744
   9 C :   -0.085116    0.007382
  10 S :    0.099501   -0.000586
  11 S :    0.101041   -0.000626
  12 S :    0.103693   -0.000389
  13 S :    0.098058   -0.000343
  14 C :   -0.213839    0.001521
  15 C :   -0.209169    0.000983
  16 C :   -0.191153   -0.000076
  17 C :   -0.196743   -0.000395
  18 S :    0.008966   -0.000113
  19 S :    0.009096   -0.000112
  20 S :    0.037431   -0.000070
  21 S :    0.008198   -0.000074
  22 C :   -0.288293   -0.000002
  23 C :   -0.345274    0.000000
  24 C :   -0.144751   -0.000012
  25 H :    0.165717   -0.000002
  26 H :    0.120166   -0.000004
  27 H :    0.081792    0.000000
  28 H :    0.095092   -0.000001
  29 H :    0.100830   -0.000006
  30 H :    0.113052   -0.000002
  31 C :   -0.299659    0.000195
  32 C :   -0.301141    0.000189
  33 C :   -0.157548   -0.000239
  34 H :    0.141857   -0.000017
  35 H :    0.113336    0.000019
  36 H :    0.092189    0.000024
  37 H :    0.082550    0.000015
  38 H :    0.113503    0.000021
  39 H :    0.142372   -0.000018
Sum of atomic charges         :   -2.0000000

LOEWDIN ATOMIC CHARGES AND SPIN POPULATIONS
-------------------------------------------
   0 V :   -0.155904    1.164111
   1 S :    0.079756   -0.014453
   2 S :    0.079224   -0.016095
   3 S :    0.081881   -0.015244
   4 S :    0.083364   -0.016326
   5 O :   -0.319033   -0.131705
   6 C :   -0.549983    0.009054
   7 C :   -0.552090    0.007961
   8 C :   -0.552020    0.008130
   9 C :   -0.551919    0.007678
  10 S :    0.471148   -0.000900
  11 S :    0.472231   -0.000950
  12 S :    0.473750   -0.000821
  13 S :    0.470426   -0.000831
  14 C :   -0.465042    0.000165
  15 C :   -0.463977   -0.000082
  16 C :   -0.622588    0.000471
  17 C :   -0.626165    0.000083
  18 S :    0.358920   -0.000090
  19 S :    0.359919   -0.000087
  20 S :    0.372788   -0.000073
  21 S :    0.348415   -0.000077
  22 C :   -0.295111   -0.000008
  23 C :   -0.342625   -0.000007
  24 C :   -0.182779   -0.000002
  25 H :    0.092376   -0.000002
  26 H :    0.073812   -0.000003
  27 H :    0.059497   -0.000001
  28 H :    0.058259   -0.000001
  29 H :    0.068325   -0.000003
  30 H :    0.070068   -0.000002
  31 C :   -0.283625    0.000043
  32 C :   -0.284259    0.000036
  33 C :   -0.176287    0.000007
  34 H :    0.061897   -0.000001
  35 H :    0.053465    0.000008
  36 H :    0.060227    0.000005
  37 H :    0.057785    0.000002
  38 H :    0.053657    0.000009
  39 H :    0.062217   -0.000000

  Mayer bond orders larger than 0.100000
B(  0-V ,  1-S ) :   0.7710 B(  0-V ,  2-S ) :   0.7713 B(  0-V ,  3-S ) :   0.7647
B(  0-V ,  4-S ) :   0.7788 B(  0-V ,  5-O ) :   2.1486 B(  1-S ,  8-C ) :   1.1032
B(  2-S ,  6-C ) :   1.1041 B(  3-S ,  9-C ) :   1.1076 B(  4-S ,  7-C ) :   1.1048
B(  6-C ,  7-C ) :   1.6847 B(  6-C , 10-S ) :   0.9350 B(  7-C , 11-S ) :   0.9389
B(  8-C ,  9-C ) :   1.6975 B(  8-C , 13-S ) :   0.9339 B(  9-C , 12-S ) :   0.9360
B( 10-S , 14-C ) :   1.2486 B( 11-S , 14-C ) :   1.2485 B( 12-S , 15-C ) :   1.2501
B( 13-S , 15-C ) :   1.2457 B( 14-C , 16-C ) :   1.4513 B( 15-C , 17-C ) :   1.4399
B( 16-C , 18-S ) :   1.0874 B( 16-C , 19-S ) :   1.0899 B( 17-C , 20-S ) :   1.0498
B( 17-C , 21-S ) :   1.1121 B( 18-S , 32-C ) :   0.9914 B( 19-S , 31-C ) :   0.9920
B( 20-S , 23-C ) :   1.0206 B( 21-S , 22-C ) :   1.0016 B( 22-C , 24-C ) :   0.9016
B( 22-C , 25-H ) :   0.9535 B( 22-C , 26-H ) :   0.9551 B( 23-C , 24-C ) :   0.9532
B( 23-C , 29-H ) :   0.9436 B( 23-C , 30-H ) :   0.9327 B( 24-C , 27-H ) :   0.9602
B( 24-C , 28-H ) :   0.9725 B( 31-C , 33-C ) :   0.9130 B( 31-C , 38-H ) :   0.9657
B( 31-C , 39-H ) :   0.9659 B( 32-C , 33-C ) :   0.9138 B( 32-C , 34-H ) :   0.9657
B( 32-C , 35-H ) :   0.9655 B( 33-C , 36-H ) :   0.9718 B( 33-C , 37-H ) :   0.9624

FINAL SINGLE POINT ENERGY     -6337.642632047467

DIPOLE MOMENT
-------------
                                X             Y             Z
Electronic contribution:     -3.51070      13.13584       0.18506
Nuclear contribution   :      3.93623     -14.56363      -0.24581
                        -----------------------------------------
Total Dipole Moment    :      0.42553      -1.42780      -0.06075
                        -----------------------------------------
Magnitude (a.u.)       :      1.49110
Magnitude (Debye)      :      3.79007

Rotational constants in cm-1:     0.010759     0.000804     0.000783
Rotational constants in MHz :   322.553417    24.115779    23.486630

                             ****ORCA TERMINATED NORMALLY****
TOTAL RUN TIME: 0 days 1 hours 6 minutes 53 seconds 441 msec
