                         Program Version 5.0.4 -  RELEASE  -
|  1> ! nofrozencore ReducedPop printbasis
|  2> ! B3LYP TZVP
|  3>
|  4> %basis
|  5> newgto V "CP(PPP)" end
|  6> end
|  7>
|  8> %pal
|  9> nprocs 6
| 10> end
| 11>
| 12> % sym SymThresh 1e-2 end
| 13> * xyz -2 2
| 14> V -0.1634237042474193 -1.0783587450924432 0.22225889280679664
| 15> S -2.3696482700019454 -0.13059031030931795 0.8166521624229647
| 16> S -0.8344019327462971 -0.6835566989482036 -2.127490786818425
| 17> S 0.6306992178006839 -0.11210033476956141 2.359244572410448
| 18> S 2.125695440911154 -0.5720823549690724 -0.5447419897644884
| 19> O -0.2567107096525427 -2.6511207015915113 0.42714209871144915
| 20> C 0.7312860124999513 -0.8683800328701728 -2.905717285402577
| 21> C 1.9185596734127777 -0.820423771791481 -2.272565236137941
| 22> C -2.081732161393413 0.391768074427268 2.4707355464203085
| 23> C -0.8841339967978626 0.40161466143078073 3.0842522307637354
| 24> S 0.7906606880089221 -1.0636698357812209 -4.69188667505412
| 25> S 3.3830930414619176 -0.9415908956098894 -3.3007104976478194
| 26> S -0.8495772778887871 1.0374130156559305 4.763597939942113
| 27> S -3.4726164381659768 1.010449303817923 3.424905430244216
| 28> C 2.5559879589553214 -1.0775828773041594 -4.851317540364195
| 29> C -2.562013786704534 1.460626638632652 4.871789287340389
| 30> C 3.1969787407808736 -1.1939734345096882 -6.054180319217233
| 31> C -3.124117020676967 2.0630055544965975 5.96316619627163
| 32> S 2.330674787510995 -1.38433949394864 -7.587245288444456
| 33> S 4.987386210047407 -1.1974876914922898 -6.151781514939751
| 34> S -4.857090969122364 2.4734205175124035 6.024613363051744
| 35> S -2.156936632773022 2.516410459662001 7.390119567205287
| 36> C -2.397006912885562 4.350253572153722 7.305036525056093
| 37> C -4.69550230634757 4.313790383003232 6.149549932405662
| 38> C -3.8657059048526503 4.779804497434285 7.347773036032913
| 39> H -1.9119126413007166 4.713485250650469 6.396233178571276
| 40> H -1.8584254137049225 4.756037330569713 8.165114699272328
| 41> H -3.8987697067038507 5.877815566889563 7.381647413810558
| 42> H -4.324333408368701 4.411871104502349 8.270970785435624
| 43> H -5.719067840170863 4.688881730530986 6.226742593500161
| 44> H -4.2673586789235785 4.679479007690842 5.213631655382872
| 45> C 5.196998673928381 -2.9124923648189194 -6.883019356683167
| 46> C 2.9040607122517152 -3.0597207701085494 -8.041612348953935
| 47> C 4.51058145528574 -3.1417083732337785 -8.138508930122653
| 48> H 2.6551638244943208 -3.9002054685137786 -7.355514912151148
| 49> H 2.704922853586464 -3.513791372028712 -9.07881419162829
| 50> H 5.024478289339577 -2.4107501375589284 -8.797932924653145
| 51> H 4.441365903335316 -4.169206567578534 -8.680291842810442
| 52> H 6.330507640445697 -2.773972995740443 -6.783943872304107
| 53> H 4.893646047185602 -3.4930396889170385 -5.996141781221497
| 54> *
| 55>
| 56> % eprnmr
| 57> gtensor true
| 58> Nuclei = all H {aiso,adip,aorb,fgrad,rho}
| 59> Nuclei = all V {aiso,adip,aorb,fgrad,rho}
| 60> end
| 61>
| 62>                          ****END OF INPUT****

CARTESIAN COORDINATES (ANGSTROEM)
---------------------------------
  V     -0.162116   -1.075844    0.219677
  S     -2.368341   -0.128076    0.814070
  S     -0.833094   -0.681042   -2.130073
  S      0.632007   -0.109586    2.356663
  S      2.127003   -0.569568   -0.547324
  O     -0.255403   -2.648606    0.424560
  C      0.732594   -0.865866   -2.908299
  C      1.919867   -0.817909   -2.275147
  C     -2.080425    0.394282    2.468154
  C     -0.882826    0.404129    3.081670
  S      0.791968   -1.061155   -4.694469
  S      3.384401   -0.939077   -3.303292
  S     -0.848270    1.039927    4.761016
  S     -3.471309    1.012964    3.422323
  C      2.557296   -1.075069   -4.853899
  C     -2.560706    1.463141    4.869207
  C      3.198286   -1.191459   -6.056762
  C     -3.122809    2.065520    5.960584
  S      2.331982   -1.381825   -7.589827
  S      4.988694   -1.194973   -6.154363
  S     -4.855783    2.475935    6.022031
  S     -2.155629    2.518925    7.387538
  C     -2.395699    4.352768    7.302455
  C     -4.694195    4.316305    6.146968
  C     -3.864398    4.782319    7.345191
  H     -1.910605    4.716000    6.393651
  H     -1.857118    4.758552    8.162533
  H     -3.897462    5.880330    7.379065
  H     -4.323026    4.414385    8.268389
  H     -5.717760    4.691396    6.224161
  H     -4.266051    4.681993    5.211050
  C      5.198306   -2.909978   -6.885601
  C      2.905368   -3.057206   -8.044194
  C      4.511889   -3.139194   -8.141091
  H      2.656471   -3.897691   -7.358097
  H      2.706230   -3.511277   -9.081396
  H      5.025786   -2.408236   -8.800515
  H      4.442674   -4.166692   -8.682874
  H      6.331815   -2.771459   -6.786526
  H      4.894954   -3.490525   -5.998724

 Total Charge           Charge          ....   -2
 Multiplicity           Mult            ....    2
 Number of Electrons    NEL             ....  321
 Basis Dimension        Dim             ....  681

ORBITAL ENERGIES
----------------
                 SPIN UP ORBITALS
  NO   OCC          E(Eh)            E(eV)
   0   1.0000    -196.675312     -5351.8073
   1   1.0000     -88.738854     -2414.7070
   2   1.0000     -88.733796     -2414.5693
   3   1.0000     -88.733358     -2414.5574
   4   1.0000     -88.733280     -2414.5553
   5   1.0000     -88.732451     -2414.5327
   6   1.0000     -88.730816     -2414.4882
   7   1.0000     -88.730286     -2414.4738
   8   1.0000     -88.730228     -2414.4722
   9   1.0000     -88.640409     -2412.0282
  10   1.0000     -88.640267     -2412.0243
  11   1.0000     -88.640138     -2412.0208
  12   1.0000     -88.639588     -2412.0058
  13   1.0000     -22.050703      -600.0301
  14   1.0000     -18.890608      -514.0396
  15   1.0000     -18.557150      -504.9657
  16   1.0000     -18.551979      -504.8250
  17   1.0000     -18.551878      -504.8223
  18   1.0000     -10.077267      -274.2164
  19   1.0000     -10.076735      -274.2019
  20   1.0000     -10.076039      -274.1830
  21   1.0000     -10.066684      -273.9284
  22   1.0000     -10.063394      -273.8389
  23   1.0000     -10.063391      -273.8388
  24   1.0000     -10.060368      -273.7565
  25   1.0000     -10.051263      -273.5088
  26   1.0000     -10.049455      -273.4596
  27   1.0000     -10.048567      -273.4354
  28   1.0000     -10.019326      -272.6397
  29   1.0000     -10.018364      -272.6135
  30   1.0000     -10.018149      -272.6077
  31   1.0000     -10.017355      -272.5861
  32   1.0000      -7.792097      -212.0337
  33   1.0000      -7.787261      -211.9021
  34   1.0000      -7.786806      -211.8898
  35   1.0000      -7.786736      -211.8878
  36   1.0000      -7.785777      -211.8618
  37   1.0000      -7.783988      -211.8131
  38   1.0000      -7.783557      -211.8013
  39   1.0000      -7.783523      -211.8004
  40   1.0000      -7.694711      -209.3837
  41   1.0000      -7.694512      -209.3783
  42   1.0000      -7.694406      -209.3754
  43   1.0000      -7.693966      -209.3635
  44   1.0000      -5.757218      -156.6619
  45   1.0000      -5.753647      -156.5647
  46   1.0000      -5.752174      -156.5246
  47   1.0000      -5.751796      -156.5143
  48   1.0000      -5.751725      -156.5124
  49   1.0000      -5.750700      -156.4845
  50   1.0000      -5.748931      -156.4364
  51   1.0000      -5.748877      -156.4349
  52   1.0000      -5.748504      -156.4248
  53   1.0000      -5.748475      -156.4240
  54   1.0000      -5.748377      -156.4213
  55   1.0000      -5.748309      -156.4195
  56   1.0000      -5.746784      -156.3779
  57   1.0000      -5.746245      -156.3633
  58   1.0000      -5.744506      -156.3160
  59   1.0000      -5.744077      -156.3043
  60   1.0000      -5.744037      -156.3032
  61   1.0000      -5.742036      -156.2487
  62   1.0000      -5.741662      -156.2386
  63   1.0000      -5.741602      -156.2369
  64   1.0000      -5.741529      -156.2350
  65   1.0000      -5.739823      -156.1885
  66   1.0000      -5.739365      -156.1761
  67   1.0000      -5.739333      -156.1752
  68   1.0000      -5.660026      -154.0171
  69   1.0000      -5.659857      -154.0125
  70   1.0000      -5.659725      -154.0089
  71   1.0000      -5.659251      -153.9961
  72   1.0000      -5.653354      -153.8356
  73   1.0000      -5.653161      -153.8303
  74   1.0000      -5.653078      -153.8281
  75   1.0000      -5.652636      -153.8160
  76   1.0000      -5.652031      -153.7996
  77   1.0000      -5.651817      -153.7937
  78   1.0000      -5.651735      -153.7915
  79   1.0000      -5.651271      -153.7789
  80   1.0000      -2.444347       -66.5141
  81   1.0000      -1.485647       -40.4265
  82   1.0000      -1.473990       -40.1093
  83   1.0000      -1.473171       -40.0870
  84   1.0000      -0.711530       -19.3617
  85   1.0000      -0.709688       -19.3116
  86   1.0000      -0.687523       -18.7085
  87   1.0000      -0.685664       -18.6579
  88   1.0000      -0.650189       -17.6925
  89   1.0000      -0.633683       -17.2434
  90   1.0000      -0.631417       -17.1817
  91   1.0000      -0.618194       -16.8219
  92   1.0000      -0.617307       -16.7978
  93   1.0000      -0.575902       -15.6711
  94   1.0000      -0.574720       -15.6389
  95   1.0000      -0.574515       -15.6334
  96   1.0000      -0.573055       -15.5936
  97   1.0000      -0.498656       -13.5691
  98   1.0000      -0.496591       -13.5129
  99   1.0000      -0.496008       -13.4971
 100   1.0000      -0.495065       -13.4714
 101   1.0000      -0.480700       -13.0805
 102   1.0000      -0.477879       -13.0038
 103   1.0000      -0.446644       -12.1538
 104   1.0000      -0.441693       -12.0191
 105   1.0000      -0.416495       -11.3334
 106   1.0000      -0.411464       -11.1965
 107   1.0000      -0.355321        -9.6688
 108   1.0000      -0.354667        -9.6510
 109   1.0000      -0.335287        -9.1236
 110   1.0000      -0.326601        -8.8873
 111   1.0000      -0.318434        -8.6650
 112   1.0000      -0.314014        -8.5447
 113   1.0000      -0.304838        -8.2951
 114   1.0000      -0.303802        -8.2669
 115   1.0000      -0.292356        -7.9554
 116   1.0000      -0.281635        -7.6637
 117   1.0000      -0.261545        -7.1170
 118   1.0000      -0.257064        -6.9951
 119   1.0000      -0.256789        -6.9876
 120   1.0000      -0.251332        -6.8391
 121   1.0000      -0.236274        -6.4293
 122   1.0000      -0.234478        -6.3805
 123   1.0000      -0.230673        -6.2769
 124   1.0000      -0.222836        -6.0637
 125   1.0000      -0.219842        -5.9822
 126   1.0000      -0.214830        -5.8458
 127   1.0000      -0.212102        -5.7716
 128   1.0000      -0.211338        -5.7508
 129   1.0000      -0.192955        -5.2506
 130   1.0000      -0.187411        -5.0997
 131   1.0000      -0.185308        -5.0425
 132   1.0000      -0.179984        -4.8976
 133   1.0000      -0.178342        -4.8529
 134   1.0000      -0.160003        -4.3539
 135   1.0000      -0.152265        -4.1433
 136   1.0000      -0.147441        -4.0121
 137   1.0000      -0.134966        -3.6726
 138   1.0000      -0.133721        -3.6387
 139   1.0000      -0.133288        -3.6270
 140   1.0000      -0.125274        -3.4089
 141   1.0000      -0.121512        -3.3065
 142   1.0000      -0.113903        -3.0994
 143   1.0000      -0.109866        -2.9896
 144   1.0000      -0.100453        -2.7335
 145   1.0000      -0.098546        -2.6816
 146   1.0000      -0.097652        -2.6573
 147   1.0000      -0.095156        -2.5893
 148   1.0000      -0.074981        -2.0403
 149   1.0000      -0.068960        -1.8765
 150   1.0000      -0.067452        -1.8355
 151   1.0000      -0.052816        -1.4372
 152   1.0000      -0.046033        -1.2526
 153   1.0000      -0.038023        -1.0347
 154   1.0000      -0.037495        -1.0203
 155   1.0000      -0.031837        -0.8663
 156   1.0000      -0.025352        -0.6899
 157   1.0000      -0.019530        -0.5314
 158   1.0000      -0.015926        -0.4334
 159   1.0000       0.019874         0.5408
 160   1.0000       0.040777         1.1096
 161   0.0000       0.133521         3.6333
 162   0.0000       0.137198         3.7334
 163   0.0000       0.142052         3.8654
 164   0.0000       0.162165         4.4127
 165   0.0000       0.170252         4.6328

                 SPIN DOWN ORBITALS
  NO   OCC          E(Eh)            E(eV)
   0   1.0000    -196.675459     -5351.8113
   1   1.0000     -88.738855     -2414.7070
   2   1.0000     -88.733797     -2414.5694
   3   1.0000     -88.733358     -2414.5574
   4   1.0000     -88.733281     -2414.5553
   5   1.0000     -88.732459     -2414.5330
   6   1.0000     -88.730824     -2414.4885
   7   1.0000     -88.730294     -2414.4741
   8   1.0000     -88.730236     -2414.4725
   9   1.0000     -88.640548     -2412.0319
  10   1.0000     -88.640408     -2412.0281
  11   1.0000     -88.640275     -2412.0245
  12   1.0000     -88.639728     -2412.0096
  13   1.0000     -22.035775      -599.6239
  14   1.0000     -18.894387      -514.1424
  15   1.0000     -18.551886      -504.8225
  16   1.0000     -18.535948      -504.3888
  17   1.0000     -18.535765      -504.3838
  18   1.0000     -10.077261      -274.2162
  19   1.0000     -10.076733      -274.2019
  20   1.0000     -10.076038      -274.1829
  21   1.0000     -10.066683      -273.9284
  22   1.0000     -10.063394      -273.8389
  23   1.0000     -10.063392      -273.8388
  24   1.0000     -10.060368      -273.7565
  25   1.0000     -10.051263      -273.5088
  26   1.0000     -10.049443      -273.4593
  27   1.0000     -10.048563      -273.4353
  28   1.0000     -10.019088      -272.6332
  29   1.0000     -10.018141      -272.6075
  30   1.0000     -10.017935      -272.6019
  31   1.0000     -10.017143      -272.5803
  32   1.0000      -7.792098      -212.0338
  33   1.0000      -7.787262      -211.9022
  34   1.0000      -7.786806      -211.8898
  35   1.0000      -7.786736      -211.8879
  36   1.0000      -7.785787      -211.8620
  37   1.0000      -7.783997      -211.8133
  38   1.0000      -7.783566      -211.8016
  39   1.0000      -7.783532      -211.8007
  40   1.0000      -7.694840      -209.3872
  41   1.0000      -7.694644      -209.3819
  42   1.0000      -7.694533      -209.3789
  43   1.0000      -7.694096      -209.3670
  44   1.0000      -5.757220      -156.6619
  45   1.0000      -5.753648      -156.5647
  46   1.0000      -5.752175      -156.5247
  47   1.0000      -5.751797      -156.5143
  48   1.0000      -5.751725      -156.5124
  49   1.0000      -5.750711      -156.4848
  50   1.0000      -5.748941      -156.4366
  51   1.0000      -5.748879      -156.4349
  52   1.0000      -5.748515      -156.4250
  53   1.0000      -5.748486      -156.4243
  54   1.0000      -5.748378      -156.4213
  55   1.0000      -5.748310      -156.4195
  56   1.0000      -5.746785      -156.3780
  57   1.0000      -5.746259      -156.3636
  58   1.0000      -5.744520      -156.3163
  59   1.0000      -5.744091      -156.3047
  60   1.0000      -5.744051      -156.3036
  61   1.0000      -5.742037      -156.2488
  62   1.0000      -5.741671      -156.2388
  63   1.0000      -5.741602      -156.2369
  64   1.0000      -5.741530      -156.2350
  65   1.0000      -5.739831      -156.1887
  66   1.0000      -5.739371      -156.1762
  67   1.0000      -5.739339      -156.1754
  68   1.0000      -5.660164      -154.0209
  69   1.0000      -5.659998      -154.0164
  70   1.0000      -5.659867      -154.0128
  71   1.0000      -5.659393      -153.9999
  72   1.0000      -5.653738      -153.8460
  73   1.0000      -5.653543      -153.8407
  74   1.0000      -5.653429      -153.8376
  75   1.0000      -5.652996      -153.8259
  76   1.0000      -5.652116      -153.8019
  77   1.0000      -5.651910      -153.7963
  78   1.0000      -5.651841      -153.7944
  79   1.0000      -5.651377      -153.7818
  80   1.0000      -2.399473       -65.2930
  81   1.0000      -1.466364       -39.9018
  82   1.0000      -1.411621       -38.4122
  83   1.0000      -1.411461       -38.4078
  84   1.0000      -0.711505       -19.3610
  85   1.0000      -0.709672       -19.3112
  86   1.0000      -0.687466       -18.7069
  87   1.0000      -0.685622       -18.6567
  88   1.0000      -0.658293       -17.9131
  89   1.0000      -0.633614       -17.2415
  90   1.0000      -0.631359       -17.1801
  91   1.0000      -0.618188       -16.8218
  92   1.0000      -0.617309       -16.7978
  93   1.0000      -0.575858       -15.6699
  94   1.0000      -0.574694       -15.6382
  95   1.0000      -0.574448       -15.6315
  96   1.0000      -0.572990       -15.5918
  97   1.0000      -0.498679       -13.5698
  98   1.0000      -0.496622       -13.5138
  99   1.0000      -0.496051       -13.4982
 100   1.0000      -0.495099       -13.4723
 101   1.0000      -0.480895       -13.0858
 102   1.0000      -0.478128       -13.0105
 103   1.0000      -0.446673       -12.1546
 104   1.0000      -0.441734       -12.0202
 105   1.0000      -0.416492       -11.3333
 106   1.0000      -0.411571       -11.1994
 107   1.0000      -0.355316        -9.6686
 108   1.0000      -0.354655        -9.6507
 109   1.0000      -0.335281        -9.1235
 110   1.0000      -0.326591        -8.8870
 111   1.0000      -0.318362        -8.6631
 112   1.0000      -0.314034        -8.5453
 113   1.0000      -0.304777        -8.2934
 114   1.0000      -0.303776        -8.2662
 115   1.0000      -0.292351        -7.9553
 116   1.0000      -0.281607        -7.6629
 117   1.0000      -0.261468        -7.1149
 118   1.0000      -0.256976        -6.9927
 119   1.0000      -0.256735        -6.9861
 120   1.0000      -0.251295        -6.8381
 121   1.0000      -0.236175        -6.4267
 122   1.0000      -0.234455        -6.3799
 123   1.0000      -0.230633        -6.2758
 124   1.0000      -0.222670        -6.0592
 125   1.0000      -0.219643        -5.9768
 126   1.0000      -0.214535        -5.8378
 127   1.0000      -0.211971        -5.7680
 128   1.0000      -0.211277        -5.7492
 129   1.0000      -0.191025        -5.1981
 130   1.0000      -0.187331        -5.0975
 131   1.0000      -0.185059        -5.0357
 132   1.0000      -0.179867        -4.8944
 133   1.0000      -0.178238        -4.8501
 134   1.0000      -0.159384        -4.3371
 135   1.0000      -0.152095        -4.1387
 136   1.0000      -0.147360        -4.0099
 137   1.0000      -0.134296        -3.6544
 138   1.0000      -0.133450        -3.6314
 139   1.0000      -0.132952        -3.6178
 140   1.0000      -0.124774        -3.3953
 141   1.0000      -0.121194        -3.2978
 142   1.0000      -0.115682        -3.1479
 143   1.0000      -0.111440        -3.0324
 144   1.0000      -0.100472        -2.7340
 145   1.0000      -0.098852        -2.6899
 146   1.0000      -0.097633        -2.6567
 147   1.0000      -0.095466        -2.5978
 148   1.0000      -0.071209        -1.9377
 149   1.0000      -0.068897        -1.8748
 150   1.0000      -0.067444        -1.8352
 151   1.0000      -0.050233        -1.3669
 152   1.0000      -0.045096        -1.2271
 153   1.0000      -0.038076        -1.0361
 154   1.0000      -0.036918        -1.0046
 155   1.0000      -0.031870        -0.8672
 156   1.0000      -0.026394        -0.7182
 157   1.0000      -0.016132        -0.4390
 158   1.0000       0.020156         0.5485
 159   1.0000       0.039683         1.0798
 160   0.0000       0.133526         3.6334
 161   0.0000       0.137188         3.7331
 162   0.0000       0.142013         3.8644
 163   0.0000       0.155846         4.2408
 164   0.0000       0.162856         4.4315

MULLIKEN ATOMIC CHARGES AND SPIN POPULATIONS
--------------------------------------------
   0 V :    0.471289    1.210518
   1 S :   -0.291010   -0.022555
   2 S :   -0.287529   -0.025122
   3 S :   -0.289046   -0.023462
   4 S :   -0.285382   -0.025532
   5 O :   -0.467389   -0.146604
   6 C :   -0.076035    0.009640
   7 C :   -0.086704    0.008073
   8 C :   -0.083925    0.007771
   9 C :   -0.084742    0.007373
  10 S :    0.099703   -0.000572
  11 S :    0.104121   -0.000647
  12 S :    0.100121   -0.000394
  13 S :    0.099270   -0.000347
  14 C :   -0.211458    0.001512
  15 C :   -0.212157    0.000998
  16 C :   -0.194425   -0.000051
  17 C :   -0.190239   -0.000406
  18 S :    0.038395   -0.000110
  19 S :   -0.021016   -0.000115
  20 S :    0.008037   -0.000068
  21 S :    0.008468   -0.000071
  22 C :   -0.300386   -0.000001
  23 C :   -0.299903   -0.000002
  24 C :   -0.158264   -0.000011
  25 H :    0.143083   -0.000001
  26 H :    0.113815   -0.000004
  27 H :    0.083512   -0.000001
  28 H :    0.092079   -0.000001
  29 H :    0.113417   -0.000005
  30 H :    0.142869   -0.000001
  31 C :   -0.281760    0.000185
  32 C :   -0.289787    0.000184
  33 C :   -0.131592   -0.000206
  34 H :    0.138963   -0.000013
  35 H :    0.097091    0.000026
  36 H :    0.083608    0.000022
  37 H :    0.064824    0.000007
  38 H :    0.091913    0.000015
  39 H :    0.148168   -0.000021
Sum of atomic charges         :   -2.0000000

LOEWDIN ATOMIC CHARGES AND SPIN POPULATIONS
-------------------------------------------
   0 V :   -0.155748    1.163894
   1 S :    0.080072   -0.014552
   2 S :    0.080781   -0.016025
   3 S :    0.081412   -0.015319
   4 S :    0.082980   -0.016161
   5 O :   -0.318721   -0.131529
   6 C :   -0.548619    0.009015
   7 C :   -0.552844    0.007969
   8 C :   -0.552375    0.008133
   9 C :   -0.552374    0.007660
  10 S :    0.470251   -0.000901
  11 S :    0.476600   -0.000959
  12 S :    0.471356   -0.000826
  13 S :    0.470622   -0.000830
  14 C :   -0.464590    0.000175
  15 C :   -0.465136   -0.000081
  16 C :   -0.624439    0.000477
  17 C :   -0.621998    0.000085
  18 S :    0.383362   -0.000084
  19 S :    0.343194   -0.000090
  20 S :    0.358953   -0.000073
  21 S :    0.358699   -0.000075
  22 C :   -0.283302   -0.000007
  23 C :   -0.283288   -0.000009
  24 C :   -0.176082   -0.000002
  25 H :    0.062549   -0.000001
  26 H :    0.053648   -0.000002
  27 H :    0.058035   -0.000002
  28 H :    0.060190   -0.000001
  29 H :    0.053549   -0.000002
  30 H :    0.062371   -0.000002
  31 C :   -0.284569    0.000038
  32 C :   -0.310968    0.000051
  33 C :   -0.193152    0.000009
  34 H :    0.064715   -0.000001
  35 H :    0.063995    0.000016
  36 H :    0.064849    0.000005
  37 H :    0.066837    0.000000
  38 H :    0.056793    0.000004
  39 H :    0.062392    0.000000

  Mayer bond orders larger than 0.100000
B(  0-V ,  1-S ) :   0.7725 B(  0-V ,  2-S ) :   0.7701 B(  0-V ,  3-S ) :   0.7659
B(  0-V ,  4-S ) :   0.7769 B(  0-V ,  5-O ) :   2.1490 B(  1-S ,  8-C ) :   1.1032
B(  2-S ,  6-C ) :   1.1064 B(  3-S ,  9-C ) :   1.1060 B(  4-S ,  7-C ) :   1.1050
B(  6-C ,  7-C ) :   1.6822 B(  6-C , 10-S ) :   0.9362 B(  7-C , 11-S ) :   0.9399
B(  8-C ,  9-C ) :   1.6987 B(  8-C , 13-S ) :   0.9337 B(  9-C , 12-S ) :   0.9355
B( 10-S , 14-C ) :   1.2481 B( 11-S , 14-C ) :   1.2508 B( 12-S , 15-C ) :   1.2464
B( 13-S , 15-C ) :   1.2465 B( 14-C , 16-C ) :   1.4468 B( 15-C , 17-C ) :   1.4541
B( 16-C , 18-S ) :   1.0861 B( 16-C , 19-S ) :   1.0725 B( 17-C , 20-S ) :   1.0878
B( 17-C , 21-S ) :   1.0886 B( 18-S , 32-C ) :   0.9786 B( 19-S , 31-C ) :   0.9490
B( 20-S , 23-C ) :   0.9915 B( 21-S , 22-C ) :   0.9908 B( 22-C , 24-C ) :   0.9132
B( 22-C , 25-H ) :   0.9657 B( 22-C , 26-H ) :   0.9656 B( 23-C , 24-C ) :   0.9141
B( 23-C , 29-H ) :   0.9656 B( 23-C , 30-H ) :   0.9656 B( 24-C , 27-H ) :   0.9626
B( 24-C , 28-H ) :   0.9718 B( 31-C , 33-C ) :   0.9554 B( 31-C , 38-H ) :   0.9644
B( 31-C , 39-H ) :   0.9736 B( 32-C , 33-C ) :   0.8593 B( 32-C , 34-H ) :   0.9563
B( 32-C , 35-H ) :   0.9629 B( 33-C , 36-H ) :   0.9607 B( 33-C , 37-H ) :   0.9609

FINAL SINGLE POINT ENERGY     -6337.656443483444

DIPOLE MOMENT
-------------
                                X             Y             Z
Electronic contribution:     -4.22366     -11.76764       5.36326
Nuclear contribution   :      4.58708      13.25335      -5.77526
                        -----------------------------------------
Total Dipole Moment    :      0.36342       1.48571      -0.41199
                        -----------------------------------------
Magnitude (a.u.)       :      1.58403
Magnitude (Debye)      :      4.02628

Rotational constants in cm-1:     0.010759     0.000804     0.000783
Rotational constants in MHz :   322.557365    24.115827    23.486418

                             ****ORCA TERMINATED NORMALLY****
TOTAL RUN TIME: 0 days 1 hours 6 minutes 29 seconds 140 msec
