                         Program Version 5.0.4 -  RELEASE  -
|  1> ! nofrozencore ReducedPop printbasis
|  2> ! B3LYP TZVP
|  3>
|  4> %basis
|  5> newgto V "CP(PPP)" end
|  6> end
|  7>
|  8> %pal
|  9> nprocs 8
| 10> end
| 11>
| 12> % sym SymThresh 1e-2 end
| 13> * xyz -2 2
| 14> V -0.24087352241686255 -1.0321326699208269 0.35516470742544054
| 15> S 0.9186815737449845 -1.4557678492619 -1.7910421341109817
| 16> S 2.0000551501060437 -0.45494898704833503 1.235935473893352
| 17> S -2.166962100104299 -0.3291338638320967 -1.0354157838938538
| 18> S -1.0921701745117594 0.6755560015180903 1.9283526016514312
| 19> O -0.5958900457505323 -2.4569271836310476 0.9688313774616507
| 20> C 1.5430187496794296 0.4023573131319523 2.701661715363522
| 21> C 0.3061076231776654 0.856902668168964 2.976585742069835
| 22> C -0.4276430013546841 -1.3556541148630488 -2.9176606781672265
| 23> C -1.6585613930220804 -0.903188273154052 -2.6160548434913706
| 24> S 2.8194254718740264 0.7859704065075056 3.9072242649582263
| 25> S 0.11497167688518951 1.7907853516660357 4.4979618615936
| 26> S -2.842730520529641 -0.8433344326558917 -3.965152517376254
| 27> S -0.15183346534499853 -1.8421228068523985 -4.625047049501288
| 28> C 1.8020654100580886 1.7097241194160393 5.0196336225705975
| 29> C -1.7543293200421712 -1.412621164305088 -5.23616274436564
| 30> C 2.2668740243521883 2.2942601112972625 6.165874344096593
| 31> C -2.1179185702138827 -1.523058500042433 -6.549871438457222
| 32> S 3.970246054581503 2.1556419664386897 6.67429158592306
| 33> S 1.1984859504192658 3.229552841954368 7.242800743689839
| 34> S -0.9864003643281676 -2.1126989614127636 -7.7942740620421915
| 35> S -3.7434089498543193 -1.062867597195205 -7.118833165467081
| 36> C -3.2504653369082463 0.3102054658239242 -8.259716388543369
| 37> C -0.9094088768814819 -0.5853823054936655 -8.838845725008333
| 38> C -2.2736311383245456 -0.12268455496266734 -9.355874600851577
| 39> H -2.826284607104647 1.1159647220873323 -7.6557879453357955
| 40> H -4.182879231961166 0.6697090518963147 -8.70233834039318
| 41> H -2.112557616123466 0.7321629598881623 -10.028158611264658
| 42> H -2.727083804764182 -0.9229234815858353 -9.949775197568554
| 43> H -0.2530560887664239 -0.838985656386678 -9.67534871261174
| 44> H -0.4282935957789397 0.20175806433400176 -8.253398320226156
| 45> C 1.3516454269045821 2.184441223744801 8.764552059045645
| 46> C 3.7044625189555584 1.2664739550544697 8.278045690130497
| 47> C 2.7926616023767403 2.015024481680353 9.252863232266021
| 48> H 3.3031451753221996 0.274448217293398 8.05463121955246
| 49> H 4.701395628975492 1.1431083300907927 8.71020708709731
| 50> H 3.2222306010671757 2.9996140751335374 9.467289178083663
| 51> H 2.769841153330082 1.4548514966392676 10.19924090192675
| 52> H 0.750546191067907 2.689738923120235 9.52479091539045
| 53> H 0.8940432968940261 1.213576348733429 8.556749066653918
| 54> *
| 55>
| 56> % eprnmr
| 57> gtensor true
| 58> Nuclei = all H {aiso,adip,aorb,fgrad,rho}
| 59> Nuclei = all V {aiso,adip,aorb,fgrad,rho}
| 60> end
| 61>
| 62>                          ****END OF INPUT****

CARTESIAN COORDINATES (ANGSTROEM)
---------------------------------
  V     -0.239411   -1.028708    0.356078
  S      0.920144   -1.452344   -1.790129
  S      2.001518   -0.451525    1.236848
  S     -2.165499   -0.325710   -1.034503
  S     -1.090707    0.678980    1.929265
  O     -0.594427   -2.453503    0.969744
  C      1.544481    0.405782    2.702575
  C      0.307570    0.860327    2.977499
  C     -0.426180   -1.352230   -2.916748
  C     -1.657099   -0.899764   -2.615142
  S      2.820888    0.789395    3.908137
  S      0.116434    1.794210    4.498875
  S     -2.841268   -0.839910   -3.964240
  S     -0.150371   -1.838699   -4.624134
  C      1.803528    1.713148    5.020546
  C     -1.752867   -1.409197   -5.235250
  C      2.268337    2.297684    6.166787
  C     -2.116456   -1.519634   -6.548959
  S      3.971709    2.159066    6.675204
  S      1.199949    3.232977    7.243714
  S     -0.984938   -2.109275   -7.793361
  S     -3.741946   -1.059443   -7.117920
  C     -3.249003    0.313630   -8.258804
  C     -0.907946   -0.581958   -8.837933
  C     -2.272168   -0.119260   -9.354962
  H     -2.824822    1.119389   -7.654875
  H     -4.181416    0.673133   -8.701426
  H     -2.111095    0.735587  -10.027246
  H     -2.725621   -0.919499   -9.948862
  H     -0.251593   -0.835561   -9.674436
  H     -0.426831    0.205182   -8.252485
  C      1.353108    2.187865    8.765465
  C      3.705925    1.269898    8.278959
  C      2.794124    2.018449    9.253776
  H      3.304608    0.277872    8.055544
  H      4.702858    1.146533    8.711120
  H      3.223693    3.003038    9.468202
  H      2.771304    1.458276   10.200154
  H      0.752009    2.693163    9.525704
  H      0.895506    1.217001    8.557662

 Total Charge           Charge          ....   -2
 Multiplicity           Mult            ....    2
 Number of Electrons    NEL             ....  321
 Basis Dimension        Dim             ....  681

ORBITAL ENERGIES
----------------
                 SPIN UP ORBITALS
  NO   OCC          E(Eh)            E(eV)
   0   1.0000    -196.675454     -5351.8112
   1   1.0000     -88.733464     -2414.5603
   2   1.0000     -88.733443     -2414.5597
   3   1.0000     -88.733214     -2414.5535
   4   1.0000     -88.733115     -2414.5508
   5   1.0000     -88.730111     -2414.4691
   6   1.0000     -88.729931     -2414.4642
   7   1.0000     -88.729868     -2414.4624
   8   1.0000     -88.729820     -2414.4612
   9   1.0000     -88.639561     -2412.0051
  10   1.0000     -88.639501     -2412.0035
  11   1.0000     -88.639478     -2412.0028
  12   1.0000     -88.639278     -2411.9974
  13   1.0000     -22.050839      -600.0338
  14   1.0000     -18.889795      -514.0174
  15   1.0000     -18.557252      -504.9685
  16   1.0000     -18.552132      -504.8292
  17   1.0000     -18.552032      -504.8265
  18   1.0000     -10.075776      -274.1758
  19   1.0000     -10.075654      -274.1725
  20   1.0000     -10.063982      -273.8549
  21   1.0000     -10.063920      -273.8532
  22   1.0000     -10.063399      -273.8390
  23   1.0000     -10.063361      -273.8380
  24   1.0000     -10.051819      -273.5239
  25   1.0000     -10.051282      -273.5093
  26   1.0000     -10.048488      -273.4333
  27   1.0000     -10.048374      -273.4302
  28   1.0000     -10.018011      -272.6039
  29   1.0000     -10.017754      -272.5970
  30   1.0000     -10.017165      -272.5809
  31   1.0000     -10.016959      -272.5753
  32   1.0000      -7.786865      -211.8914
  33   1.0000      -7.786842      -211.8907
  34   1.0000      -7.786649      -211.8855
  35   1.0000      -7.786548      -211.8827
  36   1.0000      -7.783343      -211.7955
  37   1.0000      -7.783219      -211.7922
  38   1.0000      -7.783131      -211.7898
  39   1.0000      -7.783114      -211.7893
  40   1.0000      -7.693788      -209.3586
  41   1.0000      -7.693780      -209.3584
  42   1.0000      -7.693743      -209.3574
  43   1.0000      -7.693576      -209.3528
  44   1.0000      -5.751853      -156.5159
  45   1.0000      -5.751838      -156.5155
  46   1.0000      -5.751643      -156.5102
  47   1.0000      -5.751539      -156.5073
  48   1.0000      -5.748445      -156.4231
  49   1.0000      -5.748430      -156.4227
  50   1.0000      -5.748293      -156.4190
  51   1.0000      -5.748218      -156.4170
  52   1.0000      -5.748169      -156.4156
  53   1.0000      -5.748121      -156.4143
  54   1.0000      -5.748078      -156.4132
  55   1.0000      -5.748066      -156.4128
  56   1.0000      -5.743860      -156.2984
  57   1.0000      -5.743727      -156.2948
  58   1.0000      -5.743650      -156.2927
  59   1.0000      -5.743635      -156.2922
  60   1.0000      -5.741664      -156.2386
  61   1.0000      -5.741627      -156.2376
  62   1.0000      -5.741449      -156.2328
  63   1.0000      -5.741347      -156.2300
  64   1.0000      -5.739171      -156.1708
  65   1.0000      -5.739036      -156.1671
  66   1.0000      -5.738939      -156.1645
  67   1.0000      -5.738926      -156.1641
  68   1.0000      -5.659113      -153.9923
  69   1.0000      -5.659084      -153.9915
  70   1.0000      -5.659073      -153.9912
  71   1.0000      -5.658879      -153.9859
  72   1.0000      -5.652475      -153.8117
  73   1.0000      -5.652444      -153.8108
  74   1.0000      -5.652420      -153.8102
  75   1.0000      -5.652260      -153.8058
  76   1.0000      -5.651097      -153.7742
  77   1.0000      -5.651096      -153.7741
  78   1.0000      -5.651045      -153.7728
  79   1.0000      -5.650882      -153.7683
  80   1.0000      -2.444296       -66.5127
  81   1.0000      -1.485222       -40.4149
  82   1.0000      -1.473999       -40.1096
  83   1.0000      -1.473160       -40.0867
  84   1.0000      -0.709289       -19.3007
  85   1.0000      -0.709275       -19.3004
  86   1.0000      -0.685508       -18.6536
  87   1.0000      -0.685321       -18.6485
  88   1.0000      -0.649226       -17.6663
  89   1.0000      -0.631329       -17.1793
  90   1.0000      -0.631084       -17.1727
  91   1.0000      -0.617136       -16.7931
  92   1.0000      -0.617018       -16.7899
  93   1.0000      -0.574318       -15.6280
  94   1.0000      -0.574147       -15.6233
  95   1.0000      -0.573390       -15.6027
  96   1.0000      -0.572452       -15.5772
  97   1.0000      -0.496839       -13.5197
  98   1.0000      -0.496215       -13.5027
  99   1.0000      -0.495564       -13.4850
 100   1.0000      -0.495185       -13.4747
 101   1.0000      -0.479644       -13.0518
 102   1.0000      -0.477029       -12.9806
 103   1.0000      -0.447243       -12.1701
 104   1.0000      -0.445085       -12.1114
 105   1.0000      -0.416239       -11.3265
 106   1.0000      -0.411034       -11.1848
 107   1.0000      -0.355395        -9.6708
 108   1.0000      -0.355096        -9.6627
 109   1.0000      -0.326748        -8.8913
 110   1.0000      -0.326356        -8.8806
 111   1.0000      -0.318842        -8.6761
 112   1.0000      -0.314285        -8.5521
 113   1.0000      -0.304235        -8.2786
 114   1.0000      -0.303413        -8.2563
 115   1.0000      -0.292607        -7.9623
 116   1.0000      -0.292124        -7.9491
 117   1.0000      -0.257902        -7.0179
 118   1.0000      -0.257779        -7.0145
 119   1.0000      -0.255874        -6.9627
 120   1.0000      -0.255530        -6.9533
 121   1.0000      -0.234691        -6.3863
 122   1.0000      -0.234208        -6.3731
 123   1.0000      -0.231269        -6.2931
 124   1.0000      -0.229975        -6.2579
 125   1.0000      -0.219891        -5.9836
 126   1.0000      -0.218021        -5.9326
 127   1.0000      -0.214230        -5.8295
 128   1.0000      -0.211707        -5.7608
 129   1.0000      -0.192838        -5.2474
 130   1.0000      -0.187184        -5.0935
 131   1.0000      -0.185922        -5.0592
 132   1.0000      -0.184396        -5.0177
 133   1.0000      -0.179145        -4.8748
 134   1.0000      -0.159189        -4.3317
 135   1.0000      -0.151498        -4.1225
 136   1.0000      -0.146636        -3.9902
 137   1.0000      -0.135693        -3.6924
 138   1.0000      -0.134200        -3.6518
 139   1.0000      -0.132695        -3.6108
 140   1.0000      -0.124738        -3.3943
 141   1.0000      -0.120695        -3.2843
 142   1.0000      -0.112696        -3.0666
 143   1.0000      -0.109133        -2.9697
 144   1.0000      -0.099345        -2.7033
 145   1.0000      -0.097724        -2.6592
 146   1.0000      -0.097508        -2.6533
 147   1.0000      -0.094815        -2.5801
 148   1.0000      -0.074164        -2.0181
 149   1.0000      -0.067844        -1.8461
 150   1.0000      -0.067230        -1.8294
 151   1.0000      -0.051897        -1.4122
 152   1.0000      -0.045286        -1.2323
 153   1.0000      -0.037110        -1.0098
 154   1.0000      -0.036537        -0.9942
 155   1.0000      -0.030623        -0.8333
 156   1.0000      -0.024715        -0.6725
 157   1.0000      -0.019419        -0.5284
 158   1.0000      -0.015393        -0.4189
 159   1.0000       0.020539         0.5589
 160   1.0000       0.041615         1.1324
 161   0.0000       0.136665         3.7188
 162   0.0000       0.137422         3.7394
 163   0.0000       0.161631         4.3982
 164   0.0000       0.162253         4.4151
 165   0.0000       0.170463         4.6385

                 SPIN DOWN ORBITALS
  NO   OCC          E(Eh)            E(eV)
   0   1.0000    -196.675601     -5351.8152
   1   1.0000     -88.733465     -2414.5603
   2   1.0000     -88.733444     -2414.5598
   3   1.0000     -88.733215     -2414.5535
   4   1.0000     -88.733116     -2414.5508
   5   1.0000     -88.730119     -2414.4693
   6   1.0000     -88.729939     -2414.4644
   7   1.0000     -88.729876     -2414.4627
   8   1.0000     -88.729828     -2414.4614
   9   1.0000     -88.639706     -2412.0090
  10   1.0000     -88.639648     -2412.0074
  11   1.0000     -88.639625     -2412.0068
  12   1.0000     -88.639425     -2412.0014
  13   1.0000     -22.035847      -599.6259
  14   1.0000     -18.893640      -514.1221
  15   1.0000     -18.551939      -504.8239
  16   1.0000     -18.536053      -504.3916
  17   1.0000     -18.535855      -504.3862
  18   1.0000     -10.075772      -274.1757
  19   1.0000     -10.075652      -274.1724
  20   1.0000     -10.063982      -273.8549
  21   1.0000     -10.063919      -273.8532
  22   1.0000     -10.063399      -273.8390
  23   1.0000     -10.063361      -273.8380
  24   1.0000     -10.051819      -273.5239
  25   1.0000     -10.051282      -273.5093
  26   1.0000     -10.048480      -273.4331
  27   1.0000     -10.048369      -273.4300
  28   1.0000     -10.017782      -272.5977
  29   1.0000     -10.017535      -272.5910
  30   1.0000     -10.016943      -272.5749
  31   1.0000     -10.016741      -272.5694
  32   1.0000      -7.786865      -211.8914
  33   1.0000      -7.786842      -211.8907
  34   1.0000      -7.786650      -211.8855
  35   1.0000      -7.786549      -211.8828
  36   1.0000      -7.783353      -211.7958
  37   1.0000      -7.783228      -211.7924
  38   1.0000      -7.783141      -211.7900
  39   1.0000      -7.783123      -211.7895
  40   1.0000      -7.693924      -209.3623
  41   1.0000      -7.693916      -209.3621
  42   1.0000      -7.693880      -209.3611
  43   1.0000      -7.693713      -209.3566
  44   1.0000      -5.751854      -156.5159
  45   1.0000      -5.751839      -156.5155
  46   1.0000      -5.751644      -156.5102
  47   1.0000      -5.751540      -156.5074
  48   1.0000      -5.748446      -156.4232
  49   1.0000      -5.748431      -156.4227
  50   1.0000      -5.748303      -156.4193
  51   1.0000      -5.748218      -156.4170
  52   1.0000      -5.748180      -156.4159
  53   1.0000      -5.748122      -156.4143
  54   1.0000      -5.748089      -156.4134
  55   1.0000      -5.748076      -156.4131
  56   1.0000      -5.743874      -156.2988
  57   1.0000      -5.743740      -156.2951
  58   1.0000      -5.743664      -156.2930
  59   1.0000      -5.743648      -156.2926
  60   1.0000      -5.741665      -156.2386
  61   1.0000      -5.741628      -156.2376
  62   1.0000      -5.741450      -156.2328
  63   1.0000      -5.741348      -156.2300
  64   1.0000      -5.739178      -156.1710
  65   1.0000      -5.739043      -156.1673
  66   1.0000      -5.738945      -156.1646
  67   1.0000      -5.738932      -156.1643
  68   1.0000      -5.659260      -153.9963
  69   1.0000      -5.659229      -153.9955
  70   1.0000      -5.659219      -153.9952
  71   1.0000      -5.659025      -153.9899
  72   1.0000      -5.652843      -153.8217
  73   1.0000      -5.652828      -153.8213
  74   1.0000      -5.652800      -153.8205
  75   1.0000      -5.652635      -153.8160
  76   1.0000      -5.651218      -153.7775
  77   1.0000      -5.651210      -153.7772
  78   1.0000      -5.651161      -153.7759
  79   1.0000      -5.651004      -153.7716
  80   1.0000      -2.399209       -65.2858
  81   1.0000      -1.465746       -39.8850
  82   1.0000      -1.411381       -38.4056
  83   1.0000      -1.411225       -38.4014
  84   1.0000      -0.709269       -19.3002
  85   1.0000      -0.709257       -19.2999
  86   1.0000      -0.685459       -18.6523
  87   1.0000      -0.685276       -18.6473
  88   1.0000      -0.657519       -17.8920
  89   1.0000      -0.631268       -17.1777
  90   1.0000      -0.631021       -17.1709
  91   1.0000      -0.617137       -16.7931
  92   1.0000      -0.617020       -16.7900
  93   1.0000      -0.574291       -15.6272
  94   1.0000      -0.574124       -15.6227
  95   1.0000      -0.573320       -15.6008
  96   1.0000      -0.572387       -15.5754
  97   1.0000      -0.496859       -13.5202
  98   1.0000      -0.496266       -13.5041
  99   1.0000      -0.495611       -13.4863
 100   1.0000      -0.495222       -13.4757
 101   1.0000      -0.479854       -13.0575
 102   1.0000      -0.477302       -12.9881
 103   1.0000      -0.447270       -12.1708
 104   1.0000      -0.445139       -12.1129
 105   1.0000      -0.416253       -11.3268
 106   1.0000      -0.411166       -11.1884
 107   1.0000      -0.355388        -9.6706
 108   1.0000      -0.355091        -9.6625
 109   1.0000      -0.326733        -8.8909
 110   1.0000      -0.326347        -8.8804
 111   1.0000      -0.318768        -8.6741
 112   1.0000      -0.314320        -8.5531
 113   1.0000      -0.304181        -8.2772
 114   1.0000      -0.303389        -8.2556
 115   1.0000      -0.292601        -7.9621
 116   1.0000      -0.292122        -7.9490
 117   1.0000      -0.257812        -7.0154
 118   1.0000      -0.257630        -7.0105
 119   1.0000      -0.255840        -6.9617
 120   1.0000      -0.255506        -6.9527
 121   1.0000      -0.234646        -6.3850
 122   1.0000      -0.234196        -6.3728
 123   1.0000      -0.231218        -6.2918
 124   1.0000      -0.229947        -6.2572
 125   1.0000      -0.219545        -5.9741
 126   1.0000      -0.217904        -5.9295
 127   1.0000      -0.214026        -5.8240
 128   1.0000      -0.211573        -5.7572
 129   1.0000      -0.191083        -5.1996
 130   1.0000      -0.187113        -5.0916
 131   1.0000      -0.185597        -5.0503
 132   1.0000      -0.184162        -5.0113
 133   1.0000      -0.179033        -4.8717
 134   1.0000      -0.158584        -4.3153
 135   1.0000      -0.151324        -4.1177
 136   1.0000      -0.146558        -3.9881
 137   1.0000      -0.135037        -3.6745
 138   1.0000      -0.133951        -3.6450
 139   1.0000      -0.132468        -3.6046
 140   1.0000      -0.124144        -3.3781
 141   1.0000      -0.120348        -3.2748
 142   1.0000      -0.114577        -3.1178
 143   1.0000      -0.110769        -3.0142
 144   1.0000      -0.099329        -2.7029
 145   1.0000      -0.098087        -2.6691
 146   1.0000      -0.097496        -2.6530
 147   1.0000      -0.095203        -2.5906
 148   1.0000      -0.070290        -1.9127
 149   1.0000      -0.067838        -1.8460
 150   1.0000      -0.067227        -1.8293
 151   1.0000      -0.049278        -1.3409
 152   1.0000      -0.044376        -1.2075
 153   1.0000      -0.037184        -1.0118
 154   1.0000      -0.035968        -0.9787
 155   1.0000      -0.030877        -0.8402
 156   1.0000      -0.025863        -0.7038
 157   1.0000      -0.015660        -0.4261
 158   1.0000       0.020766         0.5651
 159   1.0000       0.040919         1.1135
 160   0.0000       0.136675         3.7191
 161   0.0000       0.137400         3.7388
 162   0.0000       0.155598         4.2340
 163   0.0000       0.161924         4.4062
 164   0.0000       0.163332         4.4445

MULLIKEN ATOMIC CHARGES AND SPIN POPULATIONS
--------------------------------------------
   0 V :    0.473101    1.216629
   1 S :   -0.290809   -0.024306
   2 S :   -0.289759   -0.025356
   3 S :   -0.289544   -0.025034
   4 S :   -0.287608   -0.025932
   5 O :   -0.468189   -0.148960
   6 C :   -0.078738    0.009033
   7 C :   -0.084520    0.008132
   8 C :   -0.081892    0.008249
   9 C :   -0.085021    0.007757
  10 S :    0.098920   -0.000482
  11 S :    0.100005   -0.000509
  12 S :    0.099799   -0.000402
  13 S :    0.099015   -0.000364
  14 C :   -0.212293    0.001417
  15 C :   -0.212517    0.001109
  16 C :   -0.193100   -0.000325
  17 C :   -0.190498   -0.000431
  18 S :    0.010073   -0.000090
  19 S :    0.010509   -0.000091
  20 S :    0.008981   -0.000044
  21 S :    0.009005   -0.000044
  22 C :   -0.300721   -0.000025
  23 C :   -0.300289   -0.000025
  24 C :   -0.157369    0.000021
  25 H :    0.142575    0.000001
  26 H :    0.113740   -0.000005
  27 H :    0.083255   -0.000003
  28 H :    0.092117   -0.000003
  29 H :    0.113274   -0.000005
  30 H :    0.142380    0.000000
  31 C :   -0.299695    0.000107
  32 C :   -0.300344    0.000105
  33 C :   -0.157329   -0.000135
  34 H :    0.140849   -0.000011
  35 H :    0.113510    0.000008
  36 H :    0.092663    0.000012
  37 H :    0.082297    0.000004
  38 H :    0.113431    0.000008
  39 H :    0.140735   -0.000011
Sum of atomic charges         :   -2.0000000

LOEWDIN ATOMIC CHARGES AND SPIN POPULATIONS
-------------------------------------------
   0 V :   -0.151690    1.169799
   1 S :    0.079435   -0.015902
   2 S :    0.079674   -0.016443
   3 S :    0.080002   -0.016519
   4 S :    0.081495   -0.016846
   5 O :   -0.320629   -0.133739
   6 C :   -0.550586    0.008667
   7 C :   -0.551990    0.008010
   8 C :   -0.551765    0.008323
   9 C :   -0.552116    0.007874
  10 S :    0.470696   -0.000853
  11 S :    0.471434   -0.000869
  12 S :    0.471236   -0.000817
  13 S :    0.470552   -0.000817
  14 C :   -0.465207    0.000057
  15 C :   -0.465224   -0.000042
  16 C :   -0.622103    0.000275
  17 C :   -0.621713    0.000104
  18 S :    0.358869   -0.000081
  19 S :    0.360393   -0.000080
  20 S :    0.359158   -0.000055
  21 S :    0.358687   -0.000056
  22 C :   -0.283382   -0.000007
  23 C :   -0.283567   -0.000008
  24 C :   -0.176222   -0.000004
  25 H :    0.062428   -0.000001
  26 H :    0.053584   -0.000003
  27 H :    0.057978   -0.000001
  28 H :    0.060272   -0.000001
  29 H :    0.053570   -0.000003
  30 H :    0.062264   -0.000001
  31 C :   -0.284154    0.000019
  32 C :   -0.284002    0.000015
  33 C :   -0.176586    0.000002
  34 H :    0.061911   -0.000001
  35 H :    0.053634    0.000003
  36 H :    0.060464    0.000002
  37 H :    0.057812   -0.000000
  38 H :    0.053582    0.000003
  39 H :    0.061806   -0.000001

  Mayer bond orders larger than 0.100000
B(  0-V ,  1-S ) :   0.7713 B(  0-V ,  2-S ) :   0.7714 B(  0-V ,  3-S ) :   0.7672
B(  0-V ,  4-S ) :   0.7724 B(  0-V ,  5-O ) :   2.1485 B(  1-S ,  8-C ) :   1.1041
B(  2-S ,  6-C ) :   1.1053 B(  3-S ,  9-C ) :   1.1077 B(  4-S ,  7-C ) :   1.1075
B(  6-C ,  7-C ) :   1.6882 B(  6-C , 10-S ) :   0.9342 B(  7-C , 11-S ) :   0.9379
B(  8-C ,  9-C ) :   1.6944 B(  8-C , 13-S ) :   0.9340 B(  9-C , 12-S ) :   0.9360
B( 10-S , 14-C ) :   1.2481 B( 11-S , 14-C ) :   1.2477 B( 12-S , 15-C ) :   1.2462
B( 13-S , 15-C ) :   1.2463 B( 14-C , 16-C ) :   1.4535 B( 15-C , 17-C ) :   1.4541
B( 16-C , 18-S ) :   1.0881 B( 16-C , 19-S ) :   1.0896 B( 17-C , 20-S ) :   1.0877
B( 17-C , 21-S ) :   1.0885 B( 18-S , 32-C ) :   0.9915 B( 19-S , 31-C ) :   0.9914
B( 20-S , 23-C ) :   0.9916 B( 21-S , 22-C ) :   0.9908 B( 22-C , 24-C ) :   0.9131
B( 22-C , 25-H ) :   0.9656 B( 22-C , 26-H ) :   0.9656 B( 23-C , 24-C ) :   0.9135
B( 23-C , 29-H ) :   0.9656 B( 23-C , 30-H ) :   0.9654 B( 24-C , 27-H ) :   0.9625
B( 24-C , 28-H ) :   0.9718 B( 31-C , 33-C ) :   0.9131 B( 31-C , 38-H ) :   0.9657
B( 31-C , 39-H ) :   0.9655 B( 32-C , 33-C ) :   0.9128 B( 32-C , 34-H ) :   0.9653
B( 32-C , 35-H ) :   0.9657 B( 33-C , 36-H ) :   0.9719 B( 33-C , 37-H ) :   0.9622

FINAL SINGLE POINT ENERGY     -6337.706989621510

DIPOLE MOMENT
-------------
                                X             Y             Z
Electronic contribution:     -3.63215     -13.31363       1.20782
Nuclear contribution   :      4.03170      14.81129      -1.36487
                        -----------------------------------------
Total Dipole Moment    :      0.39955       1.49766      -0.15705
                        -----------------------------------------
Magnitude (a.u.)       :      1.55797
Magnitude (Debye)      :      3.96005

Rotational constants in cm-1:     0.010856     0.000800     0.000779
Rotational constants in MHz :   325.469658    23.978166    23.342022

                             ****ORCA TERMINATED NORMALLY****
TOTAL RUN TIME: 0 days 1 hours 1 minutes 45 seconds 20 msec
