                         Program Version 5.0.4 -  RELEASE  -
|  1> ! nofrozencore ReducedPop printbasis
|  2> ! B3LYP TZVP
|  3>
|  4> %basis
|  5> newgto V "CP(PPP)" end
|  6> end
|  7>
|  8> %pal
|  9> nprocs 8
| 10> end
| 11>
| 12> % sym SymThresh 1e-2 end
| 13> * xyz -2 2
| 14> V 0.130336705276631 -1.0516292908550806 -0.368908063026918
| 15> S 1.8472842618727812 0.38133288448716046 -1.731321028894074
| 16> S 1.778962177264858 -0.3543471532901261 1.6583044482815146
| 17> S -1.4025183299069914 -0.39155631287488674 -1.8581958104171168
| 18> S -1.5140577527345576 -0.9927767135453204 1.271412971990035
| 19> O 0.7624186015435802 -2.5286328037777324 -0.5502238319570433
| 20> C 0.7053548465567171 -0.8286711830710091 2.9502908033964452
| 21> C -0.6049176673992019 -1.1038063331185834 2.79190114902491
| 22> C 0.8205192240936082 0.7299643200283122 -3.0887989984438007
| 23> C -0.4832794692353935 0.40411641638048884 -3.145535474814002
| 24> S 1.3301349423738626 -0.9781559678034084 4.6367911319256825
| 25> S -1.5490843880099476 -1.4758521150245436 4.28118891816227
| 26> S -1.3866661843093884 0.8947954369765437 -4.613342096370027
| 27> S 1.4828018076608336 1.581453225924007 -4.517249144187456
| 28> C -0.16446517622833992 -1.3641828451241058 5.424685877519479
| 29> C 0.008490186178289777 1.70341399168549 -5.426199048539388
| 30> C -0.1694291605301312 -1.5406281790845875 6.783210863930632
| 31> C 0.0327103232914677 2.37159839967993 -6.623251702874334
| 32> S 1.2830438401187727 -1.4100904062734818 7.877041247492217
| 33> S -1.6892373476526132 -1.9445792673970799 7.5379298635825736
| 34> S 1.487345062704998 3.1492903642907666 -7.397685438093213
| 35> S -1.4634294227247273 2.56417868863106 -7.491987443467578
| 36> C -1.7578771123067718 4.386895538695703 -7.490124640145163
| 37> C 0.7478489505980185 4.866312311586768 -7.332294275483048
| 38> C -0.5631062514106422 5.099921708721272 -8.10313040361333
| 39> H -1.9641652599018453 4.739395022544889 -6.473311991874673
| 40> H -2.660932812770468 4.524336203640897 -8.098868070264494
| 41> H -0.747621667923642 6.1842377245921485 -8.112687200144743
| 42> H -0.44424942006727797 4.778865599422761 -9.142758180206048
| 43> H 1.5266086841158497 5.540570785716696 -7.714718492828415
| 44> H 0.5978716440851166 5.0915286830698 -6.269588579623583
| 45> C -1.35656372952625 -3.6225466182472172 8.22603372868848
| 46> C 1.178593341100443 -3.1876893693879267 8.426323864281853
| 47> C -0.12567510273806765 -3.6057905631481764 9.12494373964565
| 48> H 1.3416710079088148 -3.7989156562287465 7.53329456718958
| 49> H 2.0249044683016 -3.3456270027644814 9.105868711826092
| 50> H -0.3110556198292195 -2.940252221481721 9.974053339905169
| 51> H 0.030699451973656085 -4.61575627334523 9.530273722085722
| 52> H -2.2534171411991046 -3.879472006488578 8.802310312569677
| 53> H -1.2495570616003575 -4.344192296268236 7.408730822476234
| 54> *
| 55>
| 56> % eprnmr
| 57> gtensor true
| 58> Nuclei = all H {aiso,adip,aorb,fgrad,rho}
| 59> Nuclei = all V {aiso,adip,aorb,fgrad,rho}
| 60> end
| 61>
| 62>                          ****END OF INPUT****

CARTESIAN COORDINATES (ANGSTROEM)
---------------------------------
  V      0.129619   -1.049329   -0.365926
  S      1.846567    0.383633   -1.728339
  S      1.778245   -0.352047    1.661286
  S     -1.403236   -0.389256   -1.855214
  S     -1.514775   -0.990477    1.274395
  O      0.761701   -2.526333   -0.547242
  C      0.704637   -0.826371    2.953273
  C     -0.605635   -1.101506    2.794883
  C      0.819802    0.732265   -3.085817
  C     -0.483997    0.406417   -3.142554
  S      1.329418   -0.975856    4.639773
  S     -1.549802   -1.473552    4.284171
  S     -1.387384    0.897096   -4.610360
  S      1.482084    1.583753   -4.514267
  C     -0.165183   -1.361883    5.427668
  C      0.007773    1.705714   -5.423217
  C     -0.170147   -1.538328    6.786193
  C      0.031993    2.373899   -6.620270
  S      1.282326   -1.407790    7.880023
  S     -1.689955   -1.942279    7.540912
  S      1.486628    3.151591   -7.394703
  S     -1.464147    2.566479   -7.489005
  C     -1.758595    4.389196   -7.487143
  C      0.747132    4.868613   -7.329312
  C     -0.563824    5.102222   -8.100148
  H     -1.964883    4.741695   -6.470330
  H     -2.661650    4.526636   -8.095886
  H     -0.748339    6.186538   -8.109705
  H     -0.444967    4.781166   -9.139776
  H      1.525891    5.542871   -7.711737
  H      0.597154    5.093829   -6.266607
  C     -1.357281   -3.620246    8.229016
  C      1.177876   -3.185389    8.429306
  C     -0.126393   -3.603490    9.127926
  H      1.340954   -3.796615    7.536277
  H      2.024187   -3.343327    9.108851
  H     -0.311773   -2.937952    9.977035
  H      0.029982   -4.613456    9.533256
  H     -2.254135   -3.877172    8.805292
  H     -1.250274   -4.341892    7.411713

 Total Charge           Charge          ....   -2
 Multiplicity           Mult            ....    2
 Number of Electrons    NEL             ....  321
 Basis Dimension        Dim             ....  681

ORBITAL ENERGIES
----------------
                 SPIN UP ORBITALS
  NO   OCC          E(Eh)            E(eV)
   0   1.0000    -196.672986     -5351.7440
   1   1.0000     -88.740579     -2414.7539
   2   1.0000     -88.737205     -2414.6621
   3   1.0000     -88.736821     -2414.6517
   4   1.0000     -88.731525     -2414.5076
   5   1.0000     -88.729835     -2414.4616
   6   1.0000     -88.728216     -2414.4175
   7   1.0000     -88.726445     -2414.3693
   8   1.0000     -88.724464     -2414.3154
   9   1.0000     -88.648469     -2412.2475
  10   1.0000     -88.644173     -2412.1306
  11   1.0000     -88.636173     -2411.9129
  12   1.0000     -88.629649     -2411.7354
  13   1.0000     -22.048636      -599.9739
  14   1.0000     -18.883200      -513.8380
  15   1.0000     -18.554772      -504.9010
  16   1.0000     -18.550164      -504.7756
  17   1.0000     -18.549840      -504.7668
  18   1.0000     -10.079202      -274.2690
  19   1.0000     -10.073841      -274.1231
  20   1.0000     -10.067454      -273.9494
  21   1.0000     -10.064470      -273.8682
  22   1.0000     -10.063445      -273.8402
  23   1.0000     -10.060655      -273.7643
  24   1.0000     -10.052293      -273.5368
  25   1.0000     -10.050873      -273.4982
  26   1.0000     -10.049941      -273.4728
  27   1.0000     -10.046587      -273.3815
  28   1.0000     -10.021339      -272.6945
  29   1.0000     -10.018997      -272.6308
  30   1.0000     -10.017743      -272.5967
  31   1.0000     -10.014757      -272.5154
  32   1.0000      -7.792859      -212.0545
  33   1.0000      -7.789594      -211.9656
  34   1.0000      -7.789025      -211.9501
  35   1.0000      -7.784202      -211.8189
  36   1.0000      -7.783739      -211.8063
  37   1.0000      -7.782792      -211.7805
  38   1.0000      -7.780910      -211.7293
  39   1.0000      -7.778721      -211.6697
  40   1.0000      -7.704693      -209.6553
  41   1.0000      -7.699129      -209.5039
  42   1.0000      -7.690295      -209.2636
  43   1.0000      -7.683341      -209.0743
  44   1.0000      -5.757840      -156.6788
  45   1.0000      -5.754778      -156.5955
  46   1.0000      -5.754556      -156.5894
  47   1.0000      -5.754265      -156.5815
  48   1.0000      -5.751504      -156.5064
  49   1.0000      -5.749603      -156.4546
  50   1.0000      -5.748954      -156.4370
  51   1.0000      -5.748893      -156.4353
  52   1.0000      -5.747802      -156.4056
  53   1.0000      -5.747557      -156.3990
  54   1.0000      -5.745909      -156.3541
  55   1.0000      -5.744700      -156.3212
  56   1.0000      -5.744637      -156.3195
  57   1.0000      -5.744314      -156.3107
  58   1.0000      -5.744293      -156.3102
  59   1.0000      -5.744046      -156.3034
  60   1.0000      -5.743414      -156.2862
  61   1.0000      -5.742197      -156.2531
  62   1.0000      -5.740139      -156.1971
  63   1.0000      -5.739434      -156.1779
  64   1.0000      -5.739167      -156.1707
  65   1.0000      -5.737645      -156.1293
  66   1.0000      -5.735771      -156.0783
  67   1.0000      -5.734660      -156.0480
  68   1.0000      -5.669782      -154.2826
  69   1.0000      -5.664355      -154.1349
  70   1.0000      -5.662911      -154.0956
  71   1.0000      -5.662237      -154.0773
  72   1.0000      -5.657577      -153.9505
  73   1.0000      -5.656655      -153.9254
  74   1.0000      -5.655584      -153.8963
  75   1.0000      -5.649040      -153.7182
  76   1.0000      -5.648696      -153.7088
  77   1.0000      -5.647557      -153.6778
  78   1.0000      -5.642195      -153.5319
  79   1.0000      -5.640513      -153.4862
  80   1.0000      -2.442748       -66.4706
  81   1.0000      -1.481153       -40.3042
  82   1.0000      -1.473735       -40.1024
  83   1.0000      -1.472700       -40.0742
  84   1.0000      -0.712091       -19.3770
  85   1.0000      -0.708033       -19.2665
  86   1.0000      -0.688223       -18.7275
  87   1.0000      -0.683070       -18.5873
  88   1.0000      -0.641968       -17.4688
  89   1.0000      -0.634531       -17.2665
  90   1.0000      -0.629040       -17.1171
  91   1.0000      -0.616070       -16.7641
  92   1.0000      -0.615220       -16.7410
  93   1.0000      -0.581619       -15.8266
  94   1.0000      -0.574776       -15.6405
  95   1.0000      -0.573405       -15.6031
  96   1.0000      -0.566715       -15.4211
  97   1.0000      -0.501416       -13.6442
  98   1.0000      -0.497909       -13.5488
  99   1.0000      -0.497012       -13.5244
 100   1.0000      -0.491899       -13.3852
 101   1.0000      -0.480335       -13.0706
 102   1.0000      -0.474420       -12.9096
 103   1.0000      -0.447996       -12.1906
 104   1.0000      -0.442807       -12.0494
 105   1.0000      -0.417896       -11.3715
 106   1.0000      -0.410000       -11.1567
 107   1.0000      -0.356913        -9.7121
 108   1.0000      -0.352714        -9.5978
 109   1.0000      -0.329833        -8.9752
 110   1.0000      -0.325241        -8.8503
 111   1.0000      -0.321454        -8.7472
 112   1.0000      -0.313913        -8.5420
 113   1.0000      -0.305637        -8.3168
 114   1.0000      -0.301581        -8.2064
 115   1.0000      -0.290614        -7.9080
 116   1.0000      -0.289459        -7.8766
 117   1.0000      -0.259777        -7.0689
 118   1.0000      -0.257150        -6.9974
 119   1.0000      -0.255286        -6.9467
 120   1.0000      -0.253439        -6.8964
 121   1.0000      -0.238799        -6.4981
 122   1.0000      -0.234113        -6.3705
 123   1.0000      -0.229609        -6.2480
 124   1.0000      -0.226693        -6.1686
 125   1.0000      -0.222410        -6.0521
 126   1.0000      -0.216065        -5.8794
 127   1.0000      -0.214785        -5.8446
 128   1.0000      -0.211212        -5.7474
 129   1.0000      -0.196080        -5.3356
 130   1.0000      -0.191247        -5.2041
 131   1.0000      -0.186718        -5.0809
 132   1.0000      -0.181238        -4.9317
 133   1.0000      -0.177026        -4.8171
 134   1.0000      -0.161017        -4.3815
 135   1.0000      -0.152155        -4.1403
 136   1.0000      -0.147135        -4.0038
 137   1.0000      -0.136542        -3.7155
 138   1.0000      -0.134123        -3.6497
 139   1.0000      -0.131817        -3.5869
 140   1.0000      -0.121366        -3.3025
 141   1.0000      -0.118687        -3.2296
 142   1.0000      -0.105335        -2.8663
 143   1.0000      -0.103184        -2.8078
 144   1.0000      -0.101523        -2.7626
 145   1.0000      -0.098433        -2.6785
 146   1.0000      -0.094638        -2.5752
 147   1.0000      -0.091817        -2.4985
 148   1.0000      -0.078079        -2.1246
 149   1.0000      -0.067948        -1.8490
 150   1.0000      -0.066262        -1.8031
 151   1.0000      -0.059911        -1.6302
 152   1.0000      -0.041901        -1.1402
 153   1.0000      -0.041276        -1.1232
 154   1.0000      -0.035784        -0.9737
 155   1.0000      -0.029795        -0.8108
 156   1.0000      -0.023506        -0.6396
 157   1.0000      -0.015477        -0.4212
 158   1.0000      -0.009087        -0.2473
 159   1.0000       0.020584         0.5601
 160   1.0000       0.041651         1.1334
 161   0.0000       0.133856         3.6424
 162   0.0000       0.137863         3.7514
 163   0.0000       0.158124         4.3028
 164   0.0000       0.159278         4.3342
 165   0.0000       0.162341         4.4175

                 SPIN DOWN ORBITALS
  NO   OCC          E(Eh)            E(eV)
   0   1.0000    -196.673110     -5351.7474
   1   1.0000     -88.740579     -2414.7539
   2   1.0000     -88.737206     -2414.6621
   3   1.0000     -88.736822     -2414.6517
   4   1.0000     -88.731533     -2414.5078
   5   1.0000     -88.729844     -2414.4618
   6   1.0000     -88.728217     -2414.4175
   7   1.0000     -88.726445     -2414.3693
   8   1.0000     -88.724474     -2414.3157
   9   1.0000     -88.648593     -2412.2509
  10   1.0000     -88.644289     -2412.1337
  11   1.0000     -88.636320     -2411.9169
  12   1.0000     -88.629803     -2411.7395
  13   1.0000     -22.033910      -599.5732
  14   1.0000     -18.887108      -513.9443
  15   1.0000     -18.549410      -504.7551
  16   1.0000     -18.534453      -504.3481
  17   1.0000     -18.533991      -504.3355
  18   1.0000     -10.079197      -274.2689
  19   1.0000     -10.073841      -274.1232
  20   1.0000     -10.067454      -273.9494
  21   1.0000     -10.064469      -273.8681
  22   1.0000     -10.063446      -273.8403
  23   1.0000     -10.060655      -273.7643
  24   1.0000     -10.052293      -273.5368
  25   1.0000     -10.050870      -273.4981
  26   1.0000     -10.049941      -273.4728
  27   1.0000     -10.046581      -273.3814
  28   1.0000     -10.021279      -272.6929
  29   1.0000     -10.018395      -272.6144
  30   1.0000     -10.017677      -272.5949
  31   1.0000     -10.014354      -272.5044
  32   1.0000      -7.792860      -212.0545
  33   1.0000      -7.789595      -211.9656
  34   1.0000      -7.789027      -211.9502
  35   1.0000      -7.784212      -211.8192
  36   1.0000      -7.783749      -211.8066
  37   1.0000      -7.782792      -211.7805
  38   1.0000      -7.780910      -211.7293
  39   1.0000      -7.778732      -211.6701
  40   1.0000      -7.704800      -209.6583
  41   1.0000      -7.699237      -209.5069
  42   1.0000      -7.690433      -209.2673
  43   1.0000      -7.683485      -209.0783
  44   1.0000      -5.757840      -156.6788
  45   1.0000      -5.754779      -156.5955
  46   1.0000      -5.754557      -156.5895
  47   1.0000      -5.754267      -156.5816
  48   1.0000      -5.751505      -156.5064
  49   1.0000      -5.749603      -156.4547
  50   1.0000      -5.748963      -156.4372
  51   1.0000      -5.748907      -156.4357
  52   1.0000      -5.747802      -156.4056
  53   1.0000      -5.747557      -156.3990
  54   1.0000      -5.745910      -156.3542
  55   1.0000      -5.744697      -156.3212
  56   1.0000      -5.744648      -156.3198
  57   1.0000      -5.744327      -156.3111
  58   1.0000      -5.744294      -156.3102
  59   1.0000      -5.744046      -156.3034
  60   1.0000      -5.743430      -156.2867
  61   1.0000      -5.742198      -156.2532
  62   1.0000      -5.740148      -156.1974
  63   1.0000      -5.739439      -156.1781
  64   1.0000      -5.739179      -156.1710
  65   1.0000      -5.737646      -156.1293
  66   1.0000      -5.735772      -156.0783
  67   1.0000      -5.734671      -156.0483
  68   1.0000      -5.669985      -154.2881
  69   1.0000      -5.664512      -154.1392
  70   1.0000      -5.663123      -154.1014
  71   1.0000      -5.662374      -154.0810
  72   1.0000      -5.657884      -153.9589
  73   1.0000      -5.656696      -153.9265
  74   1.0000      -5.655706      -153.8996
  75   1.0000      -5.649450      -153.7294
  76   1.0000      -5.648815      -153.7121
  77   1.0000      -5.647668      -153.6809
  78   1.0000      -5.642636      -153.5439
  79   1.0000      -5.640622      -153.4891
  80   1.0000      -2.398366       -65.2628
  81   1.0000      -1.461261       -39.7629
  82   1.0000      -1.412922       -38.4476
  83   1.0000      -1.411786       -38.4167
  84   1.0000      -0.712054       -19.3760
  85   1.0000      -0.708017       -19.2661
  86   1.0000      -0.688141       -18.7253
  87   1.0000      -0.683025       -18.5860
  88   1.0000      -0.650619       -17.7042
  89   1.0000      -0.634448       -17.2642
  90   1.0000      -0.628974       -17.1153
  91   1.0000      -0.616071       -16.7641
  92   1.0000      -0.615220       -16.7410
  93   1.0000      -0.581326       -15.8187
  94   1.0000      -0.574628       -15.6364
  95   1.0000      -0.573416       -15.6034
  96   1.0000      -0.566775       -15.4227
  97   1.0000      -0.501392       -13.6436
  98   1.0000      -0.497782       -13.5453
  99   1.0000      -0.497028       -13.5248
 100   1.0000      -0.491846       -13.3838
 101   1.0000      -0.480448       -13.0737
 102   1.0000      -0.474631       -12.9154
 103   1.0000      -0.448021       -12.1913
 104   1.0000      -0.442879       -12.0514
 105   1.0000      -0.417799       -11.3689
 106   1.0000      -0.410059       -11.1583
 107   1.0000      -0.356897        -9.7117
 108   1.0000      -0.352706        -9.5976
 109   1.0000      -0.329826        -8.9750
 110   1.0000      -0.325237        -8.8501
 111   1.0000      -0.321158        -8.7392
 112   1.0000      -0.313873        -8.5409
 113   1.0000      -0.305612        -8.3161
 114   1.0000      -0.301575        -8.2063
 115   1.0000      -0.290584        -7.9072
 116   1.0000      -0.289447        -7.8762
 117   1.0000      -0.259537        -7.0624
 118   1.0000      -0.257087        -6.9957
 119   1.0000      -0.255186        -6.9440
 120   1.0000      -0.253441        -6.8965
 121   1.0000      -0.238793        -6.4979
 122   1.0000      -0.234110        -6.3705
 123   1.0000      -0.229259        -6.2385
 124   1.0000      -0.226621        -6.1667
 125   1.0000      -0.222051        -6.0423
 126   1.0000      -0.215760        -5.8711
 127   1.0000      -0.214654        -5.8410
 128   1.0000      -0.210991        -5.7414
 129   1.0000      -0.193831        -5.2744
 130   1.0000      -0.191107        -5.2003
 131   1.0000      -0.186641        -5.0788
 132   1.0000      -0.181058        -4.9268
 133   1.0000      -0.176767        -4.8101
 134   1.0000      -0.160105        -4.3567
 135   1.0000      -0.152023        -4.1368
 136   1.0000      -0.147082        -4.0023
 137   1.0000      -0.135933        -3.6989
 138   1.0000      -0.133886        -3.6432
 139   1.0000      -0.131469        -3.5775
 140   1.0000      -0.120969        -3.2917
 141   1.0000      -0.117891        -3.2080
 142   1.0000      -0.106451        -2.8967
 143   1.0000      -0.103852        -2.8260
 144   1.0000      -0.101824        -2.7708
 145   1.0000      -0.098433        -2.6785
 146   1.0000      -0.095403        -2.5960
 147   1.0000      -0.092066        -2.5052
 148   1.0000      -0.072482        -1.9723
 149   1.0000      -0.067926        -1.8484
 150   1.0000      -0.066266        -1.8032
 151   1.0000      -0.057890        -1.5753
 152   1.0000      -0.042364        -1.1528
 153   1.0000      -0.038355        -1.0437
 154   1.0000      -0.034234        -0.9316
 155   1.0000      -0.029387        -0.7997
 156   1.0000      -0.023977        -0.6524
 157   1.0000      -0.013266        -0.3610
 158   1.0000       0.020994         0.5713
 159   1.0000       0.040506         1.1022
 160   0.0000       0.133863         3.6426
 161   0.0000       0.137863         3.7514
 162   0.0000       0.151582         4.1248
 163   0.0000       0.159067         4.3284
 164   0.0000       0.162546         4.4231

MULLIKEN ATOMIC CHARGES AND SPIN POPULATIONS
--------------------------------------------
   0 V :    0.470657    1.198293
   1 S :   -0.290731   -0.027047
   2 S :   -0.314245   -0.028306
   3 S :   -0.254393   -0.013153
   4 S :   -0.276195   -0.017558
   5 O :   -0.480934   -0.150925
   6 C :   -0.087551    0.003615
   7 C :   -0.079765    0.013087
   8 C :   -0.095993    0.001184
   9 C :   -0.079289    0.019770
  10 S :    0.105569   -0.000966
  11 S :    0.091845    0.000353
  12 S :    0.097726    0.001411
  13 S :    0.111929   -0.000652
  14 C :   -0.212910    0.000558
  15 C :   -0.196501    0.000967
  16 C :   -0.188541    0.000130
  17 C :   -0.197686   -0.000473
  18 S :    0.009531   -0.000111
  19 S :    0.004097   -0.000120
  20 S :    0.010448   -0.000061
  21 S :    0.001462   -0.000054
  22 C :   -0.286722   -0.000057
  23 C :   -0.330354   -0.000014
  24 C :   -0.153621    0.000020
  25 H :    0.137025    0.000002
  26 H :    0.112014   -0.000019
  27 H :    0.083751   -0.000005
  28 H :    0.095480   -0.000007
  29 H :    0.117006   -0.000003
  30 H :    0.152323    0.000003
  31 C :   -0.285543    0.000153
  32 C :   -0.316049    0.000139
  33 C :   -0.156113   -0.000185
  34 H :    0.149956   -0.000011
  35 H :    0.114419    0.000018
  36 H :    0.092128    0.000018
  37 H :    0.081621    0.000009
  38 H :    0.108891    0.000013
  39 H :    0.135261   -0.000016
Sum of atomic charges         :   -2.0000000

LOEWDIN ATOMIC CHARGES AND SPIN POPULATIONS
-------------------------------------------
   0 V :   -0.176610    1.150118
   1 S :    0.057388   -0.019921
   2 S :    0.023585   -0.021793
   3 S :    0.163416   -0.003000
   4 S :    0.124027   -0.006637
   5 O :   -0.343306   -0.136525
   6 C :   -0.539990    0.002056
   7 C :   -0.556736    0.014591
   8 C :   -0.548535    0.001406
   9 C :   -0.560767    0.022254
  10 S :    0.481784   -0.001003
  11 S :    0.455829   -0.000738
  12 S :    0.461711    0.000121
  13 S :    0.489655   -0.000827
  14 C :   -0.467860   -0.000064
  15 C :   -0.462094    0.000018
  16 C :   -0.623535    0.000252
  17 C :   -0.623743   -0.000016
  18 S :    0.339926   -0.000086
  19 S :    0.377271   -0.000091
  20 S :    0.337852   -0.000059
  21 S :    0.376585   -0.000055
  22 C :   -0.286187   -0.000055
  23 C :   -0.280828    0.000003
  24 C :   -0.177845   -0.000002
  25 H :    0.060134   -0.000003
  26 H :    0.055932   -0.000008
  27 H :    0.057691   -0.000003
  28 H :    0.060873   -0.000003
  29 H :    0.053470   -0.000001
  30 H :    0.067056    0.000000
  31 C :   -0.287310    0.000020
  32 C :   -0.281378    0.000037
  33 C :   -0.177336    0.000004
  34 H :    0.065549    0.000000
  35 H :    0.052718    0.000005
  36 H :    0.060329    0.000003
  37 H :    0.057309    0.000001
  38 H :    0.054538    0.000006
  39 H :    0.059431   -0.000002

  Mayer bond orders larger than 0.100000
B(  0-V ,  1-S ) :   0.6670 B(  0-V ,  2-S ) :   0.6154 B(  0-V ,  3-S ) :   0.9446
B(  0-V ,  4-S ) :   0.8928 B(  0-V ,  5-O ) :   2.1194 B(  1-S ,  8-C ) :   1.2008
B(  2-S ,  6-C ) :   1.2043 B(  3-S ,  9-C ) :   1.0102 B(  4-S ,  7-C ) :   1.0203
B(  6-C ,  7-C ) :   1.6858 B(  6-C , 10-S ) :   0.9355 B(  7-C , 11-S ) :   0.9249
B(  8-C ,  9-C ) :   1.6862 B(  8-C , 13-S ) :   0.9506 B(  9-C , 12-S ) :   0.9294
B( 10-S , 14-C ) :   1.2592 B( 11-S , 14-C ) :   1.2359 B( 12-S , 15-C ) :   1.2281
B( 13-S , 15-C ) :   1.2496 B( 14-C , 16-C ) :   1.4319 B( 15-C , 17-C ) :   1.4359
B( 16-C , 18-S ) :   1.0760 B( 16-C , 19-S ) :   1.0949 B( 17-C , 20-S ) :   1.0788
B( 17-C , 21-S ) :   1.1086 B( 18-S , 32-C ) :   0.9974 B( 19-S , 31-C ) :   0.9820
B( 20-S , 23-C ) :   0.9965 B( 21-S , 22-C ) :   0.9727 B( 22-C , 24-C ) :   0.9132
B( 22-C , 25-H ) :   0.9588 B( 22-C , 26-H ) :   0.9681 B( 23-C , 24-C ) :   0.9023
B( 23-C , 29-H ) :   0.9639 B( 23-C , 30-H ) :   0.9713 B( 24-C , 27-H ) :   0.9621
B( 24-C , 28-H ) :   0.9726 B( 31-C , 33-C ) :   0.9183 B( 31-C , 38-H ) :   0.9668
B( 31-C , 39-H ) :   0.9599 B( 32-C , 33-C ) :   0.9076 B( 32-C , 34-H ) :   0.9712
B( 32-C , 35-H ) :   0.9637 B( 33-C , 36-H ) :   0.9716 B( 33-C , 37-H ) :   0.9621

FINAL SINGLE POINT ENERGY     -6337.671530897241

DIPOLE MOMENT
-------------
                                X             Y             Z
Electronic contribution:      3.55804     -10.92371      -7.47583
Nuclear contribution   :     -4.45698      12.25388       7.86448
                        -----------------------------------------
Total Dipole Moment    :     -0.89894       1.33017       0.38864
                        -----------------------------------------
Magnitude (a.u.)       :      1.65182
Magnitude (Debye)      :      4.19858

Rotational constants in cm-1:     0.010764     0.000804     0.000783
Rotational constants in MHz :   322.684186    24.113970    23.486279

                             ****ORCA TERMINATED NORMALLY****
TOTAL RUN TIME: 0 days 1 hours 2 minutes 15 seconds 533 msec
