                         Program Version 5.0.4 -  RELEASE  -
|  1> ! nofrozencore ReducedPop printbasis
|  2> ! B3LYP TZVP
|  3>
|  4> %basis
|  5> newgto V "CP(PPP)" end
|  6> end
|  7>
|  8> %pal
|  9> nprocs 6
| 10> end
| 11>
| 12> % sym SymThresh 1e-2 end
| 13> * xyz -2 2
| 14> V 0.04025390801344485 0.7714733119300875 -0.8014789899917942
| 15> S -2.408281866534223 0.3929959396287625 -0.6377223428011143
| 16> S -0.1622375143502844 1.9333596418693728 1.3590713189226569
| 17> S 0.11573119129453244 -1.384838814856189 -1.9997030958667974
| 18> S 2.281427805935346 0.06847762502347997 0.00026389804355311634
| 19> O 0.2624992579873513 1.9182599612854816 -1.8788868895215887
| 20> C 1.3036606299751237 2.271081891247324 2.0412781840276795
| 21> C 2.154759332436843 1.4487547258754536 1.355379003925791
| 22> C -2.316828478837664 -1.1134567770905428 -1.7782769704739174
| 23> C -1.4109976437742924 -1.9262127812635566 -2.3805433674869922
| 24> S 1.8654500206897802 3.1147633669576473 3.1042771452278806
| 25> S 4.165134319630985 1.5690611524813127 2.0823070165566704
| 26> S -1.9407627799878298 -3.115059383741529 -3.209806159427662
| 27> S -4.271294130917695 -1.6792983884417336 -2.1169941737820257
| 28> C 3.708950337321504 2.697322728322102 3.2151394745660267
| 29> C -3.7783877108096373 -3.0157900796499693 -3.0072332860331157
| 30> C 4.501758482676098 3.3207592853212984 4.1476424274650485
| 31> C -4.590551546560531 -3.968136265790602 -3.5654160551892295
| 32> S 4.001244443291023 4.562996153036836 5.304174553483486
| 33> S 6.210069187721248 2.8455254303502815 4.165445329996062
| 34> S -6.35538967218203 -3.81134804993628 -3.3242421553140336
| 35> S -4.05199377564681 -5.391165635189297 -4.491432060262683
| 36> C -4.6714909904009065 -6.705216385002241 -3.3508973069241654
| 37> C -6.6371571283579565 -5.372731981509599 -2.3618760991925645
| 38> C -6.177721349266109 -6.636820120393961 -3.092695706492572
| 39> H -4.110651794161425 -6.636061148924943 -2.4162186560898027
| 40> H -4.41351439226637 -7.650862796163232 -3.8345797160091646
| 41> H -6.458687127342563 -7.506997802285358 -2.4829792149573606
| 42> H -6.711562355822152 -6.720487328843606 -4.04454754356832
| 43> H -7.713080850555055 -5.4110973322081 -2.1746309446589445
| 44> H -6.126601813975337 -5.2735766322175905 -1.4013099118684196
| 45> C 6.955583748977314 4.48915035883617 3.725002650646142
| 46> C 5.061150874617257 5.94374742848073 4.685790382403449
| 47> C 6.557296308310726 5.617643803276508 4.681313809066058
| 48> H 4.717751582014916 6.216724904697001 3.685473172277178
| 49> H 4.8596936263658534 6.7822758326078345 5.357310781844169
| 50> H 6.874585202392857 5.363896992995688 5.697709240636097
| 51> H 7.101724008088437 6.525581728243519 4.386229947388826
| 52> H 8.037902792763969 4.339150767963615 3.7362675360341835
| 53> H 6.653598880139703 4.727268539645293 2.7024273172846898
| 54> *
| 55>
| 56> % eprnmr
| 57> gtensor true
| 58> Nuclei = all H {aiso,adip,aorb,fgrad,rho}
| 59> Nuclei = all V {aiso,adip,aorb,fgrad,rho}
| 60> end
| 61>
| 62>                          ****END OF INPUT****

CARTESIAN COORDINATES (ANGSTROEM)
---------------------------------
  V      0.041443    0.770535   -0.797957
  S     -2.407093    0.392058   -0.634201
  S     -0.161049    1.932421    1.362593
  S      0.116920   -1.385777   -1.996181
  S      2.282617    0.067539    0.003786
  O      0.263688    1.917322   -1.875365
  C      1.304850    2.270143    2.044800
  C      2.155948    1.447816    1.358901
  C     -2.315640   -1.114395   -1.774755
  C     -1.409809   -1.927151   -2.377022
  S      1.866639    3.113825    3.107799
  S      4.166323    1.568123    2.085829
  S     -1.939574   -3.115998   -3.206284
  S     -4.270105   -1.680237   -2.113472
  C      3.710139    2.696384    3.218661
  C     -3.777199   -3.016728   -3.003711
  C      4.502947    3.319821    4.151164
  C     -4.589363   -3.969075   -3.561894
  S      4.002433    4.562058    5.307696
  S      6.211258    2.844587    4.168967
  S     -6.354201   -3.812286   -3.320720
  S     -4.050805   -5.392104   -4.487910
  C     -4.670302   -6.706155   -3.347375
  C     -6.635968   -5.373670   -2.358354
  C     -6.176532   -6.637759   -3.089174
  H     -4.109463   -6.637000   -2.412697
  H     -4.412325   -7.651801   -3.831058
  H     -6.457498   -7.507936   -2.479457
  H     -6.710373   -6.721426   -4.041026
  H     -7.711892   -5.412036   -2.171109
  H     -6.125413   -5.274515   -1.397788
  C      6.956773    4.488212    3.728524
  C      5.062340    5.942809    4.689312
  C      6.558485    5.616705    4.684836
  H      4.718940    6.215786    3.688995
  H      4.860883    6.781337    5.360833
  H      6.875774    5.362959    5.701231
  H      7.102913    6.524643    4.389752
  H      8.039092    4.338212    3.739789
  H      6.654788    4.726330    2.705949

 Total Charge           Charge          ....   -2
 Multiplicity           Mult            ....    2
 Number of Electrons    NEL             ....  321
 Basis Dimension        Dim             ....  681

ORBITAL ENERGIES
----------------
                 SPIN UP ORBITALS
  NO   OCC          E(Eh)            E(eV)
   0   1.0000    -196.683369     -5352.0266
   1   1.0000     -88.732511     -2414.5344
   2   1.0000     -88.730046     -2414.4673
   3   1.0000     -88.729937     -2414.4643
   4   1.0000     -88.726380     -2414.3675
   5   1.0000     -88.725239     -2414.3365
   6   1.0000     -88.718509     -2414.1534
   7   1.0000     -88.717532     -2414.1268
   8   1.0000     -88.708245     -2413.8741
   9   1.0000     -88.657099     -2412.4823
  10   1.0000     -88.654994     -2412.4250
  11   1.0000     -88.648973     -2412.2612
  12   1.0000     -88.644269     -2412.1332
  13   1.0000     -22.058364      -600.2386
  14   1.0000     -18.898192      -514.2459
  15   1.0000     -18.564827      -505.1746
  16   1.0000     -18.559670      -505.0343
  17   1.0000     -18.559560      -505.0313
  18   1.0000     -10.074600      -274.1438
  19   1.0000     -10.072274      -274.0805
  20   1.0000     -10.061638      -273.7911
  21   1.0000     -10.061492      -273.7871
  22   1.0000     -10.059680      -273.7378
  23   1.0000     -10.059002      -273.7193
  24   1.0000     -10.049528      -273.4616
  25   1.0000     -10.047710      -273.4121
  26   1.0000     -10.046315      -273.3741
  27   1.0000     -10.042282      -273.2644
  28   1.0000     -10.037700      -273.1397
  29   1.0000     -10.034187      -273.0441
  30   1.0000     -10.019176      -272.6356
  31   1.0000     -10.017605      -272.5929
  32   1.0000      -7.785842      -211.8635
  33   1.0000      -7.784467      -211.8261
  34   1.0000      -7.783513      -211.8001
  35   1.0000      -7.783385      -211.7967
  36   1.0000      -7.781142      -211.7356
  37   1.0000      -7.780110      -211.7076
  38   1.0000      -7.770912      -211.4573
  39   1.0000      -7.762121      -211.2181
  40   1.0000      -7.707500      -209.7317
  41   1.0000      -7.706536      -209.7055
  42   1.0000      -7.706129      -209.6944
  43   1.0000      -7.701513      -209.5688
  44   1.0000      -5.750881      -156.4894
  45   1.0000      -5.749023      -156.4389
  46   1.0000      -5.748550      -156.4260
  47   1.0000      -5.748357      -156.4208
  48   1.0000      -5.747434      -156.3956
  49   1.0000      -5.745281      -156.3370
  50   1.0000      -5.745086      -156.3317
  51   1.0000      -5.745082      -156.3316
  52   1.0000      -5.744944      -156.3279
  53   1.0000      -5.744330      -156.3112
  54   1.0000      -5.741619      -156.2374
  55   1.0000      -5.740703      -156.2125
  56   1.0000      -5.740597      -156.2096
  57   1.0000      -5.739956      -156.1921
  58   1.0000      -5.738266      -156.1462
  59   1.0000      -5.738206      -156.1445
  60   1.0000      -5.736520      -156.0986
  61   1.0000      -5.734949      -156.0559
  62   1.0000      -5.734914      -156.0549
  63   1.0000      -5.731629      -155.9655
  64   1.0000      -5.727439      -155.8515
  65   1.0000      -5.725831      -155.8078
  66   1.0000      -5.722698      -155.7225
  67   1.0000      -5.719031      -155.6227
  68   1.0000      -5.674002      -154.3974
  69   1.0000      -5.672239      -154.3495
  70   1.0000      -5.672126      -154.3464
  71   1.0000      -5.666866      -154.2033
  72   1.0000      -5.666191      -154.1849
  73   1.0000      -5.664921      -154.1503
  74   1.0000      -5.664818      -154.1475
  75   1.0000      -5.664272      -154.1327
  76   1.0000      -5.663107      -154.1010
  77   1.0000      -5.663064      -154.0998
  78   1.0000      -5.659847      -154.0123
  79   1.0000      -5.658346      -153.9714
  80   1.0000      -2.452221       -66.7283
  81   1.0000      -1.493521       -40.6408
  82   1.0000      -1.482376       -40.3375
  83   1.0000      -1.480761       -40.2935
  84   1.0000      -0.727171       -19.7873
  85   1.0000      -0.718427       -19.5494
  86   1.0000      -0.696558       -18.9543
  87   1.0000      -0.694836       -18.9074
  88   1.0000      -0.657256       -17.8848
  89   1.0000      -0.648749       -17.6534
  90   1.0000      -0.646568       -17.5940
  91   1.0000      -0.615147       -16.7390
  92   1.0000      -0.612960       -16.6795
  93   1.0000      -0.590105       -16.0576
  94   1.0000      -0.589621       -16.0444
  95   1.0000      -0.563856       -15.3433
  96   1.0000      -0.559831       -15.2338
  97   1.0000      -0.503711       -13.7067
  98   1.0000      -0.500237       -13.6121
  99   1.0000      -0.492037       -13.3890
 100   1.0000      -0.490318       -13.3422
 101   1.0000      -0.477957       -13.0059
 102   1.0000      -0.473764       -12.8918
 103   1.0000      -0.444009       -12.0821
 104   1.0000      -0.440079       -11.9752
 105   1.0000      -0.419205       -11.4072
 106   1.0000      -0.413592       -11.2544
 107   1.0000      -0.361029        -9.8241
 108   1.0000      -0.360711        -9.8154
 109   1.0000      -0.336891        -9.1673
 110   1.0000      -0.336124        -9.1464
 111   1.0000      -0.317310        -8.6344
 112   1.0000      -0.314681        -8.5629
 113   1.0000      -0.293095        -7.9755
 114   1.0000      -0.289982        -7.8908
 115   1.0000      -0.287286        -7.8175
 116   1.0000      -0.281491        -7.6598
 117   1.0000      -0.255999        -6.9661
 118   1.0000      -0.255315        -6.9475
 119   1.0000      -0.252523        -6.8715
 120   1.0000      -0.249402        -6.7866
 121   1.0000      -0.234551        -6.3825
 122   1.0000      -0.233445        -6.3524
 123   1.0000      -0.229682        -6.2500
 124   1.0000      -0.227448        -6.1892
 125   1.0000      -0.221685        -6.0324
 126   1.0000      -0.221222        -6.0198
 127   1.0000      -0.220887        -6.0106
 128   1.0000      -0.217723        -5.9245
 129   1.0000      -0.199282        -5.4227
 130   1.0000      -0.195636        -5.3235
 131   1.0000      -0.191985        -5.2242
 132   1.0000      -0.184448        -5.0191
 133   1.0000      -0.177894        -4.8408
 134   1.0000      -0.172028        -4.6811
 135   1.0000      -0.150796        -4.1034
 136   1.0000      -0.149902        -4.0791
 137   1.0000      -0.147164        -4.0045
 138   1.0000      -0.146258        -3.9799
 139   1.0000      -0.134488        -3.6596
 140   1.0000      -0.120357        -3.2751
 141   1.0000      -0.118936        -3.2364
 142   1.0000      -0.118063        -3.2127
 143   1.0000      -0.109606        -2.9825
 144   1.0000      -0.099189        -2.6991
 145   1.0000      -0.095171        -2.5897
 146   1.0000      -0.085609        -2.3295
 147   1.0000      -0.076268        -2.0753
 148   1.0000      -0.071616        -1.9488
 149   1.0000      -0.065822        -1.7911
 150   1.0000      -0.061175        -1.6647
 151   1.0000      -0.051662        -1.4058
 152   1.0000      -0.046050        -1.2531
 153   1.0000      -0.036735        -0.9996
 154   1.0000      -0.035149        -0.9565
 155   1.0000      -0.031506        -0.8573
 156   1.0000      -0.028428        -0.7736
 157   1.0000      -0.024297        -0.6612
 158   1.0000      -0.018049        -0.4911
 159   1.0000       0.020754         0.5648
 160   1.0000       0.038895         1.0584
 161   0.0000       0.138318         3.7638
 162   0.0000       0.139665         3.8005
 163   0.0000       0.151646         4.1265
 164   0.0000       0.154947         4.2163
 165   0.0000       0.159911         4.3514

                 SPIN DOWN ORBITALS
  NO   OCC          E(Eh)            E(eV)
   0   1.0000    -196.683516     -5352.0306
   1   1.0000     -88.732511     -2414.5344
   2   1.0000     -88.730046     -2414.4673
   3   1.0000     -88.729937     -2414.4643
   4   1.0000     -88.726379     -2414.3675
   5   1.0000     -88.725248     -2414.3368
   6   1.0000     -88.718520     -2414.1537
   7   1.0000     -88.717530     -2414.1267
   8   1.0000     -88.708238     -2413.8739
   9   1.0000     -88.657281     -2412.4873
  10   1.0000     -88.655152     -2412.4293
  11   1.0000     -88.649067     -2412.2637
  12   1.0000     -88.644394     -2412.1366
  13   1.0000     -22.043385      -599.8310
  14   1.0000     -18.902043      -514.3507
  15   1.0000     -18.559510      -505.0299
  16   1.0000     -18.543634      -504.5979
  17   1.0000     -18.543372      -504.5908
  18   1.0000     -10.074586      -274.1434
  19   1.0000     -10.072236      -274.0795
  20   1.0000     -10.061638      -273.7911
  21   1.0000     -10.061493      -273.7871
  22   1.0000     -10.059678      -273.7378
  23   1.0000     -10.059002      -273.7194
  24   1.0000     -10.049528      -273.4616
  25   1.0000     -10.047710      -273.4121
  26   1.0000     -10.046311      -273.3740
  27   1.0000     -10.042268      -273.2640
  28   1.0000     -10.037411      -273.1318
  29   1.0000     -10.033918      -273.0368
  30   1.0000     -10.018982      -272.6303
  31   1.0000     -10.017442      -272.5884
  32   1.0000      -7.785843      -211.8635
  33   1.0000      -7.784478      -211.8264
  34   1.0000      -7.783513      -211.8002
  35   1.0000      -7.783384      -211.7967
  36   1.0000      -7.781154      -211.7360
  37   1.0000      -7.780109      -211.7075
  38   1.0000      -7.770910      -211.4572
  39   1.0000      -7.762114      -211.2179
  40   1.0000      -7.707671      -209.7364
  41   1.0000      -7.706620      -209.7078
  42   1.0000      -7.706278      -209.6985
  43   1.0000      -7.701627      -209.5719
  44   1.0000      -5.750882      -156.4894
  45   1.0000      -5.749039      -156.4393
  46   1.0000      -5.748550      -156.4260
  47   1.0000      -5.748357      -156.4207
  48   1.0000      -5.747435      -156.3957
  49   1.0000      -5.745302      -156.3376
  50   1.0000      -5.745087      -156.3318
  51   1.0000      -5.745081      -156.3316
  52   1.0000      -5.744943      -156.3279
  53   1.0000      -5.744346      -156.3116
  54   1.0000      -5.741618      -156.2374
  55   1.0000      -5.740720      -156.2129
  56   1.0000      -5.740597      -156.2096
  57   1.0000      -5.739963      -156.1923
  58   1.0000      -5.738266      -156.1462
  59   1.0000      -5.738205      -156.1445
  60   1.0000      -5.736527      -156.0988
  61   1.0000      -5.734948      -156.0559
  62   1.0000      -5.734912      -156.0549
  63   1.0000      -5.731618      -155.9653
  64   1.0000      -5.727437      -155.8515
  65   1.0000      -5.725827      -155.8077
  66   1.0000      -5.722669      -155.7217
  67   1.0000      -5.719029      -155.6227
  68   1.0000      -5.674169      -154.4020
  69   1.0000      -5.672401      -154.3539
  70   1.0000      -5.672223      -154.3490
  71   1.0000      -5.666985      -154.2065
  72   1.0000      -5.666676      -154.1981
  73   1.0000      -5.665346      -154.1619
  74   1.0000      -5.665111      -154.1555
  75   1.0000      -5.664410      -154.1364
  76   1.0000      -5.663209      -154.1037
  77   1.0000      -5.663093      -154.1006
  78   1.0000      -5.660168      -154.0210
  79   1.0000      -5.658453      -153.9743
  80   1.0000      -2.407217       -65.5037
  81   1.0000      -1.474031       -40.1104
  82   1.0000      -1.420270       -38.6475
  83   1.0000      -1.418627       -38.6028
  84   1.0000      -0.727035       -19.7836
  85   1.0000      -0.718360       -19.5476
  86   1.0000      -0.696534       -18.9537
  87   1.0000      -0.694814       -18.9068
  88   1.0000      -0.665538       -18.1102
  89   1.0000      -0.648709       -17.6523
  90   1.0000      -0.646548       -17.5935
  91   1.0000      -0.615148       -16.7390
  92   1.0000      -0.612957       -16.6794
  93   1.0000      -0.590094       -16.0573
  94   1.0000      -0.589586       -16.0435
  95   1.0000      -0.563838       -15.3428
  96   1.0000      -0.559806       -15.2331
  97   1.0000      -0.503790       -13.7088
  98   1.0000      -0.500241       -13.6123
  99   1.0000      -0.492043       -13.3892
 100   1.0000      -0.490317       -13.3422
 101   1.0000      -0.478101       -13.0098
 102   1.0000      -0.473940       -12.8966
 103   1.0000      -0.444049       -12.0832
 104   1.0000      -0.440126       -11.9764
 105   1.0000      -0.419203       -11.4071
 106   1.0000      -0.413723       -11.2580
 107   1.0000      -0.360964        -9.8223
 108   1.0000      -0.360678        -9.8145
 109   1.0000      -0.336853        -9.1662
 110   1.0000      -0.336078        -9.1452
 111   1.0000      -0.317298        -8.6341
 112   1.0000      -0.314666        -8.5625
 113   1.0000      -0.293084        -7.9752
 114   1.0000      -0.289976        -7.8906
 115   1.0000      -0.287242        -7.8163
 116   1.0000      -0.281444        -7.6585
 117   1.0000      -0.255830        -6.9615
 118   1.0000      -0.255112        -6.9420
 119   1.0000      -0.252454        -6.8696
 120   1.0000      -0.249246        -6.7823
 121   1.0000      -0.234402        -6.3784
 122   1.0000      -0.233382        -6.3507
 123   1.0000      -0.229579        -6.2472
 124   1.0000      -0.227383        -6.1874
 125   1.0000      -0.221203        -6.0193
 126   1.0000      -0.221027        -6.0144
 127   1.0000      -0.220250        -5.9933
 128   1.0000      -0.217406        -5.9159
 129   1.0000      -0.199064        -5.4168
 130   1.0000      -0.195410        -5.3174
 131   1.0000      -0.191338        -5.2066
 132   1.0000      -0.184153        -5.0111
 133   1.0000      -0.177522        -4.8306
 134   1.0000      -0.171481        -4.6662
 135   1.0000      -0.150595        -4.0979
 136   1.0000      -0.149310        -4.0629
 137   1.0000      -0.147116        -4.0032
 138   1.0000      -0.146129        -3.9764
 139   1.0000      -0.133338        -3.6283
 140   1.0000      -0.121900        -3.3171
 141   1.0000      -0.120512        -3.2793
 142   1.0000      -0.117298        -3.1918
 143   1.0000      -0.108618        -2.9556
 144   1.0000      -0.099150        -2.6980
 145   1.0000      -0.095018        -2.5856
 146   1.0000      -0.085398        -2.3238
 147   1.0000      -0.076450        -2.0803
 148   1.0000      -0.070444        -1.9169
 149   1.0000      -0.065779        -1.7899
 150   1.0000      -0.059653        -1.6233
 151   1.0000      -0.050023        -1.3612
 152   1.0000      -0.045567        -1.2399
 153   1.0000      -0.036421        -0.9911
 154   1.0000      -0.035032        -0.9533
 155   1.0000      -0.031521        -0.8577
 156   1.0000      -0.026577        -0.7232
 157   1.0000      -0.019623        -0.5340
 158   1.0000       0.021049         0.5728
 159   1.0000       0.037967         1.0331
 160   0.0000       0.138309         3.7636
 161   0.0000       0.139789         3.8038
 162   0.0000       0.145502         3.9593
 163   0.0000       0.152037         4.1371
 164   0.0000       0.156765         4.2658

MULLIKEN ATOMIC CHARGES AND SPIN POPULATIONS
--------------------------------------------
   0 V :    0.452594    1.208575
   1 S :   -0.287781   -0.028350
   2 S :   -0.248149   -0.015658
   3 S :   -0.255567   -0.019896
   4 S :   -0.269545   -0.034860
   5 O :   -0.457136   -0.148896
   6 C :   -0.022101    0.007669
   7 C :   -0.135571    0.010020
   8 C :   -0.108137    0.009856
   9 C :   -0.059125    0.005487
  10 S :    0.143865   -0.000088
  11 S :    0.020011    0.001259
  12 S :    0.141602   -0.000036
  13 S :    0.041137    0.000829
  14 C :   -0.219193    0.003485
  15 C :   -0.212588    0.001828
  16 C :   -0.201658   -0.000604
  17 C :   -0.199028   -0.000722
  18 S :    0.016065   -0.000096
  19 S :    0.004283    0.000053
  20 S :    0.000854    0.000039
  21 S :    0.013820   -0.000055
  22 C :   -0.297225   -0.000012
  23 C :   -0.302230   -0.000013
  24 C :   -0.156793   -0.000002
  25 H :    0.141711    0.000001
  26 H :    0.112190   -0.000006
  27 H :    0.081913   -0.000003
  28 H :    0.091163   -0.000004
  29 H :    0.112644   -0.000006
  30 H :    0.141948   -0.000001
  31 C :   -0.303066    0.000225
  32 C :   -0.295155    0.000205
  33 C :   -0.157167   -0.000268
  34 H :    0.139014   -0.000014
  35 H :    0.110658    0.000011
  36 H :    0.089958    0.000022
  37 H :    0.079880    0.000015
  38 H :    0.111673    0.000033
  39 H :    0.140235   -0.000023
Sum of atomic charges         :   -2.0000000

LOEWDIN ATOMIC CHARGES AND SPIN POPULATIONS
-------------------------------------------
   0 V :   -0.156116    1.162152
   1 S :    0.038819   -0.018954
   2 S :    0.173234   -0.008215
   3 S :    0.149081   -0.012761
   4 S :    0.033448   -0.024500
   5 O :   -0.311597   -0.133814
   6 C :   -0.691669    0.006430
   7 C :   -0.421098    0.010702
   8 C :   -0.439736    0.010430
   9 C :   -0.667512    0.005265
  10 S :    0.565573   -0.000114
  11 S :    0.348306    0.000941
  12 S :    0.546446   -0.000405
  13 S :    0.381831    0.000290
  14 C :   -0.464285    0.001446
  15 C :   -0.468364    0.000469
  16 C :   -0.635684    0.000541
  17 C :   -0.624276    0.000055
  18 S :    0.363790   -0.000053
  19 S :    0.363166    0.000060
  20 S :    0.355853    0.000027
  21 S :    0.360124   -0.000060
  22 C :   -0.285758   -0.000010
  23 C :   -0.282549   -0.000023
  24 C :   -0.176559    0.000000
  25 H :    0.061917   -0.000001
  26 H :    0.053203   -0.000004
  27 H :    0.057388   -0.000003
  28 H :    0.059876   -0.000002
  29 H :    0.053177   -0.000001
  30 H :    0.061998   -0.000001
  31 C :   -0.282516    0.000016
  32 C :   -0.286322    0.000053
  33 C :   -0.176643    0.000013
  34 H :    0.060934   -0.000001
  35 H :    0.052507    0.000005
  36 H :    0.059491    0.000003
  37 H :    0.056514   -0.000000
  38 H :    0.052605    0.000021
  39 H :    0.061406    0.000002

  Mayer bond orders larger than 0.100000
B(  0-V ,  1-S ) :   0.7819 B(  0-V ,  2-S ) :   0.7548 B(  0-V ,  3-S ) :   0.7600
B(  0-V ,  4-S ) :   0.7823 B(  0-V ,  5-O ) :   2.1585 B(  1-S ,  8-C ) :   1.0598
B(  2-S ,  6-C ) :   1.0249 B(  2-S ,  7-C ) :   0.1129 B(  3-S ,  9-C ) :   1.0872
B(  4-S ,  7-C ) :   1.0458 B(  6-C ,  7-C ) :   1.4958 B(  6-C , 10-S ) :   1.2500
B(  7-C , 11-S ) :   0.6913 B(  8-C ,  9-C ) :   1.5790 B(  8-C , 13-S ) :   0.7556
B(  9-C , 12-S ) :   1.1494 B( 10-S , 14-C ) :   1.0639 B( 11-S , 14-C ) :   1.4596
B( 12-S , 15-C ) :   1.1201 B( 13-S , 15-C ) :   1.3981 B( 14-C , 16-C ) :   1.4277
B( 15-C , 17-C ) :   1.4424 B( 16-C , 18-S ) :   1.0976 B( 16-C , 19-S ) :   1.0830
B( 17-C , 20-S ) :   1.0771 B( 17-C , 21-S ) :   1.0921 B( 18-S , 32-C ) :   0.9904
B( 19-S , 31-C ) :   0.9934 B( 20-S , 23-C ) :   0.9945 B( 21-S , 22-C ) :   0.9899
B( 22-C , 24-C ) :   0.9147 B( 22-C , 25-H ) :   0.9649 B( 22-C , 26-H ) :   0.9654
B( 23-C , 24-C ) :   0.9129 B( 23-C , 29-H ) :   0.9658 B( 23-C , 30-H ) :   0.9669
B( 24-C , 27-H ) :   0.9622 B( 24-C , 28-H ) :   0.9717 B( 31-C , 33-C ) :   0.9138
B( 31-C , 38-H ) :   0.9652 B( 31-C , 39-H ) :   0.9679 B( 32-C , 33-C ) :   0.9161
B( 32-C , 34-H ) :   0.9644 B( 32-C , 35-H ) :   0.9655 B( 33-C , 36-H ) :   0.9712
B( 33-C , 37-H ) :   0.9622

FINAL SINGLE POINT ENERGY     -6337.478499231983

DIPOLE MOMENT
-------------
                                X             Y             Z
Electronic contribution:     -2.37066       7.55486     -11.28911
Nuclear contribution   :      2.38475      -8.43856      12.33494
                        -----------------------------------------
Total Dipole Moment    :      0.01409      -0.88369       1.04583
                        -----------------------------------------
Magnitude (a.u.)       :      1.36926
Magnitude (Debye)      :      3.48039

Rotational constants in cm-1:     0.010730     0.000804     0.000783
Rotational constants in MHz :   321.680772    24.114114    23.480232

                             ****ORCA TERMINATED NORMALLY****
TOTAL RUN TIME: 0 days 1 hours 7 minutes 0 seconds 35 msec
