                         Program Version 5.0.4 -  RELEASE  -
|  1> ! nofrozencore ReducedPop printbasis
|  2> ! B3LYP TZVP
|  3>
|  4> %basis
|  5> newgto V "CP(PPP)" end
|  6> end
|  7>
|  8> %pal
|  9> nprocs 6
| 10> end
| 11>
| 12> % sym SymThresh 1e-2 end
| 13> * xyz -2 2
| 14> V -0.44280880712635773 -0.976010689100961 -0.3005568808861306
| 15> S 1.498363490355527 -0.8437558492777735 -1.8282698485270563
| 16> S 1.2214180883050167 -1.419530006947795 1.477363481669664
| 17> S -1.5089907622252177 0.6828898911101444 -1.7981934409800104
| 18> S -1.7291843943667429 0.1842187896219835 1.4557001728219072
| 19> O -1.1558433746945116 -2.3707801712401575 -0.5658217549178305
| 20> C 0.2108897144170833 -1.1610990764949813 2.8898420268513956
| 21> C -0.9783882980217762 -0.5106463518068763 2.8810075819737753
| 22> C 0.8529094346388713 0.10164732172658326 -3.144176784523226
| 23> C -0.3869128811812396 0.733808007286385 -3.129646279920211
| 24> S 0.7958349197154658 -1.7188141840032247 4.492395225695509
| 25> S -1.779346265197689 -0.2911015744088373 4.469815088396021
| 26> S -0.7898622737627494 1.6893517583228868 -4.584520793359182
| 27> S 1.830861413535788 0.3471045084981093 -4.619885498987505
| 28> C -0.546806482626346 -1.0882560652539806 5.444136913862538
| 29> C 0.7104738471732642 1.411649533440253 -5.424198652084724
| 30> C -0.6341264773780905 -1.216556403805507 6.822907065356295
| 31> C 1.005790224770936 2.0242701900531714 -6.716121374566895
| 32> S 0.6039202106385108 -2.0776471653119217 7.762393710468097
| 33> S -2.010027017824093 -0.5548197439509182 7.731662868896989
| 34> S 2.534171912912036 1.7138085404779808 -7.525379994183648
| 35> S -0.15152587765561626 3.106176427816344 -7.477506067971847
| 36> C 0.9205643658699147 4.6095474182914336 -7.481801759221792
| 37> C 3.1452000403872105 3.4563605725792255 -7.527075194173238
| 38> C 2.2315673438448984 4.442488292251585 -8.162931227400586
| 39> H 0.8476995191403682 5.160968217820589 -6.478523156730087
| 40> H 0.26174957440219127 5.517122690156476 -7.7100840112157565
| 41> H 2.7345964023031697 5.418962145400859 -8.335636254795256
| 42> H 2.140326942786475 4.310818613146474 -9.265745569082833
| 43> H 4.256626462769313 3.442950041706577 -7.797028898710949
| 44> H 3.6711089091878684 3.700882933450552 -6.538210538869629
| 45> C -2.677573639615447 -2.144847969646977 8.401744441231877
| 46> C -0.46737959703433146 -3.435511936512076 8.421135800183553
| 47> C -1.6697237507682063 -2.944246653859302 9.214646608885651
| 48> H -0.7445419873028111 -4.098496669322528 7.594529718982889
| 49> H 0.1904425239496403 -4.079574025400509 9.015989888116732
| 50> H -1.3367980636578138 -2.3622038773494958 10.081267948245484
| 51> H -2.179882488279815 -3.8109440061066264 9.659692601967311
| 52> H -3.567625000351689 -1.879108946785674 8.983732704695395
| 53> H -3.1125343837272776 -2.7193818456625 7.576793168047658
| 54> *
| 55>
| 56> % eprnmr
| 57> gtensor true
| 58> Nuclei = all H {aiso,adip,aorb,fgrad,rho}
| 59> Nuclei = all V {aiso,adip,aorb,fgrad,rho}
| 60> end
| 61>
| 62>                          ****END OF INPUT****

CARTESIAN COORDINATES (ANGSTROEM)
---------------------------------
  V     -0.441678   -0.973850   -0.297599
  S      1.499494   -0.841595   -1.825312
  S      1.222549   -1.417369    1.480321
  S     -1.507860    0.685051   -1.795236
  S     -1.728053    0.186380    1.458658
  O     -1.154712   -2.368619   -0.562864
  C      0.212021   -1.158938    2.892800
  C     -0.977257   -0.508485    2.883965
  C      0.854040    0.103808   -3.141219
  C     -0.385782    0.735969   -3.126688
  S      0.796966   -1.716653    4.495353
  S     -1.778215   -0.288940    4.472773
  S     -0.788731    1.691513   -4.581563
  S      1.831992    0.349266   -4.616928
  C     -0.545676   -1.086095    5.447095
  C      0.711605    1.413811   -5.421241
  C     -0.632996   -1.214395    6.825865
  C      1.006921    2.026431   -6.713163
  S      0.605051   -2.075486    7.765352
  S     -2.008896   -0.552659    7.734621
  S      2.535303    1.715970   -7.522422
  S     -0.150395    3.108338   -7.474548
  C      0.921695    4.611709   -7.478844
  C      3.146331    3.458522   -7.524117
  C      2.232698    4.444649   -8.159973
  H      0.848830    5.163129   -6.475565
  H      0.262881    5.519284   -7.707126
  H      2.735727    5.421123   -8.332678
  H      2.141458    4.312980   -9.262788
  H      4.257757    3.445111   -7.794071
  H      3.672240    3.703044   -6.535253
  C     -2.676443   -2.142687    8.404702
  C     -0.466249   -3.433351    8.424094
  C     -1.668593   -2.942085    9.217605
  H     -0.743411   -4.096336    7.597488
  H      0.191573   -4.077413    9.018948
  H     -1.335667   -2.360043   10.084226
  H     -2.178752   -3.808783    9.662651
  H     -3.566494   -1.876948    8.986691
  H     -3.111403   -2.717221    7.579751

 Total Charge           Charge          ....   -2
 Multiplicity           Mult            ....    2
 Number of Electrons    NEL             ....  321
 Basis Dimension        Dim             ....  681

ORBITAL ENERGIES
----------------
                 SPIN UP ORBITALS
  NO   OCC          E(Eh)            E(eV)
   0   1.0000    -196.676959     -5351.8521
   1   1.0000     -88.733928     -2414.5729
   2   1.0000     -88.733858     -2414.5710
   3   1.0000     -88.733312     -2414.5562
   4   1.0000     -88.733283     -2414.5554
   5   1.0000     -88.731907     -2414.5179
   6   1.0000     -88.731707     -2414.5125
   7   1.0000     -88.730856     -2414.4893
   8   1.0000     -88.730809     -2414.4881
   9   1.0000     -88.642373     -2412.0816
  10   1.0000     -88.641893     -2412.0685
  11   1.0000     -88.641494     -2412.0577
  12   1.0000     -88.641198     -2412.0496
  13   1.0000     -22.052352      -600.0750
  14   1.0000     -18.892234      -514.0838
  15   1.0000     -18.558759      -505.0095
  16   1.0000     -18.553654      -504.8706
  17   1.0000     -18.553538      -504.8674
  18   1.0000     -10.078443      -274.2484
  19   1.0000     -10.077443      -274.2212
  20   1.0000     -10.065664      -273.9006
  21   1.0000     -10.065602      -273.8990
  22   1.0000     -10.062998      -273.8281
  23   1.0000     -10.062944      -273.8266
  24   1.0000     -10.056706      -273.6569
  25   1.0000     -10.052239      -273.5353
  26   1.0000     -10.048360      -273.4298
  27   1.0000     -10.043751      -273.3043
  28   1.0000     -10.023648      -272.7573
  29   1.0000     -10.023084      -272.7420
  30   1.0000     -10.020454      -272.6704
  31   1.0000     -10.019567      -272.6463
  32   1.0000      -7.787493      -211.9084
  33   1.0000      -7.787461      -211.9076
  34   1.0000      -7.786742      -211.8880
  35   1.0000      -7.786713      -211.8872
  36   1.0000      -7.785214      -211.8464
  37   1.0000      -7.785072      -211.8426
  38   1.0000      -7.784135      -211.8171
  39   1.0000      -7.784074      -211.8154
  40   1.0000      -7.696865      -209.4423
  41   1.0000      -7.696463      -209.4314
  42   1.0000      -7.695850      -209.4147
  43   1.0000      -7.695530      -209.4060
  44   1.0000      -5.752176      -156.5247
  45   1.0000      -5.752146      -156.5239
  46   1.0000      -5.751737      -156.5127
  47   1.0000      -5.751707      -156.5119
  48   1.0000      -5.750095      -156.4681
  49   1.0000      -5.749959      -156.4643
  50   1.0000      -5.749163      -156.4427
  51   1.0000      -5.749103      -156.4411
  52   1.0000      -5.748304      -156.4193
  53   1.0000      -5.748281      -156.4187
  54   1.0000      -5.747900      -156.4083
  55   1.0000      -5.747867      -156.4074
  56   1.0000      -5.745713      -156.3488
  57   1.0000      -5.745649      -156.3471
  58   1.0000      -5.745596      -156.3456
  59   1.0000      -5.745564      -156.3447
  60   1.0000      -5.743644      -156.2925
  61   1.0000      -5.743614      -156.2917
  62   1.0000      -5.741553      -156.2356
  63   1.0000      -5.741520      -156.2347
  64   1.0000      -5.741110      -156.2236
  65   1.0000      -5.740956      -156.2194
  66   1.0000      -5.739007      -156.1663
  67   1.0000      -5.738943      -156.1646
  68   1.0000      -5.662057      -154.0724
  69   1.0000      -5.661637      -154.0610
  70   1.0000      -5.661114      -154.0467
  71   1.0000      -5.660813      -154.0386
  72   1.0000      -5.655497      -153.8939
  73   1.0000      -5.655097      -153.8830
  74   1.0000      -5.654510      -153.8670
  75   1.0000      -5.654316      -153.8618
  76   1.0000      -5.654185      -153.8582
  77   1.0000      -5.653908      -153.8507
  78   1.0000      -5.653201      -153.8314
  79   1.0000      -5.652842      -153.8216
  80   1.0000      -2.446036       -66.5600
  81   1.0000      -1.487281       -40.4710
  82   1.0000      -1.475735       -40.1568
  83   1.0000      -1.474856       -40.1329
  84   1.0000      -0.709533       -19.3074
  85   1.0000      -0.707191       -19.2437
  86   1.0000      -0.688147       -18.7254
  87   1.0000      -0.686792       -18.6886
  88   1.0000      -0.651762       -17.7353
  89   1.0000      -0.630791       -17.1647
  90   1.0000      -0.626218       -17.0402
  91   1.0000      -0.617355       -16.7991
  92   1.0000      -0.613959       -16.7067
  93   1.0000      -0.581863       -15.8333
  94   1.0000      -0.576863       -15.6972
  95   1.0000      -0.574820       -15.6416
  96   1.0000      -0.573707       -15.6114
  97   1.0000      -0.499409       -13.5896
  98   1.0000      -0.497354       -13.5337
  99   1.0000      -0.495547       -13.4845
 100   1.0000      -0.490964       -13.3598
 101   1.0000      -0.485379       -13.2078
 102   1.0000      -0.480515       -13.0755
 103   1.0000      -0.452445       -12.3117
 104   1.0000      -0.448335       -12.1998
 105   1.0000      -0.413848       -11.2614
 106   1.0000      -0.404926       -11.0186
 107   1.0000      -0.351695        -9.5701
 108   1.0000      -0.348841        -9.4924
 109   1.0000      -0.340718        -9.2714
 110   1.0000      -0.329985        -8.9794
 111   1.0000      -0.320980        -8.7343
 112   1.0000      -0.315956        -8.5976
 113   1.0000      -0.301491        -8.2040
 114   1.0000      -0.299101        -8.1390
 115   1.0000      -0.287971        -7.8361
 116   1.0000      -0.281726        -7.6662
 117   1.0000      -0.258276        -7.0281
 118   1.0000      -0.256319        -6.9748
 119   1.0000      -0.252133        -6.8609
 120   1.0000      -0.250216        -6.8087
 121   1.0000      -0.235237        -6.4011
 122   1.0000      -0.233473        -6.3531
 123   1.0000      -0.228886        -6.2283
 124   1.0000      -0.218507        -5.9459
 125   1.0000      -0.213846        -5.8190
 126   1.0000      -0.212437        -5.7807
 127   1.0000      -0.210676        -5.7328
 128   1.0000      -0.197194        -5.3659
 129   1.0000      -0.194499        -5.2926
 130   1.0000      -0.186636        -5.0786
 131   1.0000      -0.185048        -5.0354
 132   1.0000      -0.177833        -4.8391
 133   1.0000      -0.172010        -4.6806
 134   1.0000      -0.160299        -4.3620
 135   1.0000      -0.151278        -4.1165
 136   1.0000      -0.144066        -3.9202
 137   1.0000      -0.137450        -3.7402
 138   1.0000      -0.135717        -3.6930
 139   1.0000      -0.130611        -3.5541
 140   1.0000      -0.125653        -3.4192
 141   1.0000      -0.123848        -3.3701
 142   1.0000      -0.115715        -3.1488
 143   1.0000      -0.110040        -2.9943
 144   1.0000      -0.103823        -2.8252
 145   1.0000      -0.100527        -2.7355
 146   1.0000      -0.095998        -2.6122
 147   1.0000      -0.090661        -2.4670
 148   1.0000      -0.075466        -2.0535
 149   1.0000      -0.068344        -1.8597
 150   1.0000      -0.067364        -1.8331
 151   1.0000      -0.054579        -1.4852
 152   1.0000      -0.046996        -1.2788
 153   1.0000      -0.039492        -1.0746
 154   1.0000      -0.034618        -0.9420
 155   1.0000      -0.028053        -0.7634
 156   1.0000      -0.025939        -0.7058
 157   1.0000      -0.020696        -0.5632
 158   1.0000      -0.018093        -0.4923
 159   1.0000       0.021490         0.5848
 160   1.0000       0.042014         1.1433
 161   0.0000       0.132699         3.6109
 162   0.0000       0.135407         3.6846
 163   0.0000       0.156819         4.2673
 164   0.0000       0.161123         4.3844
 165   0.0000       0.167005         4.5444

                 SPIN DOWN ORBITALS
  NO   OCC          E(Eh)            E(eV)
   0   1.0000    -196.677105     -5351.8561
   1   1.0000     -88.733936     -2414.5732
   2   1.0000     -88.733866     -2414.5713
   3   1.0000     -88.733313     -2414.5562
   4   1.0000     -88.733284     -2414.5554
   5   1.0000     -88.731916     -2414.5182
   6   1.0000     -88.731716     -2414.5127
   7   1.0000     -88.730856     -2414.4893
   8   1.0000     -88.730810     -2414.4881
   9   1.0000     -88.642508     -2412.0853
  10   1.0000     -88.642030     -2412.0723
  11   1.0000     -88.641634     -2412.0615
  12   1.0000     -88.641339     -2412.0535
  13   1.0000     -22.037411      -599.6685
  14   1.0000     -18.896030      -514.1871
  15   1.0000     -18.553482      -504.8659
  16   1.0000     -18.537605      -504.4339
  17   1.0000     -18.537422      -504.4289
  18   1.0000     -10.078443      -274.2484
  19   1.0000     -10.077438      -274.2210
  20   1.0000     -10.065664      -273.9006
  21   1.0000     -10.065602      -273.8990
  22   1.0000     -10.062997      -273.8281
  23   1.0000     -10.062943      -273.8266
  24   1.0000     -10.056706      -273.6569
  25   1.0000     -10.052239      -273.5353
  26   1.0000     -10.048348      -273.4294
  27   1.0000     -10.043746      -273.3042
  28   1.0000     -10.023441      -272.7517
  29   1.0000     -10.022878      -272.7364
  30   1.0000     -10.020217      -272.6640
  31   1.0000     -10.019346      -272.6403
  32   1.0000      -7.787502      -211.9087
  33   1.0000      -7.787470      -211.9078
  34   1.0000      -7.786743      -211.8880
  35   1.0000      -7.786714      -211.8873
  36   1.0000      -7.785223      -211.8467
  37   1.0000      -7.785082      -211.8428
  38   1.0000      -7.784135      -211.8171
  39   1.0000      -7.784075      -211.8154
  40   1.0000      -7.696991      -209.4458
  41   1.0000      -7.696591      -209.4349
  42   1.0000      -7.695981      -209.4183
  43   1.0000      -7.695662      -209.4096
  44   1.0000      -5.752187      -156.5250
  45   1.0000      -5.752157      -156.5242
  46   1.0000      -5.751739      -156.5128
  47   1.0000      -5.751708      -156.5119
  48   1.0000      -5.750106      -156.4683
  49   1.0000      -5.749970      -156.4646
  50   1.0000      -5.749163      -156.4427
  51   1.0000      -5.749104      -156.4411
  52   1.0000      -5.748305      -156.4193
  53   1.0000      -5.748282      -156.4187
  54   1.0000      -5.747913      -156.4087
  55   1.0000      -5.747880      -156.4078
  56   1.0000      -5.745727      -156.3492
  57   1.0000      -5.745649      -156.3471
  58   1.0000      -5.745597      -156.3456
  59   1.0000      -5.745577      -156.3451
  60   1.0000      -5.743650      -156.2927
  61   1.0000      -5.743619      -156.2918
  62   1.0000      -5.741554      -156.2356
  63   1.0000      -5.741520      -156.2347
  64   1.0000      -5.741119      -156.2238
  65   1.0000      -5.740965      -156.2196
  66   1.0000      -5.739008      -156.1663
  67   1.0000      -5.738944      -156.1646
  68   1.0000      -5.662197      -154.0762
  69   1.0000      -5.661776      -154.0648
  70   1.0000      -5.661252      -154.0505
  71   1.0000      -5.660955      -154.0424
  72   1.0000      -5.655839      -153.9032
  73   1.0000      -5.655449      -153.8926
  74   1.0000      -5.654898      -153.8776
  75   1.0000      -5.654570      -153.8687
  76   1.0000      -5.654424      -153.8647
  77   1.0000      -5.654016      -153.8536
  78   1.0000      -5.653288      -153.8338
  79   1.0000      -5.652936      -153.8242
  80   1.0000      -2.401124       -65.3379
  81   1.0000      -1.467949       -39.9449
  82   1.0000      -1.413324       -38.4585
  83   1.0000      -1.413134       -38.4533
  84   1.0000      -0.709504       -19.3066
  85   1.0000      -0.707174       -19.2432
  86   1.0000      -0.688112       -18.7245
  87   1.0000      -0.686738       -18.6871
  88   1.0000      -0.659911       -17.9571
  89   1.0000      -0.630720       -17.1628
  90   1.0000      -0.626179       -17.0392
  91   1.0000      -0.617354       -16.7991
  92   1.0000      -0.613961       -16.7067
  93   1.0000      -0.581841       -15.8327
  94   1.0000      -0.576834       -15.6965
  95   1.0000      -0.574741       -15.6395
  96   1.0000      -0.573634       -15.6094
  97   1.0000      -0.499466       -13.5912
  98   1.0000      -0.497401       -13.5350
  99   1.0000      -0.495564       -13.4850
 100   1.0000      -0.490987       -13.3604
 101   1.0000      -0.485554       -13.2126
 102   1.0000      -0.480749       -13.0818
 103   1.0000      -0.452484       -12.3127
 104   1.0000      -0.448382       -12.2011
 105   1.0000      -0.413866       -11.2619
 106   1.0000      -0.404997       -11.0205
 107   1.0000      -0.351683        -9.5698
 108   1.0000      -0.348842        -9.4925
 109   1.0000      -0.340701        -9.2709
 110   1.0000      -0.329972        -8.9790
 111   1.0000      -0.320898        -8.7321
 112   1.0000      -0.315983        -8.5983
 113   1.0000      -0.301449        -8.2028
 114   1.0000      -0.299100        -8.1389
 115   1.0000      -0.287967        -7.8360
 116   1.0000      -0.281673        -7.6647
 117   1.0000      -0.258213        -7.0263
 118   1.0000      -0.256176        -6.9709
 119   1.0000      -0.252069        -6.8592
 120   1.0000      -0.250119        -6.8061
 121   1.0000      -0.235217        -6.4006
 122   1.0000      -0.233439        -6.3522
 123   1.0000      -0.228870        -6.2279
 124   1.0000      -0.218108        -5.9350
 125   1.0000      -0.213587        -5.8120
 126   1.0000      -0.212371        -5.7789
 127   1.0000      -0.210677        -5.7328
 128   1.0000      -0.197129        -5.3642
 129   1.0000      -0.192694        -5.2435
 130   1.0000      -0.186349        -5.0708
 131   1.0000      -0.184761        -5.0276
 132   1.0000      -0.177667        -4.8346
 133   1.0000      -0.171985        -4.6799
 134   1.0000      -0.159682        -4.3452
 135   1.0000      -0.151134        -4.1126
 136   1.0000      -0.143976        -3.9178
 137   1.0000      -0.137287        -3.7358
 138   1.0000      -0.134944        -3.6720
 139   1.0000      -0.129859        -3.5336
 140   1.0000      -0.125298        -3.4095
 141   1.0000      -0.123912        -3.3718
 142   1.0000      -0.117498        -3.1973
 143   1.0000      -0.111601        -3.0368
 144   1.0000      -0.103943        -2.8284
 145   1.0000      -0.100783        -2.7424
 146   1.0000      -0.096155        -2.6165
 147   1.0000      -0.090751        -2.4695
 148   1.0000      -0.071558        -1.9472
 149   1.0000      -0.068341        -1.8596
 150   1.0000      -0.067365        -1.8331
 151   1.0000      -0.051995        -1.4149
 152   1.0000      -0.046071        -1.2537
 153   1.0000      -0.038941        -1.0596
 154   1.0000      -0.034697        -0.9442
 155   1.0000      -0.029059        -0.7907
 156   1.0000      -0.025469        -0.6931
 157   1.0000      -0.018343        -0.4991
 158   1.0000       0.021730         0.5913
 159   1.0000       0.041004         1.1158
 160   0.0000       0.132696         3.6108
 161   0.0000       0.135413         3.6848
 162   0.0000       0.153790         4.1848
 163   0.0000       0.157422         4.2837
 164   0.0000       0.161729         4.4009

MULLIKEN ATOMIC CHARGES AND SPIN POPULATIONS
--------------------------------------------
   0 V :    0.467891    1.211021
   1 S :   -0.280846   -0.021968
   2 S :   -0.287033   -0.025313
   3 S :   -0.278752   -0.022920
   4 S :   -0.282917   -0.025784
   5 O :   -0.466356   -0.146981
   6 C :   -0.080435    0.009625
   7 C :   -0.087261    0.007997
   8 C :   -0.099909    0.007266
   9 C :   -0.100393    0.006900
  10 S :    0.105190   -0.000596
  11 S :    0.106567   -0.000638
  12 S :    0.125212   -0.000301
  13 S :    0.124369   -0.000256
  14 C :   -0.207235    0.001495
  15 C :   -0.188558    0.000704
  16 C :   -0.204504    0.000029
  17 C :   -0.234192   -0.000136
  18 S :    0.011102   -0.000111
  19 S :    0.011188   -0.000110
  20 S :    0.026982   -0.000050
  21 S :    0.027171   -0.000051
  22 C :   -0.306955   -0.000002
  23 C :   -0.306138   -0.000001
  24 C :   -0.105503   -0.000005
  25 H :    0.117113   -0.000001
  26 H :    0.097454   -0.000003
  27 H :    0.065624   -0.000001
  28 H :    0.093778   -0.000003
  29 H :    0.097198   -0.000004
  30 H :    0.117070   -0.000001
  31 C :   -0.300104    0.000198
  32 C :   -0.301273    0.000192
  33 C :   -0.151807   -0.000237
  34 H :    0.140357   -0.000016
  35 H :    0.111328    0.000020
  36 H :    0.093344    0.000023
  37 H :    0.079919    0.000015
  38 H :    0.111243    0.000021
  39 H :    0.140071   -0.000016
Sum of atomic charges         :   -2.0000000

LOEWDIN ATOMIC CHARGES AND SPIN POPULATIONS
-------------------------------------------
   0 V :   -0.155989    1.164385
   1 S :    0.090836   -0.014097
   2 S :    0.081975   -0.016138
   3 S :    0.092282   -0.014902
   4 S :    0.085807   -0.016362
   5 O :   -0.318297   -0.131842
   6 C :   -0.551573    0.008987
   7 C :   -0.553727    0.007863
   8 C :   -0.561141    0.007768
   9 C :   -0.561089    0.007296
  10 S :    0.476997   -0.000916
  11 S :    0.477962   -0.000965
  12 S :    0.498159   -0.000796
  13 S :    0.497422   -0.000802
  14 C :   -0.468196    0.000175
  15 C :   -0.481179   -0.000127
  16 C :   -0.629803    0.000531
  17 C :   -0.657788    0.000126
  18 S :    0.361351   -0.000086
  19 S :    0.362700   -0.000083
  20 S :    0.371152   -0.000054
  21 S :    0.370779   -0.000056
  22 C :   -0.323908   -0.000007
  23 C :   -0.323445   -0.000009
  24 C :   -0.176580   -0.000002
  25 H :    0.069720   -0.000001
  26 H :    0.063508   -0.000000
  27 H :    0.064041   -0.000003
  28 H :    0.066247   -0.000002
  29 H :    0.063221   -0.000001
  30 H :    0.069352   -0.000001
  31 C :   -0.287526    0.000048
  32 C :   -0.287207    0.000041
  33 C :   -0.174392    0.000006
  34 H :    0.061515   -0.000001
  35 H :    0.053134    0.000009
  36 H :    0.060978    0.000004
  37 H :    0.058101    0.000002
  38 H :    0.053206    0.000010
  39 H :    0.061397   -0.000000

  Mayer bond orders larger than 0.100000
B(  0-V ,  1-S ) :   0.7701 B(  0-V ,  2-S ) :   0.7733 B(  0-V ,  3-S ) :   0.7634
B(  0-V ,  4-S ) :   0.7804 B(  0-V ,  5-O ) :   2.1491 B(  1-S ,  8-C ) :   1.1168
B(  2-S ,  6-C ) :   1.1062 B(  3-S ,  9-C ) :   1.1200 B(  4-S ,  7-C ) :   1.1069
B(  6-C ,  7-C ) :   1.6709 B(  6-C , 10-S ) :   0.9389 B(  7-C , 11-S ) :   0.9428
B(  8-C ,  9-C ) :   1.6297 B(  8-C , 13-S ) :   0.9521 B(  9-C , 12-S ) :   0.9540
B( 10-S , 14-C ) :   1.2493 B( 11-S , 14-C ) :   1.2492 B( 12-S , 15-C ) :   1.2532
B( 13-S , 15-C ) :   1.2535 B( 14-C , 16-C ) :   1.4351 B( 15-C , 17-C ) :   1.3647
B( 16-C , 18-S ) :   1.0874 B( 16-C , 19-S ) :   1.0886 B( 17-C , 20-S ) :   1.0767
B( 17-C , 21-S ) :   1.0767 B( 18-S , 32-C ) :   0.9912 B( 19-S , 31-C ) :   0.9911
B( 20-S , 23-C ) :   1.0139 B( 21-S , 22-C ) :   1.0140 B( 22-C , 24-C ) :   0.9724
B( 22-C , 25-H ) :   0.9374 B( 22-C , 26-H ) :   0.9449 B( 23-C , 24-C ) :   0.9723
B( 23-C , 29-H ) :   0.9452 B( 23-C , 30-H ) :   0.9378 B( 24-C , 27-H ) :   0.9440
B( 24-C , 28-H ) :   0.9664 B( 31-C , 33-C ) :   0.9210 B( 31-C , 38-H ) :   0.9641
B( 31-C , 39-H ) :   0.9650 B( 32-C , 33-C ) :   0.9206 B( 32-C , 34-H ) :   0.9648
B( 32-C , 35-H ) :   0.9641 B( 33-C , 36-H ) :   0.9731 B( 33-C , 37-H ) :   0.9603

FINAL SINGLE POINT ENERGY     -6337.628474207518

DIPOLE MOMENT
-------------
                                X             Y             Z
Electronic contribution:     -4.57290     -11.44544      -6.72609
Nuclear contribution   :      4.98819      12.53770       7.77997
                        -----------------------------------------
Total Dipole Moment    :      0.41529       1.09226       1.05388
                        -----------------------------------------
Magnitude (a.u.)       :      1.57358
Magnitude (Debye)      :      3.99972

Rotational constants in cm-1:     0.010753     0.000804     0.000783
Rotational constants in MHz :   322.358060    24.115282    23.485178

                             ****ORCA TERMINATED NORMALLY****
TOTAL RUN TIME: 0 days 1 hours 7 minutes 4 seconds 778 msec
