                         Program Version 5.0.4 -  RELEASE  -
|  1> ! nofrozencore ReducedPop printbasis
|  2> ! B3LYP TZVP
|  3>
|  4> %basis
|  5> newgto V "CP(PPP)" end
|  6> end
|  7>
|  8> %pal
|  9> nprocs 8
| 10> end
| 11>
| 12> % sym SymThresh 1e-2 end
| 13> * xyz -2 2
| 14> V 0.6160436180429862 0.8467661859042921 0.37739444142118106
| 15> S 2.0346692495062375 0.012836430021669173 -1.4704842793467812
| 16> S -0.8617491763265681 1.7252866340227386 -1.4036428081862455
| 17> S 1.4159604392653256 -1.1228244507475607 1.6455410411192983
| 18> S -1.458925384612357 0.4954327793482617 1.6640076265029382
| 19> O 1.341366329934019 2.1216384110291058 0.9880010703790919
| 20> C -2.2942480836697445 2.068313682859902 -0.44283408226017834
| 21> C -2.5345597927865375 1.5722066251395614 0.7855040069198458
| 22> C 2.9158014457248385 -1.278787162432551 -0.6560023216389141
| 23> C 2.669728763949905 -1.7345533094144356 0.5859834014687952
| 24> S -3.586988421421448 3.093845059254812 -1.1533888096128084
| 25> S -4.114197597260372 1.992871643438981 1.5263346125931223
| 26> S 3.6888907321183737 -3.098702386145093 1.139141553803069
| 27> S 4.234208458948443 -2.0943641067370056 -1.5750067181114351
| 28> C -4.732324015503168 2.966946065206381 0.1847687493147527
| 29> C 4.616413772716622 -3.321651854642274 -0.2848193554989411
| 30> C -5.962096270205248 3.5657388321053474 0.1922767890351158
| 31> C 5.55273741804773 -4.30569860976877 -0.4428708015944276
| 32> S -6.525038075089107 4.585351245611104 -1.1532666365447015
| 33> S -7.080112159391224 3.3964780638426273 1.5728718422787544
| 34> S 6.504769856974129 -4.453574125467497 -2.0254371939757045
| 35> S 5.895921816711702 -5.479900885810245 0.7557090375746904
| 36> C 5.430282450761673 -7.03839959115114 -0.128996437792909
| 37> C 5.8200493064791425 -6.110608484441629 -2.499828964391289
| 38> C 6.123883431235495 -7.223402268703955 -1.4490519077562143
| 39> H 4.390451050038628 -6.758421850264653 -0.45355412441956977
| 40> H 5.346404622788588 -7.907885065730409 0.5807057538932803
| 41> H 5.809084754331981 -8.182499714329388 -1.8837903847289434
| 42> H 7.228230373009702 -7.240423345370139 -1.3927881352815645
| 43> H 6.588439585679512 -6.372702254441594 -3.284066954418286
| 44> H 4.806091255810076 -6.091681897320723 -2.984873108314645
| 45> C -7.156513849037015 5.17443267014277 2.0826280037494835
| 46> C -6.683043740626066 6.185540343693605 -0.23491744216974256
| 47> C -7.624604106278344 6.114305122788958 0.9680530090036904
| 48> H -5.682127989828453 6.489335449004471 0.08003545296921834
| 49> H -7.045746496279674 6.9115662318129845 -0.9668763399329597
| 50> H -8.621300299897861 5.808030514453112 0.634979742042664
| 51> H -7.7174082613389015 7.124718903507903 1.3903710063785897
| 52> H -7.864091571450127 5.2020774785395725 2.9152633735112876
| 53> H -6.173712750520244 5.466944387387959 2.4592185011820407
| 54> *
| 55>
| 56> % eprnmr
| 57> gtensor true
| 58> Nuclei = all H {aiso,adip,aorb,fgrad,rho}
| 59> Nuclei = all V {aiso,adip,aorb,fgrad,rho}
| 60> end
| 61>
| 62>                          ****END OF INPUT****

CARTESIAN COORDINATES (ANGSTROEM)
---------------------------------
  V      0.612536    0.845675    0.376296
  S      2.031162    0.011746   -1.471583
  S     -0.865256    1.724196   -1.404742
  S      1.412453   -1.123915    1.644442
  S     -1.462433    0.494342    1.662909
  O      1.337859    2.120548    0.986902
  C     -2.297755    2.067223   -0.443933
  C     -2.538067    1.571116    0.784405
  C      2.912294   -1.279878   -0.657101
  C      2.666222   -1.735644    0.584885
  S     -3.590496    3.092754   -1.154488
  S     -4.117705    1.991781    1.525236
  S      3.685384   -3.099793    1.138043
  S      4.230701   -2.095455   -1.576106
  C     -4.735831    2.965855    0.183670
  C      4.612907   -3.322743   -0.285918
  C     -5.965603    3.564648    0.191178
  C      5.549230   -4.306789   -0.443970
  S     -6.528545    4.584260   -1.154365
  S     -7.083619    3.395387    1.571773
  S      6.501263   -4.454665   -2.026536
  S      5.892415   -5.480992    0.754610
  C      5.426775   -7.039490   -0.130095
  C      5.816542   -6.111699   -2.500928
  C      6.120376   -7.224493   -1.450151
  H      4.386944   -6.759513   -0.454653
  H      5.342897   -7.908976    0.579607
  H      5.805578   -8.183591   -1.884889
  H      7.224723   -7.241514   -1.393887
  H      6.584932   -6.373793   -3.285166
  H      4.802584   -6.092773   -2.985972
  C     -7.160021    5.173342    2.081529
  C     -6.686551    6.184450   -0.236016
  C     -7.628111    6.113214    0.966954
  H     -5.685635    6.488245    0.078937
  H     -7.049254    6.910475   -0.967975
  H     -8.624807    5.806940    0.633881
  H     -7.720915    7.123628    1.389272
  H     -7.867599    5.200987    2.914165
  H     -6.177220    5.465854    2.458120

 Total Charge           Charge          ....   -2
 Multiplicity           Mult            ....    2
 Number of Electrons    NEL             ....  321
 Basis Dimension        Dim             ....  681

ORBITAL ENERGIES
----------------
                 SPIN UP ORBITALS
  NO   OCC          E(Eh)            E(eV)
   0   1.0000    -196.674909     -5351.7963
   1   1.0000     -88.735417     -2414.6134
   2   1.0000     -88.733264     -2414.5549
   3   1.0000     -88.733072     -2414.5496
   4   1.0000     -88.731175     -2414.4980
   5   1.0000     -88.730679     -2414.4845
   6   1.0000     -88.730273     -2414.4735
   7   1.0000     -88.730193     -2414.4713
   8   1.0000     -88.730010     -2414.4663
   9   1.0000     -88.640332     -2412.0261
  10   1.0000     -88.639728     -2412.0096
  11   1.0000     -88.639515     -2412.0038
  12   1.0000     -88.639259     -2411.9969
  13   1.0000     -22.050306      -600.0193
  14   1.0000     -18.890231      -514.0293
  15   1.0000     -18.556754      -504.9549
  16   1.0000     -18.551581      -504.8142
  17   1.0000     -18.551482      -504.8115
  18   1.0000     -10.075909      -274.1794
  19   1.0000     -10.075770      -274.1756
  20   1.0000     -10.071810      -274.0679
  21   1.0000     -10.066041      -273.9109
  22   1.0000     -10.063536      -273.8427
  23   1.0000     -10.063350      -273.8377
  24   1.0000     -10.054526      -273.5976
  25   1.0000     -10.051304      -273.5099
  26   1.0000     -10.048252      -273.4268
  27   1.0000     -10.047587      -273.4087
  28   1.0000     -10.018472      -272.6165
  29   1.0000     -10.018165      -272.6081
  30   1.0000     -10.017401      -272.5873
  31   1.0000     -10.017248      -272.5832
  32   1.0000      -7.787727      -211.9148
  33   1.0000      -7.786675      -211.8862
  34   1.0000      -7.786553      -211.8829
  35   1.0000      -7.785851      -211.8638
  36   1.0000      -7.785212      -211.8464
  37   1.0000      -7.783488      -211.7995
  38   1.0000      -7.783272      -211.7936
  39   1.0000      -7.782463      -211.7716
  40   1.0000      -7.694479      -209.3774
  41   1.0000      -7.694023      -209.3650
  42   1.0000      -7.693739      -209.3573
  43   1.0000      -7.693718      -209.3567
  44   1.0000      -5.752729      -156.5397
  45   1.0000      -5.751664      -156.5107
  46   1.0000      -5.751543      -156.5074
  47   1.0000      -5.750768      -156.4863
  48   1.0000      -5.749892      -156.4625
  49   1.0000      -5.749595      -156.4544
  50   1.0000      -5.748421      -156.4225
  51   1.0000      -5.748260      -156.4181
  52   1.0000      -5.748226      -156.4172
  53   1.0000      -5.748124      -156.4144
  54   1.0000      -5.747639      -156.4012
  55   1.0000      -5.747133      -156.3874
  56   1.0000      -5.745519      -156.3435
  57   1.0000      -5.743997      -156.3021
  58   1.0000      -5.743787      -156.2964
  59   1.0000      -5.743144      -156.2789
  60   1.0000      -5.742438      -156.2597
  61   1.0000      -5.741465      -156.2332
  62   1.0000      -5.741346      -156.2300
  63   1.0000      -5.741254      -156.2275
  64   1.0000      -5.740740      -156.2135
  65   1.0000      -5.739319      -156.1748
  66   1.0000      -5.739081      -156.1683
  67   1.0000      -5.738103      -156.1417
  68   1.0000      -5.659819      -154.0115
  69   1.0000      -5.659333      -153.9983
  70   1.0000      -5.659080      -153.9914
  71   1.0000      -5.659025      -153.9899
  72   1.0000      -5.653140      -153.8298
  73   1.0000      -5.652672      -153.8170
  74   1.0000      -5.652414      -153.8100
  75   1.0000      -5.652382      -153.8091
  76   1.0000      -5.651814      -153.7937
  77   1.0000      -5.651356      -153.7812
  78   1.0000      -5.651035      -153.7725
  79   1.0000      -5.651017      -153.7720
  80   1.0000      -2.443959       -66.5035
  81   1.0000      -1.485265       -40.4161
  82   1.0000      -1.473594       -40.0985
  83   1.0000      -1.472784       -40.0765
  84   1.0000      -0.711113       -19.3504
  85   1.0000      -0.709488       -19.3061
  86   1.0000      -0.686163       -18.6715
  87   1.0000      -0.685613       -18.6565
  88   1.0000      -0.649805       -17.6821
  89   1.0000      -0.633134       -17.2284
  90   1.0000      -0.631328       -17.1793
  91   1.0000      -0.617253       -16.7963
  92   1.0000      -0.613862       -16.7040
  93   1.0000      -0.579001       -15.7554
  94   1.0000      -0.574450       -15.6316
  95   1.0000      -0.573118       -15.5953
  96   1.0000      -0.569392       -15.4939
  97   1.0000      -0.497112       -13.5271
  98   1.0000      -0.495975       -13.4962
  99   1.0000      -0.495595       -13.4858
 100   1.0000      -0.491932       -13.3861
 101   1.0000      -0.479311       -13.0427
 102   1.0000      -0.476801       -12.9744
 103   1.0000      -0.446575       -12.1519
 104   1.0000      -0.441181       -12.0052
 105   1.0000      -0.415922       -11.3178
 106   1.0000      -0.410896       -11.1811
 107   1.0000      -0.355347        -9.6695
 108   1.0000      -0.353610        -9.6222
 109   1.0000      -0.327965        -8.9244
 110   1.0000      -0.326672        -8.8892
 111   1.0000      -0.319362        -8.6903
 112   1.0000      -0.314831        -8.5670
 113   1.0000      -0.304606        -8.2888
 114   1.0000      -0.303696        -8.2640
 115   1.0000      -0.292429        -7.9574
 116   1.0000      -0.283685        -7.7195
 117   1.0000      -0.259408        -7.0589
 118   1.0000      -0.257609        -7.0099
 119   1.0000      -0.256390        -6.9767
 120   1.0000      -0.255312        -6.9474
 121   1.0000      -0.234432        -6.3792
 122   1.0000      -0.232806        -6.3350
 123   1.0000      -0.230719        -6.2782
 124   1.0000      -0.224120        -6.0986
 125   1.0000      -0.219432        -5.9710
 126   1.0000      -0.217798        -5.9266
 127   1.0000      -0.214040        -5.8243
 128   1.0000      -0.208178        -5.6648
 129   1.0000      -0.193316        -5.2604
 130   1.0000      -0.189173        -5.1477
 131   1.0000      -0.186053        -5.0627
 132   1.0000      -0.182908        -4.9772
 133   1.0000      -0.177001        -4.8164
 134   1.0000      -0.159545        -4.3414
 135   1.0000      -0.150728        -4.1015
 136   1.0000      -0.146118        -3.9761
 137   1.0000      -0.135790        -3.6950
 138   1.0000      -0.133924        -3.6442
 139   1.0000      -0.132364        -3.6018
 140   1.0000      -0.125072        -3.4034
 141   1.0000      -0.121107        -3.2955
 142   1.0000      -0.113478        -3.0879
 143   1.0000      -0.109620        -2.9829
 144   1.0000      -0.099965        -2.7202
 145   1.0000      -0.098475        -2.6796
 146   1.0000      -0.096428        -2.6239
 147   1.0000      -0.093951        -2.5565
 148   1.0000      -0.074481        -2.0267
 149   1.0000      -0.067916        -1.8481
 150   1.0000      -0.067367        -1.8332
 151   1.0000      -0.052322        -1.4237
 152   1.0000      -0.045574        -1.2401
 153   1.0000      -0.037340        -1.0161
 154   1.0000      -0.036942        -1.0052
 155   1.0000      -0.031005        -0.8437
 156   1.0000      -0.025003        -0.6804
 157   1.0000      -0.019109        -0.5200
 158   1.0000      -0.015455        -0.4205
 159   1.0000       0.020361         0.5541
 160   1.0000       0.041197         1.1210
 161   0.0000       0.134880         3.6703
 162   0.0000       0.136882         3.7248
 163   0.0000       0.157539         4.2869
 164   0.0000       0.162015         4.4087
 165   0.0000       0.168113         4.5746

                 SPIN DOWN ORBITALS
  NO   OCC          E(Eh)            E(eV)
   0   1.0000    -196.675056     -5351.8003
   1   1.0000     -88.735417     -2414.6135
   2   1.0000     -88.733265     -2414.5549
   3   1.0000     -88.733073     -2414.5497
   4   1.0000     -88.731175     -2414.4980
   5   1.0000     -88.730687     -2414.4848
   6   1.0000     -88.730280     -2414.4737
   7   1.0000     -88.730201     -2414.4715
   8   1.0000     -88.730019     -2414.4666
   9   1.0000     -88.640470     -2412.0298
  10   1.0000     -88.639868     -2412.0134
  11   1.0000     -88.639656     -2412.0077
  12   1.0000     -88.639396     -2412.0006
  13   1.0000     -22.035373      -599.6130
  14   1.0000     -18.894021      -514.1325
  15   1.0000     -18.551484      -504.8115
  16   1.0000     -18.535545      -504.3778
  17   1.0000     -18.535365      -504.3729
  18   1.0000     -10.075909      -274.1794
  19   1.0000     -10.075764      -274.1755
  20   1.0000     -10.071811      -274.0679
  21   1.0000     -10.066041      -273.9109
  22   1.0000     -10.063535      -273.8427
  23   1.0000     -10.063349      -273.8376
  24   1.0000     -10.054526      -273.5976
  25   1.0000     -10.051304      -273.5099
  26   1.0000     -10.048241      -273.4265
  27   1.0000     -10.047582      -273.4086
  28   1.0000     -10.018253      -272.6105
  29   1.0000     -10.017928      -272.6017
  30   1.0000     -10.017194      -272.5817
  31   1.0000     -10.017024      -272.5771
  32   1.0000      -7.787728      -211.9148
  33   1.0000      -7.786676      -211.8862
  34   1.0000      -7.786554      -211.8829
  35   1.0000      -7.785851      -211.8638
  36   1.0000      -7.785222      -211.8467
  37   1.0000      -7.783498      -211.7997
  38   1.0000      -7.783281      -211.7938
  39   1.0000      -7.782472      -211.7718
  40   1.0000      -7.694608      -209.3809
  41   1.0000      -7.694153      -209.3686
  42   1.0000      -7.693871      -209.3609
  43   1.0000      -7.693846      -209.3602
  44   1.0000      -5.752730      -156.5397
  45   1.0000      -5.751665      -156.5108
  46   1.0000      -5.751544      -156.5075
  47   1.0000      -5.750768      -156.4864
  48   1.0000      -5.749904      -156.4628
  49   1.0000      -5.749596      -156.4545
  50   1.0000      -5.748432      -156.4228
  51   1.0000      -5.748261      -156.4181
  52   1.0000      -5.748236      -156.4175
  53   1.0000      -5.748125      -156.4144
  54   1.0000      -5.747648      -156.4015
  55   1.0000      -5.747134      -156.3875
  56   1.0000      -5.745533      -156.3439
  57   1.0000      -5.744011      -156.3025
  58   1.0000      -5.743801      -156.2968
  59   1.0000      -5.743158      -156.2793
  60   1.0000      -5.742439      -156.2597
  61   1.0000      -5.741466      -156.2332
  62   1.0000      -5.741346      -156.2300
  63   1.0000      -5.741261      -156.2276
  64   1.0000      -5.740740      -156.2135
  65   1.0000      -5.739327      -156.1750
  66   1.0000      -5.739090      -156.1686
  67   1.0000      -5.738108      -156.1419
  68   1.0000      -5.659963      -154.0154
  69   1.0000      -5.659472      -154.0021
  70   1.0000      -5.659221      -153.9952
  71   1.0000      -5.659165      -153.9937
  72   1.0000      -5.653496      -153.8394
  73   1.0000      -5.653059      -153.8276
  74   1.0000      -5.652799      -153.8205
  75   1.0000      -5.652736      -153.8188
  76   1.0000      -5.651919      -153.7965
  77   1.0000      -5.651442      -153.7836
  78   1.0000      -5.651128      -153.7750
  79   1.0000      -5.651123      -153.7749
  80   1.0000      -2.399067       -65.2819
  81   1.0000      -1.465960       -39.8908
  82   1.0000      -1.411217       -38.4012
  83   1.0000      -1.411051       -38.3966
  84   1.0000      -0.711098       -19.3500
  85   1.0000      -0.709461       -19.3054
  86   1.0000      -0.686122       -18.6703
  87   1.0000      -0.685557       -18.6550
  88   1.0000      -0.657937       -17.9034
  89   1.0000      -0.633082       -17.2270
  90   1.0000      -0.631252       -17.1772
  91   1.0000      -0.617253       -16.7963
  92   1.0000      -0.613859       -16.7040
  93   1.0000      -0.578950       -15.7540
  94   1.0000      -0.574419       -15.6307
  95   1.0000      -0.573035       -15.5931
  96   1.0000      -0.569353       -15.4929
  97   1.0000      -0.497127       -13.5275
  98   1.0000      -0.496017       -13.4973
  99   1.0000      -0.495626       -13.4867
 100   1.0000      -0.492005       -13.3881
 101   1.0000      -0.479494       -13.0477
 102   1.0000      -0.477034       -12.9807
 103   1.0000      -0.446601       -12.1526
 104   1.0000      -0.441226       -12.0064
 105   1.0000      -0.415919       -11.3177
 106   1.0000      -0.411002       -11.1839
 107   1.0000      -0.355337        -9.6692
 108   1.0000      -0.353605        -9.6221
 109   1.0000      -0.327958        -8.9242
 110   1.0000      -0.326657        -8.8888
 111   1.0000      -0.319286        -8.6882
 112   1.0000      -0.314856        -8.5677
 113   1.0000      -0.304555        -8.2874
 114   1.0000      -0.303668        -8.2632
 115   1.0000      -0.292423        -7.9572
 116   1.0000      -0.283679        -7.7193
 117   1.0000      -0.259280        -7.0554
 118   1.0000      -0.257515        -7.0073
 119   1.0000      -0.256339        -6.9753
 120   1.0000      -0.255280        -6.9465
 121   1.0000      -0.234401        -6.3784
 122   1.0000      -0.232776        -6.3341
 123   1.0000      -0.230678        -6.2771
 124   1.0000      -0.224030        -6.0962
 125   1.0000      -0.219003        -5.9594
 126   1.0000      -0.217741        -5.9250
 127   1.0000      -0.213868        -5.8196
 128   1.0000      -0.208054        -5.6614
 129   1.0000      -0.191605        -5.2138
 130   1.0000      -0.189089        -5.1454
 131   1.0000      -0.185733        -5.0540
 132   1.0000      -0.182675        -4.9708
 133   1.0000      -0.176862        -4.8127
 134   1.0000      -0.158932        -4.3248
 135   1.0000      -0.150552        -4.0967
 136   1.0000      -0.146018        -3.9733
 137   1.0000      -0.135143        -3.6774
 138   1.0000      -0.133655        -3.6369
 139   1.0000      -0.132083        -3.5942
 140   1.0000      -0.124515        -3.3882
 141   1.0000      -0.120780        -3.2866
 142   1.0000      -0.115289        -3.1372
 143   1.0000      -0.111219        -3.0264
 144   1.0000      -0.099969        -2.7203
 145   1.0000      -0.098730        -2.6866
 146   1.0000      -0.096515        -2.6263
 147   1.0000      -0.094204        -2.5634
 148   1.0000      -0.070655        -1.9226
 149   1.0000      -0.067907        -1.8478
 150   1.0000      -0.067371        -1.8332
 151   1.0000      -0.049729        -1.3532
 152   1.0000      -0.044634        -1.2146
 153   1.0000      -0.037255        -1.0138
 154   1.0000      -0.036523        -0.9938
 155   1.0000      -0.031033        -0.8444
 156   1.0000      -0.026024        -0.7081
 157   1.0000      -0.015653        -0.4259
 158   1.0000       0.020657         0.5621
 159   1.0000       0.040094         1.0910
 160   0.0000       0.134889         3.6705
 161   0.0000       0.136892         3.7250
 162   0.0000       0.155029         4.2185
 163   0.0000       0.159287         4.3344
 164   0.0000       0.162882         4.4322

MULLIKEN ATOMIC CHARGES AND SPIN POPULATIONS
--------------------------------------------
   0 V :    0.471120    1.210826
   1 S :   -0.289938   -0.022809
   2 S :   -0.289614   -0.025296
   3 S :   -0.288630   -0.022967
   4 S :   -0.285520   -0.025700
   5 O :   -0.467674   -0.146832
   6 C :   -0.077900    0.009609
   7 C :   -0.083984    0.008165
   8 C :   -0.073807    0.007940
   9 C :   -0.095338    0.007194
  10 S :    0.100357   -0.000591
  11 S :    0.100327   -0.000623
  12 S :    0.121358   -0.000449
  13 S :    0.082630   -0.000285
  14 C :   -0.213582    0.001508
  15 C :   -0.210804    0.000975
  16 C :   -0.191789   -0.000064
  17 C :   -0.199313   -0.000392
  18 S :    0.009706   -0.000112
  19 S :    0.008567   -0.000113
  20 S :   -0.006917   -0.000087
  21 S :    0.033349   -0.000058
  22 C :   -0.321294    0.000004
  23 C :   -0.291055   -0.000007
  24 C :   -0.147708   -0.000011
  25 H :    0.139207   -0.000002
  26 H :    0.131055   -0.000003
  27 H :    0.083448   -0.000001
  28 H :    0.091704   -0.000001
  29 H :    0.087929   -0.000005
  30 H :    0.146601   -0.000000
  31 C :   -0.299010    0.000191
  32 C :   -0.301017    0.000189
  33 C :   -0.158242   -0.000235
  34 H :    0.141863   -0.000018
  35 H :    0.114281    0.000020
  36 H :    0.092246    0.000023
  37 H :    0.082771    0.000015
  38 H :    0.112455    0.000020
  39 H :    0.142158   -0.000017
Sum of atomic charges         :   -2.0000000

LOEWDIN ATOMIC CHARGES AND SPIN POPULATIONS
-------------------------------------------
   0 V :   -0.155889    1.164150
   1 S :    0.078920   -0.014768
   2 S :    0.079398   -0.016152
   3 S :    0.083124   -0.014922
   4 S :    0.083299   -0.016284
   5 O :   -0.318983   -0.131728
   6 C :   -0.550051    0.008989
   7 C :   -0.552040    0.008020
   8 C :   -0.548000    0.008268
   9 C :   -0.556286    0.007544
  10 S :    0.472266   -0.000903
  11 S :    0.471277   -0.000948
  12 S :    0.501613   -0.000881
  13 S :    0.445217   -0.000768
  14 C :   -0.465067    0.000164
  15 C :   -0.465884   -0.000088
  16 C :   -0.622756    0.000472
  17 C :   -0.626217    0.000083
  18 S :    0.359635   -0.000088
  19 S :    0.359275   -0.000088
  20 S :    0.334043   -0.000090
  21 S :    0.385890   -0.000064
  22 C :   -0.300946   -0.000004
  23 C :   -0.294248   -0.000009
  24 C :   -0.178668   -0.000002
  25 H :    0.072285   -0.000002
  26 H :    0.063909   -0.000001
  27 H :    0.059375   -0.000002
  28 H :    0.059543   -0.000001
  29 H :    0.054562   -0.000004
  30 H :    0.066353   -0.000001
  31 C :   -0.283916    0.000042
  32 C :   -0.283978    0.000037
  33 C :   -0.176337    0.000007
  34 H :    0.062229   -0.000001
  35 H :    0.053688    0.000008
  36 H :    0.060231    0.000004
  37 H :    0.057814    0.000002
  38 H :    0.053425    0.000008
  39 H :    0.061898   -0.000000

  Mayer bond orders larger than 0.100000
B(  0-V ,  1-S ) :   0.7715 B(  0-V ,  2-S ) :   0.7714 B(  0-V ,  3-S ) :   0.7640
B(  0-V ,  4-S ) :   0.7789 B(  0-V ,  5-O ) :   2.1487 B(  1-S ,  8-C ) :   1.1009
B(  2-S ,  6-C ) :   1.1045 B(  3-S ,  9-C ) :   1.1105 B(  4-S ,  7-C ) :   1.1045
B(  6-C ,  7-C ) :   1.6845 B(  6-C , 10-S ) :   0.9350 B(  7-C , 11-S ) :   0.9390
B(  8-C ,  9-C ) :   1.6962 B(  8-C , 13-S ) :   0.9324 B(  9-C , 12-S ) :   0.9380
B( 10-S , 14-C ) :   1.2505 B( 11-S , 14-C ) :   1.2466 B( 12-S , 15-C ) :   1.2962
B( 13-S , 15-C ) :   1.2014 B( 14-C , 16-C ) :   1.4513 B( 15-C , 17-C ) :   1.4511
B( 16-C , 18-S ) :   1.0907 B( 16-C , 19-S ) :   1.0869 B( 17-C , 20-S ) :   1.0183
B( 17-C , 21-S ) :   1.1681 B( 18-S , 32-C ) :   0.9894 B( 19-S , 31-C ) :   0.9943
B( 20-S , 23-C ) :   1.0349 B( 21-S , 22-C ) :   0.9289 B( 22-C , 24-C ) :   0.9097
B( 22-C , 25-H ) :   0.9883 B( 22-C , 26-H ) :   0.9432 B( 23-C , 24-C ) :   0.9018
B( 23-C , 29-H ) :   0.9811 B( 23-C , 30-H ) :   0.9371 B( 24-C , 27-H ) :   0.9656
B( 24-C , 28-H ) :   0.9707 B( 31-C , 33-C ) :   0.9134 B( 31-C , 38-H ) :   0.9663
B( 31-C , 39-H ) :   0.9648 B( 32-C , 33-C ) :   0.9135 B( 32-C , 34-H ) :   0.9666
B( 32-C , 35-H ) :   0.9648 B( 33-C , 36-H ) :   0.9718 B( 33-C , 37-H ) :   0.9624

FINAL SINGLE POINT ENERGY     -6337.682774881135

DIPOLE MOMENT
-------------
                                X             Y             Z
Electronic contribution:     10.06299       8.18829       4.06397
Nuclear contribution   :    -11.23809      -9.07090      -4.44914
                        -----------------------------------------
Total Dipole Moment    :     -1.17509      -0.88261      -0.38517
                        -----------------------------------------
Magnitude (a.u.)       :      1.51927
Magnitude (Debye)      :      3.86169

Rotational constants in cm-1:     0.010759     0.000804     0.000783
Rotational constants in MHz :   322.553017    24.115970    23.486386

                             ****ORCA TERMINATED NORMALLY****
TOTAL RUN TIME: 0 days 1 hours 2 minutes 1 seconds 900 msec
