                         Program Version 5.0.4 -  RELEASE  -
|  1> ! nofrozencore ReducedPop printbasis
|  2> ! B3LYP TZVP
|  3>
|  4> %basis
|  5> newgto V "CP(PPP)" end
|  6> end
|  7>
|  8> %pal
|  9> nprocs 8
| 10> end
| 11>
| 12> % sym SymThresh 1e-2 end
| 13> * xyz -2 2
| 14> V -0.6808376617933527 0.8650462887570307 -0.15107031983963065
| 15> S -1.617115605830886 -0.2594969792050827 1.8536647085588707
| 16> S 1.1483788010435063 1.5089035122282208 1.3977712332185188
| 17> S -1.8227764331958654 -0.9100510783903143 -1.448713691843004
| 18> S 1.0769457420424673 0.7940470890407542 -1.8812753224867176
| 19> O -1.511448995954611 2.1947628148349994 -0.40647363184633306
| 20> C 2.349388494494744 2.0430474206205793 0.2309749880816485
| 21> C 2.315432558678325 1.7602000138834153 -1.0851881983758258
| 22> C -2.6903282826830863 -1.445775574726774 1.1244682257431489
| 23> C -2.770017885303069 -1.7013281911881901 -0.19478761742071374
| 24> S 3.7852865573649925 2.9671318460599085 0.8095903166324342
| 25> S 3.6866801039580923 2.3596240715853942 -2.0701308615960303
| 26> S -3.9132451751844264 -2.987477079569984 -0.6942883054220452
| 27> S -3.7434295152233608 -2.4446494703585664 2.195896007683921
| 28> C 4.600704401816134 3.1069502750004436 -0.7529207529636363
| 29> C -4.460711117325364 -3.4429302976986866 0.9237476552453753
| 30> C 5.802387237644639 3.7284320900000583 -0.9592796958809382
| 31> C -5.35123900391497 -4.461292311653905 1.1292280441814593
| 32> S 6.713185524010602 4.562462254525822 0.3262797065734771
| 33> S 6.525999773424301 3.7809647984341135 -2.589668002636452
| 34> S -5.965617421542425 -4.919695617181204 2.7377938095706864
| 35> S -5.923233321810874 -5.4564081942934735 -0.2397581623331545
| 36> C -5.1701710876983595 -7.062586333995641 0.286318113035119
| 37> C -5.274907574468445 -6.638019879913945 2.8291220767447784
| 38> C -5.673760166214715 -7.540597978422742 1.6534540909934738
| 39> H -4.08123270962559 -6.941073516414893 0.28546088445698786
| 40> H -5.435479688516731 -7.785642713952661 -0.4941677483718956
| 41> H -5.261297504799058 -8.541918287505972 1.8414147564726562
| 42> H -6.766036390306673 -7.639585799973313 1.621439827077459
| 43> H -5.655240689082079 -7.050255445389756 3.7708072467215232
| 44> H -4.1848848667333 -6.559917746325167 2.904896727398026
| 45> C 6.469607921318699 5.610857672055429 -2.8516801164003414
| 46> C 6.6670004382894446 6.2800730474562565 -0.3720251907907144
| 47> C 7.24176457577282 6.397225951984048 -1.7881954078001998
| 48> H 5.63034385133438 6.6274757544261105 -0.345023444260275
| 49> H 7.250475595238905 6.889330359824853 0.32535505659602837
| 50> H 8.28790091940829 6.071261537373383 -1.7850825472934855
| 51> H 7.232195471020235 7.459262032099178 -2.0712612876337153
| 52> H 6.90380454358733 5.780490619785764 -3.8421257822845583
| 53> H 5.41961498855831 5.915737630246447 -2.881450592944683
| 54> *
| 55>
| 56> % eprnmr
| 57> gtensor true
| 58> Nuclei = all H {aiso,adip,aorb,fgrad,rho}
| 59> Nuclei = all V {aiso,adip,aorb,fgrad,rho}
| 60> end
| 61>
| 62>                          ****END OF INPUT****

CARTESIAN COORDINATES (ANGSTROEM)
---------------------------------
  V     -0.677180    0.863901   -0.150975
  S     -1.613458   -0.260642    1.853760
  S      1.152036    1.507758    1.397866
  S     -1.819119   -0.911196   -1.448619
  S      1.080603    0.792902   -1.881180
  O     -1.507791    2.193618   -0.406379
  C      2.353046    2.041902    0.231070
  C      2.319090    1.759055   -1.085093
  C     -2.686671   -1.446921    1.124563
  C     -2.766360   -1.702473   -0.194693
  S      3.788944    2.965987    0.809685
  S      3.690338    2.358479   -2.070036
  S     -3.909588   -2.988622   -0.694193
  S     -3.739772   -2.445795    2.195991
  C      4.604362    3.105805   -0.752826
  C     -4.457053   -3.444075    0.923843
  C      5.806045    3.727287   -0.959185
  C     -5.347581   -4.462437    1.129323
  S      6.716843    4.561317    0.326375
  S      6.529657    3.779820   -2.589573
  S     -5.961960   -4.920841    2.737889
  S     -5.919576   -5.457553   -0.239663
  C     -5.166513   -7.063731    0.286413
  C     -5.271250   -6.639165    2.829217
  C     -5.670103   -7.541743    1.653549
  H     -4.077575   -6.942219    0.285556
  H     -5.431822   -7.786788   -0.494073
  H     -5.257640   -8.543063    1.841510
  H     -6.762379   -7.640731    1.621535
  H     -5.651583   -7.051400    3.770902
  H     -4.181227   -6.561063    2.904992
  C      6.473266    5.609713   -2.851585
  C      6.670658    6.278928   -0.371930
  C      7.245422    6.396081   -1.788100
  H      5.634001    6.626331   -0.344928
  H      7.254133    6.888185    0.325450
  H      8.291559    6.070116   -1.784988
  H      7.235853    7.458117   -2.071166
  H      6.907462    5.779346   -3.842031
  H      5.423273    5.914593   -2.881356

 Total Charge           Charge          ....   -2
 Multiplicity           Mult            ....    2
 Number of Electrons    NEL             ....  321
 Basis Dimension        Dim             ....  681

ORBITAL ENERGIES
----------------
                 SPIN UP ORBITALS
  NO   OCC          E(Eh)            E(eV)
   0   1.0000    -196.675729     -5351.8187
   1   1.0000     -88.734193     -2414.5801
   2   1.0000     -88.734030     -2414.5757
   3   1.0000     -88.732364     -2414.5304
   4   1.0000     -88.731919     -2414.5183
   5   1.0000     -88.731407     -2414.5043
   6   1.0000     -88.731287     -2414.5011
   7   1.0000     -88.729435     -2414.4507
   8   1.0000     -88.729276     -2414.4463
   9   1.0000     -88.640320     -2412.0257
  10   1.0000     -88.639774     -2412.0109
  11   1.0000     -88.639641     -2412.0073
  12   1.0000     -88.639330     -2411.9988
  13   1.0000     -22.051037      -600.0392
  14   1.0000     -18.890829      -514.0456
  15   1.0000     -18.557495      -504.9751
  16   1.0000     -18.552323      -504.8344
  17   1.0000     -18.552210      -504.8313
  18   1.0000     -10.076340      -274.1911
  19   1.0000     -10.076219      -274.1879
  20   1.0000     -10.064653      -273.8731
  21   1.0000     -10.064378      -273.8656
  22   1.0000     -10.063543      -273.8429
  23   1.0000     -10.063403      -273.8391
  24   1.0000     -10.051829      -273.5242
  25   1.0000     -10.051694      -273.5205
  26   1.0000     -10.048658      -273.4379
  27   1.0000     -10.048620      -273.4369
  28   1.0000     -10.018811      -272.6257
  29   1.0000     -10.018467      -272.6163
  30   1.0000     -10.017190      -272.5816
  31   1.0000     -10.017187      -272.5815
  32   1.0000      -7.787470      -211.9078
  33   1.0000      -7.787299      -211.9032
  34   1.0000      -7.785909      -211.8653
  35   1.0000      -7.785464      -211.8533
  36   1.0000      -7.784458      -211.8259
  37   1.0000      -7.784397      -211.8242
  38   1.0000      -7.782761      -211.7797
  39   1.0000      -7.782651      -211.7767
  40   1.0000      -7.694477      -209.3774
  41   1.0000      -7.694013      -209.3647
  42   1.0000      -7.693900      -209.3617
  43   1.0000      -7.693569      -209.3526
  44   1.0000      -5.752490      -156.5332
  45   1.0000      -5.752318      -156.5285
  46   1.0000      -5.750875      -156.4893
  47   1.0000      -5.750432      -156.4772
  48   1.0000      -5.749419      -156.4496
  49   1.0000      -5.749342      -156.4475
  50   1.0000      -5.749040      -156.4393
  51   1.0000      -5.748890      -156.4352
  52   1.0000      -5.747698      -156.4028
  53   1.0000      -5.747598      -156.4001
  54   1.0000      -5.747488      -156.3971
  55   1.0000      -5.747050      -156.3852
  56   1.0000      -5.745013      -156.3298
  57   1.0000      -5.744936      -156.3277
  58   1.0000      -5.743261      -156.2821
  59   1.0000      -5.743137      -156.2787
  60   1.0000      -5.742275      -156.2552
  61   1.0000      -5.742086      -156.2501
  62   1.0000      -5.740697      -156.2123
  63   1.0000      -5.740281      -156.2010
  64   1.0000      -5.740246      -156.2000
  65   1.0000      -5.740240      -156.1999
  66   1.0000      -5.738576      -156.1546
  67   1.0000      -5.738464      -156.1515
  68   1.0000      -5.659820      -154.0115
  69   1.0000      -5.659337      -153.9984
  70   1.0000      -5.659215      -153.9951
  71   1.0000      -5.658884      -153.9861
  72   1.0000      -5.653133      -153.8296
  73   1.0000      -5.652695      -153.8177
  74   1.0000      -5.652549      -153.8137
  75   1.0000      -5.652232      -153.8051
  76   1.0000      -5.651812      -153.7936
  77   1.0000      -5.651333      -153.7806
  78   1.0000      -5.651214      -153.7774
  79   1.0000      -5.650866      -153.7679
  80   1.0000      -2.444569       -66.5201
  81   1.0000      -1.485915       -40.4338
  82   1.0000      -1.474184       -40.1146
  83   1.0000      -1.473295       -40.0904
  84   1.0000      -0.709044       -19.2941
  85   1.0000      -0.708808       -19.2876
  86   1.0000      -0.685078       -18.6419
  87   1.0000      -0.684569       -18.6281
  88   1.0000      -0.650319       -17.6961
  89   1.0000      -0.630874       -17.1670
  90   1.0000      -0.630367       -17.1531
  91   1.0000      -0.616858       -16.7856
  92   1.0000      -0.616444       -16.7743
  93   1.0000      -0.574381       -15.6297
  94   1.0000      -0.574159       -15.6236
  95   1.0000      -0.573063       -15.5938
  96   1.0000      -0.572192       -15.5701
  97   1.0000      -0.497026       -13.5248
  98   1.0000      -0.495530       -13.4841
  99   1.0000      -0.495257       -13.4766
 100   1.0000      -0.494424       -13.4539
 101   1.0000      -0.479388       -13.0448
 102   1.0000      -0.476916       -12.9775
 103   1.0000      -0.447003       -12.1636
 104   1.0000      -0.444835       -12.1046
 105   1.0000      -0.416196       -11.3253
 106   1.0000      -0.411094       -11.1864
 107   1.0000      -0.354894        -9.6571
 108   1.0000      -0.354230        -9.6391
 109   1.0000      -0.326269        -8.8782
 110   1.0000      -0.325593        -8.8598
 111   1.0000      -0.318708        -8.6725
 112   1.0000      -0.314320        -8.5531
 113   1.0000      -0.304129        -8.2758
 114   1.0000      -0.303348        -8.2545
 115   1.0000      -0.292117        -7.9489
 116   1.0000      -0.291292        -7.9265
 117   1.0000      -0.258081        -7.0227
 118   1.0000      -0.257195        -6.9986
 119   1.0000      -0.256056        -6.9676
 120   1.0000      -0.254997        -6.9388
 121   1.0000      -0.234393        -6.3782
 122   1.0000      -0.233815        -6.3624
 123   1.0000      -0.230959        -6.2847
 124   1.0000      -0.229755        -6.2519
 125   1.0000      -0.219656        -5.9772
 126   1.0000      -0.217875        -5.9287
 127   1.0000      -0.214029        -5.8240
 128   1.0000      -0.211817        -5.7638
 129   1.0000      -0.192769        -5.2455
 130   1.0000      -0.186985        -5.0881
 131   1.0000      -0.185815        -5.0563
 132   1.0000      -0.184313        -5.0154
 133   1.0000      -0.179294        -4.8788
 134   1.0000      -0.159748        -4.3470
 135   1.0000      -0.151323        -4.1177
 136   1.0000      -0.146674        -3.9912
 137   1.0000      -0.135680        -3.6921
 138   1.0000      -0.134276        -3.6538
 139   1.0000      -0.132452        -3.6042
 140   1.0000      -0.125652        -3.4192
 141   1.0000      -0.121124        -3.2960
 142   1.0000      -0.113835        -3.0976
 143   1.0000      -0.110036        -2.9942
 144   1.0000      -0.099593        -2.7101
 145   1.0000      -0.098132        -2.6703
 146   1.0000      -0.097018        -2.6400
 147   1.0000      -0.094678        -2.5763
 148   1.0000      -0.074554        -2.0287
 149   1.0000      -0.067230        -1.8294
 150   1.0000      -0.066788        -1.8174
 151   1.0000      -0.051999        -1.4150
 152   1.0000      -0.045748        -1.2449
 153   1.0000      -0.037563        -1.0221
 154   1.0000      -0.036417        -0.9909
 155   1.0000      -0.031491        -0.8569
 156   1.0000      -0.024761        -0.6738
 157   1.0000      -0.019513        -0.5310
 158   1.0000      -0.015426        -0.4198
 159   1.0000       0.020551         0.5592
 160   1.0000       0.041069         1.1175
 161   0.0000       0.136672         3.7190
 162   0.0000       0.137072         3.7299
 163   0.0000       0.161929         4.4063
 164   0.0000       0.162360         4.4180
 165   0.0000       0.170087         4.6283

                 SPIN DOWN ORBITALS
  NO   OCC          E(Eh)            E(eV)
   0   1.0000    -196.675876     -5351.8227
   1   1.0000     -88.734194     -2414.5802
   2   1.0000     -88.734031     -2414.5757
   3   1.0000     -88.732364     -2414.5304
   4   1.0000     -88.731919     -2414.5183
   5   1.0000     -88.731416     -2414.5046
   6   1.0000     -88.731296     -2414.5013
   7   1.0000     -88.729443     -2414.4509
   8   1.0000     -88.729284     -2414.4466
   9   1.0000     -88.640460     -2412.0295
  10   1.0000     -88.639908     -2412.0145
  11   1.0000     -88.639780     -2412.0110
  12   1.0000     -88.639471     -2412.0026
  13   1.0000     -22.036097      -599.6327
  14   1.0000     -18.894614      -514.1486
  15   1.0000     -18.552222      -504.8316
  16   1.0000     -18.536315      -504.3988
  17   1.0000     -18.536051      -504.3916
  18   1.0000     -10.076340      -274.1911
  19   1.0000     -10.076214      -274.1877
  20   1.0000     -10.064654      -273.8731
  21   1.0000     -10.064376      -273.8656
  22   1.0000     -10.063543      -273.8429
  23   1.0000     -10.063402      -273.8391
  24   1.0000     -10.051829      -273.5242
  25   1.0000     -10.051694      -273.5205
  26   1.0000     -10.048654      -273.4378
  27   1.0000     -10.048609      -273.4366
  28   1.0000     -10.018594      -272.6198
  29   1.0000     -10.018261      -272.6107
  30   1.0000     -10.016974      -272.5757
  31   1.0000     -10.016951      -272.5751
  32   1.0000      -7.787471      -211.9078
  33   1.0000      -7.787299      -211.9032
  34   1.0000      -7.785909      -211.8654
  35   1.0000      -7.785465      -211.8533
  36   1.0000      -7.784468      -211.8261
  37   1.0000      -7.784407      -211.8245
  38   1.0000      -7.782771      -211.7800
  39   1.0000      -7.782660      -211.7770
  40   1.0000      -7.694608      -209.3809
  41   1.0000      -7.694138      -209.3681
  42   1.0000      -7.694029      -209.3652
  43   1.0000      -7.693699      -209.3562
  44   1.0000      -5.752491      -156.5332
  45   1.0000      -5.752320      -156.5286
  46   1.0000      -5.750877      -156.4893
  47   1.0000      -5.750433      -156.4772
  48   1.0000      -5.749430      -156.4499
  49   1.0000      -5.749353      -156.4478
  50   1.0000      -5.749041      -156.4394
  51   1.0000      -5.748891      -156.4353
  52   1.0000      -5.747709      -156.4031
  53   1.0000      -5.747609      -156.4004
  54   1.0000      -5.747490      -156.3971
  55   1.0000      -5.747051      -156.3852
  56   1.0000      -5.745028      -156.3302
  57   1.0000      -5.744951      -156.3281
  58   1.0000      -5.743275      -156.2824
  59   1.0000      -5.743151      -156.2791
  60   1.0000      -5.742276      -156.2553
  61   1.0000      -5.742086      -156.2501
  62   1.0000      -5.740698      -156.2123
  63   1.0000      -5.740287      -156.2012
  64   1.0000      -5.740249      -156.2001
  65   1.0000      -5.740246      -156.2000
  66   1.0000      -5.738585      -156.1548
  67   1.0000      -5.738470      -156.1517
  68   1.0000      -5.659961      -154.0154
  69   1.0000      -5.659477      -154.0022
  70   1.0000      -5.659356      -153.9989
  71   1.0000      -5.659023      -153.9898
  72   1.0000      -5.653515      -153.8400
  73   1.0000      -5.653044      -153.8271
  74   1.0000      -5.652908      -153.8234
  75   1.0000      -5.652620      -153.8156
  76   1.0000      -5.651901      -153.7960
  77   1.0000      -5.651428      -153.7832
  78   1.0000      -5.651322      -153.7803
  79   1.0000      -5.650957      -153.7704
  80   1.0000      -2.399667       -65.2983
  81   1.0000      -1.466599       -39.9082
  82   1.0000      -1.411685       -38.4139
  83   1.0000      -1.411657       -38.4131
  84   1.0000      -0.709018       -19.2934
  85   1.0000      -0.708793       -19.2872
  86   1.0000      -0.685024       -18.6404
  87   1.0000      -0.684528       -18.6269
  88   1.0000      -0.658443       -17.9171
  89   1.0000      -0.630802       -17.1650
  90   1.0000      -0.630307       -17.1515
  91   1.0000      -0.616858       -16.7856
  92   1.0000      -0.616446       -16.7744
  93   1.0000      -0.574342       -15.6287
  94   1.0000      -0.574130       -15.6229
  95   1.0000      -0.573003       -15.5922
  96   1.0000      -0.572133       -15.5685
  97   1.0000      -0.497053       -13.5255
  98   1.0000      -0.495574       -13.4853
  99   1.0000      -0.495297       -13.4777
 100   1.0000      -0.494460       -13.4549
 101   1.0000      -0.479580       -13.0500
 102   1.0000      -0.477168       -12.9844
 103   1.0000      -0.447024       -12.1641
 104   1.0000      -0.444884       -12.1059
 105   1.0000      -0.416193       -11.3252
 106   1.0000      -0.411203       -11.1894
 107   1.0000      -0.354884        -9.6569
 108   1.0000      -0.354226        -9.6390
 109   1.0000      -0.326253        -8.8778
 110   1.0000      -0.325584        -8.8596
 111   1.0000      -0.318633        -8.6704
 112   1.0000      -0.314348        -8.5538
 113   1.0000      -0.304078        -8.2744
 114   1.0000      -0.303326        -8.2539
 115   1.0000      -0.292111        -7.9487
 116   1.0000      -0.291288        -7.9264
 117   1.0000      -0.257946        -7.0191
 118   1.0000      -0.257100        -6.9960
 119   1.0000      -0.256022        -6.9667
 120   1.0000      -0.254966        -6.9380
 121   1.0000      -0.234351        -6.3770
 122   1.0000      -0.233800        -6.3620
 123   1.0000      -0.230909        -6.2834
 124   1.0000      -0.229726        -6.2512
 125   1.0000      -0.219277        -5.9668
 126   1.0000      -0.217777        -5.9260
 127   1.0000      -0.213832        -5.8187
 128   1.0000      -0.211695        -5.7605
 129   1.0000      -0.191075        -5.1994
 130   1.0000      -0.186918        -5.0863
 131   1.0000      -0.185488        -5.0474
 132   1.0000      -0.184027        -5.0076
 133   1.0000      -0.179180        -4.8757
 134   1.0000      -0.159130        -4.3302
 135   1.0000      -0.151152        -4.1131
 136   1.0000      -0.146597        -3.9891
 137   1.0000      -0.135064        -3.6753
 138   1.0000      -0.133886        -3.6432
 139   1.0000      -0.132255        -3.5989
 140   1.0000      -0.125074        -3.4034
 141   1.0000      -0.120816        -3.2876
 142   1.0000      -0.115658        -3.1472
 143   1.0000      -0.111642        -3.0379
 144   1.0000      -0.099579        -2.7097
 145   1.0000      -0.098428        -2.6784
 146   1.0000      -0.097040        -2.6406
 147   1.0000      -0.094981        -2.5846
 148   1.0000      -0.070706        -1.9240
 149   1.0000      -0.067134        -1.8268
 150   1.0000      -0.066770        -1.8169
 151   1.0000      -0.049422        -1.3448
 152   1.0000      -0.044803        -1.2192
 153   1.0000      -0.037593        -1.0229
 154   1.0000      -0.035841        -0.9753
 155   1.0000      -0.031482        -0.8567
 156   1.0000      -0.025708        -0.6995
 157   1.0000      -0.015763        -0.4289
 158   1.0000       0.020876         0.5681
 159   1.0000       0.039905         1.0859
 160   0.0000       0.136677         3.7192
 161   0.0000       0.137063         3.7297
 162   0.0000       0.155546         4.2326
 163   0.0000       0.162190         4.4134
 164   0.0000       0.163414         4.4467

MULLIKEN ATOMIC CHARGES AND SPIN POPULATIONS
--------------------------------------------
   0 V :    0.473013    1.210595
   1 S :   -0.289724   -0.023348
   2 S :   -0.287521   -0.025827
   3 S :   -0.292509   -0.021617
   4 S :   -0.288604   -0.024833
   5 O :   -0.465647   -0.147018
   6 C :   -0.076067    0.008505
   7 C :   -0.086237    0.009074
   8 C :   -0.082299    0.007433
   9 C :   -0.087685    0.007377
  10 S :    0.098266   -0.000708
  11 S :    0.101992   -0.000561
  12 S :    0.102224   -0.000336
  13 S :    0.097510   -0.000468
  14 C :   -0.211782    0.001442
  15 C :   -0.209434    0.000904
  16 C :   -0.193026   -0.000026
  17 C :   -0.192821   -0.000373
  18 S :    0.007640   -0.000112
  19 S :    0.009744   -0.000115
  20 S :    0.006653   -0.000068
  21 S :    0.008727   -0.000079
  22 C :   -0.303408    0.000003
  23 C :   -0.296963   -0.000001
  24 C :   -0.158416   -0.000013
  25 H :    0.146008   -0.000002
  26 H :    0.114972   -0.000004
  27 H :    0.083577   -0.000000
  28 H :    0.091947   -0.000001
  29 H :    0.111399   -0.000005
  30 H :    0.140667   -0.000000
  31 C :   -0.301879    0.000183
  32 C :   -0.298529    0.000191
  33 C :   -0.157938   -0.000229
  34 H :    0.140429   -0.000018
  35 H :    0.112045    0.000023
  36 H :    0.092265    0.000022
  37 H :    0.082755    0.000015
  38 H :    0.114327    0.000016
  39 H :    0.144327   -0.000017
Sum of atomic charges         :   -2.0000000

LOEWDIN ATOMIC CHARGES AND SPIN POPULATIONS
-------------------------------------------
   0 V :   -0.152746    1.164386
   1 S :    0.078158   -0.015348
   2 S :    0.079175   -0.016649
   3 S :    0.078948   -0.013911
   4 S :    0.080933   -0.015681
   5 O :   -0.317456   -0.131908
   6 C :   -0.547420    0.007907
   7 C :   -0.552981    0.008926
   8 C :   -0.549973    0.007660
   9 C :   -0.553329    0.007910
  10 S :    0.469523   -0.000963
  11 S :    0.472538   -0.000940
  12 S :    0.473101   -0.000862
  13 S :    0.467934   -0.000856
  14 C :   -0.464354    0.000156
  15 C :   -0.464290   -0.000105
  16 C :   -0.621943    0.000459
  17 C :   -0.621536    0.000070
  18 S :    0.356158   -0.000086
  19 S :    0.360833   -0.000091
  20 S :    0.357444   -0.000074
  21 S :    0.357349   -0.000081
  22 C :   -0.283408   -0.000007
  23 C :   -0.284849   -0.000009
  24 C :   -0.176398   -0.000001
  25 H :    0.064383   -0.000002
  26 H :    0.054385   -0.000002
  27 H :    0.057856   -0.000002
  28 H :    0.060553   -0.000001
  29 H :    0.053784   -0.000003
  30 H :    0.061929   -0.000001
  31 C :   -0.284211    0.000035
  32 C :   -0.284308    0.000045
  33 C :   -0.176426    0.000006
  34 H :    0.061668   -0.000000
  35 H :    0.053585    0.000009
  36 H :    0.060405    0.000004
  37 H :    0.057759    0.000002
  38 H :    0.054094    0.000007
  39 H :    0.063134   -0.000001

  Mayer bond orders larger than 0.100000
B(  0-V ,  1-S ) :   0.7649 B(  0-V ,  2-S ) :   0.7653 B(  0-V ,  3-S ) :   0.7688
B(  0-V ,  4-S ) :   0.7838 B(  0-V ,  5-O ) :   2.1513 B(  1-S ,  8-C ) :   1.1081
B(  2-S ,  6-C ) :   1.1092 B(  3-S ,  9-C ) :   1.0995 B(  4-S ,  7-C ) :   1.0967
B(  6-C ,  7-C ) :   1.6872 B(  6-C , 10-S ) :   0.9313 B(  7-C , 11-S ) :   0.9404
B(  8-C ,  9-C ) :   1.7017 B(  8-C , 13-S ) :   0.9282 B(  9-C , 12-S ) :   0.9388
B( 10-S , 14-C ) :   1.2496 B( 11-S , 14-C ) :   1.2456 B( 12-S , 15-C ) :   1.2430
B( 13-S , 15-C ) :   1.2482 B( 14-C , 16-C ) :   1.4504 B( 15-C , 17-C ) :   1.4518
B( 16-C , 18-S ) :   1.0845 B( 16-C , 19-S ) :   1.0933 B( 17-C , 20-S ) :   1.0844
B( 17-C , 21-S ) :   1.0907 B( 18-S , 32-C ) :   0.9944 B( 19-S , 31-C ) :   0.9890
B( 20-S , 23-C ) :   0.9958 B( 21-S , 22-C ) :   0.9863 B( 22-C , 24-C ) :   0.9099
B( 22-C , 25-H ) :   0.9664 B( 22-C , 26-H ) :   0.9649 B( 23-C , 24-C ) :   0.9176
B( 23-C , 29-H ) :   0.9651 B( 23-C , 30-H ) :   0.9645 B( 24-C , 27-H ) :   0.9625
B( 24-C , 28-H ) :   0.9714 B( 31-C , 33-C ) :   0.9112 B( 31-C , 38-H ) :   0.9652
B( 31-C , 39-H ) :   0.9665 B( 32-C , 33-C ) :   0.9161 B( 32-C , 34-H ) :   0.9649
B( 32-C , 35-H ) :   0.9653 B( 33-C , 36-H ) :   0.9716 B( 33-C , 37-H ) :   0.9624

FINAL SINGLE POINT ENERGY     -6337.705836923964

DIPOLE MOMENT
-------------
                                X             Y             Z
Electronic contribution:    -10.71450       8.40260      -0.03774
Nuclear contribution   :     11.91272      -9.36307       0.05324
                        -----------------------------------------
Total Dipole Moment    :      1.19822      -0.96047       0.01550
                        -----------------------------------------
Magnitude (a.u.)       :      1.53573
Magnitude (Debye)      :      3.90353

Rotational constants in cm-1:     0.010748     0.000802     0.000781
Rotational constants in MHz :   322.224402    24.031488    23.412347

                             ****ORCA TERMINATED NORMALLY****
TOTAL RUN TIME: 0 days 1 hours 1 minutes 53 seconds 817 msec
