                         Program Version 5.0.4 -  RELEASE  -
|  1> ! nofrozencore ReducedPop printbasis
|  2> ! B3LYP TZVP
|  3>
|  4> %basis
|  5> newgto V "CP(PPP)" end
|  6> end
|  7>
|  8> %pal
|  9> nprocs 6
| 10> end
| 11>
| 12> % sym SymThresh 1e-2 end
| 13> * xyz -2 2
| 14> V -0.03528489997579394 1.0619935059623495 0.3315044136938388
| 15> S 1.78618682654354 0.18002917223142384 1.7539431995047574
| 16> S 1.592268968012007 0.9068163848057715 -1.5270044018950204
| 17> S -1.57178912169702 -0.12486791965428289 1.8682266736536877
| 18> S -1.7385369017249983 0.5079734440095246 -1.3646811416871507
| 19> O -0.1676068555629307 2.6138100553562773 0.6455020124087316
| 20> C 0.4902714625936898 1.078470608238135 -2.8868377220201884
| 21> C -0.8445863125855444 0.9150824757430673 -2.821815833210965
| 22> C 0.8733672787479789 -0.4975690257496053 3.0953630931850205
| 23> C -0.46580703387997197 -0.6215277326611942 3.1388386177392076
| 24> S 1.171455831515175 1.4241912039371192 -4.513006747030989
| 25> S -1.7457042061852484 1.049996684119053 -4.367929447597926
| 26> S -1.150990954101719 -1.4012594141393935 4.604514846552972
| 27> S 1.779648449308292 -1.124818862878367 4.514167410379528
| 28> C -0.3517155715307114 1.3625730734591788 -5.408369809766787
| 29> C 0.38551199706284744 -1.7444255338676047 5.407455696380817
| 30> C -0.44633156255917467 1.5480939439932093 -6.760326697656337
| 31> C 0.4840326024314288 -2.409545561768029 6.598070315006233
| 32> S 0.9778223303941762 1.917773805702218 -7.765775232419616
| 33> S -2.01018068305512 1.469119671629926 -7.6111562494266956
| 34> S 2.0576579579711565 -2.7348635229346097 7.368278940431115
| 35> S -0.952596494799467 -3.0335084224222664 7.449087272394112
| 36> C -0.5451472477625368 -4.836256608566372 7.372399196807511
| 37> C 2.0098784299900125 -4.583645527424454 7.309258632956402
| 38> C 0.796388688956061 -5.195678877703375 8.006576339857434
| 39> H -0.5744034801594409 -5.156365472567887 6.280518739365123
| 40> H -1.3923986561853132 -5.3603268041110175 7.913977631482876
| 41> H 0.9046496237327427 -6.288106912636384 7.991926989268277
| 42> H 0.7907053960735949 -4.872746858317418 9.10205241809845
| 43> H 2.9571473763321188 -4.9214342260367845 7.8047463910238495
| 44> H 2.049618859455132 -4.898395150106491 6.2287987837017225
| 45> C -2.054398894614508 3.1979899219803065 -8.235301607224782
| 46> C 0.4840801517503389 3.62082606980139 -8.349535300054189
| 47> C -0.8769220628802359 3.6039430246106963 -9.095260101860298
| 48> H 0.4485320276608783 4.06952835716711 -7.76045064909179
| 49> H 1.0118072109083556 3.8305002975297784 -8.801991994750969
| 50> H -0.8194552095397409 2.955857864625104 -9.934421857500169
| 51> H -1.0462515701648127 4.62144884933879 -9.476497023901121
| 52> H -3.2510651813771894 3.292438934978969 -8.974513033782973
| 53> H -2.1850428995361613 4.0398819000623565 -7.137988719029204
| 54> *
| 55>
| 56> % eprnmr
| 57> gtensor true
| 58> Nuclei = all H {aiso,adip,aorb,fgrad,rho}
| 59> Nuclei = all V {aiso,adip,aorb,fgrad,rho}
| 60> end
| 61>
| 62>                          ****END OF INPUT****

CARTESIAN COORDINATES (ANGSTROEM)
---------------------------------
  V     -0.035171    1.059649    0.328473
  S      1.786300    0.177684    1.750912
  S      1.592382    0.904472   -1.530035
  S     -1.571676   -0.127213    1.865196
  S     -1.738423    0.505629   -1.367712
  O     -0.167493    2.611465    0.642471
  C      0.490385    1.076126   -2.889869
  C     -0.844473    0.912738   -2.824847
  C      0.873481   -0.499914    3.092332
  C     -0.465694   -0.623873    3.135808
  S      1.171569    1.421846   -4.516038
  S     -1.745591    1.047652   -4.370960
  S     -1.150877   -1.403604    4.601484
  S      1.779762   -1.127164    4.511136
  C     -0.351602    1.360228   -5.411401
  C      0.385625   -1.746770    5.404425
  C     -0.446218    1.545749   -6.763358
  C      0.484146   -2.411890    6.595039
  S      0.977936    1.915429   -7.768806
  S     -2.010067    1.466775   -7.614187
  S      2.057771   -2.737208    7.365248
  S     -0.952483   -3.035853    7.446056
  C     -0.545034   -4.838601    7.369368
  C      2.009992   -4.585990    7.306228
  C      0.796502   -5.198024    8.003545
  H     -0.574290   -5.158710    6.277488
  H     -1.392285   -5.362672    7.910947
  H      0.904763   -6.290452    7.988896
  H      0.790819   -4.875092    9.099021
  H      2.957261   -4.923779    7.801715
  H      2.049732   -4.900740    6.225768
  C     -2.054285    3.195645   -8.238333
  C      0.484194    3.618481   -8.352566
  C     -0.876809    3.601598   -9.098291
  H      0.448646    4.067184   -7.763482
  H      1.011921    3.828156   -8.805023
  H     -0.819342    2.953513   -9.937453
  H     -1.046138    4.619104   -9.479528
  H     -3.250952    3.290094   -8.977544
  H     -2.184929    4.037537   -7.141020

 Total Charge           Charge          ....   -2
 Multiplicity           Mult            ....    2
 Number of Electrons    NEL             ....  321
 Basis Dimension        Dim             ....  681

ORBITAL ENERGIES
----------------
                 SPIN UP ORBITALS
  NO   OCC          E(Eh)            E(eV)
   0   1.0000    -196.675504     -5351.8125
   1   1.0000     -88.738592     -2414.6999
   2   1.0000     -88.734063     -2414.5766
   3   1.0000     -88.734038     -2414.5759
   4   1.0000     -88.733682     -2414.5662
   5   1.0000     -88.732028     -2414.5212
   6   1.0000     -88.731566     -2414.5087
   7   1.0000     -88.730754     -2414.4866
   8   1.0000     -88.730685     -2414.4847
   9   1.0000     -88.640516     -2412.0311
  10   1.0000     -88.640413     -2412.0283
  11   1.0000     -88.640388     -2412.0276
  12   1.0000     -88.639889     -2412.0140
  13   1.0000     -22.050897      -600.0354
  14   1.0000     -18.890791      -514.0446
  15   1.0000     -18.557343      -504.9710
  16   1.0000     -18.552174      -504.8303
  17   1.0000     -18.552073      -504.8276
  18   1.0000     -10.111743      -275.1545
  19   1.0000     -10.077664      -274.2272
  20   1.0000     -10.076557      -274.1971
  21   1.0000     -10.072071      -274.0750
  22   1.0000     -10.069862      -274.0149
  23   1.0000     -10.056556      -273.6528
  24   1.0000     -10.051404      -273.5126
  25   1.0000     -10.050531      -273.4888
  26   1.0000     -10.048996      -273.4471
  27   1.0000     -10.019422      -272.6423
  28   1.0000     -10.018559      -272.6189
  29   1.0000     -10.018513      -272.6176
  30   1.0000     -10.017719      -272.5960
  31   1.0000     -10.001097      -272.1437
  32   1.0000      -7.791661      -212.0219
  33   1.0000      -7.787485      -211.9082
  34   1.0000      -7.787473      -211.9079
  35   1.0000      -7.787127      -211.8985
  36   1.0000      -7.785224      -211.8467
  37   1.0000      -7.784850      -211.8365
  38   1.0000      -7.784014      -211.8138
  39   1.0000      -7.783967      -211.8125
  40   1.0000      -7.694879      -209.3883
  41   1.0000      -7.694678      -209.3828
  42   1.0000      -7.694621      -209.3813
  43   1.0000      -7.694235      -209.3708
  44   1.0000      -5.756713      -156.6481
  45   1.0000      -5.753249      -156.5539
  46   1.0000      -5.752491      -156.5333
  47   1.0000      -5.752475      -156.5328
  48   1.0000      -5.752098      -156.5225
  49   1.0000      -5.750154      -156.4697
  50   1.0000      -5.749802      -156.4601
  51   1.0000      -5.749053      -156.4397
  52   1.0000      -5.749042      -156.4394
  53   1.0000      -5.748960      -156.4371
  54   1.0000      -5.748920      -156.4361
  55   1.0000      -5.748710      -156.4303
  56   1.0000      -5.746419      -156.3680
  57   1.0000      -5.745723      -156.3491
  58   1.0000      -5.745340      -156.3386
  59   1.0000      -5.744530      -156.3166
  60   1.0000      -5.744481      -156.3153
  61   1.0000      -5.742266      -156.2550
  62   1.0000      -5.742263      -156.2549
  63   1.0000      -5.741943      -156.2462
  64   1.0000      -5.741089      -156.2230
  65   1.0000      -5.740682      -156.2119
  66   1.0000      -5.739834      -156.1888
  67   1.0000      -5.739783      -156.1874
  68   1.0000      -5.660186      -154.0215
  69   1.0000      -5.659998      -154.0164
  70   1.0000      -5.659967      -154.0155
  71   1.0000      -5.659531      -154.0037
  72   1.0000      -5.653489      -153.8393
  73   1.0000      -5.653347      -153.8354
  74   1.0000      -5.653288      -153.8338
  75   1.0000      -5.652903      -153.8233
  76   1.0000      -5.652195      -153.8040
  77   1.0000      -5.652007      -153.7989
  78   1.0000      -5.651917      -153.7965
  79   1.0000      -5.651556      -153.7866
  80   1.0000      -2.444547       -66.5195
  81   1.0000      -1.485849       -40.4320
  82   1.0000      -1.474192       -40.1148
  83   1.0000      -1.473372       -40.0925
  84   1.0000      -0.721906       -19.6441
  85   1.0000      -0.709661       -19.3109
  86   1.0000      -0.697303       -18.9746
  87   1.0000      -0.684971       -18.6390
  88   1.0000      -0.650432       -17.6991
  89   1.0000      -0.647787       -17.6272
  90   1.0000      -0.631021       -17.1710
  91   1.0000      -0.622245       -16.9322
  92   1.0000      -0.615026       -16.7357
  93   1.0000      -0.576688       -15.6925
  94   1.0000      -0.574981       -15.6460
  95   1.0000      -0.574919       -15.6444
  96   1.0000      -0.573261       -15.5992
  97   1.0000      -0.530363       -14.4319
  98   1.0000      -0.495670       -13.4879
  99   1.0000      -0.493545       -13.4300
 100   1.0000      -0.492296       -13.3961
 101   1.0000      -0.482503       -13.1296
 102   1.0000      -0.477711       -12.9992
 103   1.0000      -0.440987       -11.9999
 104   1.0000      -0.436904       -11.8888
 105   1.0000      -0.417860       -11.3706
 106   1.0000      -0.411886       -11.2080
 107   1.0000      -0.391510       -10.6535
 108   1.0000      -0.351860        -9.5746
 109   1.0000      -0.332942        -9.0598
 110   1.0000      -0.325796        -8.8654
 111   1.0000      -0.320164        -8.7121
 112   1.0000      -0.315685        -8.5902
 113   1.0000      -0.310902        -8.4601
 114   1.0000      -0.303271        -8.2524
 115   1.0000      -0.294764        -8.0209
 116   1.0000      -0.285915        -7.7801
 117   1.0000      -0.267284        -7.2732
 118   1.0000      -0.258358        -7.0303
 119   1.0000      -0.256525        -6.9804
 120   1.0000      -0.255165        -6.9434
 121   1.0000      -0.234548        -6.3824
 122   1.0000      -0.232799        -6.3348
 123   1.0000      -0.229003        -6.2315
 124   1.0000      -0.221116        -6.0169
 125   1.0000      -0.218634        -5.9493
 126   1.0000      -0.217178        -5.9097
 127   1.0000      -0.210216        -5.7203
 128   1.0000      -0.204652        -5.5689
 129   1.0000      -0.193981        -5.2785
 130   1.0000      -0.187629        -5.1056
 131   1.0000      -0.187029        -5.0893
 132   1.0000      -0.184410        -5.0181
 133   1.0000      -0.179326        -4.8797
 134   1.0000      -0.160253        -4.3607
 135   1.0000      -0.152316        -4.1447
 136   1.0000      -0.147546        -4.0149
 137   1.0000      -0.136542        -3.7155
 138   1.0000      -0.135015        -3.6739
 139   1.0000      -0.133732        -3.6390
 140   1.0000      -0.125790        -3.4229
 141   1.0000      -0.121829        -3.3151
 142   1.0000      -0.114073        -3.1041
 143   1.0000      -0.110380        -3.0036
 144   1.0000      -0.100603        -2.7376
 145   1.0000      -0.098837        -2.6895
 146   1.0000      -0.098284        -2.6745
 147   1.0000      -0.095661        -2.6031
 148   1.0000      -0.075160        -2.0452
 149   1.0000      -0.069538        -1.8922
 150   1.0000      -0.067792        -1.8447
 151   1.0000      -0.053002        -1.4423
 152   1.0000      -0.046240        -1.2583
 153   1.0000      -0.038481        -1.0471
 154   1.0000      -0.037703        -1.0260
 155   1.0000      -0.032295        -0.8788
 156   1.0000      -0.025584        -0.6962
 157   1.0000      -0.019736        -0.5370
 158   1.0000      -0.016115        -0.4385
 159   1.0000       0.019628         0.5341
 160   1.0000       0.040540         1.1031
 161   0.0000       0.126779         3.4498
 162   0.0000       0.135708         3.6928
 163   0.0000       0.148744         4.0475
 164   0.0000       0.161164         4.3855
 165   0.0000       0.164484         4.4758

                 SPIN DOWN ORBITALS
  NO   OCC          E(Eh)            E(eV)
   0   1.0000    -196.675651     -5351.8165
   1   1.0000     -88.738593     -2414.6999
   2   1.0000     -88.734064     -2414.5766
   3   1.0000     -88.734039     -2414.5759
   4   1.0000     -88.733683     -2414.5663
   5   1.0000     -88.732036     -2414.5215
   6   1.0000     -88.731575     -2414.5089
   7   1.0000     -88.730762     -2414.4868
   8   1.0000     -88.730693     -2414.4849
   9   1.0000     -88.640655     -2412.0349
  10   1.0000     -88.640550     -2412.0320
  11   1.0000     -88.640529     -2412.0314
  12   1.0000     -88.640028     -2412.0178
  13   1.0000     -22.035963      -599.6290
  14   1.0000     -18.894588      -514.1479
  15   1.0000     -18.552071      -504.8275
  16   1.0000     -18.536138      -504.3940
  17   1.0000     -18.535955      -504.3890
  18   1.0000     -10.111741      -275.1545
  19   1.0000     -10.077658      -274.2270
  20   1.0000     -10.076557      -274.1970
  21   1.0000     -10.072071      -274.0750
  22   1.0000     -10.069862      -274.0149
  23   1.0000     -10.056556      -273.6528
  24   1.0000     -10.051404      -273.5126
  25   1.0000     -10.050520      -273.4885
  26   1.0000     -10.048992      -273.4470
  27   1.0000     -10.019185      -272.6359
  28   1.0000     -10.018334      -272.6127
  29   1.0000     -10.018299      -272.6118
  30   1.0000     -10.017507      -272.5902
  31   1.0000     -10.001096      -272.1437
  32   1.0000      -7.791661      -212.0219
  33   1.0000      -7.787485      -211.9082
  34   1.0000      -7.787474      -211.9079
  35   1.0000      -7.787128      -211.8985
  36   1.0000      -7.785234      -211.8470
  37   1.0000      -7.784859      -211.8368
  38   1.0000      -7.784023      -211.8140
  39   1.0000      -7.783976      -211.8128
  40   1.0000      -7.695009      -209.3918
  41   1.0000      -7.694806      -209.3863
  42   1.0000      -7.694753      -209.3849
  43   1.0000      -7.694365      -209.3743
  44   1.0000      -5.756714      -156.6482
  45   1.0000      -5.753250      -156.5539
  46   1.0000      -5.752492      -156.5333
  47   1.0000      -5.752476      -156.5328
  48   1.0000      -5.752099      -156.5226
  49   1.0000      -5.750165      -156.4699
  50   1.0000      -5.749813      -156.4604
  51   1.0000      -5.749054      -156.4397
  52   1.0000      -5.749043      -156.4394
  53   1.0000      -5.748970      -156.4374
  54   1.0000      -5.748930      -156.4363
  55   1.0000      -5.748711      -156.4304
  56   1.0000      -5.746419      -156.3680
  57   1.0000      -5.745737      -156.3495
  58   1.0000      -5.745353      -156.3390
  59   1.0000      -5.744545      -156.3170
  60   1.0000      -5.744495      -156.3156
  61   1.0000      -5.742267      -156.2550
  62   1.0000      -5.742263      -156.2549
  63   1.0000      -5.741944      -156.2462
  64   1.0000      -5.741098      -156.2232
  65   1.0000      -5.740692      -156.2122
  66   1.0000      -5.739840      -156.1890
  67   1.0000      -5.739789      -156.1876
  68   1.0000      -5.660324      -154.0252
  69   1.0000      -5.660141      -154.0203
  70   1.0000      -5.660108      -154.0194
  71   1.0000      -5.659673      -154.0075
  72   1.0000      -5.653876      -153.8498
  73   1.0000      -5.653699      -153.8450
  74   1.0000      -5.653670      -153.8442
  75   1.0000      -5.653265      -153.8331
  76   1.0000      -5.652281      -153.8064
  77   1.0000      -5.652113      -153.8018
  78   1.0000      -5.652010      -153.7990
  79   1.0000      -5.651662      -153.7895
  80   1.0000      -2.399653       -65.2979
  81   1.0000      -1.466536       -39.9065
  82   1.0000      -1.411803       -38.4171
  83   1.0000      -1.411646       -38.4128
  84   1.0000      -0.721899       -19.6439
  85   1.0000      -0.709645       -19.3104
  86   1.0000      -0.697242       -18.9729
  87   1.0000      -0.684929       -18.6379
  88   1.0000      -0.658508       -17.9189
  89   1.0000      -0.647805       -17.6277
  90   1.0000      -0.630963       -17.1694
  91   1.0000      -0.622211       -16.9312
  92   1.0000      -0.615028       -16.7358
  93   1.0000      -0.576655       -15.6916
  94   1.0000      -0.574942       -15.6450
  95   1.0000      -0.574855       -15.6426
  96   1.0000      -0.573197       -15.5975
  97   1.0000      -0.530363       -14.4319
  98   1.0000      -0.495695       -13.4885
  99   1.0000      -0.493613       -13.4319
 100   1.0000      -0.492337       -13.3972
 101   1.0000      -0.482732       -13.1358
 102   1.0000      -0.477928       -13.0051
 103   1.0000      -0.441017       -12.0007
 104   1.0000      -0.436941       -11.8898
 105   1.0000      -0.417871       -11.3708
 106   1.0000      -0.411975       -11.2104
 107   1.0000      -0.391508       -10.6535
 108   1.0000      -0.351854        -9.5744
 109   1.0000      -0.332914        -9.0590
 110   1.0000      -0.325788        -8.8651
 111   1.0000      -0.320092        -8.7101
 112   1.0000      -0.315703        -8.5907
 113   1.0000      -0.310890        -8.4598
 114   1.0000      -0.303232        -8.2514
 115   1.0000      -0.294741        -8.0203
 116   1.0000      -0.285913        -7.7801
 117   1.0000      -0.267217        -7.2713
 118   1.0000      -0.258269        -7.0279
 119   1.0000      -0.256421        -6.9776
 120   1.0000      -0.255122        -6.9422
 121   1.0000      -0.234478        -6.3805
 122   1.0000      -0.232765        -6.3339
 123   1.0000      -0.228966        -6.2305
 124   1.0000      -0.220837        -6.0093
 125   1.0000      -0.218297        -5.9402
 126   1.0000      -0.217116        -5.9080
 127   1.0000      -0.210107        -5.7173
 128   1.0000      -0.204611        -5.5677
 129   1.0000      -0.192253        -5.2315
 130   1.0000      -0.187530        -5.1030
 131   1.0000      -0.186751        -5.0818
 132   1.0000      -0.184143        -5.0108
 133   1.0000      -0.179208        -4.8765
 134   1.0000      -0.159632        -4.3438
 135   1.0000      -0.152148        -4.1402
 136   1.0000      -0.147466        -4.0128
 137   1.0000      -0.135893        -3.6978
 138   1.0000      -0.134732        -3.6662
 139   1.0000      -0.133493        -3.6325
 140   1.0000      -0.125180        -3.4063
 141   1.0000      -0.121500        -3.3062
 142   1.0000      -0.115877        -3.1532
 143   1.0000      -0.111964        -3.0467
 144   1.0000      -0.100607        -2.7376
 145   1.0000      -0.099161        -2.6983
 146   1.0000      -0.098284        -2.6744
 147   1.0000      -0.095987        -2.6119
 148   1.0000      -0.071323        -1.9408
 149   1.0000      -0.069537        -1.8922
 150   1.0000      -0.067785        -1.8445
 151   1.0000      -0.050415        -1.3719
 152   1.0000      -0.045303        -1.2327
 153   1.0000      -0.038536        -1.0486
 154   1.0000      -0.037132        -1.0104
 155   1.0000      -0.032338        -0.8800
 156   1.0000      -0.026622        -0.7244
 157   1.0000      -0.016325        -0.4442
 158   1.0000       0.019913         0.5419
 159   1.0000       0.039441         1.0733
 160   0.0000       0.126765         3.4494
 161   0.0000       0.135699         3.6926
 162   0.0000       0.148693         4.0462
 163   0.0000       0.155586         4.2337
 164   0.0000       0.161887         4.4052

MULLIKEN ATOMIC CHARGES AND SPIN POPULATIONS
--------------------------------------------
   0 V :    0.471023    1.210911
   1 S :   -0.290731   -0.022513
   2 S :   -0.288967   -0.025103
   3 S :   -0.288590   -0.023467
   4 S :   -0.283768   -0.025595
   5 O :   -0.467118   -0.146993
   6 C :   -0.077666    0.009661
   7 C :   -0.084594    0.008031
   8 C :   -0.083909    0.007749
   9 C :   -0.084724    0.007402
  10 S :    0.103060   -0.000606
  11 S :    0.103864   -0.000638
  12 S :    0.100717   -0.000394
  13 S :    0.099799   -0.000347
  14 C :   -0.210091    0.001555
  15 C :   -0.212988    0.000996
  16 C :   -0.195299   -0.000087
  17 C :   -0.190199   -0.000403
  18 S :   -0.018338   -0.000116
  19 S :    0.042695   -0.000105
  20 S :    0.012233   -0.000069
  21 S :    0.013658   -0.000071
  22 C :   -0.294312   -0.000001
  23 C :   -0.295165   -0.000001
  24 C :   -0.151415   -0.000012
  25 H :    0.135556   -0.000001
  26 H :    0.106995   -0.000004
  27 H :    0.088171   -0.000000
  28 H :    0.083262   -0.000001
  29 H :    0.109047   -0.000005
  30 H :    0.137174   -0.000001
  31 C :   -0.250816    0.000181
  32 C :   -0.411681    0.000215
  33 C :   -0.163428   -0.000242
  34 H :    0.226212   -0.000037
  35 H :    0.193332    0.000005
  36 H :    0.102673    0.000025
  37 H :    0.082988    0.000017
  38 H :    0.044678    0.000076
  39 H :    0.086666   -0.000012
Sum of atomic charges         :   -2.0000000

LOEWDIN ATOMIC CHARGES AND SPIN POPULATIONS
-------------------------------------------
   0 V :   -0.155743    1.164255
   1 S :    0.080194   -0.014520
   2 S :    0.079742   -0.015994
   3 S :    0.081696   -0.015319
   4 S :    0.084327   -0.016240
   5 O :   -0.318535   -0.131886
   6 C :   -0.549964    0.009027
   7 C :   -0.551252    0.007942
   8 C :   -0.552259    0.008134
   9 C :   -0.552209    0.007670
  10 S :    0.474026   -0.000918
  11 S :    0.475434   -0.000959
  12 S :    0.472048   -0.000824
  13 S :    0.471199   -0.000830
  14 C :   -0.463656    0.000195
  15 C :   -0.464784   -0.000081
  16 C :   -0.621328    0.000465
  17 C :   -0.622698    0.000084
  18 S :    0.364954   -0.000091
  19 S :    0.373227   -0.000081
  20 S :    0.360065   -0.000073
  21 S :    0.359951   -0.000075
  22 C :   -0.295756   -0.000007
  23 C :   -0.292966   -0.000009
  24 C :   -0.185107   -0.000002
  25 H :    0.069016   -0.000002
  26 H :    0.059031   -0.000002
  27 H :    0.058187   -0.000001
  28 H :    0.065942   -0.000001
  29 H :    0.057495   -0.000003
  30 H :    0.067377   -0.000002
  31 C :   -0.319864    0.000048
  32 C :   -0.108690    0.000035
  33 C :   -0.156822    0.000007
  34 H :   -0.039018    0.000003
  35 H :   -0.057386    0.000004
  36 H :    0.057924    0.000005
  37 H :    0.060786    0.000002
  38 H :    0.060658    0.000043
  39 H :    0.074758   -0.000001

  Mayer bond orders larger than 0.100000
B(  0-V ,  1-S ) :   0.7723 B(  0-V ,  2-S ) :   0.7700 B(  0-V ,  3-S ) :   0.7656
B(  0-V ,  4-S ) :   0.7775 B(  0-V ,  5-O ) :   2.1492 B(  1-S ,  8-C ) :   1.1037
B(  2-S ,  6-C ) :   1.1048 B(  3-S ,  9-C ) :   1.1066 B(  4-S ,  7-C ) :   1.1068
B(  6-C ,  7-C ) :   1.6817 B(  6-C , 10-S ) :   0.9355 B(  7-C , 11-S ) :   0.9402
B(  8-C ,  9-C ) :   1.6976 B(  8-C , 13-S ) :   0.9338 B(  9-C , 12-S ) :   0.9359
B( 10-S , 14-C ) :   1.2526 B( 11-S , 14-C ) :   1.2495 B( 12-S , 15-C ) :   1.2470
B( 13-S , 15-C ) :   1.2473 B( 14-C , 16-C ) :   1.4425 B( 15-C , 17-C ) :   1.4538
B( 16-C , 18-S ) :   1.0917 B( 16-C , 19-S ) :   1.0881 B( 17-C , 20-S ) :   1.0865
B( 17-C , 21-S ) :   1.0871 B( 18-S , 32-C ) :   0.9371 B( 19-S , 31-C ) :   0.9990
B( 20-S , 23-C ) :   0.9917 B( 21-S , 22-C ) :   0.9914 B( 22-C , 24-C ) :   0.9167
B( 22-C , 25-H ) :   0.9602 B( 22-C , 26-H ) :   0.9621 B( 23-C , 24-C ) :   0.9165
B( 23-C , 29-H ) :   0.9630 B( 23-C , 30-H ) :   0.9611 B( 24-C , 27-H ) :   0.9616
B( 24-C , 28-H ) :   0.9658 B( 31-C , 33-C ) :   0.9366 B( 31-C , 38-H ) :   0.9334
B( 31-C , 39-H ) :   0.9280 B( 32-C , 33-C ) :   0.8669 B( 32-C , 34-H ) :   0.9816
B( 32-C , 35-H ) :   0.9851 B( 33-C , 36-H ) :   0.9712 B( 33-C , 37-H ) :   0.9614

FINAL SINGLE POINT ENERGY     -6337.298234663635

DIPOLE MOMENT
-------------
                                X             Y             Z
Electronic contribution:      1.11130      11.62464       7.18617
Nuclear contribution   :     -0.88204     -13.00902      -7.89979
                        -----------------------------------------
Total Dipole Moment    :      0.22925      -1.38438      -0.71362
                        -----------------------------------------
Magnitude (a.u.)       :      1.57427
Magnitude (Debye)      :      4.00147

Rotational constants in cm-1:     0.010759     0.000804     0.000783
Rotational constants in MHz :   322.560180    24.115674    23.486399

                             ****ORCA TERMINATED NORMALLY****
TOTAL RUN TIME: 0 days 1 hours 6 minutes 47 seconds 152 msec
