                         Program Version 5.0.4 -  RELEASE  -
|  1> ! nofrozencore ReducedPop printbasis
|  2> ! B3LYP TZVP
|  3>
|  4> %basis
|  5> newgto V "CP(PPP)" end
|  6> end
|  7>
|  8> %pal
|  9> nprocs 8
| 10> end
| 11>
| 12> % sym SymThresh 1e-2 end
| 13> * xyz -2 2
| 14> V 0.25609094083278544 1.0715167686575855 0.162446986635596
| 15> S 1.827398580232375 -0.13710062347281293 1.5966177168132847
| 16> S 1.7028704301324529 0.2913174539903796 -1.7292384597038888
| 17> S -1.435462645720982 0.6691525037941667 1.9712664841772956
| 18> S -1.615571340410115 0.6672237641830499 -1.3511621872446942
| 19> O 0.5551344250407545 2.630380762710111 0.23346996096339256
| 20> C 0.5539764757483894 0.4730780112592344 -3.0472250415362176
| 21> C -0.7652592907995228 0.6968252793713217 -2.894969344952739
| 22> C 0.9137013122377543 -0.24380925864110872 3.099703980464405
| 23> C -0.40903290750170634 -0.027012251140564103 3.221851468670463
| 24> S 1.1364495739188063 0.2782699491906642 -4.7400453599946895
| 25> S -1.7183972632010054 0.9644503492209634 -4.397204720440004
| 26> S -1.1610415757250687 -0.5463738332256669 4.778358871338688
| 27> S 1.7947177468939302 -0.7196622426646313 4.60055167945942
| 28> C -0.4083515051538928 0.6198455317863991 -5.540207066636046
| 29> C 0.35467812891408046 -0.9952605809511911 5.597575610321731
| 30> C -0.5513342509515818 0.6259683954167017 -6.900771223394968
| 31> C 0.383947665303076 -1.4888735405523694 6.872628149125658
| 32> S 0.8603022194709918 0.47717839463035555 -7.980736483260256
| 33> S -2.1321222951764223 0.8208766665399744 -7.698435956152122
| 34> S 1.857564718353191 -2.122814320975748 7.652572741892409
| 35> S -1.110224361524331 -1.5598267236379575 7.840405386993186
| 36> C -1.2291034274187314 -3.394836215397181 8.028598886547844
| 37> C 1.296040773418926 -3.874802271572431 7.8964304543201544
| 38> C -0.0004669202512787913 -4.012887432431549 8.700124543254793
| 39> H -1.39311936658916 -3.8270502136039743 7.038789955140301
| 40> H -2.12348253683164 -3.5729613756039815 8.63168476107325
| 41> H -0.19319370493327032 -5.084332239377771 8.852077336286436
| 42> H 0.13473799762189237 -3.5635138647215308 9.689072259664249
| 43> H 2.119375414333746 -4.369131548433835 8.419090073637877
| 44> H 1.1918109635265397 -4.334949675895259 6.91119403313194
| 45> C -1.8178204041275097 2.3993494097512134 -8.61622561895742
| 46> C 0.7417273121344001 2.149308968986805 -8.766837172135727
| 47> C -0.5772569501241582 2.366730540789872 -9.515287742432745
| 48> H 0.8804317217415215 2.9021942927009143 -7.983961034916409
| 49> H 1.589067451655198 2.212741122801509 -9.4584194157744
| 50> H -0.6938145399119022 1.5837106677225563 -10.273605600372617
| 51> H -0.5195967135044846 3.3281140192256986 -10.044782396838803
| 52> H -2.7187035938912643 2.5653382204265225 -9.217225150996075
| 53> H -1.742042722618026 3.209460726104648 -7.883266658775371
| 54> *
| 55>
| 56> % eprnmr
| 57> gtensor true
| 58> Nuclei = all H {aiso,adip,aorb,fgrad,rho}
| 59> Nuclei = all V {aiso,adip,aorb,fgrad,rho}
| 60> end
| 61>
| 62>                          ****END OF INPUT****

CARTESIAN COORDINATES (ANGSTROEM)
---------------------------------
  V      0.255383    1.068815    0.159821
  S      1.826691   -0.139803    1.593991
  S      1.702163    0.288616   -1.731865
  S     -1.436170    0.666451    1.968640
  S     -1.616279    0.664522   -1.353788
  O      0.554427    2.627679    0.230844
  C      0.553269    0.470376   -3.049851
  C     -0.765967    0.694123   -2.897596
  C      0.912994   -0.246511    3.097078
  C     -0.409741   -0.029714    3.219225
  S      1.135742    0.275568   -4.742672
  S     -1.719105    0.961748   -4.399831
  S     -1.161749   -0.549076    4.775733
  S      1.794010   -0.722364    4.597925
  C     -0.409059    0.617144   -5.542833
  C      0.353971   -0.997962    5.594949
  C     -0.552042    0.623266   -6.903397
  C      0.383240   -1.491575    6.870002
  S      0.859595    0.474476   -7.983363
  S     -2.132830    0.818175   -7.701062
  S      1.856857   -2.125516    7.649946
  S     -1.110932   -1.562529    7.837779
  C     -1.229811   -3.397538    8.025973
  C      1.295333   -3.877504    7.893804
  C     -0.001175   -4.015589    8.697498
  H     -1.393827   -3.829752    7.036164
  H     -2.124190   -3.575663    8.629058
  H     -0.193901   -5.087034    8.849451
  H      0.134030   -3.566216    9.686446
  H      2.118668   -4.371833    8.416464
  H      1.191103   -4.337652    6.908568
  C     -1.818528    2.396648   -8.618852
  C      0.741020    2.146607   -8.769463
  C     -0.577965    2.364029   -9.517914
  H      0.879724    2.899492   -7.986587
  H      1.588360    2.210039   -9.461046
  H     -0.694522    1.581009  -10.276232
  H     -0.520304    3.325412  -10.047409
  H     -2.719411    2.562636   -9.219851
  H     -1.742750    3.206759   -7.885893

 Total Charge           Charge          ....   -2
 Multiplicity           Mult            ....    2
 Number of Electrons    NEL             ....  321
 Basis Dimension        Dim             ....  681

ORBITAL ENERGIES
----------------
                 SPIN UP ORBITALS
  NO   OCC          E(Eh)            E(eV)
   0   1.0000    -196.674445     -5351.7837
   1   1.0000     -88.733840     -2414.5705
   2   1.0000     -88.733664     -2414.5658
   3   1.0000     -88.732574     -2414.5361
   4   1.0000     -88.732065     -2414.5222
   5   1.0000     -88.730521     -2414.4802
   6   1.0000     -88.730433     -2414.4778
   7   1.0000     -88.729974     -2414.4653
   8   1.0000     -88.729828     -2414.4614
   9   1.0000     -88.640541     -2412.0317
  10   1.0000     -88.640303     -2412.0253
  11   1.0000     -88.639103     -2411.9926
  12   1.0000     -88.638886     -2411.9867
  13   1.0000     -22.049775      -600.0049
  14   1.0000     -18.889844      -514.0188
  15   1.0000     -18.556264      -504.9416
  16   1.0000     -18.551092      -504.8009
  17   1.0000     -18.550874      -504.7949
  18   1.0000     -10.076372      -274.1920
  19   1.0000     -10.076060      -274.1835
  20   1.0000     -10.064546      -273.8702
  21   1.0000     -10.063702      -273.8473
  22   1.0000     -10.063513      -273.8421
  23   1.0000     -10.062906      -273.8256
  24   1.0000     -10.051630      -273.5187
  25   1.0000     -10.051171      -273.5063
  26   1.0000     -10.048820      -273.4423
  27   1.0000     -10.048358      -273.4297
  28   1.0000     -10.018931      -272.6290
  29   1.0000     -10.018248      -272.6104
  30   1.0000     -10.017272      -272.5838
  31   1.0000     -10.016742      -272.5694
  32   1.0000      -7.787185      -211.9001
  33   1.0000      -7.786941      -211.8934
  34   1.0000      -7.786189      -211.8730
  35   1.0000      -7.785600      -211.8569
  36   1.0000      -7.783525      -211.8005
  37   1.0000      -7.783466      -211.7989
  38   1.0000      -7.783110      -211.7892
  39   1.0000      -7.782675      -211.7773
  40   1.0000      -7.694839      -209.3872
  41   1.0000      -7.694559      -209.3796
  42   1.0000      -7.693158      -209.3415
  43   1.0000      -7.693015      -209.3376
  44   1.0000      -5.752193      -156.5251
  45   1.0000      -5.751988      -156.5196
  46   1.0000      -5.751135      -156.4963
  47   1.0000      -5.750589      -156.4815
  48   1.0000      -5.748756      -156.4316
  49   1.0000      -5.748523      -156.4253
  50   1.0000      -5.748487      -156.4243
  51   1.0000      -5.748441      -156.4230
  52   1.0000      -5.748052      -156.4124
  53   1.0000      -5.747758      -156.4044
  54   1.0000      -5.747656      -156.4017
  55   1.0000      -5.747195      -156.3891
  56   1.0000      -5.744110      -156.3052
  57   1.0000      -5.744023      -156.3028
  58   1.0000      -5.743662      -156.2930
  59   1.0000      -5.743313      -156.2835
  60   1.0000      -5.741985      -156.2474
  61   1.0000      -5.741706      -156.2398
  62   1.0000      -5.740997      -156.2205
  63   1.0000      -5.740356      -156.2030
  64   1.0000      -5.739331      -156.1751
  65   1.0000      -5.739271      -156.1735
  66   1.0000      -5.738922      -156.1640
  67   1.0000      -5.738414      -156.1502
  68   1.0000      -5.660151      -154.0205
  69   1.0000      -5.659895      -154.0136
  70   1.0000      -5.658504      -153.9757
  71   1.0000      -5.658348      -153.9715
  72   1.0000      -5.653515      -153.8400
  73   1.0000      -5.653197      -153.8313
  74   1.0000      -5.652139      -153.8025
  75   1.0000      -5.651894      -153.7958
  76   1.0000      -5.651868      -153.7951
  77   1.0000      -5.651718      -153.7911
  78   1.0000      -5.650398      -153.7551
  79   1.0000      -5.650305      -153.7526
  80   1.0000      -2.443496       -66.4909
  81   1.0000      -1.484863       -40.4052
  82   1.0000      -1.473081       -40.0846
  83   1.0000      -1.472339       -40.0644
  84   1.0000      -0.708350       -19.2752
  85   1.0000      -0.708026       -19.2664
  86   1.0000      -0.684134       -18.6162
  87   1.0000      -0.683381       -18.5957
  88   1.0000      -0.649494       -17.6736
  89   1.0000      -0.630570       -17.1587
  90   1.0000      -0.630377       -17.1534
  91   1.0000      -0.616883       -16.7862
  92   1.0000      -0.616632       -16.7794
  93   1.0000      -0.573147       -15.5961
  94   1.0000      -0.572571       -15.5804
  95   1.0000      -0.572111       -15.5679
  96   1.0000      -0.571027       -15.5384
  97   1.0000      -0.496556       -13.5120
  98   1.0000      -0.495717       -13.4891
  99   1.0000      -0.494898       -13.4669
 100   1.0000      -0.494334       -13.4515
 101   1.0000      -0.479190       -13.0394
 102   1.0000      -0.476543       -12.9674
 103   1.0000      -0.446762       -12.1570
 104   1.0000      -0.444645       -12.0994
 105   1.0000      -0.415978       -11.3193
 106   1.0000      -0.410727       -11.1765
 107   1.0000      -0.354678        -9.6513
 108   1.0000      -0.354575        -9.6485
 109   1.0000      -0.325967        -8.8700
 110   1.0000      -0.325740        -8.8638
 111   1.0000      -0.317449        -8.6382
 112   1.0000      -0.312982        -8.5167
 113   1.0000      -0.303402        -8.2560
 114   1.0000      -0.302363        -8.2277
 115   1.0000      -0.292034        -7.9467
 116   1.0000      -0.291533        -7.9330
 117   1.0000      -0.258281        -7.0282
 118   1.0000      -0.256862        -6.9896
 119   1.0000      -0.256248        -6.9729
 120   1.0000      -0.254582        -6.9275
 121   1.0000      -0.234251        -6.3743
 122   1.0000      -0.233704        -6.3594
 123   1.0000      -0.231079        -6.2880
 124   1.0000      -0.229842        -6.2543
 125   1.0000      -0.219251        -5.9661
 126   1.0000      -0.217546        -5.9197
 127   1.0000      -0.213040        -5.7971
 128   1.0000      -0.210715        -5.7338
 129   1.0000      -0.192323        -5.2334
 130   1.0000      -0.188892        -5.1400
 131   1.0000      -0.186299        -5.0694
 132   1.0000      -0.181694        -4.9441
 133   1.0000      -0.178572        -4.8592
 134   1.0000      -0.159529        -4.3410
 135   1.0000      -0.152613        -4.1528
 136   1.0000      -0.147747        -4.0204
 137   1.0000      -0.134970        -3.6727
 138   1.0000      -0.134468        -3.6591
 139   1.0000      -0.129473        -3.5231
 140   1.0000      -0.125976        -3.4280
 141   1.0000      -0.118657        -3.2288
 142   1.0000      -0.112602        -3.0641
 143   1.0000      -0.109468        -2.9788
 144   1.0000      -0.099310        -2.7024
 145   1.0000      -0.098971        -2.6931
 146   1.0000      -0.094715        -2.5773
 147   1.0000      -0.093359        -2.5404
 148   1.0000      -0.074065        -2.0154
 149   1.0000      -0.067307        -1.8315
 150   1.0000      -0.066940        -1.8215
 151   1.0000      -0.051612        -1.4044
 152   1.0000      -0.045518        -1.2386
 153   1.0000      -0.037819        -1.0291
 154   1.0000      -0.035954        -0.9783
 155   1.0000      -0.031430        -0.8552
 156   1.0000      -0.024147        -0.6571
 157   1.0000      -0.021099        -0.5741
 158   1.0000      -0.013146        -0.3577
 159   1.0000       0.021298         0.5795
 160   1.0000       0.041027         1.1164
 161   0.0000       0.136403         3.7117
 162   0.0000       0.136672         3.7190
 163   0.0000       0.160559         4.3690
 164   0.0000       0.161353         4.3906
 165   0.0000       0.170102         4.6287

                 SPIN DOWN ORBITALS
  NO   OCC          E(Eh)            E(eV)
   0   1.0000    -196.674592     -5351.7877
   1   1.0000     -88.733840     -2414.5706
   2   1.0000     -88.733665     -2414.5658
   3   1.0000     -88.732575     -2414.5361
   4   1.0000     -88.732066     -2414.5223
   5   1.0000     -88.730529     -2414.4804
   6   1.0000     -88.730442     -2414.4781
   7   1.0000     -88.729982     -2414.4656
   8   1.0000     -88.729836     -2414.4616
   9   1.0000     -88.640682     -2412.0356
  10   1.0000     -88.640438     -2412.0290
  11   1.0000     -88.639240     -2411.9963
  12   1.0000     -88.639032     -2411.9907
  13   1.0000     -22.034827      -599.5981
  14   1.0000     -18.893632      -514.1219
  15   1.0000     -18.550992      -504.7982
  16   1.0000     -18.535005      -504.3631
  17   1.0000     -18.534770      -504.3567
  18   1.0000     -10.076372      -274.1920
  19   1.0000     -10.076056      -274.1834
  20   1.0000     -10.064545      -273.8702
  21   1.0000     -10.063703      -273.8473
  22   1.0000     -10.063513      -273.8421
  23   1.0000     -10.062907      -273.8256
  24   1.0000     -10.051629      -273.5187
  25   1.0000     -10.051171      -273.5063
  26   1.0000     -10.048816      -273.4422
  27   1.0000     -10.048347      -273.4294
  28   1.0000     -10.018702      -272.6228
  29   1.0000     -10.018061      -272.6053
  30   1.0000     -10.017034      -272.5773
  31   1.0000     -10.016516      -272.5632
  32   1.0000      -7.787186      -211.9001
  33   1.0000      -7.786941      -211.8934
  34   1.0000      -7.786190      -211.8730
  35   1.0000      -7.785600      -211.8570
  36   1.0000      -7.783533      -211.8007
  37   1.0000      -7.783476      -211.7991
  38   1.0000      -7.783119      -211.7894
  39   1.0000      -7.782684      -211.7776
  40   1.0000      -7.694970      -209.3908
  41   1.0000      -7.694685      -209.3830
  42   1.0000      -7.693286      -209.3450
  43   1.0000      -7.693151      -209.3413
  44   1.0000      -5.752194      -156.5252
  45   1.0000      -5.751989      -156.5196
  46   1.0000      -5.751136      -156.4964
  47   1.0000      -5.750590      -156.4815
  48   1.0000      -5.748757      -156.4316
  49   1.0000      -5.748524      -156.4253
  50   1.0000      -5.748497      -156.4246
  51   1.0000      -5.748452      -156.4233
  52   1.0000      -5.748062      -156.4127
  53   1.0000      -5.747758      -156.4045
  54   1.0000      -5.747668      -156.4020
  55   1.0000      -5.747197      -156.3892
  56   1.0000      -5.744124      -156.3056
  57   1.0000      -5.744036      -156.3032
  58   1.0000      -5.743677      -156.2934
  59   1.0000      -5.743328      -156.2839
  60   1.0000      -5.741985      -156.2474
  61   1.0000      -5.741707      -156.2398
  62   1.0000      -5.740998      -156.2205
  63   1.0000      -5.740357      -156.2031
  64   1.0000      -5.739336      -156.1753
  65   1.0000      -5.739280      -156.1738
  66   1.0000      -5.738928      -156.1642
  67   1.0000      -5.738420      -156.1504
  68   1.0000      -5.660299      -154.0246
  69   1.0000      -5.660032      -154.0173
  70   1.0000      -5.658638      -153.9794
  71   1.0000      -5.658489      -153.9753
  72   1.0000      -5.653865      -153.8495
  73   1.0000      -5.653584      -153.8419
  74   1.0000      -5.652265      -153.8059
  75   1.0000      -5.652258      -153.8058
  76   1.0000      -5.652106      -153.8016
  77   1.0000      -5.651932      -153.7969
  78   1.0000      -5.650490      -153.7576
  79   1.0000      -5.650418      -153.7557
  80   1.0000      -2.398567       -65.2683
  81   1.0000      -1.465554       -39.8798
  82   1.0000      -1.410694       -38.3869
  83   1.0000      -1.410491       -38.3814
  84   1.0000      -0.708326       -19.2745
  85   1.0000      -0.708014       -19.2660
  86   1.0000      -0.684078       -18.6147
  87   1.0000      -0.683336       -18.5945
  88   1.0000      -0.657619       -17.8947
  89   1.0000      -0.630505       -17.1569
  90   1.0000      -0.630311       -17.1516
  91   1.0000      -0.616885       -16.7863
  92   1.0000      -0.616632       -16.7794
  93   1.0000      -0.573119       -15.5953
  94   1.0000      -0.572527       -15.5792
  95   1.0000      -0.572061       -15.5666
  96   1.0000      -0.570955       -15.5365
  97   1.0000      -0.496572       -13.5124
  98   1.0000      -0.495748       -13.4900
  99   1.0000      -0.494941       -13.4680
 100   1.0000      -0.494375       -13.4526
 101   1.0000      -0.479387       -13.0448
 102   1.0000      -0.476801       -12.9744
 103   1.0000      -0.446785       -12.1576
 104   1.0000      -0.444693       -12.1007
 105   1.0000      -0.415982       -11.3195
 106   1.0000      -0.410843       -11.1796
 107   1.0000      -0.354673        -9.6511
 108   1.0000      -0.354566        -9.6482
 109   1.0000      -0.325952        -8.8696
 110   1.0000      -0.325733        -8.8636
 111   1.0000      -0.317372        -8.6361
 112   1.0000      -0.313007        -8.5174
 113   1.0000      -0.303354        -8.2547
 114   1.0000      -0.302338        -8.2270
 115   1.0000      -0.292027        -7.9465
 116   1.0000      -0.291529        -7.9329
 117   1.0000      -0.258181        -7.0255
 118   1.0000      -0.256739        -6.9862
 119   1.0000      -0.256202        -6.9716
 120   1.0000      -0.254554        -6.9268
 121   1.0000      -0.234208        -6.3731
 122   1.0000      -0.233696        -6.3592
 123   1.0000      -0.231029        -6.2866
 124   1.0000      -0.229813        -6.2535
 125   1.0000      -0.218871        -5.9558
 126   1.0000      -0.217440        -5.9168
 127   1.0000      -0.212873        -5.7926
 128   1.0000      -0.210597        -5.7306
 129   1.0000      -0.190686        -5.1888
 130   1.0000      -0.188664        -5.1338
 131   1.0000      -0.185887        -5.0582
 132   1.0000      -0.181539        -4.9399
 133   1.0000      -0.178477        -4.8566
 134   1.0000      -0.158900        -4.3239
 135   1.0000      -0.152442        -4.1482
 136   1.0000      -0.147644        -4.0176
 137   1.0000      -0.134860        -3.6697
 138   1.0000      -0.133672        -3.6374
 139   1.0000      -0.129290        -3.5182
 140   1.0000      -0.125195        -3.4067
 141   1.0000      -0.118526        -3.2253
 142   1.0000      -0.114445        -3.1142
 143   1.0000      -0.110952        -3.0192
 144   1.0000      -0.099373        -2.7041
 145   1.0000      -0.099118        -2.6971
 146   1.0000      -0.094856        -2.5812
 147   1.0000      -0.093630        -2.5478
 148   1.0000      -0.070508        -1.9186
 149   1.0000      -0.067258        -1.8302
 150   1.0000      -0.066819        -1.8182
 151   1.0000      -0.049017        -1.3338
 152   1.0000      -0.044651        -1.2150
 153   1.0000      -0.037832        -1.0295
 154   1.0000      -0.035503        -0.9661
 155   1.0000      -0.031376        -0.8538
 156   1.0000      -0.025116        -0.6834
 157   1.0000      -0.015945        -0.4339
 158   1.0000       0.021609         0.5880
 159   1.0000       0.039967         1.0875
 160   0.0000       0.136409         3.7119
 161   0.0000       0.136666         3.7189
 162   0.0000       0.155904         4.2424
 163   0.0000       0.161070         4.3829
 164   0.0000       0.163230         4.4417

MULLIKEN ATOMIC CHARGES AND SPIN POPULATIONS
--------------------------------------------
   0 V :    0.472207    1.211165
   1 S :   -0.281309   -0.023496
   2 S :   -0.292481   -0.025723
   3 S :   -0.291655   -0.023215
   4 S :   -0.279289   -0.024959
   5 O :   -0.468965   -0.146822
   6 C :   -0.076781    0.010049
   7 C :   -0.087136    0.007606
   8 C :   -0.101746    0.009728
   9 C :   -0.070314    0.005748
  10 S :    0.098634   -0.000601
  11 S :    0.099200   -0.000529
  12 S :    0.095955   -0.000434
  13 S :    0.095850   -0.000216
  14 C :   -0.203846    0.001449
  15 C :   -0.199077    0.001101
  16 C :   -0.201377   -0.000110
  17 C :   -0.201444   -0.000542
  18 S :    0.009156   -0.000122
  19 S :    0.009823   -0.000099
  20 S :    0.007630   -0.000071
  21 S :    0.009489   -0.000060
  22 C :   -0.300507    0.000000
  23 C :   -0.298345   -0.000007
  24 C :   -0.159704   -0.000011
  25 H :    0.144798   -0.000003
  26 H :    0.114605   -0.000001
  27 H :    0.083380   -0.000001
  28 H :    0.092182   -0.000001
  29 H :    0.112504   -0.000006
  30 H :    0.141674   -0.000001
  31 C :   -0.295548    0.000194
  32 C :   -0.303395    0.000182
  33 C :   -0.159534   -0.000234
  34 H :    0.144812   -0.000020
  35 H :    0.114726    0.000022
  36 H :    0.092352    0.000022
  37 H :    0.082775    0.000013
  38 H :    0.111702    0.000018
  39 H :    0.138996   -0.000013
Sum of atomic charges         :   -2.0000000

LOEWDIN ATOMIC CHARGES AND SPIN POPULATIONS
-------------------------------------------
   0 V :   -0.154661    1.164827
   1 S :    0.087708   -0.014667
   2 S :    0.072122   -0.017232
   3 S :    0.072498   -0.015673
   4 S :    0.089203   -0.015205
   5 O :   -0.319588   -0.131792
   6 C :   -0.545149    0.008657
   7 C :   -0.553260    0.008218
   8 C :   -0.550633    0.009687
   9 C :   -0.547332    0.006209
  10 S :    0.468112   -0.000850
  11 S :    0.468710   -0.000935
  12 S :    0.460772   -0.000891
  13 S :    0.467141   -0.000683
  14 C :   -0.461872    0.000133
  15 C :   -0.459205   -0.000069
  16 C :   -0.622297    0.000457
  17 C :   -0.620359    0.000058
  18 S :    0.356371   -0.000102
  19 S :    0.361336   -0.000073
  20 S :    0.354087   -0.000078
  21 S :    0.363358   -0.000068
  22 C :   -0.283944   -0.000006
  23 C :   -0.282886   -0.000014
  24 C :   -0.176091   -0.000002
  25 H :    0.062922   -0.000001
  26 H :    0.053923   -0.000002
  27 H :    0.058009   -0.000002
  28 H :    0.060170   -0.000001
  29 H :    0.053539   -0.000003
  30 H :    0.061990   -0.000002
  31 C :   -0.285660    0.000049
  32 C :   -0.283383    0.000029
  33 C :   -0.176679    0.000005
  34 H :    0.063964   -0.000002
  35 H :    0.053949    0.000009
  36 H :    0.060474    0.000004
  37 H :    0.057622    0.000002
  38 H :    0.054014    0.000008
  39 H :    0.061007    0.000001

  Mayer bond orders larger than 0.100000
B(  0-V ,  1-S ) :   0.7932 B(  0-V ,  2-S ) :   0.7457 B(  0-V ,  3-S ) :   0.7418
B(  0-V ,  4-S ) :   0.8027 B(  0-V ,  5-O ) :   2.1472 B(  1-S ,  8-C ) :   1.0968
B(  2-S ,  6-C ) :   1.1193 B(  3-S ,  9-C ) :   1.1103 B(  4-S ,  7-C ) :   1.0830
B(  6-C ,  7-C ) :   1.6875 B(  6-C , 10-S ) :   0.9363 B(  7-C , 11-S ) :   0.9312
B(  8-C ,  9-C ) :   1.6964 B(  8-C , 13-S ) :   0.9264 B(  9-C , 12-S ) :   0.9298
B( 10-S , 14-C ) :   1.2395 B( 11-S , 14-C ) :   1.2452 B( 12-S , 15-C ) :   1.2371
B( 13-S , 15-C ) :   1.2365 B( 14-C , 16-C ) :   1.4526 B( 15-C , 17-C ) :   1.4635
B( 16-C , 18-S ) :   1.0873 B( 16-C , 19-S ) :   1.0870 B( 17-C , 20-S ) :   1.0795
B( 17-C , 21-S ) :   1.0937 B( 18-S , 32-C ) :   0.9860 B( 19-S , 31-C ) :   0.9976
B( 20-S , 23-C ) :   0.9926 B( 21-S , 22-C ) :   0.9904 B( 22-C , 24-C ) :   0.9119
B( 22-C , 25-H ) :   0.9670 B( 22-C , 26-H ) :   0.9656 B( 23-C , 24-C ) :   0.9160
B( 23-C , 29-H ) :   0.9653 B( 23-C , 30-H ) :   0.9646 B( 24-C , 27-H ) :   0.9624
B( 24-C , 28-H ) :   0.9718 B( 31-C , 33-C ) :   0.9180 B( 31-C , 38-H ) :   0.9656
B( 31-C , 39-H ) :   0.9648 B( 32-C , 33-C ) :   0.9095 B( 32-C , 34-H ) :   0.9662
B( 32-C , 35-H ) :   0.9649 B( 33-C , 36-H ) :   0.9715 B( 33-C , 37-H ) :   0.9624

FINAL SINGLE POINT ENERGY     -6337.701903563821

DIPOLE MOMENT
-------------
                                X             Y             Z
Electronic contribution:      3.98303      11.94637       5.22353
Nuclear contribution   :     -4.43458     -13.30281      -5.77039
                        -----------------------------------------
Total Dipole Moment    :     -0.45154      -1.35644      -0.54686
                        -----------------------------------------
Magnitude (a.u.)       :      1.53065
Magnitude (Debye)      :      3.89059

Rotational constants in cm-1:     0.010725     0.000804     0.000783
Rotational constants in MHz :   321.529078    24.101890    23.478266

                             ****ORCA TERMINATED NORMALLY****
TOTAL RUN TIME: 0 days 1 hours 1 minutes 49 seconds 724 msec
