                         Program Version 5.0.4 -  RELEASE  -
|  1> ! nofrozencore ReducedPop printbasis
|  2> ! B3LYP TZVP
|  3>
|  4> %basis
|  5> newgto V "CP(PPP)" end
|  6> end
|  7>
|  8> %pal
|  9> nprocs 6
| 10> end
| 11>
| 12> % sym SymThresh 1e-2 end
| 13> * xyz -2 2
| 14> V -0.7476321414940985 -0.24907084957132555 -0.7924368724117816
| 15> S 1.1515540381961267 0.4723385342537014 -2.1704910227849963
| 16> S 0.5966000835311577 -2.3097466937230666 -0.3030931119507336
| 17> S -1.1121528155061962 2.161609248014257 -0.341418296135224
| 18> S -1.5921200465179908 -0.5497135504601384 1.5225907484160215
| 19> O -1.9028768816797275 -0.7409317874741491 -1.766534533905635
| 20> C -0.3090111750145039 -2.934604377402241 1.0472081320968458
| 21> C -1.1878104927485789 -2.236714766785019 1.7896391689377544
| 22> C 0.915692487087845 2.216644702950778 -2.208091357452661
| 23> C 0.009462331930654601 2.8818968583796103 -1.4695848016083215
| 24> S 0.05041287879865489 -4.6152874176670435 1.5368869716945692
| 25> S -1.8802278500932637 -3.0890570318886903 3.2033855294390814
| 26> S -0.03618686944760484 4.663343727525701 -1.6263694960147552
| 27> S 1.961484724748167 3.2271114222106125 -3.2597527303644376
| 28> C -1.1270957664793686 -4.646447357566875 2.872546661643305
| 29> C 1.339485520548679 4.791043771408852 -2.739468228832358
| 30> C -1.3109318770985339 -5.703185214322076 3.7084074527854916
| 31> C 1.845048847359717 5.968175074057652 -3.2102439282201805
| 32> S -0.42498820970873086 -7.206468878558179 3.570342967892442
| 33> S -2.2486009657285355 -5.682105106432015 5.21603417882484
| 34> S 3.1806284187814904 6.072333007064958 -4.386363269193058
| 35> S 1.1805817783539059 7.529351393568953 -2.7208131825073933
| 36> C 2.684363232911321 8.185003624493188 -1.869720904547326
| 37> C 4.389336386158509 6.935531452489974 -3.2833313889538007
| 38> C 3.8840773147073877 8.298590966538361 -2.8097073565551898
| 39> H 2.9105831567414544 7.523620271514513 -1.0292135838040892
| 40> H 2.4026245095068695 9.163362848584436 -1.4706717555142745
| 41> H 4.699960929819043 8.814830426310616 -2.282868610820418
| 42> H 3.6134444728695456 8.910900230480454 -3.6767961029424714
| 43> H 5.310542587209476 7.037294922891435 -3.864824599197995
| 44> H 4.591532048132545 6.279418384796074 -2.4320627353336977
| 45> C -3.481806738810624 -6.916009222877359 4.617996158731431
| 46> C -1.9138251547772296 -8.231348032167475 3.2187586949489657
| 47> C -2.7994520761485124 -8.274871085974073 4.463101765590166
| 48> H -2.4485096289566792 -7.757729020170796 2.3764898931839142
| 49> H -1.5703768364395048 -9.230423360029407 2.8991723145483594
| 50> H -2.178562808955439 -8.485686823738193 5.356382774013283
| 51> H -3.5561793860475133 -9.083989462522648 4.376418965719489
| 52> H -4.3249741420643275 -6.933099827216726 5.334888584468879
| 53> H -3.8579238998859733 -6.554411201143115 3.6412262377124125
| 54> *
| 55>
| 56> % eprnmr
| 57> gtensor true
| 58> Nuclei = all H {aiso,adip,aorb,fgrad,rho}
| 59> Nuclei = all V {aiso,adip,aorb,fgrad,rho}
| 60> end
| 61>
| 62>                          ****END OF INPUT****

CARTESIAN COORDINATES (ANGSTROEM)
---------------------------------
  V     -0.745898   -0.250253   -0.789228
  S      1.153288    0.471156   -2.167282
  S      0.598334   -2.310929   -0.299885
  S     -1.110419    2.160427   -0.338210
  S     -1.590386   -0.550896    1.525799
  O     -1.901143   -0.742114   -1.763326
  C     -0.307277   -2.935786    1.050417
  C     -1.186076   -2.237897    1.792848
  C      0.917427    2.215463   -2.204883
  C      0.011196    2.880715   -1.466376
  S      0.052147   -4.616470    1.540096
  S     -1.878494   -3.090239    3.206594
  S     -0.034453    4.662162   -1.623161
  S      1.963219    3.225929   -3.256544
  C     -1.125362   -4.647629    2.875755
  C      1.341220    4.789862   -2.736260
  C     -1.309198   -5.704367    3.711616
  C      1.846783    5.966993   -3.207035
  S     -0.423254   -7.207651    3.573552
  S     -2.246867   -5.683287    5.219243
  S      3.182362    6.071151   -4.383155
  S      1.182316    7.528169   -2.717605
  C      2.686097    8.183822   -1.866512
  C      4.391070    6.934349   -3.280123
  C      3.885811    8.297409   -2.806499
  H      2.912317    7.522438   -1.026005
  H      2.404359    9.162181   -1.467463
  H      4.701695    8.813648   -2.279660
  H      3.615179    8.909718   -3.673588
  H      5.312277    7.036113   -3.861616
  H      4.593266    6.278236   -2.428854
  C     -3.480073   -6.917191    4.621205
  C     -1.912091   -8.232530    3.221967
  C     -2.797718   -8.276053    4.466310
  H     -2.446776   -7.758911    2.379698
  H     -1.568643   -9.231605    2.902381
  H     -2.176829   -8.486869    5.359591
  H     -3.554445   -9.085172    4.379628
  H     -4.323240   -6.934282    5.338097
  H     -3.856190   -6.555593    3.644435

 Total Charge           Charge          ....   -2
 Multiplicity           Mult            ....    2
 Number of Electrons    NEL             ....  321
 Basis Dimension        Dim             ....  681

ORBITAL ENERGIES
----------------
                 SPIN UP ORBITALS
  NO   OCC          E(Eh)            E(eV)
   0   1.0000    -196.675845     -5351.8218
   1   1.0000     -88.733046     -2414.5489
   2   1.0000     -88.731600     -2414.5096
   3   1.0000     -88.731359     -2414.5030
   4   1.0000     -88.731072     -2414.4952
   5   1.0000     -88.730117     -2414.4692
   6   1.0000     -88.729494     -2414.4523
   7   1.0000     -88.728887     -2414.4358
   8   1.0000     -88.726863     -2414.3807
   9   1.0000     -88.640801     -2412.0388
  10   1.0000     -88.639310     -2411.9983
  11   1.0000     -88.638008     -2411.9628
  12   1.0000     -88.636760     -2411.9289
  13   1.0000     -22.051124      -600.0416
  14   1.0000     -18.890701      -514.0421
  15   1.0000     -18.557569      -504.9771
  16   1.0000     -18.552418      -504.8370
  17   1.0000     -18.552300      -504.8337
  18   1.0000     -10.076311      -274.1904
  19   1.0000     -10.075227      -274.1609
  20   1.0000     -10.062981      -273.8276
  21   1.0000     -10.062397      -273.8117
  22   1.0000     -10.061957      -273.7998
  23   1.0000     -10.060635      -273.7638
  24   1.0000     -10.049839      -273.4700
  25   1.0000     -10.048104      -273.4228
  26   1.0000     -10.047406      -273.4038
  27   1.0000     -10.043224      -273.2900
  28   1.0000     -10.017835      -272.5991
  29   1.0000     -10.016961      -272.5754
  30   1.0000     -10.015422      -272.5335
  31   1.0000     -10.014622      -272.5117
  32   1.0000      -7.786651      -211.8856
  33   1.0000      -7.785075      -211.8427
  34   1.0000      -7.784795      -211.8350
  35   1.0000      -7.784381      -211.8238
  36   1.0000      -7.783741      -211.8064
  37   1.0000      -7.783585      -211.8021
  38   1.0000      -7.782446      -211.7711
  39   1.0000      -7.781712      -211.7512
  40   1.0000      -7.695080      -209.3938
  41   1.0000      -7.693961      -209.3633
  42   1.0000      -7.692262      -209.3171
  43   1.0000      -7.691329      -209.2917
  44   1.0000      -5.751589      -156.5087
  45   1.0000      -5.750001      -156.4655
  46   1.0000      -5.749817      -156.4605
  47   1.0000      -5.749456      -156.4507
  48   1.0000      -5.748504      -156.4247
  49   1.0000      -5.748473      -156.4239
  50   1.0000      -5.748291      -156.4190
  51   1.0000      -5.747325      -156.3927
  52   1.0000      -5.746617      -156.3734
  53   1.0000      -5.746464      -156.3692
  54   1.0000      -5.745551      -156.3444
  55   1.0000      -5.745309      -156.3378
  56   1.0000      -5.744933      -156.3276
  57   1.0000      -5.744118      -156.3054
  58   1.0000      -5.743368      -156.2850
  59   1.0000      -5.742996      -156.2749
  60   1.0000      -5.741404      -156.2315
  61   1.0000      -5.740552      -156.2084
  62   1.0000      -5.740092      -156.1958
  63   1.0000      -5.739864      -156.1896
  64   1.0000      -5.739417      -156.1775
  65   1.0000      -5.738373      -156.1491
  66   1.0000      -5.738255      -156.1459
  67   1.0000      -5.736394      -156.0952
  68   1.0000      -5.660416      -154.0277
  69   1.0000      -5.659157      -153.9935
  70   1.0000      -5.657555      -153.9499
  71   1.0000      -5.656496      -153.9211
  72   1.0000      -5.653710      -153.8453
  73   1.0000      -5.652617      -153.8155
  74   1.0000      -5.652422      -153.8102
  75   1.0000      -5.651313      -153.7800
  76   1.0000      -5.650963      -153.7705
  77   1.0000      -5.650102      -153.7471
  78   1.0000      -5.649574      -153.7327
  79   1.0000      -5.648652      -153.7076
  80   1.0000      -2.444598       -66.5209
  81   1.0000      -1.485822       -40.4313
  82   1.0000      -1.474196       -40.1149
  83   1.0000      -1.473341       -40.0916
  84   1.0000      -0.715176       -19.4609
  85   1.0000      -0.711969       -19.3736
  86   1.0000      -0.687692       -18.7131
  87   1.0000      -0.687279       -18.7018
  88   1.0000      -0.650194       -17.6927
  89   1.0000      -0.632480       -17.2107
  90   1.0000      -0.630769       -17.1641
  91   1.0000      -0.616685       -16.7808
  92   1.0000      -0.613323       -16.6894
  93   1.0000      -0.577038       -15.7020
  94   1.0000      -0.576935       -15.6992
  95   1.0000      -0.573840       -15.6150
  96   1.0000      -0.572372       -15.5750
  97   1.0000      -0.496384       -13.5073
  98   1.0000      -0.494765       -13.4632
  99   1.0000      -0.492204       -13.3936
 100   1.0000      -0.488824       -13.3016
 101   1.0000      -0.479155       -13.0385
 102   1.0000      -0.474373       -12.9083
 103   1.0000      -0.448500       -12.2043
 104   1.0000      -0.447019       -12.1640
 105   1.0000      -0.416952       -11.3458
 106   1.0000      -0.411519       -11.1980
 107   1.0000      -0.356919        -9.7123
 108   1.0000      -0.356516        -9.7013
 109   1.0000      -0.330258        -8.9868
 110   1.0000      -0.328607        -8.9419
 111   1.0000      -0.318447        -8.6654
 112   1.0000      -0.313244        -8.5238
 113   1.0000      -0.302689        -8.2366
 114   1.0000      -0.296743        -8.0748
 115   1.0000      -0.291228        -7.9247
 116   1.0000      -0.285403        -7.7662
 117   1.0000      -0.257661        -7.0113
 118   1.0000      -0.254295        -6.9197
 119   1.0000      -0.253967        -6.9108
 120   1.0000      -0.242968        -6.6115
 121   1.0000      -0.239578        -6.5192
 122   1.0000      -0.236629        -6.4390
 123   1.0000      -0.231856        -6.3091
 124   1.0000      -0.230564        -6.2740
 125   1.0000      -0.221304        -6.0220
 126   1.0000      -0.219672        -5.9776
 127   1.0000      -0.212679        -5.7873
 128   1.0000      -0.211309        -5.7500
 129   1.0000      -0.191805        -5.2193
 130   1.0000      -0.189019        -5.1435
 131   1.0000      -0.188803        -5.1376
 132   1.0000      -0.184492        -5.0203
 133   1.0000      -0.179743        -4.8911
 134   1.0000      -0.159741        -4.3468
 135   1.0000      -0.151310        -4.1174
 136   1.0000      -0.147738        -4.0202
 137   1.0000      -0.134990        -3.6733
 138   1.0000      -0.134526        -3.6606
 139   1.0000      -0.131767        -3.5856
 140   1.0000      -0.124566        -3.3896
 141   1.0000      -0.121964        -3.3188
 142   1.0000      -0.113657        -3.0928
 143   1.0000      -0.108880        -2.9628
 144   1.0000      -0.100522        -2.7353
 145   1.0000      -0.100173        -2.7258
 146   1.0000      -0.098660        -2.6847
 147   1.0000      -0.097803        -2.6613
 148   1.0000      -0.073929        -2.0117
 149   1.0000      -0.064708        -1.7608
 150   1.0000      -0.056122        -1.5271
 151   1.0000      -0.051472        -1.4006
 152   1.0000      -0.045537        -1.2391
 153   1.0000      -0.038749        -1.0544
 154   1.0000      -0.036446        -0.9917
 155   1.0000      -0.032525        -0.8851
 156   1.0000      -0.024849        -0.6762
 157   1.0000      -0.019472        -0.5299
 158   1.0000      -0.014247        -0.3877
 159   1.0000       0.021462         0.5840
 160   1.0000       0.042042         1.1440
 161   0.0000       0.133699         3.6381
 162   0.0000       0.136244         3.7074
 163   0.0000       0.163530         4.4499
 164   0.0000       0.166238         4.5236
 165   0.0000       0.167898         4.5687

                 SPIN DOWN ORBITALS
  NO   OCC          E(Eh)            E(eV)
   0   1.0000    -196.675991     -5351.8258
   1   1.0000     -88.733047     -2414.5490
   2   1.0000     -88.731608     -2414.5098
   3   1.0000     -88.731368     -2414.5033
   4   1.0000     -88.731072     -2414.4952
   5   1.0000     -88.730125     -2414.4695
   6   1.0000     -88.729495     -2414.4523
   7   1.0000     -88.728896     -2414.4360
   8   1.0000     -88.726864     -2414.3807
   9   1.0000     -88.640938     -2412.0425
  10   1.0000     -88.639451     -2412.0021
  11   1.0000     -88.638148     -2411.9666
  12   1.0000     -88.636903     -2411.9328
  13   1.0000     -22.036144      -599.6340
  14   1.0000     -18.894486      -514.1451
  15   1.0000     -18.552279      -504.8332
  16   1.0000     -18.536359      -504.4000
  17   1.0000     -18.536111      -504.3932
  18   1.0000     -10.076310      -274.1903
  19   1.0000     -10.075230      -274.1610
  20   1.0000     -10.062981      -273.8276
  21   1.0000     -10.062395      -273.8117
  22   1.0000     -10.061958      -273.7998
  23   1.0000     -10.060634      -273.7638
  24   1.0000     -10.049839      -273.4700
  25   1.0000     -10.048104      -273.4228
  26   1.0000     -10.047402      -273.4037
  27   1.0000     -10.043212      -273.2897
  28   1.0000     -10.017606      -272.5929
  29   1.0000     -10.016751      -272.5696
  30   1.0000     -10.015216      -272.5279
  31   1.0000     -10.014418      -272.5062
  32   1.0000      -7.786652      -211.8856
  33   1.0000      -7.785076      -211.8427
  34   1.0000      -7.784804      -211.8353
  35   1.0000      -7.784392      -211.8241
  36   1.0000      -7.783742      -211.8064
  37   1.0000      -7.783594      -211.8024
  38   1.0000      -7.782456      -211.7714
  39   1.0000      -7.781713      -211.7512
  40   1.0000      -7.695207      -209.3972
  41   1.0000      -7.694092      -209.3669
  42   1.0000      -7.692393      -209.3207
  43   1.0000      -7.691464      -209.2954
  44   1.0000      -5.751590      -156.5087
  45   1.0000      -5.750002      -156.4655
  46   1.0000      -5.749826      -156.4607
  47   1.0000      -5.749466      -156.4509
  48   1.0000      -5.748506      -156.4248
  49   1.0000      -5.748483      -156.4242
  50   1.0000      -5.748292      -156.4190
  51   1.0000      -5.747336      -156.3930
  52   1.0000      -5.746618      -156.3734
  53   1.0000      -5.746465      -156.3693
  54   1.0000      -5.745552      -156.3444
  55   1.0000      -5.745323      -156.3382
  56   1.0000      -5.744948      -156.3280
  57   1.0000      -5.744132      -156.3058
  58   1.0000      -5.743370      -156.2850
  59   1.0000      -5.743010      -156.2752
  60   1.0000      -5.741405      -156.2316
  61   1.0000      -5.740558      -156.2085
  62   1.0000      -5.740099      -156.1960
  63   1.0000      -5.739865      -156.1897
  64   1.0000      -5.739422      -156.1776
  65   1.0000      -5.738374      -156.1491
  66   1.0000      -5.738264      -156.1461
  67   1.0000      -5.736395      -156.0952
  68   1.0000      -5.660562      -154.0317
  69   1.0000      -5.659298      -153.9973
  70   1.0000      -5.657692      -153.9536
  71   1.0000      -5.656633      -153.9248
  72   1.0000      -5.654056      -153.8547
  73   1.0000      -5.652984      -153.8255
  74   1.0000      -5.652529      -153.8131
  75   1.0000      -5.651421      -153.7830
  76   1.0000      -5.651353      -153.7811
  77   1.0000      -5.650493      -153.7577
  78   1.0000      -5.649658      -153.7350
  79   1.0000      -5.648747      -153.7102
  80   1.0000      -2.399586       -65.2961
  81   1.0000      -1.466440       -39.9039
  82   1.0000      -1.411607       -38.4118
  83   1.0000      -1.411516       -38.4093
  84   1.0000      -0.715163       -19.4606
  85   1.0000      -0.711953       -19.3732
  86   1.0000      -0.687642       -18.7117
  87   1.0000      -0.687231       -18.7005
  88   1.0000      -0.658317       -17.9137
  89   1.0000      -0.632421       -17.2091
  90   1.0000      -0.630711       -17.1625
  91   1.0000      -0.616687       -16.7809
  92   1.0000      -0.613323       -16.6894
  93   1.0000      -0.577011       -15.7013
  94   1.0000      -0.576924       -15.6989
  95   1.0000      -0.573767       -15.6130
  96   1.0000      -0.572324       -15.5737
  97   1.0000      -0.496401       -13.5078
  98   1.0000      -0.494829       -13.4650
  99   1.0000      -0.492252       -13.3949
 100   1.0000      -0.488967       -13.3055
 101   1.0000      -0.479334       -13.0433
 102   1.0000      -0.474554       -12.9133
 103   1.0000      -0.448518       -12.2048
 104   1.0000      -0.447056       -12.1650
 105   1.0000      -0.416960       -11.3461
 106   1.0000      -0.411643       -11.2014
 107   1.0000      -0.356912        -9.7121
 108   1.0000      -0.356510        -9.7011
 109   1.0000      -0.330249        -8.9865
 110   1.0000      -0.328597        -8.9416
 111   1.0000      -0.318385        -8.6637
 112   1.0000      -0.313291        -8.5251
 113   1.0000      -0.302641        -8.2353
 114   1.0000      -0.296708        -8.0738
 115   1.0000      -0.291222        -7.9245
 116   1.0000      -0.285396        -7.7660
 117   1.0000      -0.257541        -7.0080
 118   1.0000      -0.254257        -6.9187
 119   1.0000      -0.253905        -6.9091
 120   1.0000      -0.242925        -6.6103
 121   1.0000      -0.239550        -6.5185
 122   1.0000      -0.236598        -6.4382
 123   1.0000      -0.231807        -6.3078
 124   1.0000      -0.230533        -6.2731
 125   1.0000      -0.221020        -6.0143
 126   1.0000      -0.219587        -5.9753
 127   1.0000      -0.212420        -5.7802
 128   1.0000      -0.211212        -5.7474
 129   1.0000      -0.189899        -5.1674
 130   1.0000      -0.188843        -5.1387
 131   1.0000      -0.188719        -5.1353
 132   1.0000      -0.184287        -5.0147
 133   1.0000      -0.179647        -4.8885
 134   1.0000      -0.159184        -4.3316
 135   1.0000      -0.151163        -4.1134
 136   1.0000      -0.147692        -4.0189
 137   1.0000      -0.134732        -3.6662
 138   1.0000      -0.133832        -3.6418
 139   1.0000      -0.131267        -3.5720
 140   1.0000      -0.124249        -3.3810
 141   1.0000      -0.121602        -3.3090
 142   1.0000      -0.115468        -3.1421
 143   1.0000      -0.110478        -3.0063
 144   1.0000      -0.100550        -2.7361
 145   1.0000      -0.100266        -2.7284
 146   1.0000      -0.098955        -2.6927
 147   1.0000      -0.098004        -2.6668
 148   1.0000      -0.069974        -1.9041
 149   1.0000      -0.064698        -1.7605
 150   1.0000      -0.056109        -1.5268
 151   1.0000      -0.048919        -1.3312
 152   1.0000      -0.044558        -1.2125
 153   1.0000      -0.038765        -1.0549
 154   1.0000      -0.035916        -0.9773
 155   1.0000      -0.032664        -0.8888
 156   1.0000      -0.025845        -0.7033
 157   1.0000      -0.014436        -0.3928
 158   1.0000       0.021809         0.5934
 159   1.0000       0.040878         1.1123
 160   0.0000       0.133695         3.6380
 161   0.0000       0.136235         3.7072
 162   0.0000       0.156621         4.2619
 163   0.0000       0.164158         4.4670
 164   0.0000       0.167112         4.5474

MULLIKEN ATOMIC CHARGES AND SPIN POPULATIONS
--------------------------------------------
   0 V :    0.476939    1.212609
   1 S :   -0.285748   -0.022466
   2 S :   -0.301600   -0.024915
   3 S :   -0.289937   -0.023820
   4 S :   -0.291406   -0.025221
   5 O :   -0.468794   -0.146890
   6 C :   -0.091715    0.007838
   7 C :   -0.070114    0.007690
   8 C :   -0.071421    0.008837
   9 C :   -0.095984    0.006803
  10 S :    0.101388   -0.000488
  11 S :    0.101251   -0.000579
  12 S :    0.102330   -0.000387
  13 S :    0.099327   -0.000290
  14 C :   -0.135627    0.000497
  15 C :   -0.192127    0.001153
  16 C :   -0.291947    0.000293
  17 C :   -0.216247   -0.000469
  18 S :    0.023429   -0.000133
  19 S :    0.022364   -0.000137
  20 S :    0.012870   -0.000077
  21 S :    0.012485   -0.000064
  22 C :   -0.309646    0.000002
  23 C :   -0.310955    0.000000
  24 C :   -0.157194   -0.000014
  25 H :    0.145313   -0.000002
  26 H :    0.116173   -0.000003
  27 H :    0.083601   -0.000000
  28 H :    0.096675   -0.000001
  29 H :    0.117244   -0.000005
  30 H :    0.146962   -0.000002
  31 C :   -0.328768    0.000196
  32 C :   -0.329446    0.000203
  33 C :   -0.162785   -0.000220
  34 H :    0.152003   -0.000023
  35 H :    0.121630    0.000038
  36 H :    0.111422    0.000025
  37 H :    0.080559    0.000011
  38 H :    0.123217    0.000036
  39 H :    0.154282   -0.000023
Sum of atomic charges         :   -2.0000000

LOEWDIN ATOMIC CHARGES AND SPIN POPULATIONS
-------------------------------------------
   0 V :   -0.146202    1.166580
   1 S :    0.086633   -0.014166
   2 S :    0.071259   -0.016531
   3 S :    0.083852   -0.015556
   4 S :    0.077475   -0.016404
   5 O :   -0.319112   -0.131850
   6 C :   -0.558831    0.007674
   7 C :   -0.556199    0.007361
   8 C :   -0.553311    0.008916
   9 C :   -0.557101    0.007359
  10 S :    0.473145   -0.000969
  11 S :    0.478598   -0.000990
  12 S :    0.472891   -0.000825
  13 S :    0.474524   -0.000765
  14 C :   -0.455285   -0.000178
  15 C :   -0.461848   -0.000062
  16 C :   -0.631576    0.000530
  17 C :   -0.625813    0.000100
  18 S :    0.365895   -0.000100
  19 S :    0.357385   -0.000105
  20 S :    0.357117   -0.000080
  21 S :    0.363185   -0.000069
  22 C :   -0.283606   -0.000005
  23 C :   -0.282845   -0.000008
  24 C :   -0.179340   -0.000002
  25 H :    0.063590   -0.000001
  26 H :    0.053015   -0.000001
  27 H :    0.056848   -0.000001
  28 H :    0.060526   -0.000001
  29 H :    0.053127   -0.000002
  30 H :    0.064400   -0.000002
  31 C :   -0.284942    0.000056
  32 C :   -0.285665    0.000056
  33 C :   -0.190537    0.000004
  34 H :    0.067782   -0.000001
  35 H :    0.051950    0.000015
  36 H :    0.062885    0.000006
  37 H :    0.054164    0.000002
  38 H :    0.052555    0.000013
  39 H :    0.069411   -0.000001

  Mayer bond orders larger than 0.100000
B(  0-V ,  1-S ) :   0.7877 B(  0-V ,  2-S ) :   0.7531 B(  0-V ,  3-S ) :   0.7662
B(  0-V ,  4-S ) :   0.7726 B(  0-V ,  5-O ) :   2.1490 B(  1-S ,  8-C ) :   1.0972
B(  2-S ,  6-C ) :   1.1290 B(  3-S ,  9-C ) :   1.1165 B(  4-S ,  7-C ) :   1.1128
B(  6-C ,  7-C ) :   1.6604 B(  6-C , 10-S ) :   0.9464 B(  7-C , 11-S ) :   0.9410
B(  8-C ,  9-C ) :   1.6892 B(  8-C , 13-S ) :   0.9333 B(  9-C , 12-S ) :   0.9429
B( 10-S , 14-C ) :   1.2384 B( 11-S , 14-C ) :   1.2462 B( 12-S , 15-C ) :   1.2414
B( 13-S , 15-C ) :   1.2480 B( 14-C , 16-C ) :   1.4334 B( 15-C , 17-C ) :   1.4513
B( 16-C , 18-S ) :   1.1400 B( 16-C , 19-S ) :   1.1311 B( 17-C , 20-S ) :   1.1011
B( 17-C , 21-S ) :   1.1061 B( 18-S , 32-C ) :   0.9703 B( 19-S , 31-C ) :   0.9702
B( 20-S , 23-C ) :   0.9860 B( 21-S , 22-C ) :   0.9846 B( 22-C , 24-C ) :   0.9053
B( 22-C , 25-H ) :   0.9679 B( 22-C , 26-H ) :   0.9649 B( 23-C , 24-C ) :   0.9046
B( 23-C , 29-H ) :   0.9648 B( 23-C , 30-H ) :   0.9688 B( 24-C , 27-H ) :   0.9607
B( 24-C , 28-H ) :   0.9736 B( 31-C , 33-C ) :   0.8822 B( 31-C , 38-H ) :   0.9593
B( 31-C , 39-H ) :   0.9796 B( 32-C , 33-C ) :   0.8836 B( 32-C , 34-H ) :   0.9781
B( 32-C , 35-H ) :   0.9592 B( 33-C , 36-H ) :   0.9779 B( 33-C , 37-H ) :   0.9514

FINAL SINGLE POINT ENERGY     -6337.691488453826

DIPOLE MOMENT
-------------
                                X             Y             Z
Electronic contribution:     -7.69215      -0.57995     -11.10902
Nuclear contribution   :      8.66199       0.81730      12.30861
                        -----------------------------------------
Total Dipole Moment    :      0.96984       0.23735       1.19960
                        -----------------------------------------
Magnitude (a.u.)       :      1.56075
Magnitude (Debye)      :      3.96711

Rotational constants in cm-1:     0.010906     0.000805     0.000785
Rotational constants in MHz :   326.953801    24.138540    23.529910

                             ****ORCA TERMINATED NORMALLY****
TOTAL RUN TIME: 0 days 1 hours 6 minutes 17 seconds 185 msec
