                         Program Version 5.0.4 -  RELEASE  -
|  1> ! nofrozencore ReducedPop printbasis
|  2> ! B3LYP TZVP
|  3>
|  4> %basis
|  5> newgto V "CP(PPP)" end
|  6> end
|  7>
|  8> %pal
|  9> nprocs 8
| 10> end
| 11>
| 12> % sym SymThresh 1e-2 end
| 13> * xyz -2 2
| 14> V -0.4388762443095094 0.5771408276005121 0.8445491417664076
| 15> S -2.228031384486946 -1.0770599270542096 0.41842129893704466
| 16> S 0.829005260605576 -1.3187586024906608 1.8063785155927758
| 17> S -1.258067199786595 1.7250888613993864 -1.1906612832446863
| 18> S 1.757502892297461 1.4287695070713309 0.11266307498113978
| 19> O -0.894666148143472 1.4524282679681026 2.0896886891817883
| 20> C 2.4286932753372232 -0.5905593476806689 1.8681678553132572
| 21> C 2.801253779548228 0.5089362367006725 1.186261924926247
| 22> C -3.1219772348840396 -0.2868333612067024 -0.8735975890950431
| 23> C -2.7325886774197636 0.8292336669604605 -1.5166818500748986
| 24> S 3.705425262395154 -1.3909496306430251 2.846570320701886
| 25> S 4.519091046852878 1.004953985407043 1.3403992094960573
| 26> S -3.800874757763222 1.4036970539283307 -2.8409419138610166
| 27> S -4.657855683876037 -1.035149433825222 -1.4299928067207264
| 28> C 5.027929951607508 -0.2974920666751292 2.4212799000071206
| 29> C -4.987137311830948 0.10048456964659498 -2.7475768686731072
| 30> C 6.306897345874942 -0.4348808681218122 2.886373370993128
| 31> C -6.055768411044251 -0.021422411880930057 -3.5922017428113358
| 32> S 6.765919499561273 -1.7304874282876572 4.020899207755513
| 33> S 7.602276766091863 0.6959394837885324 2.4189138457774813
| 34> S -7.224200876236998 -1.3531216818679195 -3.461320990980831
| 35> S -6.330382080439748 1.1418904344859793 -4.921865510096833
| 36> C -6.141042035592655 -0.06252426894587967 -6.370784254290739
| 37> C -6.92741819043879 -2.1369000620248215 -5.064766162235535
| 38> C -7.1278111393805625 -1.231710142434511 -6.28203343219744
| 39> H -5.042570743880206 -0.22060786705969643 -6.273652460989196
| 40> H -6.306532669990667 0.6874725591864828 -7.167358652522906
| 41> H -6.895868505739828 -1.519266526934696 -7.37793076503523
| 42> H -8.201729311124621 -0.9831857833415073 -6.196474518107162
| 43> H -7.590707372219162 -2.995576815664818 -5.294464683981761
| 44> H -5.905252427485459 -2.5331435598443974 -5.292716920257397
| 45> C 7.979912597554443 1.3910481157905898 4.091339911400949
| 46> C 7.262409941999011 -0.6683845301851373 5.455627872437518
| 47> C 8.371788408192417 0.3324608445240771 5.124322397741522
| 48> H 6.367707168424198 -0.15794705494907432 5.818979859096695
| 49> H 7.595457048485467 -1.3672202305157004 6.227069551172528
| 50> H 9.256074738513936 -0.2061512965611999 4.769276401705747
| 51> H 8.65180849859225 0.8411240322517526 6.057505693737111
| 52> H 8.804478979588358 2.0921719458878556 3.93948430088477
| 53> H 7.109996853076805 1.9570694355516849 4.4323050718144765
| 54> *
| 55>
| 56> % eprnmr
| 57> gtensor true
| 58> Nuclei = all H {aiso,adip,aorb,fgrad,rho}
| 59> Nuclei = all V {aiso,adip,aorb,fgrad,rho}
| 60> end
| 61>
| 62>                          ****END OF INPUT****

CARTESIAN COORDINATES (ANGSTROEM)
---------------------------------
  V     -0.435752    0.575322    0.843273
  S     -2.224907   -1.078879    0.417145
  S      0.832129   -1.320577    1.805102
  S     -1.254943    1.723270   -1.191938
  S      1.760627    1.426951    0.111387
  O     -0.891542    1.450609    2.088412
  C      2.431817   -0.592378    1.866891
  C      2.804378    0.507117    1.184985
  C     -3.118853   -0.288652   -0.874874
  C     -2.729464    0.827415   -1.517958
  S      3.708549   -1.392769    2.845294
  S      4.522215    1.003135    1.339123
  S     -3.797751    1.401878   -2.842218
  S     -4.654731   -1.036968   -1.431269
  C      5.031054   -0.299311    2.420003
  C     -4.984013    0.098666   -2.748853
  C      6.310022   -0.436700    2.885097
  C     -6.052644   -0.023241   -3.593478
  S      6.769044   -1.732306    4.019623
  S      7.605401    0.694121    2.417637
  S     -7.221077   -1.354941   -3.462597
  S     -6.327258    1.140072   -4.923142
  C     -6.137918   -0.064343   -6.372061
  C     -6.924294   -2.138719   -5.066043
  C     -7.124687   -1.233529   -6.283310
  H     -5.039447   -0.222427   -6.274929
  H     -6.303408    0.685654   -7.168635
  H     -6.892744   -1.521085   -7.379207
  H     -8.198605   -0.985005   -6.197751
  H     -7.587583   -2.997396   -5.295741
  H     -5.902128   -2.534962   -5.293993
  C      7.983037    1.389229    4.090063
  C      7.265534   -0.670203    5.454351
  C      8.374913    0.330642    5.123046
  H      6.370831   -0.159766    5.817703
  H      7.598581   -1.369039    6.225793
  H      9.259199   -0.207970    4.768000
  H      8.654933    0.839305    6.056229
  H      8.807603    2.090353    3.938208
  H      7.113121    1.955251    4.431029

 Total Charge           Charge          ....   -2
 Multiplicity           Mult            ....    2
 Number of Electrons    NEL             ....  321
 Basis Dimension        Dim             ....  681

ORBITAL ENERGIES
----------------
                 SPIN UP ORBITALS
  NO   OCC          E(Eh)            E(eV)
   0   1.0000    -196.674774     -5351.7927
   1   1.0000     -88.742520     -2414.8067
   2   1.0000     -88.733332     -2414.5567
   3   1.0000     -88.732935     -2414.5459
   4   1.0000     -88.730917     -2414.4910
   5   1.0000     -88.730197     -2414.4714
   6   1.0000     -88.730146     -2414.4700
   7   1.0000     -88.729989     -2414.4658
   8   1.0000     -88.725844     -2414.3530
   9   1.0000     -88.639850     -2412.0129
  10   1.0000     -88.639624     -2412.0068
  11   1.0000     -88.639472     -2412.0027
  12   1.0000     -88.639438     -2412.0017
  13   1.0000     -22.050174      -600.0157
  14   1.0000     -18.890095      -514.0256
  15   1.0000     -18.556622      -504.9514
  16   1.0000     -18.551448      -504.8106
  17   1.0000     -18.551349      -504.8079
  18   1.0000     -10.076380      -274.1922
  19   1.0000     -10.075743      -274.1749
  20   1.0000     -10.069744      -274.0117
  21   1.0000     -10.067482      -273.9501
  22   1.0000     -10.063453      -273.8405
  23   1.0000     -10.063354      -273.8378
  24   1.0000     -10.059949      -273.7451
  25   1.0000     -10.051254      -273.5085
  26   1.0000     -10.048997      -273.4471
  27   1.0000     -10.048222      -273.4260
  28   1.0000     -10.018200      -272.6091
  29   1.0000     -10.018126      -272.6071
  30   1.0000     -10.017357      -272.5862
  31   1.0000     -10.017193      -272.5817
  32   1.0000      -7.795889      -212.1369
  33   1.0000      -7.786788      -211.8893
  34   1.0000      -7.786370      -211.8779
  35   1.0000      -7.784176      -211.8182
  36   1.0000      -7.783435      -211.7980
  37   1.0000      -7.783421      -211.7977
  38   1.0000      -7.783282      -211.7939
  39   1.0000      -7.779507      -211.6911
  40   1.0000      -7.694149      -209.3684
  41   1.0000      -7.693954      -209.3631
  42   1.0000      -7.693827      -209.3597
  43   1.0000      -7.693669      -209.3554
  44   1.0000      -5.761074      -156.7668
  45   1.0000      -5.757361      -156.6658
  46   1.0000      -5.751786      -156.5140
  47   1.0000      -5.751356      -156.5024
  48   1.0000      -5.750588      -156.4814
  49   1.0000      -5.749118      -156.4415
  50   1.0000      -5.748372      -156.4212
  51   1.0000      -5.748371      -156.4211
  52   1.0000      -5.748353      -156.4206
  53   1.0000      -5.748222      -156.4171
  54   1.0000      -5.747951      -156.4097
  55   1.0000      -5.744663      -156.3202
  56   1.0000      -5.744301      -156.3104
  57   1.0000      -5.743956      -156.3010
  58   1.0000      -5.743953      -156.3009
  59   1.0000      -5.743792      -156.2965
  60   1.0000      -5.741580      -156.2363
  61   1.0000      -5.741166      -156.2251
  62   1.0000      -5.741128      -156.2240
  63   1.0000      -5.740019      -156.1938
  64   1.0000      -5.739267      -156.1734
  65   1.0000      -5.739229      -156.1724
  66   1.0000      -5.739108      -156.1691
  67   1.0000      -5.734393      -156.0408
  68   1.0000      -5.659466      -154.0019
  69   1.0000      -5.659249      -153.9960
  70   1.0000      -5.659139      -153.9930
  71   1.0000      -5.658991      -153.9890
  72   1.0000      -5.652801      -153.8205
  73   1.0000      -5.652602      -153.8151
  74   1.0000      -5.652488      -153.8120
  75   1.0000      -5.652343      -153.8081
  76   1.0000      -5.651459      -153.7840
  77   1.0000      -5.651274      -153.7790
  78   1.0000      -5.651133      -153.7751
  79   1.0000      -5.650974      -153.7708
  80   1.0000      -2.443828       -66.4999
  81   1.0000      -1.485131       -40.4125
  82   1.0000      -1.473464       -40.0950
  83   1.0000      -1.472653       -40.0729
  84   1.0000      -0.710724       -19.3398
  85   1.0000      -0.709451       -19.3051
  86   1.0000      -0.686586       -18.6830
  87   1.0000      -0.685576       -18.6555
  88   1.0000      -0.649698       -17.6792
  89   1.0000      -0.632040       -17.1987
  90   1.0000      -0.631279       -17.1780
  91   1.0000      -0.618462       -16.8292
  92   1.0000      -0.617218       -16.7954
  93   1.0000      -0.574899       -15.6438
  94   1.0000      -0.574346       -15.6287
  95   1.0000      -0.573757       -15.6127
  96   1.0000      -0.572786       -15.5863
  97   1.0000      -0.498499       -13.5648
  98   1.0000      -0.496360       -13.5067
  99   1.0000      -0.495806       -13.4916
 100   1.0000      -0.494218       -13.4484
 101   1.0000      -0.480100       -13.0642
 102   1.0000      -0.477362       -12.9897
 103   1.0000      -0.446624       -12.1532
 104   1.0000      -0.442571       -12.0430
 105   1.0000      -0.416127       -11.3234
 106   1.0000      -0.411019       -11.1844
 107   1.0000      -0.355982        -9.6868
 108   1.0000      -0.355310        -9.6685
 109   1.0000      -0.326629        -8.8880
 110   1.0000      -0.324433        -8.8283
 111   1.0000      -0.320103        -8.7104
 112   1.0000      -0.315641        -8.5890
 113   1.0000      -0.309566        -8.4237
 114   1.0000      -0.303887        -8.2692
 115   1.0000      -0.292401        -7.9566
 116   1.0000      -0.284005        -7.7282
 117   1.0000      -0.269742        -7.3401
 118   1.0000      -0.257288        -7.0012
 119   1.0000      -0.256382        -6.9765
 120   1.0000      -0.248201        -6.7539
 121   1.0000      -0.234744        -6.3877
 122   1.0000      -0.234268        -6.3748
 123   1.0000      -0.230672        -6.2769
 124   1.0000      -0.224547        -6.1102
 125   1.0000      -0.218634        -5.9493
 126   1.0000      -0.215568        -5.8659
 127   1.0000      -0.213759        -5.8167
 128   1.0000      -0.205782        -5.5996
 129   1.0000      -0.193089        -5.2542
 130   1.0000      -0.190888        -5.1943
 131   1.0000      -0.185951        -5.0600
 132   1.0000      -0.181620        -4.9421
 133   1.0000      -0.171885        -4.6772
 134   1.0000      -0.159395        -4.3374
 135   1.0000      -0.151076        -4.1110
 136   1.0000      -0.146534        -3.9874
 137   1.0000      -0.135685        -3.6922
 138   1.0000      -0.133343        -3.6284
 139   1.0000      -0.131837        -3.5875
 140   1.0000      -0.124814        -3.3964
 141   1.0000      -0.121084        -3.2949
 142   1.0000      -0.113393        -3.0856
 143   1.0000      -0.109615        -2.9828
 144   1.0000      -0.099757        -2.7145
 145   1.0000      -0.098331        -2.6757
 146   1.0000      -0.097607        -2.6560
 147   1.0000      -0.094883        -2.5819
 148   1.0000      -0.074494        -2.0271
 149   1.0000      -0.067523        -1.8374
 150   1.0000      -0.066881        -1.8199
 151   1.0000      -0.052246        -1.4217
 152   1.0000      -0.045517        -1.2386
 153   1.0000      -0.037441        -1.0188
 154   1.0000      -0.037041        -1.0079
 155   1.0000      -0.031217        -0.8495
 156   1.0000      -0.024921        -0.6781
 157   1.0000      -0.019009        -0.5173
 158   1.0000      -0.015354        -0.4178
 159   1.0000       0.020446         0.5564
 160   1.0000       0.041305         1.1240
 161   0.0000       0.136122         3.7041
 162   0.0000       0.136932         3.7261
 163   0.0000       0.158000         4.2994
 164   0.0000       0.162059         4.4098
 165   0.0000       0.167464         4.5569

                 SPIN DOWN ORBITALS
  NO   OCC          E(Eh)            E(eV)
   0   1.0000    -196.674921     -5351.7967
   1   1.0000     -88.742521     -2414.8068
   2   1.0000     -88.733333     -2414.5567
   3   1.0000     -88.732936     -2414.5459
   4   1.0000     -88.730925     -2414.4912
   5   1.0000     -88.730206     -2414.4716
   6   1.0000     -88.730154     -2414.4702
   7   1.0000     -88.729998     -2414.4660
   8   1.0000     -88.725844     -2414.3530
   9   1.0000     -88.639986     -2412.0167
  10   1.0000     -88.639764     -2412.0106
  11   1.0000     -88.639610     -2412.0064
  12   1.0000     -88.639580     -2412.0056
  13   1.0000     -22.035245      -599.6095
  14   1.0000     -18.893874      -514.1284
  15   1.0000     -18.551357      -504.8081
  16   1.0000     -18.535416      -504.3743
  17   1.0000     -18.535235      -504.3694
  18   1.0000     -10.076379      -274.1922
  19   1.0000     -10.075738      -274.1748
  20   1.0000     -10.069744      -274.0117
  21   1.0000     -10.067483      -273.9501
  22   1.0000     -10.063452      -273.8405
  23   1.0000     -10.063353      -273.8378
  24   1.0000     -10.059949      -273.7451
  25   1.0000     -10.051254      -273.5085
  26   1.0000     -10.048992      -273.4470
  27   1.0000     -10.048211      -273.4257
  28   1.0000     -10.017984      -272.6032
  29   1.0000     -10.017888      -272.6006
  30   1.0000     -10.017147      -272.5804
  31   1.0000     -10.016969      -272.5756
  32   1.0000      -7.795889      -212.1369
  33   1.0000      -7.786788      -211.8893
  34   1.0000      -7.786370      -211.8779
  35   1.0000      -7.784185      -211.8184
  36   1.0000      -7.783444      -211.7983
  37   1.0000      -7.783430      -211.7979
  38   1.0000      -7.783292      -211.7941
  39   1.0000      -7.779508      -211.6912
  40   1.0000      -7.694277      -209.3719
  41   1.0000      -7.694085      -209.3667
  42   1.0000      -7.693956      -209.3632
  43   1.0000      -7.693801      -209.3590
  44   1.0000      -5.761075      -156.7668
  45   1.0000      -5.757362      -156.6658
  46   1.0000      -5.751787      -156.5141
  47   1.0000      -5.751358      -156.5024
  48   1.0000      -5.750588      -156.4815
  49   1.0000      -5.749129      -156.4418
  50   1.0000      -5.748383      -156.4214
  51   1.0000      -5.748381      -156.4214
  52   1.0000      -5.748355      -156.4207
  53   1.0000      -5.748233      -156.4174
  54   1.0000      -5.747952      -156.4097
  55   1.0000      -5.744677      -156.3206
  56   1.0000      -5.744302      -156.3104
  57   1.0000      -5.743970      -156.3014
  58   1.0000      -5.743967      -156.3013
  59   1.0000      -5.743806      -156.2969
  60   1.0000      -5.741581      -156.2364
  61   1.0000      -5.741166      -156.2251
  62   1.0000      -5.741129      -156.2241
  63   1.0000      -5.740025      -156.1940
  64   1.0000      -5.739275      -156.1736
  65   1.0000      -5.739235      -156.1725
  66   1.0000      -5.739117      -156.1693
  67   1.0000      -5.734394      -156.0408
  68   1.0000      -5.659608      -154.0058
  69   1.0000      -5.659388      -153.9998
  70   1.0000      -5.659280      -153.9968
  71   1.0000      -5.659133      -153.9928
  72   1.0000      -5.653152      -153.8301
  73   1.0000      -5.652989      -153.8257
  74   1.0000      -5.652847      -153.8218
  75   1.0000      -5.652726      -153.8185
  76   1.0000      -5.651564      -153.7869
  77   1.0000      -5.651361      -153.7813
  78   1.0000      -5.651238      -153.7780
  79   1.0000      -5.651067      -153.7734
  80   1.0000      -2.398952       -65.2788
  81   1.0000      -1.465847       -39.8877
  82   1.0000      -1.411099       -38.3980
  83   1.0000      -1.410937       -38.3936
  84   1.0000      -0.710711       -19.3394
  85   1.0000      -0.709425       -19.3044
  86   1.0000      -0.686542       -18.6818
  87   1.0000      -0.685521       -18.6540
  88   1.0000      -0.657802       -17.8997
  89   1.0000      -0.631985       -17.1972
  90   1.0000      -0.631203       -17.1759
  91   1.0000      -0.618462       -16.8292
  92   1.0000      -0.617218       -16.7954
  93   1.0000      -0.574874       -15.6431
  94   1.0000      -0.574316       -15.6279
  95   1.0000      -0.573685       -15.6108
  96   1.0000      -0.572710       -15.5842
  97   1.0000      -0.498524       -13.5655
  98   1.0000      -0.496383       -13.5073
  99   1.0000      -0.495847       -13.4927
 100   1.0000      -0.494259       -13.4495
 101   1.0000      -0.480292       -13.0694
 102   1.0000      -0.477615       -12.9966
 103   1.0000      -0.446647       -12.1539
 104   1.0000      -0.442616       -12.0442
 105   1.0000      -0.416124       -11.3233
 106   1.0000      -0.411126       -11.1873
 107   1.0000      -0.355977        -9.6866
 108   1.0000      -0.355300        -9.6682
 109   1.0000      -0.326614        -8.8876
 110   1.0000      -0.324421        -8.8280
 111   1.0000      -0.320044        -8.7088
 112   1.0000      -0.315654        -8.5894
 113   1.0000      -0.309540        -8.4230
 114   1.0000      -0.303847        -8.2681
 115   1.0000      -0.292395        -7.9565
 116   1.0000      -0.283990        -7.7277
 117   1.0000      -0.269660        -7.3378
 118   1.0000      -0.257206        -6.9989
 119   1.0000      -0.256305        -6.9744
 120   1.0000      -0.248124        -6.7518
 121   1.0000      -0.234698        -6.3865
 122   1.0000      -0.234258        -6.3745
 123   1.0000      -0.230630        -6.2758
 124   1.0000      -0.224488        -6.1086
 125   1.0000      -0.218270        -5.9394
 126   1.0000      -0.215276        -5.8580
 127   1.0000      -0.213661        -5.8140
 128   1.0000      -0.205732        -5.5983
 129   1.0000      -0.191379        -5.2077
 130   1.0000      -0.190734        -5.1901
 131   1.0000      -0.185585        -5.0500
 132   1.0000      -0.181462        -4.9378
 133   1.0000      -0.171773        -4.6742
 134   1.0000      -0.158772        -4.3204
 135   1.0000      -0.150907        -4.1064
 136   1.0000      -0.146451        -3.9851
 137   1.0000      -0.135087        -3.6759
 138   1.0000      -0.133103        -3.6219
 139   1.0000      -0.131434        -3.5765
 140   1.0000      -0.124288        -3.3820
 141   1.0000      -0.120754        -3.2859
 142   1.0000      -0.115179        -3.1342
 143   1.0000      -0.111173        -3.0252
 144   1.0000      -0.099751        -2.7144
 145   1.0000      -0.098582        -2.6825
 146   1.0000      -0.097665        -2.6576
 147   1.0000      -0.095221        -2.5911
 148   1.0000      -0.070681        -1.9233
 149   1.0000      -0.067512        -1.8371
 150   1.0000      -0.066858        -1.8193
 151   1.0000      -0.049652        -1.3511
 152   1.0000      -0.044582        -1.2131
 153   1.0000      -0.037482        -1.0199
 154   1.0000      -0.036477        -0.9926
 155   1.0000      -0.031265        -0.8508
 156   1.0000      -0.025947        -0.7061
 157   1.0000      -0.015563        -0.4235
 158   1.0000       0.020742         0.5644
 159   1.0000       0.040201         1.0939
 160   0.0000       0.136111         3.7038
 161   0.0000       0.136941         3.7264
 162   0.0000       0.155360         4.2276
 163   0.0000       0.159014         4.3270
 164   0.0000       0.162842         4.4311

MULLIKEN ATOMIC CHARGES AND SPIN POPULATIONS
--------------------------------------------
   0 V :    0.471380    1.210401
   1 S :   -0.290549   -0.022441
   2 S :   -0.289576   -0.025188
   3 S :   -0.288802   -0.023257
   4 S :   -0.285696   -0.025699
   5 O :   -0.467822   -0.146555
   6 C :   -0.077624    0.009639
   7 C :   -0.084334    0.008105
   8 C :   -0.083095    0.007775
   9 C :   -0.085716    0.007333
  10 S :    0.099748   -0.000584
  11 S :    0.100915   -0.000626
  12 S :    0.103272   -0.000393
  13 S :    0.097411   -0.000339
  14 C :   -0.213621    0.001501
  15 C :   -0.208583    0.000987
  16 C :   -0.191719   -0.000055
  17 C :   -0.198342   -0.000398
  18 S :    0.008106   -0.000114
  19 S :    0.010029   -0.000113
  20 S :    0.041750   -0.000069
  21 S :   -0.030873   -0.000072
  22 C :   -0.295656   -0.000004
  23 C :   -0.266474    0.000001
  24 C :   -0.171426   -0.000011
  25 H :    0.162901   -0.000000
  26 H :    0.108594   -0.000004
  27 H :    0.073990   -0.000002
  28 H :    0.092922   -0.000001
  29 H :    0.111116   -0.000004
  30 H :    0.120264   -0.000002
  31 C :   -0.299172    0.000195
  32 C :   -0.301343    0.000189
  33 C :   -0.157671   -0.000237
  34 H :    0.142686   -0.000017
  35 H :    0.113394    0.000019
  36 H :    0.092297    0.000023
  37 H :    0.082570    0.000015
  38 H :    0.113343    0.000021
  39 H :    0.141403   -0.000018
Sum of atomic charges         :   -2.0000000

LOEWDIN ATOMIC CHARGES AND SPIN POPULATIONS
-------------------------------------------
   0 V :   -0.155648    1.163813
   1 S :    0.080102   -0.014475
   2 S :    0.079368   -0.016072
   3 S :    0.081521   -0.015171
   4 S :    0.083143   -0.016308
   5 O :   -0.319071   -0.131481
   6 C :   -0.550029    0.009044
   7 C :   -0.552143    0.007960
   8 C :   -0.551417    0.008143
   9 C :   -0.553189    0.007654
  10 S :    0.471350   -0.000901
  11 S :    0.472165   -0.000948
  12 S :    0.474611   -0.000825
  13 S :    0.468574   -0.000825
  14 C :   -0.465107    0.000162
  15 C :   -0.464869   -0.000081
  16 C :   -0.622747    0.000475
  17 C :   -0.622288    0.000084
  18 S :    0.357844   -0.000090
  19 S :    0.361046   -0.000087
  20 S :    0.396780   -0.000071
  21 S :    0.321555   -0.000078
  22 C :   -0.280494   -0.000009
  23 C :   -0.311352   -0.000008
  24 C :   -0.190731   -0.000001
  25 H :    0.075494   -0.000001
  26 H :    0.053773   -0.000002
  27 H :    0.072523   -0.000002
  28 H :    0.062016   -0.000001
  29 H :    0.059720   -0.000002
  30 H :    0.062449   -0.000002
  31 C :   -0.284464    0.000043
  32 C :   -0.283397    0.000037
  33 C :   -0.176328    0.000006
  34 H :    0.062255   -0.000001
  35 H :    0.053445    0.000008
  36 H :    0.060246    0.000005
  37 H :    0.057797    0.000002
  38 H :    0.053649    0.000009
  39 H :    0.061846   -0.000001

  Mayer bond orders larger than 0.100000
B(  0-V ,  1-S ) :   0.7716 B(  0-V ,  2-S ) :   0.7714 B(  0-V ,  3-S ) :   0.7643
B(  0-V ,  4-S ) :   0.7786 B(  0-V ,  5-O ) :   2.1486 B(  1-S ,  8-C ) :   1.1039
B(  2-S ,  6-C ) :   1.1043 B(  3-S ,  9-C ) :   1.1063 B(  4-S ,  7-C ) :   1.1046
B(  6-C ,  7-C ) :   1.6844 B(  6-C , 10-S ) :   0.9350 B(  7-C , 11-S ) :   0.9390
B(  8-C ,  9-C ) :   1.6975 B(  8-C , 13-S ) :   0.9358 B(  9-C , 12-S ) :   0.9339
B( 10-S , 14-C ) :   1.2487 B( 11-S , 14-C ) :   1.2482 B( 12-S , 15-C ) :   1.2494
B( 13-S , 15-C ) :   1.2455 B( 14-C , 16-C ) :   1.4512 B( 15-C , 17-C ) :   1.4514
B( 16-C , 18-S ) :   1.0885 B( 16-C , 19-S ) :   1.0889 B( 17-C , 20-S ) :   1.0648
B( 17-C , 21-S ) :   1.1023 B( 18-S , 32-C ) :   0.9914 B( 19-S , 31-C ) :   0.9922
B( 20-S , 23-C ) :   0.9918 B( 21-S , 22-C ) :   0.9515 B( 22-C , 24-C ) :   0.9257
B( 22-C , 25-H ) :   0.9599 B( 22-C , 26-H ) :   0.9696 B( 23-C , 24-C ) :   0.8982
B( 23-C , 29-H ) :   0.9617 B( 23-C , 30-H ) :   0.9619 B( 24-C , 27-H ) :   0.9614
B( 24-C , 28-H ) :   0.9663 B( 31-C , 33-C ) :   0.9132 B( 31-C , 38-H ) :   0.9655
B( 31-C , 39-H ) :   0.9658 B( 32-C , 33-C ) :   0.9136 B( 32-C , 34-H ) :   0.9657
B( 32-C , 35-H ) :   0.9657 B( 33-C , 36-H ) :   0.9718 B( 33-C , 37-H ) :   0.9624

FINAL SINGLE POINT ENERGY     -6337.668723284038

DIPOLE MOMENT
-------------
                                X             Y             Z
Electronic contribution:     -8.45198       6.10515       8.89819
Nuclear contribution   :      9.40288      -6.77671      -9.82136
                        -----------------------------------------
Total Dipole Moment    :      0.95090      -0.67155      -0.92317
                        -----------------------------------------
Magnitude (a.u.)       :      1.48574
Magnitude (Debye)      :      3.77646

Rotational constants in cm-1:     0.010760     0.000804     0.000783
Rotational constants in MHz :   322.570799    24.116015    23.486537

                             ****ORCA TERMINATED NORMALLY****
TOTAL RUN TIME: 0 days 1 hours 1 minutes 58 seconds 549 msec
