                         Program Version 5.0.4 -  RELEASE  -
|  1> ! nofrozencore ReducedPop printbasis
|  2> ! B3LYP TZVP
|  3>
|  4> %basis
|  5> newgto V "CP(PPP)" end
|  6> end
|  7>
|  8> %pal
|  9> nprocs 8
| 10> end
| 11>
| 12> % sym SymThresh 1e-2 end
| 13> * xyz -2 2
| 14> V -0.9770845728196952 -0.4775073296271485 0.23720365382114925
| 15> S -0.26012213932161804 -1.808524492936147 -1.720695377647885
| 16> S 0.7802875931114446 -1.7011183998471306 1.47875189065877
| 17> S -1.5291543622640629 1.300449138065909 -1.3953242971203585
| 18> S -0.4313039011388724 1.4224984545242434 1.7127048271574787
| 19> O -2.3528706570404037 -1.089812052906046 0.7436678357916038
| 20> C 0.8705798833061671 -0.6911873122967374 2.915770969161095
| 21> C 0.3876940646198059 0.5622102582782205 3.007801808032622
| 22> C -0.8262815683467639 -0.7994093921675941 -3.0446284938689403
| 23> C -1.3295686652755223 0.44176589621800166 -2.914205800299315
| 24> S 1.73014544350901 -1.321164308937873 4.362229367569147
| 25> S 0.686128176122373 1.4256137327030554 4.552536339272148
| 26> S -1.784991043074461 1.2851832072314995 -4.433057452198776
| 27> S -0.6899651686426638 -1.4335727100448241 -4.7200529797054855
| 28> C 1.5783577126311081 0.13088167405441561 5.359375736211131
| 29> C -1.2780749560505957 0.012569809508917399 -5.549583136203581
| 30> C 2.0858845698669892 0.23988859972158313 6.624849841333343
| 31> C -1.3435998697777358 0.13080763490593325 -6.91026268182828
| 32> S 2.9307057931837472 -1.110459963482645 7.424116949364102
| 33> S 1.9070298070174068 1.7321519446794982 7.582419001852851
| 34> S -0.8176061079789345 -1.1802555716644048 -7.996445045600243
| 35> S -1.9253121521140912 1.620021668097344 -7.6985019743269465
| 36> C -0.3631581201781703 2.082681585020469 -8.576005158754237
| 37> C 0.5734580892748827 -0.29249242346305626 -8.833881762111542
| 38> C 0.17857539686729684 1.0160796875664586 -9.5523593451221
| 39> H 0.4071066789055987 2.3379851807357013 -7.8013454653350465
| 40> H -0.613161530498909 3.035934016711214 -9.158190447989274
| 41> H 0.6347385220035923 1.2257202438418913 -9.828083808560539
| 42> H -0.5154305749162147 0.8125159070801723 -10.193331423662935
| 43> H 0.9868990439085807 -1.034219391804398 -9.601048445040837
| 44> H 1.3716357314429726 -0.09829035723672844 -8.0697144414491
| 45> C 0.8898198829041338 1.0500103412869035 8.970379379008284
| 46> C 1.7548661176665556 -1.3682529229569376 8.831228551629932
| 47> C 1.5486235372523054 -0.12395198411260024 9.698976775011099
| 48> H 0.8036558291274862 -1.7171922108388398 8.419279905691035
| 49> H 2.1878608295007504 -2.1788693607577505 9.427311978633858
| 50> H 2.5080142427844794 0.19547627501279186 10.10322319084753
| 51> H 0.9237261453644627 -0.3952423768116207 10.531453246300218
| 52> H 0.7388935843433452 1.8881192330425525 9.659343165374343
| 53> H -0.08416884274235151 0.7600999422579112 8.565864895882665
| 54> *
| 55>
| 56> % eprnmr
| 57> gtensor true
| 58> Nuclei = all H {aiso,adip,aorb,fgrad,rho}
| 59> Nuclei = all V {aiso,adip,aorb,fgrad,rho}
| 60> end
| 61>
| 62>                          ****END OF INPUT****

CARTESIAN COORDINATES (ANGSTROEM)
---------------------------------
  V     -0.973744   -0.476299    0.238646
  S     -0.256782   -1.807316   -1.719253
  S      0.783628   -1.699910    1.480194
  S     -1.525814    1.301658   -1.393882
  S     -0.427963    1.423707    1.714147
  O     -2.349530   -1.088603    0.745110
  C      0.873920   -0.689979    2.917213
  C      0.391035    0.563419    3.009244
  C     -0.822941   -0.798201   -3.043187
  C     -1.326228    0.442975   -2.912764
  S      1.733486   -1.319956    4.363671
  S      0.689469    1.426822    4.553978
  S     -1.781651    1.286392   -4.431615
  S     -0.686625   -1.432364   -4.718611
  C      1.581698    0.132090    5.360818
  C     -1.274734    0.013778   -5.548141
  C      2.089225    0.241097    6.626292
  C     -1.340259    0.132016   -6.908821
  S      2.934046   -1.109251    7.425559
  S      1.910370    1.733361    7.583861
  S     -0.814266   -1.179047   -7.995003
  S     -1.921972    1.621230   -7.697060
  C     -0.359818    2.083890   -8.574563
  C      0.576799   -0.291284   -8.832440
  C      0.181916    1.017288   -9.550917
  H      0.410447    2.339194   -7.799903
  H     -0.609821    3.037143   -9.156748
  H      0.638079    1.226929   -9.826642
  H     -0.512090    0.813725  -10.191889
  H      0.990240   -1.033011   -9.599606
  H      1.374976   -0.097082   -8.068272
  C      0.893160    1.051219    8.971821
  C      1.758207   -1.367044    8.832671
  C      1.551964   -0.122743    9.700419
  H      0.806996   -1.715984    8.420722
  H      2.191201   -2.177661    9.428754
  H      2.511355    0.196685   10.104665
  H      0.927067   -0.394034   10.532895
  H      0.742234    1.889328    9.660785
  H     -0.080828    0.761309    8.567307

 Total Charge           Charge          ....   -2
 Multiplicity           Mult            ....    2
 Number of Electrons    NEL             ....  321
 Basis Dimension        Dim             ....  681

ORBITAL ENERGIES
----------------
                 SPIN UP ORBITALS
  NO   OCC          E(Eh)            E(eV)
   0   1.0000    -196.674481     -5351.7847
   1   1.0000     -88.733318     -2414.5563
   2   1.0000     -88.733206     -2414.5533
   3   1.0000     -88.732879     -2414.5444
   4   1.0000     -88.732875     -2414.5443
   5   1.0000     -88.729944     -2414.4645
   6   1.0000     -88.729909     -2414.4636
   7   1.0000     -88.729824     -2414.4613
   8   1.0000     -88.729738     -2414.4589
   9   1.0000     -88.639529     -2412.0042
  10   1.0000     -88.639352     -2411.9994
  11   1.0000     -88.639146     -2411.9938
  12   1.0000     -88.638949     -2411.9884
  13   1.0000     -22.049878      -600.0077
  14   1.0000     -18.889787      -514.0172
  15   1.0000     -18.556328      -504.9434
  16   1.0000     -18.551153      -504.8025
  17   1.0000     -18.551053      -504.7998
  18   1.0000     -10.075686      -274.1734
  19   1.0000     -10.075509      -274.1685
  20   1.0000     -10.069756      -274.0120
  21   1.0000     -10.069714      -274.0108
  22   1.0000     -10.063479      -273.8412
  23   1.0000     -10.063437      -273.8400
  24   1.0000     -10.048086      -273.4223
  25   1.0000     -10.048022      -273.4206
  26   1.0000     -10.048000      -273.4200
  27   1.0000     -10.018942      -272.6293
  28   1.0000     -10.017844      -272.5994
  29   1.0000     -10.017638      -272.5938
  30   1.0000     -10.016907      -272.5739
  31   1.0000     -10.016844      -272.5722
  32   1.0000      -7.786597      -211.8841
  33   1.0000      -7.786489      -211.8811
  34   1.0000      -7.786325      -211.8767
  35   1.0000      -7.786301      -211.8760
  36   1.0000      -7.783186      -211.7913
  37   1.0000      -7.783161      -211.7906
  38   1.0000      -7.783114      -211.7893
  39   1.0000      -7.783038      -211.7872
  40   1.0000      -7.693787      -209.3586
  41   1.0000      -7.693667      -209.3553
  42   1.0000      -7.693381      -209.3475
  43   1.0000      -7.693334      -209.3463
  44   1.0000      -5.751634      -156.5099
  45   1.0000      -5.751517      -156.5067
  46   1.0000      -5.751311      -156.5011
  47   1.0000      -5.751299      -156.5008
  48   1.0000      -5.748132      -156.4146
  49   1.0000      -5.748131      -156.4146
  50   1.0000      -5.748101      -156.4138
  51   1.0000      -5.748063      -156.4128
  52   1.0000      -5.748030      -156.4118
  53   1.0000      -5.747976      -156.4104
  54   1.0000      -5.747900      -156.4083
  55   1.0000      -5.747885      -156.4079
  56   1.0000      -5.743702      -156.2941
  57   1.0000      -5.743682      -156.2935
  58   1.0000      -5.743621      -156.2919
  59   1.0000      -5.743548      -156.2899
  60   1.0000      -5.741415      -156.2319
  61   1.0000      -5.741312      -156.2290
  62   1.0000      -5.741122      -156.2239
  63   1.0000      -5.741087      -156.2229
  64   1.0000      -5.739013      -156.1665
  65   1.0000      -5.738983      -156.1657
  66   1.0000      -5.738937      -156.1644
  67   1.0000      -5.738862      -156.1624
  68   1.0000      -5.659102      -153.9920
  69   1.0000      -5.658976      -153.9886
  70   1.0000      -5.658711      -153.9813
  71   1.0000      -5.658632      -153.9792
  72   1.0000      -5.652468      -153.8115
  73   1.0000      -5.652309      -153.8072
  74   1.0000      -5.652061      -153.8004
  75   1.0000      -5.651985      -153.7983
  76   1.0000      -5.651108      -153.7745
  77   1.0000      -5.650990      -153.7713
  78   1.0000      -5.650673      -153.7626
  79   1.0000      -5.650642      -153.7618
  80   1.0000      -2.443511       -66.4913
  81   1.0000      -1.484820       -40.4040
  82   1.0000      -1.473150       -40.0864
  83   1.0000      -1.472336       -40.0643
  84   1.0000      -0.718149       -19.5418
  85   1.0000      -0.709250       -19.2997
  86   1.0000      -0.697127       -18.9698
  87   1.0000      -0.685527       -18.6541
  88   1.0000      -0.649582       -17.6760
  89   1.0000      -0.648047       -17.6343
  90   1.0000      -0.631492       -17.1838
  91   1.0000      -0.616699       -16.7812
  92   1.0000      -0.611484       -16.6393
  93   1.0000      -0.584146       -15.8954
  94   1.0000      -0.574128       -15.6228
  95   1.0000      -0.573928       -15.6174
  96   1.0000      -0.573206       -15.5977
  97   1.0000      -0.517615       -14.0850
  98   1.0000      -0.496639       -13.5142
  99   1.0000      -0.495389       -13.4802
 100   1.0000      -0.490775       -13.3547
 101   1.0000      -0.478605       -13.0235
 102   1.0000      -0.475703       -12.9445
 103   1.0000      -0.457357       -12.4453
 104   1.0000      -0.446465       -12.1489
 105   1.0000      -0.416376       -11.3302
 106   1.0000      -0.410967       -11.1830
 107   1.0000      -0.377587       -10.2747
 108   1.0000      -0.355073        -9.6620
 109   1.0000      -0.346808        -9.4371
 110   1.0000      -0.327323        -8.9069
 111   1.0000      -0.318606        -8.6697
 112   1.0000      -0.313939        -8.5427
 113   1.0000      -0.310943        -8.4612
 114   1.0000      -0.304998        -8.2994
 115   1.0000      -0.291830        -7.9411
 116   1.0000      -0.284242        -7.7346
 117   1.0000      -0.257639        -7.0107
 118   1.0000      -0.256971        -6.9925
 119   1.0000      -0.255438        -6.9508
 120   1.0000      -0.253775        -6.9056
 121   1.0000      -0.238731        -6.4962
 122   1.0000      -0.234326        -6.3763
 123   1.0000      -0.230021        -6.2592
 124   1.0000      -0.224937        -6.1208
 125   1.0000      -0.221379        -6.0240
 126   1.0000      -0.218441        -5.9441
 127   1.0000      -0.214150        -5.8273
 128   1.0000      -0.212085        -5.7711
 129   1.0000      -0.193715        -5.2713
 130   1.0000      -0.192087        -5.2270
 131   1.0000      -0.186009        -5.0616
 132   1.0000      -0.184169        -5.0115
 133   1.0000      -0.178831        -4.8662
 134   1.0000      -0.159099        -4.3293
 135   1.0000      -0.150889        -4.1059
 136   1.0000      -0.146068        -3.9747
 137   1.0000      -0.135934        -3.6989
 138   1.0000      -0.135151        -3.6776
 139   1.0000      -0.132592        -3.6080
 140   1.0000      -0.124988        -3.4011
 141   1.0000      -0.120638        -3.2827
 142   1.0000      -0.113076        -3.0770
 143   1.0000      -0.109444        -2.9781
 144   1.0000      -0.099297        -2.7020
 145   1.0000      -0.097719        -2.6591
 146   1.0000      -0.096806        -2.6342
 147   1.0000      -0.094141        -2.5617
 148   1.0000      -0.074070        -2.0155
 149   1.0000      -0.067251        -1.8300
 150   1.0000      -0.066623        -1.8129
 151   1.0000      -0.051913        -1.4126
 152   1.0000      -0.045159        -1.2288
 153   1.0000      -0.037065        -1.0086
 154   1.0000      -0.036686        -0.9983
 155   1.0000      -0.030861        -0.8398
 156   1.0000      -0.024544        -0.6679
 157   1.0000      -0.018676        -0.5082
 158   1.0000      -0.015007        -0.4084
 159   1.0000       0.020819         0.5665
 160   1.0000       0.041665         1.1338
 161   0.0000       0.135783         3.6948
 162   0.0000       0.137044         3.7292
 163   0.0000       0.163305         4.4438
 164   0.0000       0.170727         4.6457
 165   0.0000       0.170935         4.6514

                 SPIN DOWN ORBITALS
  NO   OCC          E(Eh)            E(eV)
   0   1.0000    -196.674627     -5351.7887
   1   1.0000     -88.733318     -2414.5563
   2   1.0000     -88.733207     -2414.5533
   3   1.0000     -88.732879     -2414.5444
   4   1.0000     -88.732876     -2414.5443
   5   1.0000     -88.729952     -2414.4648
   6   1.0000     -88.729918     -2414.4638
   7   1.0000     -88.729832     -2414.4615
   8   1.0000     -88.729746     -2414.4591
   9   1.0000     -88.639665     -2412.0079
  10   1.0000     -88.639492     -2412.0032
  11   1.0000     -88.639287     -2411.9976
  12   1.0000     -88.639088     -2411.9922
  13   1.0000     -22.034951      -599.6015
  14   1.0000     -18.893561      -514.1199
  15   1.0000     -18.551065      -504.8001
  16   1.0000     -18.535121      -504.3663
  17   1.0000     -18.534940      -504.3614
  18   1.0000     -10.075686      -274.1733
  19   1.0000     -10.075503      -274.1684
  20   1.0000     -10.069757      -274.0120
  21   1.0000     -10.069714      -274.0108
  22   1.0000     -10.063479      -273.8412
  23   1.0000     -10.063436      -273.8400
  24   1.0000     -10.048086      -273.4223
  25   1.0000     -10.048018      -273.4205
  26   1.0000     -10.047988      -273.4197
  27   1.0000     -10.018942      -272.6293
  28   1.0000     -10.017606      -272.5929
  29   1.0000     -10.017424      -272.5880
  30   1.0000     -10.016684      -272.5678
  31   1.0000     -10.016632      -272.5664
  32   1.0000      -7.786598      -211.8841
  33   1.0000      -7.786489      -211.8811
  34   1.0000      -7.786326      -211.8767
  35   1.0000      -7.786302      -211.8761
  36   1.0000      -7.783195      -211.7915
  37   1.0000      -7.783170      -211.7908
  38   1.0000      -7.783123      -211.7895
  39   1.0000      -7.783048      -211.7875
  40   1.0000      -7.693914      -209.3620
  41   1.0000      -7.693797      -209.3589
  42   1.0000      -7.693512      -209.3511
  43   1.0000      -7.693463      -209.3498
  44   1.0000      -5.751635      -156.5099
  45   1.0000      -5.751518      -156.5068
  46   1.0000      -5.751312      -156.5012
  47   1.0000      -5.751301      -156.5008
  48   1.0000      -5.748142      -156.4149
  49   1.0000      -5.748133      -156.4146
  50   1.0000      -5.748112      -156.4141
  51   1.0000      -5.748074      -156.4130
  52   1.0000      -5.748030      -156.4119
  53   1.0000      -5.747987      -156.4107
  54   1.0000      -5.747901      -156.4083
  55   1.0000      -5.747887      -156.4079
  56   1.0000      -5.743716      -156.2944
  57   1.0000      -5.743696      -156.2939
  58   1.0000      -5.743635      -156.2922
  59   1.0000      -5.743562      -156.2903
  60   1.0000      -5.741416      -156.2319
  61   1.0000      -5.741312      -156.2291
  62   1.0000      -5.741123      -156.2239
  63   1.0000      -5.741088      -156.2229
  64   1.0000      -5.739021      -156.1667
  65   1.0000      -5.738989      -156.1658
  66   1.0000      -5.738943      -156.1646
  67   1.0000      -5.738871      -156.1626
  68   1.0000      -5.659244      -153.9959
  69   1.0000      -5.659115      -153.9923
  70   1.0000      -5.658853      -153.9852
  71   1.0000      -5.658773      -153.9830
  72   1.0000      -5.652818      -153.8210
  73   1.0000      -5.652696      -153.8177
  74   1.0000      -5.652444      -153.8108
  75   1.0000      -5.652345      -153.8081
  76   1.0000      -5.651214      -153.7773
  77   1.0000      -5.651077      -153.7736
  78   1.0000      -5.650767      -153.7652
  79   1.0000      -5.650747      -153.7647
  80   1.0000      -2.398644       -65.2704
  81   1.0000      -1.465545       -39.8795
  82   1.0000      -1.410789       -38.3895
  83   1.0000      -1.410623       -38.3850
  84   1.0000      -0.718146       -19.5418
  85   1.0000      -0.709224       -19.2990
  86   1.0000      -0.697085       -18.9687
  87   1.0000      -0.685472       -18.6526
  88   1.0000      -0.657507       -17.8917
  89   1.0000      -0.648162       -17.6374
  90   1.0000      -0.631418       -17.1817
  91   1.0000      -0.616699       -16.7812
  92   1.0000      -0.611486       -16.6394
  93   1.0000      -0.584066       -15.8932
  94   1.0000      -0.574098       -15.6220
  95   1.0000      -0.573905       -15.6167
  96   1.0000      -0.573121       -15.5954
  97   1.0000      -0.517621       -14.0852
  98   1.0000      -0.496656       -13.5147
  99   1.0000      -0.495434       -13.4815
 100   1.0000      -0.490863       -13.3571
 101   1.0000      -0.478794       -13.0287
 102   1.0000      -0.475911       -12.9502
 103   1.0000      -0.457402       -12.4465
 104   1.0000      -0.446499       -12.1499
 105   1.0000      -0.416375       -11.3301
 106   1.0000      -0.411079       -11.1860
 107   1.0000      -0.377587       -10.2747
 108   1.0000      -0.355063        -9.6618
 109   1.0000      -0.346803        -9.4370
 110   1.0000      -0.327311        -8.9066
 111   1.0000      -0.318526        -8.6675
 112   1.0000      -0.313966        -8.5435
 113   1.0000      -0.310898        -8.4600
 114   1.0000      -0.304957        -8.2983
 115   1.0000      -0.291824        -7.9409
 116   1.0000      -0.284239        -7.7345
 117   1.0000      -0.257480        -7.0064
 118   1.0000      -0.256897        -6.9905
 119   1.0000      -0.255411        -6.9501
 120   1.0000      -0.253723        -6.9042
 121   1.0000      -0.238694        -6.4952
 122   1.0000      -0.234304        -6.3757
 123   1.0000      -0.229981        -6.2581
 124   1.0000      -0.224806        -6.1173
 125   1.0000      -0.221352        -6.0233
 126   1.0000      -0.218192        -5.9373
 127   1.0000      -0.213861        -5.8195
 128   1.0000      -0.211936        -5.7671
 129   1.0000      -0.193207        -5.2574
 130   1.0000      -0.190863        -5.1937
 131   1.0000      -0.185594        -5.0503
 132   1.0000      -0.183932        -5.0051
 133   1.0000      -0.178716        -4.8631
 134   1.0000      -0.158481        -4.3125
 135   1.0000      -0.150720        -4.1013
 136   1.0000      -0.145993        -3.9727
 137   1.0000      -0.135240        -3.6801
 138   1.0000      -0.134915        -3.6712
 139   1.0000      -0.132372        -3.6020
 140   1.0000      -0.124318        -3.3829
 141   1.0000      -0.120309        -3.2738
 142   1.0000      -0.114855        -3.1254
 143   1.0000      -0.111014        -3.0208
 144   1.0000      -0.099277        -2.7015
 145   1.0000      -0.098055        -2.6682
 146   1.0000      -0.096793        -2.6339
 147   1.0000      -0.094460        -2.5704
 148   1.0000      -0.070239        -1.9113
 149   1.0000      -0.067245        -1.8298
 150   1.0000      -0.066622        -1.8129
 151   1.0000      -0.049321        -1.3421
 152   1.0000      -0.044222        -1.2034
 153   1.0000      -0.037108        -1.0098
 154   1.0000      -0.036118        -0.9828
 155   1.0000      -0.030900        -0.8408
 156   1.0000      -0.025577        -0.6960
 157   1.0000      -0.015219        -0.4141
 158   1.0000       0.021111         0.5745
 159   1.0000       0.040565         1.1038
 160   0.0000       0.135774         3.6946
 161   0.0000       0.137053         3.7294
 162   0.0000       0.156548         4.2599
 163   0.0000       0.163941         4.4611
 164   0.0000       0.171511         4.6671

MULLIKEN ATOMIC CHARGES AND SPIN POPULATIONS
--------------------------------------------
   0 V :    0.471120    1.210352
   1 S :   -0.290882   -0.022429
   2 S :   -0.289769   -0.025188
   3 S :   -0.289052   -0.023367
   4 S :   -0.285506   -0.025669
   5 O :   -0.467904   -0.146450
   6 C :   -0.077539    0.009690
   7 C :   -0.084481    0.008054
   8 C :   -0.084074    0.007724
   9 C :   -0.084524    0.007400
  10 S :    0.099585   -0.000587
  11 S :    0.100996   -0.000628
  12 S :    0.100690   -0.000394
  13 S :    0.099808   -0.000346
  14 C :   -0.213256    0.001530
  15 C :   -0.207323    0.000993
  16 C :   -0.192274   -0.000085
  17 C :   -0.193797   -0.000403
  18 S :    0.009010   -0.000113
  19 S :    0.009268   -0.000113
  20 S :    0.012870   -0.000068
  21 S :    0.012914   -0.000071
  22 C :   -0.309278   -0.000002
  23 C :   -0.308414   -0.000003
  24 C :   -0.306086   -0.000006
  25 H :    0.135801   -0.000001
  26 H :    0.095864   -0.000005
  27 H :    0.273761   -0.000002
  28 H :    0.104207   -0.000001
  29 H :    0.095583   -0.000005
  30 H :    0.135334   -0.000001
  31 C :   -0.299889    0.000199
  32 C :   -0.300840    0.000194
  33 C :   -0.160527   -0.000247
  34 H :    0.141504   -0.000018
  35 H :    0.112358    0.000020
  36 H :    0.092457    0.000024
  37 H :    0.088696    0.000018
  38 H :    0.112258    0.000021
  39 H :    0.141333   -0.000018
Sum of atomic charges         :   -2.0000000

LOEWDIN ATOMIC CHARGES AND SPIN POPULATIONS
-------------------------------------------
   0 V :   -0.155976    1.163744
   1 S :    0.079987   -0.014462
   2 S :    0.079263   -0.016061
   3 S :    0.081323   -0.015250
   4 S :    0.083213   -0.016289
   5 O :   -0.319119   -0.131377
   6 C :   -0.550009    0.009052
   7 C :   -0.552149    0.007949
   8 C :   -0.552265    0.008129
   9 C :   -0.552255    0.007665
  10 S :    0.471261   -0.000901
  11 S :    0.472240   -0.000950
  12 S :    0.472010   -0.000822
  13 S :    0.471246   -0.000829
  14 C :   -0.465107    0.000162
  15 C :   -0.464875   -0.000080
  16 C :   -0.622911    0.000476
  17 C :   -0.622492    0.000085
  18 S :    0.358625   -0.000090
  19 S :    0.359992   -0.000087
  20 S :    0.361046   -0.000073
  21 S :    0.360603   -0.000075
  22 C :   -0.259860   -0.000007
  23 C :   -0.259929   -0.000008
  24 C :   -0.004234   -0.000003
  25 H :    0.065866   -0.000002
  26 H :    0.058056   -0.000003
  27 H :   -0.189092    0.000000
  28 H :    0.066600   -0.000000
  29 H :    0.057986   -0.000003
  30 H :    0.065699   -0.000002
  31 C :   -0.283547    0.000043
  32 C :   -0.283307    0.000037
  33 C :   -0.174343    0.000006
  34 H :    0.062191   -0.000001
  35 H :    0.053682    0.000008
  36 H :    0.059746    0.000005
  37 H :    0.055020    0.000002
  38 H :    0.053747    0.000009
  39 H :    0.062068   -0.000000

  Mayer bond orders larger than 0.100000
B(  0-V ,  1-S ) :   0.7717 B(  0-V ,  2-S ) :   0.7711 B(  0-V ,  3-S ) :   0.7650
B(  0-V ,  4-S ) :   0.7785 B(  0-V ,  5-O ) :   2.1485 B(  1-S ,  8-C ) :   1.1038
B(  2-S ,  6-C ) :   1.1042 B(  3-S ,  9-C ) :   1.1065 B(  4-S ,  7-C ) :   1.1048
B(  6-C ,  7-C ) :   1.6847 B(  6-C , 10-S ) :   0.9349 B(  7-C , 11-S ) :   0.9388
B(  8-C ,  9-C ) :   1.6978 B(  8-C , 13-S ) :   0.9338 B(  9-C , 12-S ) :   0.9356
B( 10-S , 14-C ) :   1.2486 B( 11-S , 14-C ) :   1.2484 B( 12-S , 15-C ) :   1.2457
B( 13-S , 15-C ) :   1.2458 B( 14-C , 16-C ) :   1.4507 B( 15-C , 17-C ) :   1.4421
B( 16-C , 18-S ) :   1.0883 B( 16-C , 19-S ) :   1.0896 B( 17-C , 20-S ) :   1.0938
B( 17-C , 21-S ) :   1.0944 B( 18-S , 32-C ) :   0.9928 B( 19-S , 31-C ) :   0.9929
B( 20-S , 23-C ) :   1.0041 B( 21-S , 22-C ) :   1.0033 B( 22-C , 24-C ) :   0.8577
B( 22-C , 25-H ) :   0.9678 B( 22-C , 26-H ) :   0.9670 B( 23-C , 24-C ) :   0.8577
B( 23-C , 29-H ) :   0.9669 B( 23-C , 30-H ) :   0.9677 B( 24-C , 27-H ) :   0.9744
B( 24-C , 28-H ) :   1.0235 B( 31-C , 33-C ) :   0.9123 B( 31-C , 38-H ) :   0.9656
B( 31-C , 39-H ) :   0.9659 B( 32-C , 33-C ) :   0.9122 B( 32-C , 34-H ) :   0.9658
B( 32-C , 35-H ) :   0.9655 B( 33-C , 36-H ) :   0.9729 B( 33-C , 37-H ) :   0.9647

FINAL SINGLE POINT ENERGY     -6337.130934267819

DIPOLE MOMENT
-------------
                                X             Y             Z
Electronic contribution:    -11.90791      -6.02876      -0.86783
Nuclear contribution   :     13.25833       6.72590       0.87574
                        -----------------------------------------
Total Dipole Moment    :      1.35042       0.69713       0.00791
                        -----------------------------------------
Magnitude (a.u.)       :      1.51977
Magnitude (Debye)      :      3.86295

Rotational constants in cm-1:     0.010766     0.000804     0.000783
Rotational constants in MHz :   322.766337    24.117128    23.486863

                             ****ORCA TERMINATED NORMALLY****
TOTAL RUN TIME: 0 days 1 hours 2 minutes 14 seconds 213 msec
