                         Program Version 5.0.4 -  RELEASE  -
|  1> ! nofrozencore ReducedPop printbasis
|  2> ! B3LYP TZVP
|  3>
|  4> %basis
|  5> newgto V "CP(PPP)" end
|  6> end
|  7>
|  8> %pal
|  9> nprocs 8
| 10> end
| 11>
| 12> % sym SymThresh 1e-2 end
| 13> * xyz -2 2
| 14> V -0.33916521020870954 -1.0601469409605406 -0.00452056535069448
| 15> S 1.9829579922115086 -1.3071837179288075 0.8113591594536433
| 16> S -0.8285602214386294 -0.1223628866171865 2.233358326424418
| 17> S 0.6695836645975997 -0.716087323283353 -2.2394891777284682
| 18> S -2.0456121066986412 0.5179882356992361 -0.8306956269507745
| 19> O -0.9936572013500156 -2.5078683681709584 -0.005590036117033005
| 20> C -2.398820963722312 0.597986235507534 1.9040436906399725
| 21> C -2.8846982062581104 0.8575866210090277 0.6755416740835141
| 22> C 2.8732093954832294 -1.3563905885549015 -0.7038617397874272
| 23> C 2.349337872197347 -1.118041886325104 -1.9202390445368627
| 24> S -3.424644538882118 1.105104383923174 3.2891457654831395
| 25> S -4.4753643868184865 1.685119810161629 0.6001833132640687
| 26> S 3.4872711095806306 -1.176054190089133 -3.3085367246279844
| 27> S 4.634701572190433 -1.7054376544841785 -0.6483923097878517
| 28> C -4.736065898829393 1.8197212661296291 2.3429642752485402
| 29> C 4.952300556608014 -1.5048770783681429 -2.37517618728698
| 30> C -5.841328650724171 2.4046863788052133 2.89717171839634
| 31> C 6.196471506000009 -1.6031738920851635 -2.9342198656289384
| 32> S -6.0929901660213845 2.469246293643788 4.660252054179808
| 33> S -7.130780271471805 3.114545465941779 1.8925840981018518
| 34> S 7.649705931078333 -1.9396395366577712 -1.9501329055631067
| 35> S 6.465141613811701 -1.3662229135672002 -4.675080178369692
| 36> C 7.558309657439334 0.11994063308603696 -4.591439547881823
| 37> C 8.54689261471967 -0.3445593215670005 -2.26191728218201
| 38> C 8.81476226083949 -0.07848458837820999 -3.751619125495684
| 39> H 6.746652316510007 0.8147344004016893 -4.261808446902472
| 40> H 7.988773215878065 0.4559257666057498 -5.560849033031935
| 41> H 9.427045064705712 0.8306609956006528 -3.8317550231848596
| 42> H 9.313912805108568 -0.8615633973132045 -4.369279045825499
| 43> H 9.406835854196485 -0.5809029720231768 -1.597502299354884
| 44> H 8.09800832263634 0.6431602873772905 -1.9581872996946295
| 45> C -8.520612225367504 2.001661190018389 2.399071753397552
| 46> C -7.634742734897177 1.4473881976746272 4.749676805883005
| 47> C -8.78706928822175 1.997007626846163 3.905822214622599
| 48> H -7.383674994593059 0.4280176093420516 4.4479802584067665
| 49> H -7.912363631454013 1.4324061213770587 5.806634757038485
| 50> H -9.024594958827956 3.013305182041101 4.2357170299469145
| 51> H -9.674587711807174 1.376640690884894 4.093865827735271
| 52> H -9.397272669526174 2.368586731547743 1.8593585711684044
| 53> H -8.295650985452978 0.9945557975299582 2.0408145474269777
| 54> *
| 55>
| 56> % eprnmr
| 57> gtensor true
| 58> Nuclei = all H {aiso,adip,aorb,fgrad,rho}
| 59> Nuclei = all V {aiso,adip,aorb,fgrad,rho}
| 60> end
| 61>
| 62>                          ****END OF INPUT****

CARTESIAN COORDINATES (ANGSTROEM)
---------------------------------
  V     -0.340039   -1.056572   -0.003447
  S      1.982084   -1.303608    0.812432
  S     -0.829434   -0.118788    2.234431
  S      0.668710   -0.712512   -2.238416
  S     -2.046486    0.521564   -0.829623
  O     -0.994531   -2.504293   -0.004517
  C     -2.399695    0.601562    1.905117
  C     -2.885572    0.861162    0.676615
  C      2.872336   -1.352815   -0.702789
  C      2.348464   -1.114467   -1.919166
  S     -3.425518    1.108680    3.290219
  S     -4.476238    1.688695    0.601256
  S      3.486397   -1.172479   -3.307464
  S      4.633828   -1.701862   -0.647319
  C     -4.736940    1.823297    2.344037
  C      4.951427   -1.501302   -2.374103
  C     -5.842202    2.408262    2.898245
  C      6.195598   -1.599599   -2.933147
  S     -6.093864    2.472822    4.661325
  S     -7.131654    3.118121    1.893657
  S      7.648832   -1.936064   -1.949060
  S      6.464268   -1.362648   -4.674007
  C      7.557436    0.123516   -4.590366
  C      8.546019   -0.340984   -2.260844
  C      8.813888   -0.074909   -3.750546
  H      6.745779    0.818310   -4.260735
  H      7.987899    0.459501   -5.559776
  H      9.426171    0.834236   -3.830682
  H      9.313039   -0.857988   -4.368206
  H      9.405962   -0.577328   -1.596429
  H      8.097135    0.646736   -1.957114
  C     -8.521486    2.005237    2.400145
  C     -7.635617    1.450964    4.750750
  C     -8.787943    2.000583    3.906895
  H     -7.384549    0.431593    4.449053
  H     -7.913237    1.435981    5.807708
  H     -9.025469    3.016881    4.236790
  H     -9.675462    1.380216    4.094939
  H     -9.398146    2.372162    1.860432
  H     -8.296525    0.998131    2.041888

 Total Charge           Charge          ....   -2
 Multiplicity           Mult            ....    2
 Number of Electrons    NEL             ....  321
 Basis Dimension        Dim             ....  681

ORBITAL ENERGIES
----------------
                 SPIN UP ORBITALS
  NO   OCC          E(Eh)            E(eV)
   0   1.0000    -196.674824     -5351.7941
   1   1.0000     -88.737122     -2414.6598
   2   1.0000     -88.733151     -2414.5518
   3   1.0000     -88.733134     -2414.5513
   4   1.0000     -88.731558     -2414.5085
   5   1.0000     -88.730608     -2414.4826
   6   1.0000     -88.730540     -2414.4807
   7   1.0000     -88.730149     -2414.4701
   8   1.0000     -88.729989     -2414.4658
   9   1.0000     -88.639987     -2412.0167
  10   1.0000     -88.639636     -2412.0071
  11   1.0000     -88.639422     -2412.0013
  12   1.0000     -88.639402     -2412.0008
  13   1.0000     -22.050220      -600.0170
  14   1.0000     -18.890149      -514.0271
  15   1.0000     -18.556669      -504.9526
  16   1.0000     -18.551495      -504.8118
  17   1.0000     -18.551396      -504.8091
  18   1.0000     -10.076368      -274.1919
  19   1.0000     -10.075710      -274.1740
  20   1.0000     -10.070723      -274.0383
  21   1.0000     -10.065847      -273.9056
  22   1.0000     -10.063430      -273.8399
  23   1.0000     -10.063387      -273.8387
  24   1.0000     -10.054729      -273.6031
  25   1.0000     -10.051252      -273.5085
  26   1.0000     -10.048878      -273.4439
  27   1.0000     -10.048196      -273.4253
  28   1.0000     -10.018212      -272.6094
  29   1.0000     -10.018110      -272.6066
  30   1.0000     -10.017416      -272.5878
  31   1.0000     -10.017172      -272.5811
  32   1.0000      -7.790213      -211.9825
  33   1.0000      -7.786591      -211.8839
  34   1.0000      -7.786574      -211.8834
  35   1.0000      -7.785369      -211.8507
  36   1.0000      -7.783864      -211.8097
  37   1.0000      -7.783814      -211.8083
  38   1.0000      -7.783405      -211.7972
  39   1.0000      -7.783279      -211.7938
  40   1.0000      -7.694251      -209.3712
  41   1.0000      -7.693954      -209.3631
  42   1.0000      -7.693736      -209.3572
  43   1.0000      -7.693660      -209.3551
  44   1.0000      -5.755291      -156.6094
  45   1.0000      -5.751800      -156.5144
  46   1.0000      -5.751579      -156.5084
  47   1.0000      -5.751568      -156.5081
  48   1.0000      -5.750307      -156.4738
  49   1.0000      -5.748802      -156.4329
  50   1.0000      -5.748759      -156.4317
  51   1.0000      -5.748355      -156.4207
  52   1.0000      -5.748227      -156.4172
  53   1.0000      -5.748164      -156.4155
  54   1.0000      -5.748159      -156.4154
  55   1.0000      -5.746933      -156.3820
  56   1.0000      -5.744974      -156.3287
  57   1.0000      -5.744381      -156.3126
  58   1.0000      -5.744324      -156.3110
  59   1.0000      -5.743915      -156.2999
  60   1.0000      -5.743782      -156.2962
  61   1.0000      -5.741383      -156.2310
  62   1.0000      -5.741364      -156.2304
  63   1.0000      -5.740117      -156.1965
  64   1.0000      -5.739692      -156.1850
  65   1.0000      -5.739638      -156.1835
  66   1.0000      -5.739227      -156.1723
  67   1.0000      -5.739108      -156.1691
  68   1.0000      -5.659574      -154.0048
  69   1.0000      -5.659266      -153.9965
  70   1.0000      -5.659039      -153.9903
  71   1.0000      -5.659000      -153.9892
  72   1.0000      -5.652918      -153.8237
  73   1.0000      -5.652602      -153.8151
  74   1.0000      -5.652421      -153.8102
  75   1.0000      -5.652330      -153.8077
  76   1.0000      -5.651579      -153.7873
  77   1.0000      -5.651271      -153.7789
  78   1.0000      -5.651049      -153.7729
  79   1.0000      -5.650960      -153.7704
  80   1.0000      -2.443863       -66.5009
  81   1.0000      -1.485165       -40.4134
  82   1.0000      -1.473498       -40.0959
  83   1.0000      -1.472683       -40.0737
  84   1.0000      -0.710177       -19.3249
  85   1.0000      -0.709446       -19.3050
  86   1.0000      -0.685972       -18.6662
  87   1.0000      -0.685573       -18.6554
  88   1.0000      -0.649727       -17.6800
  89   1.0000      -0.632015       -17.1980
  90   1.0000      -0.631274       -17.1778
  91   1.0000      -0.617225       -16.7955
  92   1.0000      -0.617161       -16.7938
  93   1.0000      -0.574932       -15.6447
  94   1.0000      -0.574328       -15.6283
  95   1.0000      -0.574018       -15.6198
  96   1.0000      -0.572892       -15.5892
  97   1.0000      -0.498145       -13.5552
  98   1.0000      -0.496042       -13.4980
  99   1.0000      -0.495781       -13.4909
 100   1.0000      -0.493755       -13.4358
 101   1.0000      -0.479729       -13.0541
 102   1.0000      -0.477138       -12.9836
 103   1.0000      -0.446571       -12.1518
 104   1.0000      -0.441409       -12.0113
 105   1.0000      -0.415728       -11.3125
 106   1.0000      -0.410709       -11.1760
 107   1.0000      -0.357021        -9.7150
 108   1.0000      -0.355317        -9.6687
 109   1.0000      -0.327249        -8.9049
 110   1.0000      -0.326623        -8.8879
 111   1.0000      -0.318705        -8.6724
 112   1.0000      -0.314283        -8.5521
 113   1.0000      -0.306147        -8.3307
 114   1.0000      -0.303832        -8.2677
 115   1.0000      -0.292426        -7.9573
 116   1.0000      -0.289314        -7.8726
 117   1.0000      -0.260330        -7.0839
 118   1.0000      -0.256902        -6.9907
 119   1.0000      -0.256538        -6.9807
 120   1.0000      -0.248544        -6.7632
 121   1.0000      -0.236699        -6.4409
 122   1.0000      -0.234335        -6.3766
 123   1.0000      -0.230646        -6.2762
 124   1.0000      -0.224690        -6.1141
 125   1.0000      -0.218819        -5.9544
 126   1.0000      -0.216743        -5.8979
 127   1.0000      -0.213934        -5.8214
 128   1.0000      -0.207435        -5.6446
 129   1.0000      -0.193141        -5.2556
 130   1.0000      -0.190048        -5.1715
 131   1.0000      -0.185984        -5.0609
 132   1.0000      -0.182564        -4.9678
 133   1.0000      -0.176635        -4.8065
 134   1.0000      -0.159443        -4.3387
 135   1.0000      -0.151229        -4.1151
 136   1.0000      -0.146607        -3.9894
 137   1.0000      -0.135741        -3.6937
 138   1.0000      -0.134228        -3.6525
 139   1.0000      -0.132651        -3.6096
 140   1.0000      -0.125103        -3.4042
 141   1.0000      -0.121074        -3.2946
 142   1.0000      -0.113417        -3.0862
 143   1.0000      -0.109684        -2.9846
 144   1.0000      -0.099759        -2.7146
 145   1.0000      -0.098132        -2.6703
 146   1.0000      -0.097226        -2.6457
 147   1.0000      -0.094589        -2.5739
 148   1.0000      -0.074453        -2.0260
 149   1.0000      -0.067681        -1.8417
 150   1.0000      -0.067245        -1.8298
 151   1.0000      -0.052258        -1.4220
 152   1.0000      -0.045527        -1.2389
 153   1.0000      -0.037412        -1.0180
 154   1.0000      -0.036998        -1.0068
 155   1.0000      -0.031156        -0.8478
 156   1.0000      -0.024929        -0.6784
 157   1.0000      -0.019031        -0.5179
 158   1.0000      -0.015360        -0.4180
 159   1.0000       0.020440         0.5562
 160   1.0000       0.041288         1.1235
 161   0.0000       0.135414         3.6848
 162   0.0000       0.136938         3.7263
 163   0.0000       0.159298         4.3347
 164   0.0000       0.162061         4.4099
 165   0.0000       0.168383         4.5819

                 SPIN DOWN ORBITALS
  NO   OCC          E(Eh)            E(eV)
   0   1.0000    -196.674971     -5351.7981
   1   1.0000     -88.737122     -2414.6599
   2   1.0000     -88.733152     -2414.5518
   3   1.0000     -88.733135     -2414.5514
   4   1.0000     -88.731559     -2414.5085
   5   1.0000     -88.730616     -2414.4828
   6   1.0000     -88.730548     -2414.4810
   7   1.0000     -88.730158     -2414.4703
   8   1.0000     -88.729998     -2414.4660
   9   1.0000     -88.640123     -2412.0204
  10   1.0000     -88.639776     -2412.0109
  11   1.0000     -88.639564     -2412.0052
  12   1.0000     -88.639541     -2412.0045
  13   1.0000     -22.035293      -599.6108
  14   1.0000     -18.893925      -514.1298
  15   1.0000     -18.551406      -504.8094
  16   1.0000     -18.535464      -504.3756
  17   1.0000     -18.535283      -504.3707
  18   1.0000     -10.076368      -274.1919
  19   1.0000     -10.075704      -274.1739
  20   1.0000     -10.070723      -274.0383
  21   1.0000     -10.065847      -273.9056
  22   1.0000     -10.063430      -273.8398
  23   1.0000     -10.063386      -273.8386
  24   1.0000     -10.054729      -273.6031
  25   1.0000     -10.051252      -273.5085
  26   1.0000     -10.048874      -273.4438
  27   1.0000     -10.048184      -273.4250
  28   1.0000     -10.017998      -272.6036
  29   1.0000     -10.017872      -272.6001
  30   1.0000     -10.017205      -272.5820
  31   1.0000     -10.016948      -272.5750
  32   1.0000      -7.790214      -211.9825
  33   1.0000      -7.786592      -211.8839
  34   1.0000      -7.786575      -211.8835
  35   1.0000      -7.785369      -211.8507
  36   1.0000      -7.783873      -211.8100
  37   1.0000      -7.783823      -211.8086
  38   1.0000      -7.783414      -211.7975
  39   1.0000      -7.783289      -211.7941
  40   1.0000      -7.694378      -209.3747
  41   1.0000      -7.694084      -209.3667
  42   1.0000      -7.693866      -209.3607
  43   1.0000      -7.693792      -209.3587
  44   1.0000      -5.755292      -156.6095
  45   1.0000      -5.751801      -156.5145
  46   1.0000      -5.751580      -156.5084
  47   1.0000      -5.751570      -156.5082
  48   1.0000      -5.750307      -156.4738
  49   1.0000      -5.748813      -156.4332
  50   1.0000      -5.748769      -156.4320
  51   1.0000      -5.748365      -156.4210
  52   1.0000      -5.748237      -156.4175
  53   1.0000      -5.748166      -156.4155
  54   1.0000      -5.748160      -156.4154
  55   1.0000      -5.746934      -156.3820
  56   1.0000      -5.744975      -156.3287
  57   1.0000      -5.744396      -156.3130
  58   1.0000      -5.744338      -156.3114
  59   1.0000      -5.743929      -156.3002
  60   1.0000      -5.743795      -156.2966
  61   1.0000      -5.741383      -156.2310
  62   1.0000      -5.741364      -156.2305
  63   1.0000      -5.740118      -156.1966
  64   1.0000      -5.739698      -156.1851
  65   1.0000      -5.739644      -156.1837
  66   1.0000      -5.739235      -156.1725
  67   1.0000      -5.739117      -156.1693
  68   1.0000      -5.659716      -154.0087
  69   1.0000      -5.659405      -154.0002
  70   1.0000      -5.659180      -153.9941
  71   1.0000      -5.659141      -153.9931
  72   1.0000      -5.653267      -153.8332
  73   1.0000      -5.652988      -153.8256
  74   1.0000      -5.652781      -153.8200
  75   1.0000      -5.652713      -153.8181
  76   1.0000      -5.651684      -153.7901
  77   1.0000      -5.651357      -153.7812
  78   1.0000      -5.651155      -153.7758
  79   1.0000      -5.651053      -153.7730
  80   1.0000      -2.398990       -65.2798
  81   1.0000      -1.465886       -39.8888
  82   1.0000      -1.411138       -38.3990
  83   1.0000      -1.410973       -38.3945
  84   1.0000      -0.710162       -19.3245
  85   1.0000      -0.709420       -19.3043
  86   1.0000      -0.685929       -18.6651
  87   1.0000      -0.685517       -18.6539
  88   1.0000      -0.657825       -17.9003
  89   1.0000      -0.631960       -17.1965
  90   1.0000      -0.631198       -17.1758
  91   1.0000      -0.617224       -16.7955
  92   1.0000      -0.617163       -16.7938
  93   1.0000      -0.574906       -15.6440
  94   1.0000      -0.574299       -15.6275
  95   1.0000      -0.573950       -15.6180
  96   1.0000      -0.572812       -15.5870
  97   1.0000      -0.498169       -13.5559
  98   1.0000      -0.496072       -13.4988
  99   1.0000      -0.495819       -13.4919
 100   1.0000      -0.493805       -13.4371
 101   1.0000      -0.479915       -13.0591
 102   1.0000      -0.477386       -12.9903
 103   1.0000      -0.446595       -12.1525
 104   1.0000      -0.441456       -12.0126
 105   1.0000      -0.415725       -11.3125
 106   1.0000      -0.410813       -11.1788
 107   1.0000      -0.357018        -9.7149
 108   1.0000      -0.355307        -9.6684
 109   1.0000      -0.327236        -8.9045
 110   1.0000      -0.326610        -8.8875
 111   1.0000      -0.318628        -8.6703
 112   1.0000      -0.314307        -8.5527
 113   1.0000      -0.306112        -8.3297
 114   1.0000      -0.303795        -8.2667
 115   1.0000      -0.292421        -7.9572
 116   1.0000      -0.289301        -7.8723
 117   1.0000      -0.260219        -7.0809
 118   1.0000      -0.256824        -6.9885
 119   1.0000      -0.256474        -6.9790
 120   1.0000      -0.248486        -6.7616
 121   1.0000      -0.236658        -6.4398
 122   1.0000      -0.234315        -6.3760
 123   1.0000      -0.230606        -6.2751
 124   1.0000      -0.224647        -6.1130
 125   1.0000      -0.218393        -5.9428
 126   1.0000      -0.216598        -5.8939
 127   1.0000      -0.213788        -5.8175
 128   1.0000      -0.207330        -5.6417
 129   1.0000      -0.191420        -5.2088
 130   1.0000      -0.189957        -5.1690
 131   1.0000      -0.185635        -5.0514
 132   1.0000      -0.182364        -4.9624
 133   1.0000      -0.176517        -4.8033
 134   1.0000      -0.158820        -4.3217
 135   1.0000      -0.151060        -4.1105
 136   1.0000      -0.146524        -3.9871
 137   1.0000      -0.135085        -3.6758
 138   1.0000      -0.133960        -3.6452
 139   1.0000      -0.132390        -3.6025
 140   1.0000      -0.124496        -3.3877
 141   1.0000      -0.120744        -3.2856
 142   1.0000      -0.115199        -3.1347
 143   1.0000      -0.111254        -3.0274
 144   1.0000      -0.099746        -2.7142
 145   1.0000      -0.098463        -2.6793
 146   1.0000      -0.097209        -2.6452
 147   1.0000      -0.094912        -2.5827
 148   1.0000      -0.070618        -1.9216
 149   1.0000      -0.067666        -1.8413
 150   1.0000      -0.067251        -1.8300
 151   1.0000      -0.049664        -1.3514
 152   1.0000      -0.044591        -1.2134
 153   1.0000      -0.037420        -1.0182
 154   1.0000      -0.036465        -0.9923
 155   1.0000      -0.031199        -0.8490
 156   1.0000      -0.025959        -0.7064
 157   1.0000      -0.015570        -0.4237
 158   1.0000       0.020736         0.5643
 159   1.0000       0.040185         1.0935
 160   0.0000       0.135411         3.6847
 161   0.0000       0.136947         3.7265
 162   0.0000       0.155594         4.2339
 163   0.0000       0.160061         4.3555
 164   0.0000       0.162898         4.4327

MULLIKEN ATOMIC CHARGES AND SPIN POPULATIONS
--------------------------------------------
   0 V :    0.471130    1.210422
   1 S :   -0.290243   -0.022374
   2 S :   -0.289730   -0.025217
   3 S :   -0.288745   -0.023361
   4 S :   -0.285660   -0.025696
   5 O :   -0.467658   -0.146531
   6 C :   -0.077383    0.009697
   7 C :   -0.084255    0.008079
   8 C :   -0.084295    0.007773
   9 C :   -0.085215    0.007329
  10 S :    0.099583   -0.000586
  11 S :    0.100898   -0.000626
  12 S :    0.097597   -0.000395
  13 S :    0.102690   -0.000340
  14 C :   -0.213700    0.001526
  15 C :   -0.201738    0.000972
  16 C :   -0.191409   -0.000079
  17 C :   -0.202942   -0.000389
  18 S :    0.009022   -0.000115
  19 S :    0.009159   -0.000114
  20 S :    0.002849   -0.000070
  21 S :    0.013759   -0.000071
  22 C :   -0.325105   -0.000002
  23 C :   -0.251441   -0.000001
  24 C :   -0.151838   -0.000010
  25 H :    0.150505   -0.000001
  26 H :    0.111587   -0.000002
  27 H :    0.089052   -0.000001
  28 H :    0.082862   -0.000001
  29 H :    0.105321   -0.000006
  30 H :    0.117944   -0.000002
  31 C :   -0.299908    0.000198
  32 C :   -0.300924    0.000194
  33 C :   -0.157641   -0.000242
  34 H :    0.142134   -0.000018
  35 H :    0.113433    0.000019
  36 H :    0.092192    0.000024
  37 H :    0.082626    0.000015
  38 H :    0.113394    0.000020
  39 H :    0.142094   -0.000018
Sum of atomic charges         :   -2.0000000

LOEWDIN ATOMIC CHARGES AND SPIN POPULATIONS
-------------------------------------------
   0 V :   -0.155875    1.163811
   1 S :    0.080438   -0.014418
   2 S :    0.079349   -0.016084
   3 S :    0.081379   -0.015250
   4 S :    0.083233   -0.016307
   5 O :   -0.319011   -0.131449
   6 C :   -0.549948    0.009059
   7 C :   -0.552097    0.007956
   8 C :   -0.552192    0.008138
   9 C :   -0.552254    0.007652
  10 S :    0.471222   -0.000901
  11 S :    0.472205   -0.000947
  12 S :    0.471213   -0.000832
  13 S :    0.472395   -0.000824
  14 C :   -0.465058    0.000159
  15 C :   -0.464929   -0.000082
  16 C :   -0.622674    0.000480
  17 C :   -0.622676    0.000085
  18 S :    0.358742   -0.000090
  19 S :    0.360120   -0.000087
  20 S :    0.366580   -0.000074
  21 S :    0.354837   -0.000074
  22 C :   -0.298865   -0.000006
  23 C :   -0.288708   -0.000010
  24 C :   -0.182502   -0.000002
  25 H :    0.065835   -0.000001
  26 H :    0.061522   -0.000002
  27 H :    0.057265   -0.000002
  28 H :    0.063124   -0.000001
  29 H :    0.052284   -0.000003
  30 H :    0.070012   -0.000002
  31 C :   -0.284069    0.000043
  32 C :   -0.283810    0.000037
  33 C :   -0.176328    0.000006
  34 H :    0.062099   -0.000001
  35 H :    0.053524    0.000008
  36 H :    0.060234    0.000005
  37 H :    0.057794    0.000002
  38 H :    0.053592    0.000009
  39 H :    0.062001   -0.000000

  Mayer bond orders larger than 0.100000
B(  0-V ,  1-S ) :   0.7711 B(  0-V ,  2-S ) :   0.7714 B(  0-V ,  3-S ) :   0.7646
B(  0-V ,  4-S ) :   0.7788 B(  0-V ,  5-O ) :   2.1487 B(  1-S ,  8-C ) :   1.1043
B(  2-S ,  6-C ) :   1.1041 B(  3-S ,  9-C ) :   1.1067 B(  4-S ,  7-C ) :   1.1045
B(  6-C ,  7-C ) :   1.6847 B(  6-C , 10-S ) :   0.9349 B(  7-C , 11-S ) :   0.9389
B(  8-C ,  9-C ) :   1.6971 B(  8-C , 13-S ) :   0.9338 B(  9-C , 12-S ) :   0.9366
B( 10-S , 14-C ) :   1.2487 B( 11-S , 14-C ) :   1.2484 B( 12-S , 15-C ) :   1.2442
B( 13-S , 15-C ) :   1.2478 B( 14-C , 16-C ) :   1.4510 B( 15-C , 17-C ) :   1.4475
B( 16-C , 18-S ) :   1.0880 B( 16-C , 19-S ) :   1.0894 B( 17-C , 20-S ) :   1.0543
B( 17-C , 21-S ) :   1.1286 B( 18-S , 32-C ) :   0.9919 B( 19-S , 31-C ) :   0.9918
B( 20-S , 23-C ) :   0.9936 B( 21-S , 22-C ) :   0.9778 B( 22-C , 24-C ) :   0.8916
B( 22-C , 25-H ) :   0.9742 B( 22-C , 26-H ) :   0.9597 B( 23-C , 24-C ) :   0.9351
B( 23-C , 29-H ) :   0.9692 B( 23-C , 30-H ) :   0.9426 B( 24-C , 27-H ) :   0.9720
B( 24-C , 28-H ) :   0.9588 B( 31-C , 33-C ) :   0.9137 B( 31-C , 38-H ) :   0.9656
B( 31-C , 39-H ) :   0.9658 B( 32-C , 33-C ) :   0.9134 B( 32-C , 34-H ) :   0.9658
B( 32-C , 35-H ) :   0.9655 B( 33-C , 36-H ) :   0.9717 B( 33-C , 37-H ) :   0.9624

FINAL SINGLE POINT ENERGY     -6337.682353007672

DIPOLE MOMENT
-------------
                                X             Y             Z
Electronic contribution:     -0.79844     -13.62759      -0.74527
Nuclear contribution   :      0.85892      15.11158       0.88141
                        -----------------------------------------
Total Dipole Moment    :      0.06048       1.48399       0.13614
                        -----------------------------------------
Magnitude (a.u.)       :      1.49145
Magnitude (Debye)      :      3.79096

Rotational constants in cm-1:     0.010760     0.000804     0.000783
Rotational constants in MHz :   322.580009    24.115956    23.486647

                             ****ORCA TERMINATED NORMALLY****
TOTAL RUN TIME: 0 days 1 hours 1 minutes 40 seconds 722 msec
