                         Program Version 5.0.4 -  RELEASE  -
|  1> ! nofrozencore ReducedPop printbasis
|  2> ! B3LYP TZVP
|  3>
|  4> %basis
|  5> newgto V "CP(PPP)" end
|  6> end
|  7>
|  8> %pal
|  9> nprocs 8
| 10> end
| 11>
| 12> % sym SymThresh 1e-2 end
| 13> * xyz -2 2
| 14> V 0.39679043535678543 0.878790510924375 -0.5628338199225849
| 15> S 2.4263968548491675 -0.46423442296400863 -0.3887471402471563
| 16> S -0.35173252616222894 -0.7194314858557186 -2.2341604926730243
| 17> S 0.7499940418588429 1.3930753632711135 1.8837866175884392
| 18> S -2.0206127154592437 1.0564335265887488 0.07949334278844594
| 19> O 0.7388047735122927 2.237576445539733 -1.3150237233416076
| 20> C -2.0620741808850624 -0.2980587920326024 -2.311790520067133
| 21> C -2.735086796783038 0.408915629762705 -1.384348923844301
| 22> C 3.010131216380399 -0.028418935335150178 1.2164339711865495
| 23> C 2.3416087979778464 0.7009689592542883 2.12899989217231
| 24> S -3.021100432353722 -0.9217027804473945 -3.6913808203987433
| 25> S -4.50041492400875 0.6141323134715816 -1.659690063589696
| 26> S 3.1623687301271564 0.9406641667176424 3.714050040167117
| 27> S 4.610814474836719 -0.665315821587806 1.7156687302842426
| 28> C -4.598832207471285 -0.29244303313166686 -3.160537359851729
| 29> C 4.587322188227791 -0.026733186224184136 3.376430551869727
| 30> C -5.770453624399046 -0.47331472531727403 -3.8424732114507645
| 31> C 5.570954218961684 -0.24671171036266104 4.3004439340315725
| 32> S -5.7875811212182136 -1.3926802749981828 -5.3621370367685985
| 33> S -7.341252248323341 0.20279643819091905 -3.3113458331485948
| 34> S 7.002906216959445 -1.2001513416252847 3.8602411440528943
| 35> S 5.499284984376123 0.34683437777239756 5.989671324544908
| 36> C 5.353839361102253 -1.2013448856365616 6.980640987290931
| 37> C 6.682990251801601 -2.481833018692003 5.180971092355941
| 38> C 6.569023484800238 -2.0554204435275474 6.661649356619273
| 39> H 4.4087874660081665 -1.7094713280148068 6.770628208991363
| 40> H 5.352405658380127 -0.87358580793917 8.02589824679859
| 41> H 6.5380118962980225 -2.9890697424901695 7.248558946824762
| 42> H 7.468757079243845 -1.5087353327716166 6.963513186034725
| 43> H 7.49814898459526 -3.206913156077857 5.089473551450469
| 44> H 5.7575954656461334 -2.9823718734960902 4.883344309028754
| 45> C -7.745352404985325 1.443475026789831 -4.6146705370386005
| 46> C -6.451443232350118 0.04665810481591254 -6.350579162713576
| 47> C -7.785549464779598 0.7110874727861104 -5.944766257555866
| 48> H -5.659952934767768 0.8008576649580378 -6.337172785707575
| 49> H -6.543456694130826 -0.32151090505042035 -7.37737728276453
| 50> H -8.580887034286445 -0.04094156588341808 -5.9070195213694525
| 51> H -8.037095419174685 1.4165726401596586 -6.754581808637334
| 52> H -8.730441010324157 1.8353203446785333 -4.338833923496635
| 53> H -7.024717601586516 2.265720474514554 -4.60393991826209
| 54> *
| 55>
| 56> % eprnmr
| 57> gtensor true
| 58> Nuclei = all H {aiso,adip,aorb,fgrad,rho}
| 59> Nuclei = all V {aiso,adip,aorb,fgrad,rho}
| 60> end
| 61>
| 62>                          ****END OF INPUT****

CARTESIAN COORDINATES (ANGSTROEM)
---------------------------------
  V      0.394026    0.876137   -0.562729
  S      2.423632   -0.466888   -0.388642
  S     -0.354497   -0.722085   -2.234055
  S      0.747229    1.390422    1.883892
  S     -2.023377    1.053780    0.079599
  O      0.736040    2.234923   -1.314919
  C     -2.064839   -0.300713   -2.311685
  C     -2.737851    0.406262   -1.384244
  C      3.007367   -0.031073    1.216539
  C      2.338844    0.698315    2.129105
  S     -3.023865   -0.924357   -3.691276
  S     -4.503180    0.611478   -1.659585
  S      3.159604    0.938010    3.714155
  S      4.608050   -0.667970    1.715774
  C     -4.601597   -0.295097   -3.160432
  C      4.584558   -0.029387    3.376536
  C     -5.773218   -0.475969   -3.842368
  C      5.568190   -0.249366    4.300549
  S     -5.790346   -1.395334   -5.362032
  S     -7.344017    0.200143   -3.311241
  S      7.000142   -1.202805    3.860346
  S      5.496520    0.344181    5.989776
  C      5.351075   -1.203999    6.980746
  C      6.680226   -2.484487    5.181076
  C      6.566259   -2.058074    6.661755
  H      4.406023   -1.712125    6.770733
  H      5.349641   -0.876240    8.026003
  H      6.535247   -2.991724    7.248664
  H      7.465992   -1.511389    6.963618
  H      7.495384   -3.209567    5.089579
  H      5.754831   -2.985026    4.883449
  C     -7.748117    1.440821   -4.614565
  C     -6.454208    0.044004   -6.350474
  C     -7.788314    0.708434   -5.944661
  H     -5.662718    0.798204   -6.337068
  H     -6.546221   -0.324165   -7.377272
  H     -8.583652   -0.043595   -5.906914
  H     -8.039860    1.413919   -6.754477
  H     -8.733206    1.832666   -4.338729
  H     -7.027482    2.263067   -4.603835

 Total Charge           Charge          ....   -2
 Multiplicity           Mult            ....    2
 Number of Electrons    NEL             ....  321
 Basis Dimension        Dim             ....  681

ORBITAL ENERGIES
----------------
                 SPIN UP ORBITALS
  NO   OCC          E(Eh)            E(eV)
   0   1.0000    -196.675022     -5351.7994
   1   1.0000     -88.734432     -2414.5866
   2   1.0000     -88.734114     -2414.5780
   3   1.0000     -88.732769     -2414.5414
   4   1.0000     -88.732356     -2414.5302
   5   1.0000     -88.731168     -2414.4978
   6   1.0000     -88.730484     -2414.4792
   7   1.0000     -88.729073     -2414.4408
   8   1.0000     -88.728470     -2414.4244
   9   1.0000     -88.641223     -2412.0503
  10   1.0000     -88.640961     -2412.0432
  11   1.0000     -88.638211     -2411.9683
  12   1.0000     -88.637223     -2411.9415
  13   1.0000     -22.050384      -600.0215
  14   1.0000     -18.889825      -514.0183
  15   1.0000     -18.556824      -504.9569
  16   1.0000     -18.551670      -504.8166
  17   1.0000     -18.551562      -504.8137
  18   1.0000     -10.075519      -274.1688
  19   1.0000     -10.075023      -274.1553
  20   1.0000     -10.064953      -273.8813
  21   1.0000     -10.064380      -273.8657
  22   1.0000     -10.063638      -273.8455
  23   1.0000     -10.063043      -273.8293
  24   1.0000     -10.052591      -273.5449
  25   1.0000     -10.052060      -273.5305
  26   1.0000     -10.048776      -273.4411
  27   1.0000     -10.048390      -273.4306
  28   1.0000     -10.018274      -272.6111
  29   1.0000     -10.017749      -272.5968
  30   1.0000     -10.017329      -272.5854
  31   1.0000     -10.016566      -272.5646
  32   1.0000      -7.787717      -211.9146
  33   1.0000      -7.787412      -211.9062
  34   1.0000      -7.786218      -211.8738
  35   1.0000      -7.785815      -211.8628
  36   1.0000      -7.784196      -211.8187
  37   1.0000      -7.783505      -211.8000
  38   1.0000      -7.782599      -211.7753
  39   1.0000      -7.782013      -211.7593
  40   1.0000      -7.695667      -209.4097
  41   1.0000      -7.695361      -209.4014
  42   1.0000      -7.692382      -209.3204
  43   1.0000      -7.691397      -209.2936
  44   1.0000      -5.752645      -156.5374
  45   1.0000      -5.752328      -156.5288
  46   1.0000      -5.751288      -156.5005
  47   1.0000      -5.750882      -156.4895
  48   1.0000      -5.749420      -156.4497
  49   1.0000      -5.749206      -156.4438
  50   1.0000      -5.749114      -156.4413
  51   1.0000      -5.748530      -156.4255
  52   1.0000      -5.747686      -156.4025
  53   1.0000      -5.747469      -156.3966
  54   1.0000      -5.747284      -156.3916
  55   1.0000      -5.746889      -156.3808
  56   1.0000      -5.744700      -156.3212
  57   1.0000      -5.744017      -156.3026
  58   1.0000      -5.743120      -156.2783
  59   1.0000      -5.742533      -156.2623
  60   1.0000      -5.742496      -156.2613
  61   1.0000      -5.742203      -156.2533
  62   1.0000      -5.741010      -156.2208
  63   1.0000      -5.740607      -156.2098
  64   1.0000      -5.740011      -156.1936
  65   1.0000      -5.739298      -156.1742
  66   1.0000      -5.738442      -156.1509
  67   1.0000      -5.737843      -156.1346
  68   1.0000      -5.660984      -154.0432
  69   1.0000      -5.660671      -154.0347
  70   1.0000      -5.657680      -153.9533
  71   1.0000      -5.656704      -153.9267
  72   1.0000      -5.654265      -153.8604
  73   1.0000      -5.653984      -153.8527
  74   1.0000      -5.652993      -153.8257
  75   1.0000      -5.652704      -153.8179
  76   1.0000      -5.651086      -153.7739
  77   1.0000      -5.650127      -153.7478
  78   1.0000      -5.649684      -153.7357
  79   1.0000      -5.648665      -153.7080
  80   1.0000      -2.443972       -66.5039
  81   1.0000      -1.485098       -40.4116
  82   1.0000      -1.473627       -40.0994
  83   1.0000      -1.472847       -40.0782
  84   1.0000      -0.709604       -19.3093
  85   1.0000      -0.709175       -19.2976
  86   1.0000      -0.685873       -18.6635
  87   1.0000      -0.685194       -18.6451
  88   1.0000      -0.649369       -17.6702
  89   1.0000      -0.632789       -17.2191
  90   1.0000      -0.632139       -17.2014
  91   1.0000      -0.614903       -16.7324
  92   1.0000      -0.614404       -16.7188
  93   1.0000      -0.575091       -15.6490
  94   1.0000      -0.574405       -15.6303
  95   1.0000      -0.572448       -15.5771
  96   1.0000      -0.571203       -15.5432
  97   1.0000      -0.497227       -13.5302
  98   1.0000      -0.496135       -13.5005
  99   1.0000      -0.495464       -13.4823
 100   1.0000      -0.493932       -13.4406
 101   1.0000      -0.479872       -13.0580
 102   1.0000      -0.477152       -12.9840
 103   1.0000      -0.446619       -12.1531
 104   1.0000      -0.444397       -12.0927
 105   1.0000      -0.416241       -11.3265
 106   1.0000      -0.411015       -11.1843
 107   1.0000      -0.355190        -9.6652
 108   1.0000      -0.354504        -9.6465
 109   1.0000      -0.327853        -8.9213
 110   1.0000      -0.327164        -8.9026
 111   1.0000      -0.318045        -8.6544
 112   1.0000      -0.313573        -8.5327
 113   1.0000      -0.305543        -8.3143
 114   1.0000      -0.304416        -8.2836
 115   1.0000      -0.290029        -7.8921
 116   1.0000      -0.289427        -7.8757
 117   1.0000      -0.260565        -7.0903
 118   1.0000      -0.258171        -7.0252
 119   1.0000      -0.256621        -6.9830
 120   1.0000      -0.254747        -6.9320
 121   1.0000      -0.238026        -6.4770
 122   1.0000      -0.237564        -6.4644
 123   1.0000      -0.225690        -6.1413
 124   1.0000      -0.223334        -6.0772
 125   1.0000      -0.218292        -5.9400
 126   1.0000      -0.217211        -5.9106
 127   1.0000      -0.213910        -5.8208
 128   1.0000      -0.210996        -5.7415
 129   1.0000      -0.193415        -5.2631
 130   1.0000      -0.187411        -5.0997
 131   1.0000      -0.186185        -5.0664
 132   1.0000      -0.182513        -4.9664
 133   1.0000      -0.178127        -4.8471
 134   1.0000      -0.159089        -4.3290
 135   1.0000      -0.152382        -4.1465
 136   1.0000      -0.147703        -4.0192
 137   1.0000      -0.134908        -3.6710
 138   1.0000      -0.132916        -3.6168
 139   1.0000      -0.132571        -3.6074
 140   1.0000      -0.124642        -3.3917
 141   1.0000      -0.120561        -3.2806
 142   1.0000      -0.112756        -3.0682
 143   1.0000      -0.109124        -2.9694
 144   1.0000      -0.099523        -2.7082
 145   1.0000      -0.098048        -2.6680
 146   1.0000      -0.096375        -2.6225
 147   1.0000      -0.094136        -2.5616
 148   1.0000      -0.074336        -2.0228
 149   1.0000      -0.068407        -1.8615
 150   1.0000      -0.067901        -1.8477
 151   1.0000      -0.053237        -1.4486
 152   1.0000      -0.044074        -1.1993
 153   1.0000      -0.037193        -1.0121
 154   1.0000      -0.036744        -0.9998
 155   1.0000      -0.030342        -0.8257
 156   1.0000      -0.024469        -0.6658
 157   1.0000      -0.018561        -0.5051
 158   1.0000      -0.015194        -0.4135
 159   1.0000       0.020868         0.5679
 160   1.0000       0.041543         1.1304
 161   0.0000       0.136917         3.7257
 162   0.0000       0.137661         3.7459
 163   0.0000       0.157378         4.2825
 164   0.0000       0.157629         4.2893
 165   0.0000       0.167570         4.5598

                 SPIN DOWN ORBITALS
  NO   OCC          E(Eh)            E(eV)
   0   1.0000    -196.675167     -5351.8034
   1   1.0000     -88.734433     -2414.5867
   2   1.0000     -88.734114     -2414.5780
   3   1.0000     -88.732769     -2414.5414
   4   1.0000     -88.732357     -2414.5302
   5   1.0000     -88.731175     -2414.4980
   6   1.0000     -88.730491     -2414.4794
   7   1.0000     -88.729082     -2414.4411
   8   1.0000     -88.728479     -2414.4247
   9   1.0000     -88.641361     -2412.0541
  10   1.0000     -88.641096     -2412.0469
  11   1.0000     -88.638355     -2411.9723
  12   1.0000     -88.637366     -2411.9454
  13   1.0000     -22.035438      -599.6147
  14   1.0000     -18.893633      -514.1219
  15   1.0000     -18.551538      -504.8130
  16   1.0000     -18.535625      -504.3800
  17   1.0000     -18.535436      -504.3749
  18   1.0000     -10.075514      -274.1687
  19   1.0000     -10.075023      -274.1553
  20   1.0000     -10.064952      -273.8813
  21   1.0000     -10.064380      -273.8657
  22   1.0000     -10.063638      -273.8455
  23   1.0000     -10.063043      -273.8293
  24   1.0000     -10.052591      -273.5449
  25   1.0000     -10.052060      -273.5305
  26   1.0000     -10.048764      -273.4408
  27   1.0000     -10.048386      -273.4305
  28   1.0000     -10.018072      -272.6056
  29   1.0000     -10.017581      -272.5922
  30   1.0000     -10.017057      -272.5780
  31   1.0000     -10.016313      -272.5577
  32   1.0000      -7.787718      -211.9146
  33   1.0000      -7.787412      -211.9063
  34   1.0000      -7.786218      -211.8738
  35   1.0000      -7.785816      -211.8628
  36   1.0000      -7.784204      -211.8190
  37   1.0000      -7.783514      -211.8002
  38   1.0000      -7.782609      -211.7756
  39   1.0000      -7.782023      -211.7596
  40   1.0000      -7.695796      -209.4132
  41   1.0000      -7.695487      -209.4048
  42   1.0000      -7.692517      -209.3240
  43   1.0000      -7.691531      -209.2972
  44   1.0000      -5.752646      -156.5375
  45   1.0000      -5.752329      -156.5288
  46   1.0000      -5.751289      -156.5005
  47   1.0000      -5.750883      -156.4895
  48   1.0000      -5.749422      -156.4497
  49   1.0000      -5.749214      -156.4441
  50   1.0000      -5.749114      -156.4414
  51   1.0000      -5.748539      -156.4257
  52   1.0000      -5.747687      -156.4025
  53   1.0000      -5.747480      -156.3969
  54   1.0000      -5.747285      -156.3916
  55   1.0000      -5.746902      -156.3811
  56   1.0000      -5.744712      -156.3216
  57   1.0000      -5.744029      -156.3030
  58   1.0000      -5.743134      -156.2786
  59   1.0000      -5.742548      -156.2627
  60   1.0000      -5.742497      -156.2613
  61   1.0000      -5.742204      -156.2533
  62   1.0000      -5.741011      -156.2208
  63   1.0000      -5.740607      -156.2099
  64   1.0000      -5.740018      -156.1938
  65   1.0000      -5.739303      -156.1744
  66   1.0000      -5.738451      -156.1512
  67   1.0000      -5.737850      -156.1348
  68   1.0000      -5.661132      -154.0472
  69   1.0000      -5.660820      -154.0387
  70   1.0000      -5.657814      -153.9570
  71   1.0000      -5.656839      -153.9304
  72   1.0000      -5.654631      -153.8703
  73   1.0000      -5.654316      -153.8618
  74   1.0000      -5.653083      -153.8282
  75   1.0000      -5.652814      -153.8209
  76   1.0000      -5.651490      -153.7849
  77   1.0000      -5.650510      -153.7582
  78   1.0000      -5.649778      -153.7383
  79   1.0000      -5.648770      -153.7109
  80   1.0000      -2.399043       -65.2813
  81   1.0000      -1.465724       -39.8844
  82   1.0000      -1.411206       -38.4009
  83   1.0000      -1.411111       -38.3983
  84   1.0000      -0.709577       -19.3086
  85   1.0000      -0.709162       -19.2973
  86   1.0000      -0.685815       -18.6620
  87   1.0000      -0.685154       -18.6440
  88   1.0000      -0.657559       -17.8931
  89   1.0000      -0.632721       -17.2172
  90   1.0000      -0.632088       -17.2000
  91   1.0000      -0.614893       -16.7321
  92   1.0000      -0.614398       -16.7186
  93   1.0000      -0.575018       -15.6470
  94   1.0000      -0.574354       -15.6290
  95   1.0000      -0.572403       -15.5759
  96   1.0000      -0.571175       -15.5425
  97   1.0000      -0.497234       -13.5304
  98   1.0000      -0.496162       -13.5012
  99   1.0000      -0.495511       -13.4835
 100   1.0000      -0.493980       -13.4419
 101   1.0000      -0.480061       -13.0631
 102   1.0000      -0.477404       -12.9908
 103   1.0000      -0.446642       -12.1538
 104   1.0000      -0.444448       -12.0940
 105   1.0000      -0.416241       -11.3265
 106   1.0000      -0.411129       -11.1874
 107   1.0000      -0.355180        -9.6649
 108   1.0000      -0.354500        -9.6464
 109   1.0000      -0.327833        -8.9208
 110   1.0000      -0.327157        -8.9024
 111   1.0000      -0.317971        -8.6524
 112   1.0000      -0.313600        -8.5335
 113   1.0000      -0.305486        -8.3127
 114   1.0000      -0.304390        -8.2829
 115   1.0000      -0.290023        -7.8919
 116   1.0000      -0.289425        -7.8756
 117   1.0000      -0.260395        -7.0857
 118   1.0000      -0.258128        -7.0240
 119   1.0000      -0.256558        -6.9813
 120   1.0000      -0.254721        -6.9313
 121   1.0000      -0.238013        -6.4767
 122   1.0000      -0.237558        -6.4643
 123   1.0000      -0.225466        -6.1352
 124   1.0000      -0.223304        -6.0764
 125   1.0000      -0.218032        -5.9330
 126   1.0000      -0.217132        -5.9085
 127   1.0000      -0.213703        -5.8152
 128   1.0000      -0.210845        -5.7374
 129   1.0000      -0.191827        -5.2199
 130   1.0000      -0.187342        -5.0978
 131   1.0000      -0.185668        -5.0523
 132   1.0000      -0.182317        -4.9611
 133   1.0000      -0.177988        -4.8433
 134   1.0000      -0.158486        -4.3126
 135   1.0000      -0.152203        -4.1417
 136   1.0000      -0.147587        -4.0161
 137   1.0000      -0.134257        -3.6533
 138   1.0000      -0.132600        -3.6082
 139   1.0000      -0.132335        -3.6010
 140   1.0000      -0.124105        -3.3771
 141   1.0000      -0.120264        -3.2725
 142   1.0000      -0.114586        -3.1181
 143   1.0000      -0.110708        -3.0125
 144   1.0000      -0.099535        -2.7085
 145   1.0000      -0.098273        -2.6742
 146   1.0000      -0.096454        -2.6246
 147   1.0000      -0.094451        -2.5701
 148   1.0000      -0.070408        -1.9159
 149   1.0000      -0.068392        -1.8610
 150   1.0000      -0.067897        -1.8476
 151   1.0000      -0.050822        -1.3829
 152   1.0000      -0.043010        -1.1703
 153   1.0000      -0.036922        -1.0047
 154   1.0000      -0.036100        -0.9823
 155   1.0000      -0.030451        -0.8286
 156   1.0000      -0.025500        -0.6939
 157   1.0000      -0.015400        -0.4190
 158   1.0000       0.021143         0.5753
 159   1.0000       0.040465         1.1011
 160   0.0000       0.136926         3.7260
 161   0.0000       0.137656         3.7458
 162   0.0000       0.154192         4.1958
 163   0.0000       0.157572         4.2878
 164   0.0000       0.160771         4.3748

MULLIKEN ATOMIC CHARGES AND SPIN POPULATIONS
--------------------------------------------
   0 V :    0.473651    1.211347
   1 S :   -0.289449   -0.021128
   2 S :   -0.284904   -0.023960
   3 S :   -0.294023   -0.024766
   4 S :   -0.288478   -0.026962
   5 O :   -0.468222   -0.147449
   6 C :   -0.080789    0.011133
   7 C :   -0.081454    0.006937
   8 C :   -0.088724    0.009244
   9 C :   -0.080830    0.005605
  10 S :    0.095473   -0.000331
  11 S :    0.104978   -0.000770
  12 S :    0.104294   -0.000618
  13 S :    0.094273   -0.000070
  14 C :   -0.205635    0.001531
  15 C :   -0.206449    0.000890
  16 C :   -0.192819   -0.000085
  17 C :   -0.190007   -0.000370
  18 S :    0.012807   -0.000099
  19 S :    0.003793   -0.000107
  20 S :    0.011950   -0.000064
  21 S :    0.002698   -0.000073
  22 C :   -0.282322    0.000008
  23 C :   -0.330558   -0.000009
  24 C :   -0.152937   -0.000010
  25 H :    0.142896   -0.000002
  26 H :    0.115430   -0.000001
  27 H :    0.080977   -0.000001
  28 H :    0.094273   -0.000002
  29 H :    0.110686   -0.000008
  30 H :    0.146495   -0.000000
  31 C :   -0.281757    0.000201
  32 C :   -0.331494    0.000176
  33 C :   -0.152430   -0.000230
  34 H :    0.145893   -0.000018
  35 H :    0.111011    0.000022
  36 H :    0.094462    0.000023
  37 H :    0.080513    0.000014
  38 H :    0.115094    0.000017
  39 H :    0.141639   -0.000016
Sum of atomic charges         :   -2.0000000

LOEWDIN ATOMIC CHARGES AND SPIN POPULATIONS
-------------------------------------------
   0 V :   -0.152658    1.164798
   1 S :    0.087310   -0.012983
   2 S :    0.090863   -0.014304
   3 S :    0.069187   -0.017046
   4 S :    0.074014   -0.018007
   5 O :   -0.319993   -0.132379
   6 C :   -0.553342    0.010939
   7 C :   -0.548819    0.006472
   8 C :   -0.555056    0.009843
   9 C :   -0.548975    0.005706
  10 S :    0.467133   -0.000798
  11 S :    0.476326   -0.000978
  12 S :    0.475386   -0.000940
  13 S :    0.465319   -0.000715
  14 C :   -0.465889    0.000168
  15 C :   -0.466713   -0.000111
  16 C :   -0.621336    0.000481
  17 C :   -0.620899    0.000075
  18 S :    0.353432   -0.000077
  19 S :    0.364381   -0.000082
  20 S :    0.353711   -0.000066
  21 S :    0.363080   -0.000076
  22 C :   -0.283209    0.000002
  23 C :   -0.283013   -0.000017
  24 C :   -0.177727   -0.000001
  25 H :    0.062200   -0.000001
  26 H :    0.056337   -0.000001
  27 H :    0.057270   -0.000002
  28 H :    0.060521   -0.000001
  29 H :    0.051231   -0.000004
  30 H :    0.063985   -0.000002
  31 C :   -0.283847    0.000067
  32 C :   -0.283434    0.000011
  33 C :   -0.177727    0.000009
  34 H :    0.063728   -0.000001
  35 H :    0.051350    0.000010
  36 H :    0.060658    0.000004
  37 H :    0.057238    0.000002
  38 H :    0.056356    0.000008
  39 H :    0.061618   -0.000001

  Mayer bond orders larger than 0.100000
B(  0-V ,  1-S ) :   0.7967 B(  0-V ,  2-S ) :   0.8034 B(  0-V ,  3-S ) :   0.7326
B(  0-V ,  4-S ) :   0.7508 B(  0-V ,  5-O ) :   2.1478 B(  1-S ,  8-C ) :   1.0841
B(  2-S ,  6-C ) :   1.0836 B(  3-S ,  9-C ) :   1.1273 B(  4-S ,  7-C ) :   1.1254
B(  6-C ,  7-C ) :   1.6836 B(  6-C , 10-S ) :   0.9365 B(  7-C , 11-S ) :   0.9384
B(  8-C ,  9-C ) :   1.6987 B(  8-C , 13-S ) :   0.9341 B(  9-C , 12-S ) :   0.9336
B( 10-S , 14-C ) :   1.2426 B( 11-S , 14-C ) :   1.2501 B( 12-S , 15-C ) :   1.2495
B( 13-S , 15-C ) :   1.2410 B( 14-C , 16-C ) :   1.4490 B( 15-C , 17-C ) :   1.4500
B( 16-C , 18-S ) :   1.0732 B( 16-C , 19-S ) :   1.1024 B( 17-C , 20-S ) :   1.0723
B( 17-C , 21-S ) :   1.1001 B( 18-S , 32-C ) :   1.0061 B( 19-S , 31-C ) :   0.9721
B( 20-S , 23-C ) :   1.0057 B( 21-S , 22-C ) :   0.9713 B( 22-C , 24-C ) :   0.9108
B( 22-C , 25-H ) :   0.9595 B( 22-C , 26-H ) :   0.9686 B( 23-C , 24-C ) :   0.9064
B( 23-C , 29-H ) :   0.9633 B( 23-C , 30-H ) :   0.9702 B( 24-C , 27-H ) :   0.9598
B( 24-C , 28-H ) :   0.9735 B( 31-C , 33-C ) :   0.9113 B( 31-C , 38-H ) :   0.9685
B( 31-C , 39-H ) :   0.9597 B( 32-C , 33-C ) :   0.9057 B( 32-C , 34-H ) :   0.9702
B( 32-C , 35-H ) :   0.9634 B( 33-C , 36-H ) :   0.9734 B( 33-C , 37-H ) :   0.9602

FINAL SINGLE POINT ENERGY     -6337.693786350880

DIPOLE MOMENT
-------------
                                X             Y             Z
Electronic contribution:      8.09667       9.69361      -5.50998
Nuclear contribution   :     -8.93940     -10.88526       6.00233
                        -----------------------------------------
Total Dipole Moment    :     -0.84273      -1.19165       0.49235
                        -----------------------------------------
Magnitude (a.u.)       :      1.54034
Magnitude (Debye)      :      3.91523

Rotational constants in cm-1:     0.010735     0.000804     0.000783
Rotational constants in MHz :   321.819585    24.117721    23.482198

                             ****ORCA TERMINATED NORMALLY****
TOTAL RUN TIME: 0 days 1 hours 2 minutes 3 seconds 628 msec
