                         Program Version 5.0.4 -  RELEASE  -
|  1> ! nofrozencore ReducedPop printbasis
|  2> ! B3LYP TZVP
|  3>
|  4> %basis
|  5> newgto V "CP(PPP)" end
|  6> end
|  7>
|  8> %pal
|  9> nprocs 6
| 10> end
| 11>
| 12> % sym SymThresh 1e-2 end
| 13> * xyz -2 2
| 14> V 0.7128121211199707 -0.7510625959639075 0.4094775343854704
| 15> S -1.4407375016706812 -1.627210749119175 1.2494633018731436
| 16> S -0.03506811058951947 -1.5530216589877703 -1.81000953210986
| 17> S 0.5012619596082891 0.9523290168693705 2.1920901284306895
| 18> S 1.8161899988693968 1.0729030617891842 -0.8324860866165713
| 19> O 1.8465942150525922 -1.7677521690247162 0.863319504183539
| 20> C 1.1220077957354078 -0.7031529026688733 -2.8256852924710687
| 21> C 1.8614690844518882 0.35157345430881726 -2.4341360048068834
| 22> C -1.6300520570325976 -0.7019643098954949 2.724746320595321
| 23> C -0.8578642958326594 0.3254933182878336 3.0979999542747754
| 24> S 1.2999444746209188 -1.2071176950926463 -4.540980088401045
| 25> S 2.9027746867709423 1.1095619307561935 -3.6838781141850294
| 26> S -1.3640975956366992 1.1482844454136565 4.59774862232737
| 27> S -3.005023756352921 -1.0457948192058049 3.808879252592405
| 28> C 2.459151864170059 0.03941536282778213 -5.01849069262593
| 29> C -2.5964729949738388 0.01940154832544867 5.149943696087868
| 30> C 2.9618418966815687 0.1644541623980139 -6.2846268563230305
| 31> C -3.719933745981044 0.5902442129674637 5.894689680074843
| 32> S 2.5312233373392505 -0.970828867586604 -7.588742019498006
| 33> S 4.124455027709133 1.445844963025471 -6.710272176076
| 34> S -5.017070585216267 -0.6024758872291983 6.370606409676483
| 35> S -3.2582354867899377 1.7720884075853478 7.207757698900564
| 36> C -4.814958259658878 2.682015300881889 6.879521249759184
| 37> C -6.257688593789249 0.7353657224665509 6.19933248182086
| 38> C -6.1323132462674375 1.9375833628551398 7.14893586783382
| 39> H -4.774214740262011 2.8717692727640944 5.787680709423242
| 40> H -4.783930924073519 3.6665369253036846 7.394607448295256
| 41> H -6.941878505390225 2.6420778932411078 6.848415487527082
| 42> H -6.288451069624444 1.6816372848035548 8.215078562045692
| 43> H -7.278644552238227 0.2966932827324862 6.221932238463161
| 44> H -6.0790963697186085 1.1203073296214923 5.174893053199786
| 45> C 5.568307899177377 0.37657528444309446 -7.156794081729293
| 46> C 4.213388304354342 -1.6815031190940952 -7.897331366594406
| 47> C 5.265322969185953 -0.6329501555648334 -8.265944683375837
| 48> H 4.514952220239648 -2.2397030617406823 -7.00814216937524
| 49> H 4.081769875592531 -2.3910856738551716 -8.718082028622174
| 50> H 4.942742799445217 -0.09779731101957978 -9.164650924043032
| 51> H 6.198436644693764 -1.1573689248679893 -8.515287546744469
| 52> H 6.3522435259388 1.067717183518611 -7.476531381646686
| 53> H 5.90813236505991 -0.13012112228855555 -6.250709586964105
| 54> *
| 55>
| 56> % eprnmr
| 57> gtensor true
| 58> Nuclei = all H {aiso,adip,aorb,fgrad,rho}
| 59> Nuclei = all V {aiso,adip,aorb,fgrad,rho}
| 60> end
| 61>
| 62>                          ****END OF INPUT****

CARTESIAN COORDINATES (ANGSTROEM)
---------------------------------
  V      0.711745   -0.749120    0.406349
  S     -1.441805   -1.625269    1.246335
  S     -0.036136   -1.551079   -1.813138
  S      0.500194    0.954271    2.188962
  S      1.815122    1.074845   -0.835614
  O      1.845527   -1.765810    0.860191
  C      1.120940   -0.701211   -2.828814
  C      1.860402    0.353516   -2.437264
  C     -1.631120   -0.700022    2.721618
  C     -0.858932    0.327435    3.094872
  S      1.298877   -1.205176   -4.544108
  S      2.901707    1.111504   -3.687007
  S     -1.365165    1.150227    4.594620
  S     -3.006091   -1.043853    3.805751
  C      2.458084    0.041358   -5.021619
  C     -2.597541    0.021344    5.146815
  C      2.960774    0.166396   -6.287755
  C     -3.721001    0.592186    5.891561
  S      2.530156   -0.968887   -7.591870
  S      4.123387    1.447787   -6.713401
  S     -5.018138   -0.600534    6.367478
  S     -3.259303    1.774031    7.204629
  C     -4.816026    2.683957    6.876393
  C     -6.258756    0.737308    6.196204
  C     -6.133381    1.939526    7.145807
  H     -4.775282    2.873711    5.784552
  H     -4.784998    3.668479    7.391479
  H     -6.942946    2.644020    6.845287
  H     -6.289519    1.683579    8.211950
  H     -7.279712    0.298635    6.218804
  H     -6.080164    1.122250    5.171765
  C      5.567240    0.378517   -7.159922
  C      4.212321   -1.679561   -7.900460
  C      5.264255   -0.631008   -8.269073
  H      4.513885   -2.237761   -7.011271
  H      4.080702   -2.389143   -8.721210
  H      4.941675   -0.095855   -9.167779
  H      6.197369   -1.155427   -8.518416
  H      6.351176    1.069659   -7.479660
  H      5.907065   -0.128179   -6.253838

 Total Charge           Charge          ....   -2
 Multiplicity           Mult            ....    2
 Number of Electrons    NEL             ....  321
 Basis Dimension        Dim             ....  681

ORBITAL ENERGIES
----------------
                 SPIN UP ORBITALS
  NO   OCC          E(Eh)            E(eV)
   0   1.0000    -196.680145     -5351.9388
   1   1.0000     -88.735291     -2414.6100
   2   1.0000     -88.735261     -2414.6092
   3   1.0000     -88.733465     -2414.5603
   4   1.0000     -88.733447     -2414.5599
   5   1.0000     -88.733203     -2414.5532
   6   1.0000     -88.733017     -2414.5481
   7   1.0000     -88.724087     -2414.3051
   8   1.0000     -88.723945     -2414.3013
   9   1.0000     -88.647079     -2412.2097
  10   1.0000     -88.646608     -2412.1968
  11   1.0000     -88.644088     -2412.1283
  12   1.0000     -88.643818     -2412.1209
  13   1.0000     -22.055502      -600.1607
  14   1.0000     -18.895415      -514.1704
  15   1.0000     -18.561927      -505.0957
  16   1.0000     -18.556781      -504.9557
  17   1.0000     -18.556698      -504.9534
  18   1.0000     -10.078555      -274.2514
  19   1.0000     -10.077388      -274.2197
  20   1.0000     -10.065427      -273.8942
  21   1.0000     -10.065372      -273.8927
  22   1.0000     -10.055223      -273.6165
  23   1.0000     -10.055149      -273.6145
  24   1.0000     -10.053071      -273.5580
  25   1.0000     -10.050819      -273.4967
  26   1.0000     -10.048470      -273.4328
  27   1.0000     -10.047030      -273.3936
  28   1.0000     -10.026228      -272.8275
  29   1.0000     -10.025382      -272.8045
  30   1.0000     -10.021829      -272.7078
  31   1.0000     -10.020895      -272.6824
  32   1.0000      -7.788740      -211.9424
  33   1.0000      -7.788708      -211.9415
  34   1.0000      -7.787040      -211.8961
  35   1.0000      -7.787025      -211.8957
  36   1.0000      -7.786439      -211.8798
  37   1.0000      -7.786303      -211.8761
  38   1.0000      -7.777538      -211.6376
  39   1.0000      -7.777405      -211.6340
  40   1.0000      -7.701530      -209.5693
  41   1.0000      -7.701108      -209.5578
  42   1.0000      -7.698380      -209.4836
  43   1.0000      -7.698058      -209.4748
  44   1.0000      -5.753730      -156.5670
  45   1.0000      -5.753707      -156.5663
  46   1.0000      -5.751794      -156.5143
  47   1.0000      -5.751791      -156.5142
  48   1.0000      -5.751380      -156.5030
  49   1.0000      -5.751239      -156.4992
  50   1.0000      -5.750309      -156.4739
  51   1.0000      -5.750285      -156.4732
  52   1.0000      -5.747411      -156.3950
  53   1.0000      -5.747400      -156.3947
  54   1.0000      -5.746966      -156.3829
  55   1.0000      -5.746826      -156.3791
  56   1.0000      -5.743537      -156.2896
  57   1.0000      -5.743493      -156.2884
  58   1.0000      -5.743108      -156.2779
  59   1.0000      -5.743084      -156.2773
  60   1.0000      -5.742259      -156.2548
  61   1.0000      -5.742115      -156.2509
  62   1.0000      -5.742016      -156.2482
  63   1.0000      -5.741884      -156.2446
  64   1.0000      -5.739509      -156.1800
  65   1.0000      -5.739374      -156.1763
  66   1.0000      -5.732465      -155.9883
  67   1.0000      -5.732332      -155.9847
  68   1.0000      -5.666806      -154.2016
  69   1.0000      -5.666378      -154.1900
  70   1.0000      -5.663650      -154.1157
  71   1.0000      -5.663363      -154.1079
  72   1.0000      -5.660108      -154.0194
  73   1.0000      -5.659690      -154.0080
  74   1.0000      -5.658920      -153.9870
  75   1.0000      -5.658501      -153.9756
  76   1.0000      -5.657061      -153.9365
  77   1.0000      -5.656754      -153.9281
  78   1.0000      -5.655706      -153.8996
  79   1.0000      -5.655346      -153.8898
  80   1.0000      -2.449180       -66.6456
  81   1.0000      -1.490414       -40.5562
  82   1.0000      -1.478819       -40.2407
  83   1.0000      -1.478097       -40.2211
  84   1.0000      -0.711997       -19.3744
  85   1.0000      -0.707953       -19.2644
  86   1.0000      -0.688170       -18.7261
  87   1.0000      -0.684691       -18.6314
  88   1.0000      -0.654840       -17.8191
  89   1.0000      -0.633980       -17.2515
  90   1.0000      -0.621418       -16.9097
  91   1.0000      -0.619279       -16.8514
  92   1.0000      -0.607699       -16.5363
  93   1.0000      -0.577590       -15.7170
  94   1.0000      -0.577248       -15.7077
  95   1.0000      -0.576324       -15.6826
  96   1.0000      -0.574462       -15.6319
  97   1.0000      -0.498955       -13.5773
  98   1.0000      -0.498473       -13.5642
  99   1.0000      -0.491426       -13.3724
 100   1.0000      -0.485855       -13.2208
 101   1.0000      -0.481778       -13.1098
 102   1.0000      -0.470495       -12.8028
 103   1.0000      -0.448961       -12.2168
 104   1.0000      -0.437841       -11.9143
 105   1.0000      -0.417111       -11.3502
 106   1.0000      -0.409216       -11.1353
 107   1.0000      -0.357489        -9.7278
 108   1.0000      -0.353162        -9.6100
 109   1.0000      -0.328798        -8.9470
 110   1.0000      -0.321529        -8.7492
 111   1.0000      -0.318266        -8.6605
 112   1.0000      -0.315948        -8.5974
 113   1.0000      -0.306318        -8.3353
 114   1.0000      -0.294669        -8.0183
 115   1.0000      -0.294478        -8.0131
 116   1.0000      -0.273976        -7.4553
 117   1.0000      -0.259466        -7.0604
 118   1.0000      -0.259318        -7.0564
 119   1.0000      -0.239716        -6.5230
 120   1.0000      -0.239239        -6.5100
 121   1.0000      -0.236257        -6.4289
 122   1.0000      -0.236027        -6.4226
 123   1.0000      -0.232789        -6.3345
 124   1.0000      -0.221607        -6.0302
 125   1.0000      -0.217998        -5.9320
 126   1.0000      -0.217707        -5.9241
 127   1.0000      -0.216354        -5.8873
 128   1.0000      -0.208014        -5.6604
 129   1.0000      -0.196679        -5.3519
 130   1.0000      -0.189012        -5.1433
 131   1.0000      -0.185805        -5.0560
 132   1.0000      -0.179478        -4.8839
 133   1.0000      -0.177547        -4.8313
 134   1.0000      -0.164351        -4.4722
 135   1.0000      -0.153751        -4.1838
 136   1.0000      -0.149030        -4.0553
 137   1.0000      -0.139069        -3.7843
 138   1.0000      -0.136184        -3.7058
 139   1.0000      -0.134877        -3.6702
 140   1.0000      -0.129316        -3.5189
 141   1.0000      -0.124710        -3.3935
 142   1.0000      -0.118267        -3.2182
 143   1.0000      -0.113924        -3.1000
 144   1.0000      -0.102088        -2.7780
 145   1.0000      -0.098708        -2.6860
 146   1.0000      -0.097530        -2.6539
 147   1.0000      -0.095377        -2.5953
 148   1.0000      -0.079369        -2.1597
 149   1.0000      -0.069668        -1.8958
 150   1.0000      -0.058428        -1.5899
 151   1.0000      -0.056964        -1.5501
 152   1.0000      -0.050773        -1.3816
 153   1.0000      -0.042511        -1.1568
 154   1.0000      -0.038366        -1.0440
 155   1.0000      -0.030205        -0.8219
 156   1.0000      -0.029152        -0.7933
 157   1.0000      -0.023655        -0.6437
 158   1.0000      -0.019826        -0.5395
 159   1.0000       0.015867         0.4318
 160   1.0000       0.035723         0.9721
 161   0.0000       0.105950         2.8831
 162   0.0000       0.134586         3.6623
 163   0.0000       0.160024         4.3545
 164   0.0000       0.164440         4.4746
 165   0.0000       0.166460         4.5296

                 SPIN DOWN ORBITALS
  NO   OCC          E(Eh)            E(eV)
   0   1.0000    -196.680292     -5351.9428
   1   1.0000     -88.735292     -2414.6100
   2   1.0000     -88.735262     -2414.6092
   3   1.0000     -88.733472     -2414.5605
   4   1.0000     -88.733454     -2414.5600
   5   1.0000     -88.733211     -2414.5534
   6   1.0000     -88.733026     -2414.5484
   7   1.0000     -88.724087     -2414.3052
   8   1.0000     -88.723946     -2414.3013
   9   1.0000     -88.647215     -2412.2133
  10   1.0000     -88.646745     -2412.2006
  11   1.0000     -88.644231     -2412.1322
  12   1.0000     -88.643962     -2412.1248
  13   1.0000     -22.040582      -599.7547
  14   1.0000     -18.899191      -514.2731
  15   1.0000     -18.556667      -504.9526
  16   1.0000     -18.540757      -504.5197
  17   1.0000     -18.540593      -504.5152
  18   1.0000     -10.078550      -274.2513
  19   1.0000     -10.077381      -274.2195
  20   1.0000     -10.065426      -273.8942
  21   1.0000     -10.065371      -273.8927
  22   1.0000     -10.055223      -273.6165
  23   1.0000     -10.055149      -273.6145
  24   1.0000     -10.053071      -273.5580
  25   1.0000     -10.050807      -273.4964
  26   1.0000     -10.048465      -273.4326
  27   1.0000     -10.047030      -273.3936
  28   1.0000     -10.026015      -272.8217
  29   1.0000     -10.025172      -272.7988
  30   1.0000     -10.021589      -272.7013
  31   1.0000     -10.020669      -272.6763
  32   1.0000      -7.788741      -211.9424
  33   1.0000      -7.788709      -211.9416
  34   1.0000      -7.787048      -211.8964
  35   1.0000      -7.787033      -211.8959
  36   1.0000      -7.786449      -211.8800
  37   1.0000      -7.786312      -211.8763
  38   1.0000      -7.777538      -211.6376
  39   1.0000      -7.777406      -211.6340
  40   1.0000      -7.701656      -209.5727
  41   1.0000      -7.701236      -209.5613
  42   1.0000      -7.698512      -209.4872
  43   1.0000      -7.698192      -209.4785
  44   1.0000      -5.753732      -156.5670
  45   1.0000      -5.753708      -156.5664
  46   1.0000      -5.751805      -156.5146
  47   1.0000      -5.751803      -156.5145
  48   1.0000      -5.751390      -156.5033
  49   1.0000      -5.751249      -156.4994
  50   1.0000      -5.750311      -156.4739
  51   1.0000      -5.750286      -156.4732
  52   1.0000      -5.747423      -156.3953
  53   1.0000      -5.747412      -156.3950
  54   1.0000      -5.746980      -156.3833
  55   1.0000      -5.746840      -156.3795
  56   1.0000      -5.743537      -156.2896
  57   1.0000      -5.743494      -156.2884
  58   1.0000      -5.743110      -156.2780
  59   1.0000      -5.743086      -156.2773
  60   1.0000      -5.742266      -156.2550
  61   1.0000      -5.742124      -156.2511
  62   1.0000      -5.742016      -156.2482
  63   1.0000      -5.741885      -156.2446
  64   1.0000      -5.739510      -156.1800
  65   1.0000      -5.739375      -156.1763
  66   1.0000      -5.732466      -155.9883
  67   1.0000      -5.732333      -155.9847
  68   1.0000      -5.666947      -154.2055
  69   1.0000      -5.666518      -154.1938
  70   1.0000      -5.663790      -154.1196
  71   1.0000      -5.663506      -154.1118
  72   1.0000      -5.660450      -154.0287
  73   1.0000      -5.660041      -154.0176
  74   1.0000      -5.659029      -153.9900
  75   1.0000      -5.658610      -153.9786
  76   1.0000      -5.657454      -153.9472
  77   1.0000      -5.657143      -153.9387
  78   1.0000      -5.655797      -153.9021
  79   1.0000      -5.655444      -153.8925
  80   1.0000      -2.404325       -65.4250
  81   1.0000      -1.471144       -40.0319
  82   1.0000      -1.416544       -38.5461
  83   1.0000      -1.416342       -38.5406
  84   1.0000      -0.711969       -19.3737
  85   1.0000      -0.707903       -19.2630
  86   1.0000      -0.688114       -18.7245
  87   1.0000      -0.684662       -18.6306
  88   1.0000      -0.662948       -18.0397
  89   1.0000      -0.633903       -17.2494
  90   1.0000      -0.621350       -16.9078
  91   1.0000      -0.619278       -16.8514
  92   1.0000      -0.607700       -16.5364
  93   1.0000      -0.577559       -15.7162
  94   1.0000      -0.577218       -15.7069
  95   1.0000      -0.576243       -15.6804
  96   1.0000      -0.574414       -15.6306
  97   1.0000      -0.498976       -13.5778
  98   1.0000      -0.498531       -13.5657
  99   1.0000      -0.491638       -13.3782
 100   1.0000      -0.485895       -13.2219
 101   1.0000      -0.482006       -13.1161
 102   1.0000      -0.470537       -12.8040
 103   1.0000      -0.448991       -12.2177
 104   1.0000      -0.437896       -11.9158
 105   1.0000      -0.417157       -11.3514
 106   1.0000      -0.409242       -11.1360
 107   1.0000      -0.357479        -9.7275
 108   1.0000      -0.353149        -9.6097
 109   1.0000      -0.328782        -8.9466
 110   1.0000      -0.321441        -8.7469
 111   1.0000      -0.318239        -8.6597
 112   1.0000      -0.315957        -8.5976
 113   1.0000      -0.306276        -8.3342
 114   1.0000      -0.294648        -8.0178
 115   1.0000      -0.294473        -8.0130
 116   1.0000      -0.273972        -7.4552
 117   1.0000      -0.259367        -7.0577
 118   1.0000      -0.259233        -7.0541
 119   1.0000      -0.239664        -6.5216
 120   1.0000      -0.238874        -6.5001
 121   1.0000      -0.236249        -6.4287
 122   1.0000      -0.236002        -6.4219
 123   1.0000      -0.232750        -6.3335
 124   1.0000      -0.221215        -6.0196
 125   1.0000      -0.217707        -5.9241
 126   1.0000      -0.217631        -5.9220
 127   1.0000      -0.216279        -5.8852
 128   1.0000      -0.207829        -5.6553
 129   1.0000      -0.195331        -5.3152
 130   1.0000      -0.188870        -5.1394
 131   1.0000      -0.185583        -5.0500
 132   1.0000      -0.179133        -4.8745
 133   1.0000      -0.177377        -4.8267
 134   1.0000      -0.163823        -4.4578
 135   1.0000      -0.153604        -4.1798
 136   1.0000      -0.148951        -4.0532
 137   1.0000      -0.138359        -3.7649
 138   1.0000      -0.135693        -3.6924
 139   1.0000      -0.134689        -3.6651
 140   1.0000      -0.128930        -3.5084
 141   1.0000      -0.124456        -3.3866
 142   1.0000      -0.120002        -3.2654
 143   1.0000      -0.115588        -3.1453
 144   1.0000      -0.102176        -2.7804
 145   1.0000      -0.098786        -2.6881
 146   1.0000      -0.097746        -2.6598
 147   1.0000      -0.095368        -2.5951
 148   1.0000      -0.075617        -2.0576
 149   1.0000      -0.069667        -1.8957
 150   1.0000      -0.057173        -1.5557
 151   1.0000      -0.055644        -1.5141
 152   1.0000      -0.049846        -1.3564
 153   1.0000      -0.041852        -1.1389
 154   1.0000      -0.038458        -1.0465
 155   1.0000      -0.031268        -0.8509
 156   1.0000      -0.028429        -0.7736
 157   1.0000      -0.020053        -0.5457
 158   1.0000       0.016071         0.4373
 159   1.0000       0.034745         0.9455
 160   0.0000       0.105976         2.8837
 161   0.0000       0.134593         3.6625
 162   0.0000       0.150842         4.1046
 163   0.0000       0.160471         4.3666
 164   0.0000       0.165301         4.4981

MULLIKEN ATOMIC CHARGES AND SPIN POPULATIONS
--------------------------------------------
   0 V :    0.466010    1.210379
   1 S :   -0.264997   -0.021524
   2 S :   -0.288443   -0.025741
   3 S :   -0.262859   -0.022530
   4 S :   -0.284441   -0.026157
   5 O :   -0.464660   -0.146808
   6 C :   -0.076916    0.009801
   7 C :   -0.083826    0.008149
   8 C :   -0.108305    0.007287
   9 C :   -0.109530    0.006970
  10 S :    0.101006   -0.000584
  11 S :    0.102297   -0.000621
  12 S :    0.130519   -0.000142
  13 S :    0.129616   -0.000094
  14 C :   -0.214614    0.001488
  15 C :   -0.159754    0.000263
  16 C :   -0.189446   -0.000060
  17 C :   -0.297012    0.000149
  18 S :    0.009743   -0.000113
  19 S :    0.009892   -0.000112
  20 S :   -0.019654   -0.000086
  21 S :   -0.020346   -0.000091
  22 C :   -0.290297   -0.000009
  23 C :   -0.290194   -0.000009
  24 C :   -0.151636    0.000000
  25 H :    0.150002    0.000001
  26 H :    0.118105    0.000006
  27 H :    0.079409   -0.000002
  28 H :    0.083517    0.000000
  29 H :    0.117635    0.000005
  30 H :    0.149590    0.000001
  31 C :   -0.299719    0.000189
  32 C :   -0.300164    0.000185
  33 C :   -0.159823   -0.000226
  34 H :    0.142137   -0.000017
  35 H :    0.114189    0.000018
  36 H :    0.093266    0.000021
  37 H :    0.083433    0.000014
  38 H :    0.114135    0.000019
  39 H :    0.142136   -0.000018
Sum of atomic charges         :   -2.0000000

LOEWDIN ATOMIC CHARGES AND SPIN POPULATIONS
-------------------------------------------
   0 V :   -0.156299    1.163764
   1 S :    0.094225   -0.014089
   2 S :    0.080943   -0.016505
   3 S :    0.095443   -0.014924
   4 S :    0.084786   -0.016702
   5 O :   -0.317040   -0.131716
   6 C :   -0.549484    0.009107
   7 C :   -0.551653    0.008024
   8 C :   -0.551076    0.008027
   9 C :   -0.551426    0.007549
  10 S :    0.472209   -0.000897
  11 S :    0.473146   -0.000945
  12 S :    0.505613   -0.000669
  13 S :    0.505002   -0.000678
  14 C :   -0.464962    0.000145
  15 C :   -0.500139    0.000150
  16 C :   -0.622090    0.000477
  17 C :   -0.607581    0.000123
  18 S :    0.359439   -0.000090
  19 S :    0.360803   -0.000087
  20 S :    0.325621   -0.000081
  21 S :    0.324882   -0.000085
  22 C :   -0.298767   -0.000000
  23 C :   -0.298922   -0.000001
  24 C :   -0.172934   -0.000003
  25 H :    0.067687    0.000000
  26 H :    0.049012    0.000003
  27 H :    0.061728   -0.000001
  28 H :    0.058125   -0.000000
  29 H :    0.048969    0.000002
  30 H :    0.067484   -0.000000
  31 C :   -0.283692    0.000042
  32 C :   -0.283398    0.000036
  33 C :   -0.176243    0.000006
  34 H :    0.062122   -0.000001
  35 H :    0.053881    0.000008
  36 H :    0.060522    0.000004
  37 H :    0.058084    0.000002
  38 H :    0.053961    0.000008
  39 H :    0.062023   -0.000001

  Mayer bond orders larger than 0.100000
B(  0-V ,  1-S ) :   0.7671 B(  0-V ,  2-S ) :   0.7773 B(  0-V ,  3-S ) :   0.7606
B(  0-V ,  4-S ) :   0.7844 B(  0-V ,  5-O ) :   2.1510 B(  1-S ,  8-C ) :   1.1350
B(  2-S ,  6-C ) :   1.1030 B(  3-S ,  9-C ) :   1.1378 B(  4-S ,  7-C ) :   1.1033
B(  6-C ,  7-C ) :   1.6843 B(  6-C , 10-S ) :   0.9356 B(  7-C , 11-S ) :   0.9395
B(  8-C ,  9-C ) :   1.6062 B(  8-C , 13-S ) :   1.0090 B(  9-C , 12-S ) :   1.0100
B( 10-S , 14-C ) :   1.2469 B( 11-S , 14-C ) :   1.2469 B( 12-S , 15-C ) :   1.1824
B( 13-S , 15-C ) :   1.1820 B( 14-C , 16-C ) :   1.4529 B( 15-C , 17-C ) :   1.3728
B( 16-C , 18-S ) :   1.0879 B( 16-C , 19-S ) :   1.0892 B( 17-C , 20-S ) :   1.0423
B( 17-C , 21-S ) :   1.0431 B( 18-S , 32-C ) :   0.9917 B( 19-S , 31-C ) :   0.9916
B( 20-S , 23-C ) :   0.9507 B( 21-S , 22-C ) :   0.9497 B( 22-C , 24-C ) :   0.9196
B( 22-C , 25-H ) :   0.9967 B( 22-C , 26-H ) :   0.9511 B( 23-C , 24-C ) :   0.9198
B( 23-C , 29-H ) :   0.9512 B( 23-C , 30-H ) :   0.9964 B( 24-C , 27-H ) :   0.9834
B( 24-C , 28-H ) :   0.9468 B( 31-C , 33-C ) :   0.9138 B( 31-C , 38-H ) :   0.9656
B( 31-C , 39-H ) :   0.9657 B( 32-C , 33-C ) :   0.9132 B( 32-C , 34-H ) :   0.9655
B( 32-C , 35-H ) :   0.9657 B( 33-C , 36-H ) :   0.9721 B( 33-C , 37-H ) :   0.9622

FINAL SINGLE POINT ENERGY     -6337.659052835483

DIPOLE MOMENT
-------------
                                X             Y             Z
Electronic contribution:      7.02804      -9.48880       7.37107
Nuclear contribution   :     -7.13929      10.32180      -8.93540
                        -----------------------------------------
Total Dipole Moment    :     -0.11126       0.83300      -1.56433
                        -----------------------------------------
Magnitude (a.u.)       :      1.77579
Magnitude (Debye)      :      4.51369

Rotational constants in cm-1:     0.010822     0.000804     0.000784
Rotational constants in MHz :   324.439936    24.117953    23.496634

                             ****ORCA TERMINATED NORMALLY****
TOTAL RUN TIME: 0 days 1 hours 6 minutes 33 seconds 934 msec
