                         Program Version 5.0.4 -  RELEASE  -
|  1> ! nofrozencore ReducedPop printbasis
|  2> ! B3LYP TZVP
|  3>
|  4> %basis
|  5> newgto V "CP(PPP)" end
|  6> end
|  7>
|  8> %pal
|  9> nprocs 6
| 10> end
| 11>
| 12> % sym SymThresh 1e-2 end
| 13> * xyz -2 2
| 14> V 0.7081894832525018 0.8532538604375891 0.09583918833601165
| 15> S -0.07701933552656622 1.14599331576949 -2.2316378972881545
| 16> S -1.5363083781504276 1.6596883646374463 0.7578729376227147
| 17> S 2.0839451494241317 -1.0058807798462917 -0.7886721273599386
| 18> S 0.5912584115125612 -0.5545277291109322 2.117933898617404
| 19> O 1.6972653923748262 2.055959084260327 0.41309568322988327
| 20> C -1.5225192716897347 1.1893552520449417 2.451250431558447
| 21> C -0.6687318762202596 0.29616065358715526 2.9968964456997447
| 22> C 1.004803856341642 0.06048461273431518 -3.0946010578210794
| 23> C 1.8630829152253905 -0.7984239063915786 -2.5190066163785025
| 24> S -2.768746098464951 1.8704644088778197 3.5504245638660543
| 25> S -0.9146618601234129 -0.08987313768245271 4.731388876666628
| 26> S 2.8189593411025164 -1.8403300673079928 -3.627088515446794
| 27> S 0.9435103381376175 0.04592811736813318 -4.890497220205985
| 28> C -2.304655919179242 0.9635241314296181 4.990182877379033
| 29> C 2.1096251690546253 -1.2612379444041584 -5.140470127520187
| 30> C -2.956159159921036 1.0733903328243009 6.204176134956702
| 31> C 2.4336072251322616 -1.76096551544908 -6.365352471222329
| 32> S -4.318910901996869 2.1882783393121885 6.4410755488600415
| 33> S -2.450103553102325 0.130639042611988 7.622380328033414
| 34> S 1.6874940904256253 -1.1452180269169747 -7.864287740595775
| 35> S 3.6014416369004723 -3.0961498619562895 -6.560706529562856
| 36> C 2.4358876260239666 -4.364284471636786 -7.298390046520626
| 37> C 0.8250078789796392 -2.7189593463527864 -8.402719499815065
| 38> C 1.779895385505541 -3.878988903298328 -8.571108596921958
| 39> H 1.7777896703308544 -4.569466789238263 -6.445006684173297
| 40> H 3.143944237373494 -5.194988504177909 -7.421353967709489
| 41> H 1.1733010272538127 -4.7201187480586615 -8.938891296596143
| 42> H 2.5268347390485077 -3.6658149444585018 -9.342208620904822
| 43> H 0.3650268507088257 -2.351524719890455 -9.329924445466464
| 44> H 0.055222770495594556 -2.8163345222132654 -7.627385963381004
| 45> C -1.9590583055975905 1.4784305861763678 8.69441965475812
| 46> C -3.578508301449861 3.268350632149433 7.662889764170424
| 47> C -3.0608851599788145 2.5787233183382323 8.993586794466273
| 48> H -2.6063795201736926 3.8889149623669477 7.523406729412789
| 49> H -4.165863175671032 4.102508939478398 8.194047635609516
| 50> H -3.9302487746676023 2.002033767622248 9.351850051851457
| 51> H -2.767483328035178 3.2923535250780183 9.77873017042104
| 52> H -1.6586218606983445 1.319679702134553 9.79246095026856
| 53> H -1.134599654115481 2.262435659324267 8.463817960868724
| 54> *
| 55>
| 56> % eprnmr
| 57> gtensor true
| 58> Nuclei = all H {aiso,adip,aorb,fgrad,rho}
| 59> Nuclei = all V {aiso,adip,aorb,fgrad,rho}
| 60> end
| 61>
| 62>                          ****END OF INPUT****

CARTESIAN COORDINATES (ANGSTROEM)
---------------------------------
  V      0.705254    0.851407    0.097473
  S     -0.079955    1.144146   -2.230004
  S     -1.539244    1.657841    0.759506
  S      2.081009   -1.007728   -0.787039
  S      0.588323   -0.556375    2.119567
  O      1.694330    2.054112    0.414729
  C     -1.525455    1.187508    2.452884
  C     -0.671668    0.294314    2.998530
  C      1.001868    0.058638   -3.092968
  C      1.860147   -0.800271   -2.517373
  S     -2.771682    1.868617    3.552058
  S     -0.917598   -0.091720    4.733022
  S      2.816024   -1.842177   -3.625455
  S      0.940575    0.044081   -4.888864
  C     -2.307592    0.961677    4.991816
  C      2.106689   -1.263085   -5.138837
  C     -2.959095    1.071543    6.205810
  C      2.430671   -1.762813   -6.363719
  S     -4.321847    2.186431    6.442709
  S     -2.453039    0.128792    7.624014
  S      1.684558   -1.147065   -7.862654
  S      3.598506   -3.097997   -6.559073
  C      2.432952   -4.366131   -7.296757
  C      0.822072   -2.720806   -8.401086
  C      1.776960   -3.880836   -8.569475
  H      1.774854   -4.571314   -6.443373
  H      3.141008   -5.196836   -7.419721
  H      1.170365   -4.721966   -8.937258
  H      2.523899   -3.667662   -9.340575
  H      0.362091   -2.353372   -9.328291
  H      0.052287   -2.818182   -7.625753
  C     -1.961994    1.476584    8.696053
  C     -3.581444    3.266504    7.664523
  C     -3.063821    2.576876    8.995220
  H     -2.609315    3.887068    7.525040
  H     -4.168799    4.100662    8.195681
  H     -3.933185    2.000187    9.353483
  H     -2.770419    3.290507    9.780364
  H     -1.661558    1.317833    9.794094
  H     -1.137535    2.260589    8.465451

 Total Charge           Charge          ....   -2
 Multiplicity           Mult            ....    2
 Number of Electrons    NEL             ....  321
 Basis Dimension        Dim             ....  681

ORBITAL ENERGIES
----------------
                 SPIN UP ORBITALS
  NO   OCC          E(Eh)            E(eV)
   0   1.0000    -196.676496     -5351.8395
   1   1.0000     -88.744159     -2414.8513
   2   1.0000     -88.744008     -2414.8472
   3   1.0000     -88.735682     -2414.6207
   4   1.0000     -88.735523     -2414.6163
   5   1.0000     -88.731414     -2414.5045
   6   1.0000     -88.731273     -2414.5007
   7   1.0000     -88.729823     -2414.4612
   8   1.0000     -88.729796     -2414.4605
   9   1.0000     -88.642217     -2412.0773
  10   1.0000     -88.642011     -2412.0718
  11   1.0000     -88.640749     -2412.0374
  12   1.0000     -88.640263     -2412.0242
  13   1.0000     -22.051864      -600.0617
  14   1.0000     -18.891683      -514.0688
  15   1.0000     -18.558304      -504.9971
  16   1.0000     -18.553148      -504.8568
  17   1.0000     -18.553045      -504.8540
  18   1.0000     -10.082755      -274.3657
  19   1.0000     -10.074907      -274.1522
  20   1.0000     -10.068148      -273.9682
  21   1.0000     -10.068114      -273.9673
  22   1.0000     -10.066965      -273.9360
  23   1.0000     -10.066801      -273.9316
  24   1.0000     -10.057417      -273.6762
  25   1.0000     -10.053558      -273.5712
  26   1.0000     -10.048020      -273.4205
  27   1.0000     -10.045086      -273.3407
  28   1.0000     -10.022257      -272.7195
  29   1.0000     -10.021339      -272.6945
  30   1.0000     -10.018181      -272.6086
  31   1.0000     -10.017375      -272.5866
  32   1.0000      -7.797368      -212.1772
  33   1.0000      -7.797239      -212.1736
  34   1.0000      -7.788881      -211.9462
  35   1.0000      -7.788752      -211.9427
  36   1.0000      -7.784970      -211.8398
  37   1.0000      -7.784849      -211.8365
  38   1.0000      -7.783104      -211.7890
  39   1.0000      -7.783080      -211.7884
  40   1.0000      -7.696547      -209.4337
  41   1.0000      -7.696275      -209.4263
  42   1.0000      -7.695007      -209.3918
  43   1.0000      -7.694591      -209.3805
  44   1.0000      -5.762616      -156.8087
  45   1.0000      -5.762484      -156.8052
  46   1.0000      -5.758839      -156.7060
  47   1.0000      -5.758701      -156.7022
  48   1.0000      -5.753789      -156.5686
  49   1.0000      -5.753659      -156.5650
  50   1.0000      -5.752027      -156.5206
  51   1.0000      -5.751902      -156.5172
  52   1.0000      -5.749870      -156.4619
  53   1.0000      -5.749752      -156.4587
  54   1.0000      -5.749324      -156.4471
  55   1.0000      -5.749185      -156.4433
  56   1.0000      -5.748063      -156.4127
  57   1.0000      -5.748035      -156.4120
  58   1.0000      -5.746573      -156.3722
  59   1.0000      -5.746454      -156.3690
  60   1.0000      -5.744819      -156.3245
  61   1.0000      -5.744696      -156.3211
  62   1.0000      -5.743640      -156.2924
  63   1.0000      -5.743620      -156.2919
  64   1.0000      -5.739796      -156.1878
  65   1.0000      -5.739660      -156.1841
  66   1.0000      -5.738883      -156.1629
  67   1.0000      -5.738873      -156.1627
  68   1.0000      -5.661876      -154.0675
  69   1.0000      -5.661633      -154.0609
  70   1.0000      -5.660314      -154.0250
  71   1.0000      -5.659884      -154.0133
  72   1.0000      -5.655165      -153.8849
  73   1.0000      -5.654912      -153.8780
  74   1.0000      -5.653862      -153.8494
  75   1.0000      -5.653691      -153.8447
  76   1.0000      -5.653567      -153.8414
  77   1.0000      -5.653280      -153.8336
  78   1.0000      -5.652335      -153.8079
  79   1.0000      -5.651906      -153.7962
  80   1.0000      -2.445478       -66.5448
  81   1.0000      -1.486719       -40.4557
  82   1.0000      -1.475149       -40.1408
  83   1.0000      -1.474318       -40.1182
  84   1.0000      -0.712543       -19.3893
  85   1.0000      -0.710845       -19.3431
  86   1.0000      -0.688055       -18.7229
  87   1.0000      -0.684009       -18.6128
  88   1.0000      -0.651142       -17.7185
  89   1.0000      -0.633310       -17.2332
  90   1.0000      -0.628752       -17.1092
  91   1.0000      -0.618706       -16.8358
  92   1.0000      -0.618346       -16.8260
  93   1.0000      -0.579080       -15.7576
  94   1.0000      -0.577421       -15.7124
  95   1.0000      -0.574383       -15.6297
  96   1.0000      -0.573585       -15.6080
  97   1.0000      -0.499693       -13.5973
  98   1.0000      -0.496310       -13.5053
  99   1.0000      -0.496011       -13.4971
 100   1.0000      -0.494603       -13.4588
 101   1.0000      -0.482393       -13.1266
 102   1.0000      -0.477745       -13.0001
 103   1.0000      -0.449546       -12.2328
 104   1.0000      -0.433051       -11.7839
 105   1.0000      -0.415632       -11.3099
 106   1.0000      -0.411126       -11.1873
 107   1.0000      -0.359420        -9.7803
 108   1.0000      -0.352610        -9.5950
 109   1.0000      -0.327182        -8.9031
 110   1.0000      -0.324959        -8.8426
 111   1.0000      -0.318389        -8.6638
 112   1.0000      -0.315499        -8.5852
 113   1.0000      -0.305470        -8.3123
 114   1.0000      -0.302132        -8.2214
 115   1.0000      -0.298458        -8.1215
 116   1.0000      -0.270292        -7.3550
 117   1.0000      -0.265487        -7.2243
 118   1.0000      -0.262594        -7.1456
 119   1.0000      -0.254607        -6.9282
 120   1.0000      -0.249434        -6.7874
 121   1.0000      -0.244590        -6.6556
 122   1.0000      -0.232809        -6.3351
 123   1.0000      -0.227697        -6.1959
 124   1.0000      -0.220947        -6.0123
 125   1.0000      -0.219389        -5.9699
 126   1.0000      -0.213010        -5.7963
 127   1.0000      -0.208248        -5.6667
 128   1.0000      -0.199877        -5.4389
 129   1.0000      -0.194119        -5.2822
 130   1.0000      -0.184981        -5.0336
 131   1.0000      -0.183056        -4.9812
 132   1.0000      -0.182855        -4.9757
 133   1.0000      -0.178392        -4.8543
 134   1.0000      -0.160942        -4.3795
 135   1.0000      -0.151321        -4.1177
 136   1.0000      -0.147333        -4.0091
 137   1.0000      -0.139691        -3.8012
 138   1.0000      -0.135412        -3.6848
 139   1.0000      -0.133739        -3.6392
 140   1.0000      -0.126379        -3.4390
 141   1.0000      -0.122680        -3.3383
 142   1.0000      -0.114969        -3.1285
 143   1.0000      -0.111027        -3.0212
 144   1.0000      -0.103053        -2.8042
 145   1.0000      -0.099471        -2.7067
 146   1.0000      -0.098712        -2.6861
 147   1.0000      -0.095602        -2.6015
 148   1.0000      -0.076107        -2.0710
 149   1.0000      -0.069711        -1.8969
 150   1.0000      -0.067250        -1.8300
 151   1.0000      -0.054153        -1.4736
 152   1.0000      -0.047178        -1.2838
 153   1.0000      -0.040759        -1.1091
 154   1.0000      -0.038553        -1.0491
 155   1.0000      -0.032808        -0.8927
 156   1.0000      -0.026544        -0.7223
 157   1.0000      -0.020671        -0.5625
 158   1.0000      -0.017211        -0.4683
 159   1.0000       0.018529         0.5042
 160   1.0000       0.039636         1.0786
 161   0.0000       0.131128         3.5682
 162   0.0000       0.136347         3.7102
 163   0.0000       0.154434         4.2024
 164   0.0000       0.162587         4.4242
 165   0.0000       0.167964         4.5705

                 SPIN DOWN ORBITALS
  NO   OCC          E(Eh)            E(eV)
   0   1.0000    -196.676643     -5351.8435
   1   1.0000     -88.744160     -2414.8514
   2   1.0000     -88.744009     -2414.8472
   3   1.0000     -88.735691     -2414.6209
   4   1.0000     -88.735531     -2414.6166
   5   1.0000     -88.731414     -2414.5045
   6   1.0000     -88.731274     -2414.5007
   7   1.0000     -88.729831     -2414.4615
   8   1.0000     -88.729804     -2414.4607
   9   1.0000     -88.642355     -2412.0811
  10   1.0000     -88.642151     -2412.0756
  11   1.0000     -88.640887     -2412.0412
  12   1.0000     -88.640404     -2412.0280
  13   1.0000     -22.036934      -599.6555
  14   1.0000     -18.895465      -514.1717
  15   1.0000     -18.553037      -504.8538
  16   1.0000     -18.537116      -504.4206
  17   1.0000     -18.536929      -504.4155
  18   1.0000     -10.082748      -274.3655
  19   1.0000     -10.074906      -274.1521
  20   1.0000     -10.068149      -273.9683
  21   1.0000     -10.068114      -273.9673
  22   1.0000     -10.066964      -273.9360
  23   1.0000     -10.066800      -273.9315
  24   1.0000     -10.057417      -273.6762
  25   1.0000     -10.053546      -273.5709
  26   1.0000     -10.048016      -273.4204
  27   1.0000     -10.045085      -273.3407
  28   1.0000     -10.022020      -272.7130
  29   1.0000     -10.021118      -272.6885
  30   1.0000     -10.017967      -272.6027
  31   1.0000     -10.017163      -272.5809
  32   1.0000      -7.797369      -212.1772
  33   1.0000      -7.797239      -212.1737
  34   1.0000      -7.788891      -211.9465
  35   1.0000      -7.788762      -211.9430
  36   1.0000      -7.784971      -211.8398
  37   1.0000      -7.784849      -211.8365
  38   1.0000      -7.783113      -211.7893
  39   1.0000      -7.783089      -211.7886
  40   1.0000      -7.696677      -209.4372
  41   1.0000      -7.696405      -209.4298
  42   1.0000      -7.695136      -209.3953
  43   1.0000      -7.694721      -209.3840
  44   1.0000      -5.762617      -156.8088
  45   1.0000      -5.762485      -156.8052
  46   1.0000      -5.758840      -156.7060
  47   1.0000      -5.758702      -156.7023
  48   1.0000      -5.753800      -156.5688
  49   1.0000      -5.753670      -156.5653
  50   1.0000      -5.752028      -156.5206
  51   1.0000      -5.751903      -156.5172
  52   1.0000      -5.749871      -156.4619
  53   1.0000      -5.749753      -156.4587
  54   1.0000      -5.749338      -156.4474
  55   1.0000      -5.749198      -156.4436
  56   1.0000      -5.748074      -156.4130
  57   1.0000      -5.748046      -156.4123
  58   1.0000      -5.746574      -156.3722
  59   1.0000      -5.746455      -156.3690
  60   1.0000      -5.744828      -156.3247
  61   1.0000      -5.744706      -156.3214
  62   1.0000      -5.743654      -156.2928
  63   1.0000      -5.743634      -156.2922
  64   1.0000      -5.739796      -156.1878
  65   1.0000      -5.739660      -156.1841
  66   1.0000      -5.738889      -156.1631
  67   1.0000      -5.738879      -156.1628
  68   1.0000      -5.662014      -154.0712
  69   1.0000      -5.661773      -154.0647
  70   1.0000      -5.660458      -154.0289
  71   1.0000      -5.660026      -154.0171
  72   1.0000      -5.655547      -153.8953
  73   1.0000      -5.655290      -153.8883
  74   1.0000      -5.654045      -153.8544
  75   1.0000      -5.653948      -153.8518
  76   1.0000      -5.653660      -153.8439
  77   1.0000      -5.653645      -153.8435
  78   1.0000      -5.652442      -153.8108
  79   1.0000      -5.652014      -153.7991
  80   1.0000      -2.400597       -65.3236
  81   1.0000      -1.467425       -39.9307
  82   1.0000      -1.412762       -38.4432
  83   1.0000      -1.412607       -38.4390
  84   1.0000      -0.712509       -19.3884
  85   1.0000      -0.710832       -19.3427
  86   1.0000      -0.688011       -18.7217
  87   1.0000      -0.683952       -18.6113
  88   1.0000      -0.659263       -17.9395
  89   1.0000      -0.633251       -17.2316
  90   1.0000      -0.628685       -17.1074
  91   1.0000      -0.618708       -16.8359
  92   1.0000      -0.618345       -16.8260
  93   1.0000      -0.579051       -15.7568
  94   1.0000      -0.577335       -15.7101
  95   1.0000      -0.574361       -15.6291
  96   1.0000      -0.573522       -15.6063
  97   1.0000      -0.499713       -13.5979
  98   1.0000      -0.496366       -13.5068
  99   1.0000      -0.496037       -13.4979
 100   1.0000      -0.494664       -13.4605
 101   1.0000      -0.482580       -13.1317
 102   1.0000      -0.477969       -13.0062
 103   1.0000      -0.449584       -12.2338
 104   1.0000      -0.433093       -11.7851
 105   1.0000      -0.415645       -11.3103
 106   1.0000      -0.411207       -11.1895
 107   1.0000      -0.359417        -9.7802
 108   1.0000      -0.352588        -9.5944
 109   1.0000      -0.327170        -8.9027
 110   1.0000      -0.324921        -8.8415
 111   1.0000      -0.318388        -8.6638
 112   1.0000      -0.315494        -8.5850
 113   1.0000      -0.305429        -8.3112
 114   1.0000      -0.302130        -8.2214
 115   1.0000      -0.298404        -8.1200
 116   1.0000      -0.270200        -7.3525
 117   1.0000      -0.265459        -7.2235
 118   1.0000      -0.262517        -7.1435
 119   1.0000      -0.254517        -6.9258
 120   1.0000      -0.249432        -6.7874
 121   1.0000      -0.244573        -6.6552
 122   1.0000      -0.232701        -6.3321
 123   1.0000      -0.227615        -6.1937
 124   1.0000      -0.220535        -6.0011
 125   1.0000      -0.219291        -5.9672
 126   1.0000      -0.212804        -5.7907
 127   1.0000      -0.208239        -5.6665
 128   1.0000      -0.199642        -5.4325
 129   1.0000      -0.192339        -5.2338
 130   1.0000      -0.184735        -5.0269
 131   1.0000      -0.182967        -4.9788
 132   1.0000      -0.182753        -4.9730
 133   1.0000      -0.178272        -4.8510
 134   1.0000      -0.160340        -4.3631
 135   1.0000      -0.151182        -4.1139
 136   1.0000      -0.147260        -4.0072
 137   1.0000      -0.139189        -3.7875
 138   1.0000      -0.135185        -3.6786
 139   1.0000      -0.133235        -3.6255
 140   1.0000      -0.125794        -3.4230
 141   1.0000      -0.122360        -3.3296
 142   1.0000      -0.116711        -3.1759
 143   1.0000      -0.112584        -3.0636
 144   1.0000      -0.103199        -2.8082
 145   1.0000      -0.099618        -2.7108
 146   1.0000      -0.098927        -2.6919
 147   1.0000      -0.095770        -2.6060
 148   1.0000      -0.072280        -1.9668
 149   1.0000      -0.069710        -1.8969
 150   1.0000      -0.067242        -1.8297
 151   1.0000      -0.051597        -1.4040
 152   1.0000      -0.046236        -1.2581
 153   1.0000      -0.040863        -1.1119
 154   1.0000      -0.037949        -1.0326
 155   1.0000      -0.032794        -0.8924
 156   1.0000      -0.027580        -0.7505
 157   1.0000      -0.017420        -0.4740
 158   1.0000       0.018780         0.5110
 159   1.0000       0.038557         1.0492
 160   0.0000       0.131108         3.5676
 161   0.0000       0.136332         3.7098
 162   0.0000       0.152676         4.1545
 163   0.0000       0.156870         4.2687
 164   0.0000       0.163155         4.4397

MULLIKEN ATOMIC CHARGES AND SPIN POPULATIONS
--------------------------------------------
   0 V :    0.470533    1.210792
   1 S :   -0.291453   -0.022798
   2 S :   -0.285527   -0.024793
   3 S :   -0.289586   -0.023726
   4 S :   -0.281301   -0.025307
   5 O :   -0.466328   -0.146886
   6 C :   -0.079701    0.009579
   7 C :   -0.086607    0.007939
   8 C :   -0.082929    0.007783
   9 C :   -0.083513    0.007424
  10 S :    0.113235   -0.000621
  11 S :    0.115146   -0.000651
  12 S :    0.096229   -0.000398
  13 S :    0.095306   -0.000352
  14 C :   -0.214931    0.001540
  15 C :   -0.204691    0.001006
  16 C :   -0.198788    0.000042
  17 C :   -0.198909   -0.000414
  18 S :    0.060548   -0.000101
  19 S :    0.060273   -0.000100
  20 S :   -0.009479   -0.000069
  21 S :   -0.009493   -0.000072
  22 C :   -0.313398   -0.000003
  23 C :   -0.312395   -0.000004
  24 C :   -0.117885   -0.000010
  25 H :    0.156219   -0.000001
  26 H :    0.114594   -0.000005
  27 H :    0.083371   -0.000001
  28 H :    0.098059   -0.000002
  29 H :    0.114173   -0.000005
  30 H :    0.155645   -0.000001
  31 C :   -0.259014    0.000159
  32 C :   -0.259344    0.000157
  33 C :   -0.259451   -0.000189
  34 H :    0.100904   -0.000012
  35 H :    0.095012    0.000034
  36 H :    0.084854    0.000034
  37 H :    0.094198    0.000009
  38 H :    0.095205    0.000035
  39 H :    0.101216   -0.000012
Sum of atomic charges         :   -2.0000000

LOEWDIN ATOMIC CHARGES AND SPIN POPULATIONS
-------------------------------------------
   0 V :   -0.155645    1.164167
   1 S :    0.079740   -0.014747
   2 S :    0.082101   -0.015745
   3 S :    0.081063   -0.015535
   4 S :    0.086007   -0.016007
   5 O :   -0.318047   -0.131796
   6 C :   -0.549487    0.008975
   7 C :   -0.551651    0.007877
   8 C :   -0.552105    0.008140
   9 C :   -0.552102    0.007676
  10 S :    0.484151   -0.000939
  11 S :    0.485382   -0.000976
  12 S :    0.467883   -0.000825
  13 S :    0.467092   -0.000831
  14 C :   -0.459555    0.000249
  15 C :   -0.466587   -0.000076
  16 C :   -0.624755    0.000505
  17 C :   -0.621610    0.000084
  18 S :    0.408351   -0.000077
  19 S :    0.409127   -0.000074
  20 S :    0.343115   -0.000074
  21 S :    0.342616   -0.000077
  22 C :   -0.273140   -0.000008
  23 C :   -0.273225   -0.000009
  24 C :   -0.174140   -0.000002
  25 H :    0.068542   -0.000001
  26 H :    0.054727   -0.000003
  27 H :    0.060228   -0.000002
  28 H :    0.066010   -0.000001
  29 H :    0.054645   -0.000003
  30 H :    0.068320   -0.000001
  31 C :   -0.345200    0.000047
  32 C :   -0.345504    0.000041
  33 C :   -0.198075    0.000009
  34 H :    0.060629   -0.000002
  35 H :    0.064749    0.000017
  36 H :    0.045312    0.000005
  37 H :    0.056052    0.000003
  38 H :    0.064621    0.000017
  39 H :    0.060364   -0.000002

  Mayer bond orders larger than 0.100000
B(  0-V ,  1-S ) :   0.7751 B(  0-V ,  2-S ) :   0.7670 B(  0-V ,  3-S ) :   0.7684
B(  0-V ,  4-S ) :   0.7743 B(  0-V ,  5-O ) :   2.1502 B(  1-S ,  8-C ) :   1.1017
B(  2-S ,  6-C ) :   1.1095 B(  3-S ,  9-C ) :   1.1044 B(  4-S ,  7-C ) :   1.1099
B(  6-C ,  7-C ) :   1.6702 B(  6-C , 10-S ) :   0.9390 B(  7-C , 11-S ) :   0.9428
B(  8-C ,  9-C ) :   1.7031 B(  8-C , 13-S ) :   0.9328 B(  9-C , 12-S ) :   0.9347
B( 10-S , 14-C ) :   1.2647 B( 11-S , 14-C ) :   1.2651 B( 12-S , 15-C ) :   1.2407
B( 13-S , 15-C ) :   1.2408 B( 14-C , 16-C ) :   1.4024 B( 15-C , 17-C ) :   1.4653
B( 16-C , 18-S ) :   1.0775 B( 16-C , 19-S ) :   1.0789 B( 17-C , 20-S ) :   1.0943
B( 17-C , 21-S ) :   1.0952 B( 18-S , 32-C ) :   0.9988 B( 19-S , 31-C ) :   0.9988
B( 20-S , 23-C ) :   0.9834 B( 21-S , 22-C ) :   0.9825 B( 22-C , 24-C ) :   0.9194
B( 22-C , 25-H ) :   0.9662 B( 22-C , 26-H ) :   0.9676 B( 23-C , 24-C ) :   0.9200
B( 23-C , 29-H ) :   0.9676 B( 23-C , 30-H ) :   0.9661 B( 24-C , 27-H ) :   0.9632
B( 24-C , 28-H ) :   0.9658 B( 31-C , 33-C ) :   0.8825 B( 31-C , 38-H ) :   0.9590
B( 31-C , 39-H ) :   0.9562 B( 32-C , 33-C ) :   0.8822 B( 32-C , 34-H ) :   0.9561
B( 32-C , 35-H ) :   0.9588 B( 33-C , 36-H ) :   0.9766 B( 33-C , 37-H ) :   0.9597

FINAL SINGLE POINT ENERGY     -6337.639630675976

DIPOLE MOMENT
-------------
                                X             Y             Z
Electronic contribution:      9.01234       8.53528      -3.68537
Nuclear contribution   :    -10.03257      -9.95783       3.34704
                        -----------------------------------------
Total Dipole Moment    :     -1.02024      -1.42255      -0.33833
                        -----------------------------------------
Magnitude (a.u.)       :      1.78297
Magnitude (Debye)      :      4.53195

Rotational constants in cm-1:     0.010760     0.000804     0.000783
Rotational constants in MHz :   322.571880    24.114359    23.486036

                             ****ORCA TERMINATED NORMALLY****
TOTAL RUN TIME: 0 days 1 hours 6 minutes 16 seconds 753 msec
