                         Program Version 5.0.4 -  RELEASE  -
|  1> ! nofrozencore ReducedPop printbasis
|  2> ! B3LYP TZVP
|  3>
|  4> %basis
|  5> newgto V "CP(PPP)" end
|  6> end
|  7>
|  8> %pal
|  9> nprocs 6
| 10> end
| 11>
| 12> % sym SymThresh 1e-2 end
| 13> * xyz -2 2
| 14> V -0.6960576836069635 -0.9318505632735007 -0.1044729741012858
| 15> S -1.386716606632388 0.02010899987245646 2.1229936361513393
| 16> S -1.77189157281526 1.0662877803723305 -1.1843608376187191
| 17> S 1.2978775092695651 -1.7165560854970954 1.2144444531106067
| 18> S 0.9100010099973583 -0.5876676862238714 -1.9930363401308242
| 19> O -1.6145126201865858 -2.191860581452567 -0.4265191829703095
| 20> C -1.1605427541042448 0.9830341722047257 -2.8252791360497294
| 21> C -0.050064019867251744 0.3022695874660354 -3.158442984555182
| 22> C -0.19801683346762924 -0.6232177634891044 3.242379986479853
| 23> C 0.88908816031037 -1.3226830253991684 2.8737690200762174
| 24> S -1.93710131216017 1.9541901108516144 -4.119860635039261
| 25> S 0.5282506541604773 0.4607104622765569 -4.848230316207445
| 26> S 1.914636151837577 -1.9862660700800432 4.192076612275995
| 27> S -0.490229005948994 -0.44971733107879797 5.008134833791381
| 28> C -0.7433517517617992 1.5641628380729817 -5.347128632891222
| 29> C 0.971268186654656 -1.2910986862434963 5.499879489155185
| 30> C -0.8211963788218616 2.044415062836793 -6.609585548504301
| 31> C 1.3624910798570609 -1.3671180075959892 6.794135266418878
| 32> S -2.2261553316906544 3.0433430186254125 -7.047697628994893
| 33> S 0.40724850707630156 1.5151901691867784 -7.781958009541228
| 34> S 0.37337214336856256 -0.5547024667202186 8.029703041024298
| 35> S 2.9133063201525133 -2.156103452369404 7.167502122678315
| 36> C 3.747372188112026 -0.6903784478194245 7.915278895155176
| 37> C 1.661557650183095 0.621652819318253 8.62983405564555
| 38> C 2.9439364410973625 -0.09070382168901492 9.075102114384444
| 39> H 3.9154233313897944 0.05500739481907498 7.131449431165636
| 40> H 4.720217220624479 -1.04688296401676 8.263959020864613
| 41> H 3.584770084852359 0.6421864782796594 9.60163842250813
| 42> H 2.6913784781064365 -0.8860765046048783 9.796060640810962
| 43> H 1.2076481639971248 1.1563166885819847 9.468286714450041
| 44> H 1.8741438533384454 1.3445770495475589 7.835923777567882
| 45> C -0.736849065932425 0.6852758955580173 -8.96562806647508
| 46> C -2.896673298121577 1.9307359749006185 -8.356886973797362
| 47> C -1.858033214710087 1.6169419489902048 -9.440703383680468
| 48> H -3.2582317557687 1.010369813342861 -7.886649056953906
| 49> H -3.753811531836325 2.456663416640719 -8.785920776401628
| 50> H -1.420257175070925 2.559626086542471 -9.813513902735647
| 51> H -2.3767336729767528 1.1327188350028075 -10.291837650860623
| 52> H -0.11634810362492866 0.36865937985701436 -9.808159016581262
| 53> H -1.1501300243287977 -0.20898241604138929 -8.48771140287215
| 54> *
| 55>
| 56> % eprnmr
| 57> gtensor true
| 58> Nuclei = all H {aiso,adip,aorb,fgrad,rho}
| 59> Nuclei = all V {aiso,adip,aorb,fgrad,rho}
| 60> end
| 61>
| 62>                          ****END OF INPUT****

CARTESIAN COORDINATES (ANGSTROEM)
---------------------------------
  V     -0.694663   -0.928754   -0.106251
  S     -1.385322    0.023206    2.121216
  S     -1.770497    1.069385   -1.186139
  S      1.299272   -1.713459    1.212666
  S      0.911395   -0.584571   -1.994814
  O     -1.613118   -2.188764   -0.428297
  C     -1.159148    0.986131   -2.827057
  C     -0.048670    0.305367   -3.160221
  C     -0.196622   -0.620121    3.240602
  C      0.890483   -1.319586    2.871991
  S     -1.935707    1.957287   -4.121639
  S      0.529645    0.463807   -4.850008
  S      1.916031   -1.983169    4.190299
  S     -0.488835   -0.446620    5.006357
  C     -0.741957    1.567260   -5.348907
  C      0.972663   -1.288002    5.498101
  C     -0.819802    2.047512   -6.611364
  C      1.363886   -1.364021    6.792357
  S     -2.224761    3.046440   -7.049476
  S      0.408643    1.518287   -7.783736
  S      0.374767   -0.551605    8.027925
  S      2.914701   -2.153006    7.165724
  C      3.748767   -0.687281    7.913501
  C      1.662952    0.624750    8.628056
  C      2.945331   -0.087607    9.073324
  H      3.916818    0.058104    7.129671
  H      4.721612   -1.043786    8.262181
  H      3.586165    0.645284    9.599860
  H      2.692773   -0.882979    9.794283
  H      1.209043    1.159414    9.466509
  H      1.875538    1.347674    7.834146
  C     -0.735455    0.688373   -8.967406
  C     -2.895279    1.933833   -8.358665
  C     -1.856639    1.620039   -9.442481
  H     -3.256837    1.013467   -7.888427
  H     -3.752417    2.459760   -8.787699
  H     -1.418863    2.562723   -9.815292
  H     -2.375339    1.135816  -10.293616
  H     -0.114954    0.371756   -9.809937
  H     -1.148736   -0.205885   -8.489490

 Total Charge           Charge          ....   -2
 Multiplicity           Mult            ....    2
 Number of Electrons    NEL             ....  321
 Basis Dimension        Dim             ....  681

ORBITAL ENERGIES
----------------
                 SPIN UP ORBITALS
  NO   OCC          E(Eh)            E(eV)
   0   1.0000    -196.678451     -5351.8927
   1   1.0000     -88.735401     -2414.6130
   2   1.0000     -88.735389     -2414.6127
   3   1.0000     -88.734814     -2414.5971
   4   1.0000     -88.734724     -2414.5946
   5   1.0000     -88.727971     -2414.4108
   6   1.0000     -88.727753     -2414.4049
   7   1.0000     -88.727238     -2414.3909
   8   1.0000     -88.727155     -2414.3886
   9   1.0000     -88.636291     -2411.9161
  10   1.0000     -88.636018     -2411.9087
  11   1.0000     -88.635772     -2411.9020
  12   1.0000     -88.635484     -2411.8941
  13   1.0000     -22.053216      -600.0985
  14   1.0000     -18.890955      -514.0490
  15   1.0000     -18.559713      -505.0355
  16   1.0000     -18.554547      -504.8949
  17   1.0000     -18.554399      -504.8909
  18   1.0000     -10.069020      -273.9920
  19   1.0000     -10.068991      -273.9912
  20   1.0000     -10.064860      -273.8788
  21   1.0000     -10.064813      -273.8775
  22   1.0000     -10.064164      -273.8598
  23   1.0000     -10.064104      -273.8582
  24   1.0000     -10.053561      -273.5713
  25   1.0000     -10.052814      -273.5510
  26   1.0000     -10.045000      -273.3384
  27   1.0000     -10.044631      -273.3283
  28   1.0000     -10.013570      -272.4831
  29   1.0000     -10.012783      -272.4617
  30   1.0000     -10.012766      -272.4612
  31   1.0000     -10.011819      -272.4354
  32   1.0000      -7.789028      -211.9502
  33   1.0000      -7.789021      -211.9500
  34   1.0000      -7.788432      -211.9340
  35   1.0000      -7.788337      -211.9314
  36   1.0000      -7.781512      -211.7457
  37   1.0000      -7.781319      -211.7405
  38   1.0000      -7.780769      -211.7255
  39   1.0000      -7.780725      -211.7243
  40   1.0000      -7.690376      -209.2658
  41   1.0000      -7.690157      -209.2598
  42   1.0000      -7.689959      -209.2544
  43   1.0000      -7.689637      -209.2457
  44   1.0000      -5.754012      -156.5746
  45   1.0000      -5.754005      -156.5744
  46   1.0000      -5.753434      -156.5589
  47   1.0000      -5.753334      -156.5562
  48   1.0000      -5.750572      -156.4810
  49   1.0000      -5.750555      -156.4806
  50   1.0000      -5.749954      -156.4642
  51   1.0000      -5.749867      -156.4618
  52   1.0000      -5.746356      -156.3663
  53   1.0000      -5.746163      -156.3611
  54   1.0000      -5.745653      -156.3472
  55   1.0000      -5.745609      -156.3460
  56   1.0000      -5.743832      -156.2976
  57   1.0000      -5.743820      -156.2973
  58   1.0000      -5.743232      -156.2813
  59   1.0000      -5.743138      -156.2787
  60   1.0000      -5.742110      -156.2508
  61   1.0000      -5.741916      -156.2455
  62   1.0000      -5.741360      -156.2303
  63   1.0000      -5.741308      -156.2289
  64   1.0000      -5.737297      -156.1198
  65   1.0000      -5.737097      -156.1143
  66   1.0000      -5.736521      -156.0987
  67   1.0000      -5.736476      -156.0975
  68   1.0000      -5.655623      -153.8973
  69   1.0000      -5.655387      -153.8909
  70   1.0000      -5.655161      -153.8848
  71   1.0000      -5.654853      -153.8764
  72   1.0000      -5.649096      -153.7197
  73   1.0000      -5.648883      -153.7139
  74   1.0000      -5.648683      -153.7085
  75   1.0000      -5.648380      -153.7002
  76   1.0000      -5.647775      -153.6838
  77   1.0000      -5.647558      -153.6779
  78   1.0000      -5.647342      -153.6720
  79   1.0000      -5.646993      -153.6625
  80   1.0000      -2.445923       -66.5569
  81   1.0000      -1.486754       -40.4566
  82   1.0000      -1.475462       -40.1494
  83   1.0000      -1.474260       -40.1167
  84   1.0000      -0.714404       -19.4399
  85   1.0000      -0.713341       -19.4110
  86   1.0000      -0.685834       -18.6625
  87   1.0000      -0.685127       -18.6433
  88   1.0000      -0.650371       -17.6975
  89   1.0000      -0.631254       -17.1773
  90   1.0000      -0.630556       -17.1583
  91   1.0000      -0.622372       -16.9356
  92   1.0000      -0.621355       -16.9079
  93   1.0000      -0.574913       -15.6442
  94   1.0000      -0.574152       -15.6235
  95   1.0000      -0.569851       -15.5064
  96   1.0000      -0.568870       -15.4797
  97   1.0000      -0.498356       -13.5610
  98   1.0000      -0.497766       -13.5449
  99   1.0000      -0.495668       -13.4878
 100   1.0000      -0.494192       -13.4477
 101   1.0000      -0.476096       -12.9552
 102   1.0000      -0.473879       -12.8949
 103   1.0000      -0.445752       -12.1295
 104   1.0000      -0.444214       -12.0877
 105   1.0000      -0.412495       -11.2246
 106   1.0000      -0.407825       -11.0975
 107   1.0000      -0.354241        -9.6394
 108   1.0000      -0.353843        -9.6286
 109   1.0000      -0.327164        -8.9026
 110   1.0000      -0.326583        -8.8868
 111   1.0000      -0.318334        -8.6623
 112   1.0000      -0.314976        -8.5709
 113   1.0000      -0.299999        -8.1634
 114   1.0000      -0.299326        -8.1451
 115   1.0000      -0.292869        -7.9694
 116   1.0000      -0.292188        -7.9509
 117   1.0000      -0.257363        -7.0032
 118   1.0000      -0.256623        -6.9831
 119   1.0000      -0.255576        -6.9546
 120   1.0000      -0.254569        -6.9272
 121   1.0000      -0.235461        -6.4072
 122   1.0000      -0.234827        -6.3900
 123   1.0000      -0.234436        -6.3793
 124   1.0000      -0.233055        -6.3418
 125   1.0000      -0.220388        -5.9971
 126   1.0000      -0.219224        -5.9654
 127   1.0000      -0.214025        -5.8239
 128   1.0000      -0.210083        -5.7166
 129   1.0000      -0.190078        -5.1723
 130   1.0000      -0.186563        -5.0766
 131   1.0000      -0.185345        -5.0435
 132   1.0000      -0.182602        -4.9688
 133   1.0000      -0.182169        -4.9571
 134   1.0000      -0.158106        -4.3023
 135   1.0000      -0.151922        -4.1340
 136   1.0000      -0.148227        -4.0335
 137   1.0000      -0.135535        -3.6881
 138   1.0000      -0.134007        -3.6465
 139   1.0000      -0.133717        -3.6386
 140   1.0000      -0.125794        -3.4230
 141   1.0000      -0.122911        -3.3446
 142   1.0000      -0.111488        -3.0338
 143   1.0000      -0.109298        -2.9742
 144   1.0000      -0.099083        -2.6962
 145   1.0000      -0.097967        -2.6658
 146   1.0000      -0.092942        -2.5291
 147   1.0000      -0.090818        -2.4713
 148   1.0000      -0.073196        -1.9918
 149   1.0000      -0.071739        -1.9521
 150   1.0000      -0.069591        -1.8937
 151   1.0000      -0.044373        -1.2075
 152   1.0000      -0.043397        -1.1809
 153   1.0000      -0.034093        -0.9277
 154   1.0000      -0.029675        -0.8075
 155   1.0000      -0.027760        -0.7554
 156   1.0000      -0.020584        -0.5601
 157   1.0000      -0.018818        -0.5121
 158   1.0000      -0.009778        -0.2661
 159   1.0000       0.024149         0.6571
 160   1.0000       0.043732         1.1900
 161   0.0000       0.137798         3.7497
 162   0.0000       0.139200         3.7878
 163   0.0000       0.160044         4.3550
 164   0.0000       0.160126         4.3572
 165   0.0000       0.167414         4.5556

                 SPIN DOWN ORBITALS
  NO   OCC          E(Eh)            E(eV)
   0   1.0000    -196.678594     -5351.8966
   1   1.0000     -88.735402     -2414.6130
   2   1.0000     -88.735390     -2414.6127
   3   1.0000     -88.734815     -2414.5971
   4   1.0000     -88.734724     -2414.5946
   5   1.0000     -88.727982     -2414.4111
   6   1.0000     -88.727764     -2414.4052
   7   1.0000     -88.727248     -2414.3912
   8   1.0000     -88.727164     -2414.3889
   9   1.0000     -88.636429     -2411.9199
  10   1.0000     -88.636158     -2411.9125
  11   1.0000     -88.635919     -2411.9060
  12   1.0000     -88.635632     -2411.8982
  13   1.0000     -22.038067      -599.6863
  14   1.0000     -18.894792      -514.1534
  15   1.0000     -18.554316      -504.8886
  16   1.0000     -18.538541      -504.4594
  17   1.0000     -18.537840      -504.4403
  18   1.0000     -10.069022      -273.9920
  19   1.0000     -10.068990      -273.9912
  20   1.0000     -10.064859      -273.8787
  21   1.0000     -10.064812      -273.8775
  22   1.0000     -10.064165      -273.8598
  23   1.0000     -10.064104      -273.8582
  24   1.0000     -10.053561      -273.5713
  25   1.0000     -10.052814      -273.5510
  26   1.0000     -10.044997      -273.3383
  27   1.0000     -10.044623      -273.3281
  28   1.0000     -10.013394      -272.4783
  29   1.0000     -10.012592      -272.4565
  30   1.0000     -10.012589      -272.4564
  31   1.0000     -10.011637      -272.4305
  32   1.0000      -7.789029      -211.9502
  33   1.0000      -7.789022      -211.9501
  34   1.0000      -7.788432      -211.9340
  35   1.0000      -7.788338      -211.9314
  36   1.0000      -7.781524      -211.7460
  37   1.0000      -7.781332      -211.7408
  38   1.0000      -7.780780      -211.7258
  39   1.0000      -7.780736      -211.7246
  40   1.0000      -7.690505      -209.2693
  41   1.0000      -7.690288      -209.2634
  42   1.0000      -7.690097      -209.2582
  43   1.0000      -7.689776      -209.2494
  44   1.0000      -5.754013      -156.5747
  45   1.0000      -5.754006      -156.5745
  46   1.0000      -5.753435      -156.5589
  47   1.0000      -5.753335      -156.5562
  48   1.0000      -5.750573      -156.4811
  49   1.0000      -5.750556      -156.4806
  50   1.0000      -5.749955      -156.4642
  51   1.0000      -5.749868      -156.4619
  52   1.0000      -5.746371      -156.3667
  53   1.0000      -5.746179      -156.3615
  54   1.0000      -5.745668      -156.3476
  55   1.0000      -5.745623      -156.3463
  56   1.0000      -5.743833      -156.2976
  57   1.0000      -5.743821      -156.2973
  58   1.0000      -5.743233      -156.2813
  59   1.0000      -5.743139      -156.2788
  60   1.0000      -5.742128      -156.2512
  61   1.0000      -5.741933      -156.2459
  62   1.0000      -5.741376      -156.2308
  63   1.0000      -5.741324      -156.2294
  64   1.0000      -5.737307      -156.1201
  65   1.0000      -5.737108      -156.1146
  66   1.0000      -5.736528      -156.0989
  67   1.0000      -5.736484      -156.0977
  68   1.0000      -5.655762      -153.9011
  69   1.0000      -5.655527      -153.8947
  70   1.0000      -5.655301      -153.8886
  71   1.0000      -5.654995      -153.8802
  72   1.0000      -5.649461      -153.7297
  73   1.0000      -5.649257      -153.7241
  74   1.0000      -5.649101      -153.7199
  75   1.0000      -5.648792      -153.7115
  76   1.0000      -5.647875      -153.6865
  77   1.0000      -5.647657      -153.6806
  78   1.0000      -5.647425      -153.6742
  79   1.0000      -5.647084      -153.6650
  80   1.0000      -2.400448       -65.3195
  81   1.0000      -1.466948       -39.9177
  82   1.0000      -1.412502       -38.4361
  83   1.0000      -1.411771       -38.4162
  84   1.0000      -0.714393       -19.4396
  85   1.0000      -0.713337       -19.4109
  86   1.0000      -0.685801       -18.6616
  87   1.0000      -0.685103       -18.6426
  88   1.0000      -0.658633       -17.9223
  89   1.0000      -0.631199       -17.1758
  90   1.0000      -0.630512       -17.1571
  91   1.0000      -0.622374       -16.9356
  92   1.0000      -0.621358       -16.9080
  93   1.0000      -0.574931       -15.6447
  94   1.0000      -0.574167       -15.6239
  95   1.0000      -0.569836       -15.5060
  96   1.0000      -0.568857       -15.4794
  97   1.0000      -0.498403       -13.5622
  98   1.0000      -0.497813       -13.5462
  99   1.0000      -0.495725       -13.4894
 100   1.0000      -0.494254       -13.4493
 101   1.0000      -0.476377       -12.9629
 102   1.0000      -0.474222       -12.9042
 103   1.0000      -0.445794       -12.1307
 104   1.0000      -0.444273       -12.0893
 105   1.0000      -0.412533       -11.2256
 106   1.0000      -0.407964       -11.1013
 107   1.0000      -0.354237        -9.6393
 108   1.0000      -0.353843        -9.6286
 109   1.0000      -0.327157        -8.9024
 110   1.0000      -0.326580        -8.8867
 111   1.0000      -0.318331        -8.6622
 112   1.0000      -0.315051        -8.5730
 113   1.0000      -0.299969        -8.1626
 114   1.0000      -0.299319        -8.1449
 115   1.0000      -0.292867        -7.9693
 116   1.0000      -0.292189        -7.9509
 117   1.0000      -0.257300        -7.0015
 118   1.0000      -0.256493        -6.9795
 119   1.0000      -0.255554        -6.9540
 120   1.0000      -0.254549        -6.9266
 121   1.0000      -0.235413        -6.4059
 122   1.0000      -0.234819        -6.3898
 123   1.0000      -0.234391        -6.3781
 124   1.0000      -0.233030        -6.3411
 125   1.0000      -0.220322        -5.9953
 126   1.0000      -0.219189        -5.9644
 127   1.0000      -0.213860        -5.8194
 128   1.0000      -0.209987        -5.7140
 129   1.0000      -0.189146        -5.1469
 130   1.0000      -0.186514        -5.0753
 131   1.0000      -0.185200        -5.0395
 132   1.0000      -0.182113        -4.9556
 133   1.0000      -0.181562        -4.9405
 134   1.0000      -0.157549        -4.2871
 135   1.0000      -0.151752        -4.1294
 136   1.0000      -0.148166        -4.0318
 137   1.0000      -0.134984        -3.6731
 138   1.0000      -0.133753        -3.6396
 139   1.0000      -0.133417        -3.6305
 140   1.0000      -0.125150        -3.4055
 141   1.0000      -0.122596        -3.3360
 142   1.0000      -0.113620        -3.0917
 143   1.0000      -0.111160        -3.0248
 144   1.0000      -0.099098        -2.6966
 145   1.0000      -0.098206        -2.6723
 146   1.0000      -0.092819        -2.5257
 147   1.0000      -0.090984        -2.4758
 148   1.0000      -0.073200        -1.9919
 149   1.0000      -0.071726        -1.9518
 150   1.0000      -0.064996        -1.7686
 151   1.0000      -0.043812        -1.1922
 152   1.0000      -0.040989        -1.1154
 153   1.0000      -0.034135        -0.9288
 154   1.0000      -0.029255        -0.7961
 155   1.0000      -0.027285        -0.7425
 156   1.0000      -0.021482        -0.5846
 157   1.0000      -0.009826        -0.2674
 158   1.0000       0.024663         0.6711
 159   1.0000       0.042405         1.1539
 160   0.0000       0.137816         3.7502
 161   0.0000       0.139195         3.7877
 162   0.0000       0.156701         4.2640
 163   0.0000       0.160174         4.3586
 164   0.0000       0.162449         4.4205

MULLIKEN ATOMIC CHARGES AND SPIN POPULATIONS
--------------------------------------------
   0 V :    0.507161    1.218519
   1 S :   -0.304356   -0.021644
   2 S :   -0.297342   -0.025630
   3 S :   -0.301105   -0.022441
   4 S :   -0.292191   -0.026140
   5 O :   -0.482511   -0.147838
   6 C :   -0.084390    0.008118
   7 C :   -0.089247    0.006924
   8 C :   -0.088989    0.006066
   9 C :   -0.090088    0.005936
  10 S :    0.098693   -0.000939
  11 S :    0.099912   -0.000958
  12 S :    0.098015   -0.000632
  13 S :    0.097224   -0.000615
  14 C :   -0.262783    0.000932
  15 C :   -0.251117    0.000535
  16 C :   -0.119130    0.000247
  17 C :   -0.127706   -0.000161
  18 S :    0.005964   -0.000116
  19 S :    0.006200   -0.000114
  20 S :    0.005572   -0.000090
  21 S :    0.005750   -0.000091
  22 C :   -0.299990    0.000007
  23 C :   -0.299672    0.000006
  24 C :   -0.167183   -0.000024
  25 H :    0.144058   -0.000002
  26 H :    0.115482   -0.000003
  27 H :    0.084079    0.000001
  28 H :    0.098552    0.000001
  29 H :    0.115160   -0.000003
  30 H :    0.143694   -0.000002
  31 C :   -0.298510    0.000168
  32 C :   -0.298349    0.000163
  33 C :   -0.169539   -0.000213
  34 H :    0.142847   -0.000015
  35 H :    0.115341    0.000018
  36 H :    0.099471    0.000021
  37 H :    0.082988    0.000006
  38 H :    0.115244    0.000019
  39 H :    0.142791   -0.000016
Sum of atomic charges         :   -2.0000000

LOEWDIN ATOMIC CHARGES AND SPIN POPULATIONS
-------------------------------------------
   0 V :   -0.115247    1.176213
   1 S :    0.064841   -0.015036
   2 S :    0.069195   -0.017274
   3 S :    0.067873   -0.015636
   4 S :    0.073665   -0.017487
   5 O :   -0.325217   -0.133096
   6 C :   -0.555794    0.007421
   7 C :   -0.557854    0.006501
   8 C :   -0.554913    0.006592
   9 C :   -0.554963    0.006391
  10 S :    0.470893   -0.001230
  11 S :    0.471423   -0.001261
  12 S :    0.469668   -0.001042
  13 S :    0.468754   -0.001055
  14 C :   -0.473245    0.000000
  15 C :   -0.474624   -0.000176
  16 C :   -0.622282    0.000386
  17 C :   -0.621158    0.000103
  18 S :    0.371247   -0.000098
  19 S :    0.372911   -0.000095
  20 S :    0.370205   -0.000091
  21 S :    0.369780   -0.000092
  22 C :   -0.282670   -0.000006
  23 C :   -0.282817   -0.000007
  24 C :   -0.178996   -0.000000
  25 H :    0.063055   -0.000002
  26 H :    0.053217   -0.000002
  27 H :    0.058119   -0.000002
  28 H :    0.062719   -0.000000
  29 H :    0.053182   -0.000002
  30 H :    0.062851   -0.000002
  31 C :   -0.283475    0.000035
  32 C :   -0.283094    0.000030
  33 C :   -0.179732    0.000004
  34 H :    0.062648   -0.000001
  35 H :    0.053059    0.000007
  36 H :    0.063092    0.000004
  37 H :    0.058037    0.000000
  38 H :    0.053183    0.000007
  39 H :    0.062465   -0.000001

  Mayer bond orders larger than 0.100000
B(  0-V ,  1-S ) :   0.7567 B(  0-V ,  2-S ) :   0.7645 B(  0-V ,  3-S ) :   0.7546
B(  0-V ,  4-S ) :   0.7733 B(  0-V ,  5-O ) :   2.1372 B(  1-S ,  8-C ) :   1.1011
B(  2-S ,  6-C ) :   1.1067 B(  3-S ,  9-C ) :   1.1025 B(  4-S ,  7-C ) :   1.1058
B(  6-C ,  7-C ) :   1.6828 B(  6-C , 10-S ) :   0.9360 B(  7-C , 11-S ) :   0.9395
B(  8-C ,  9-C ) :   1.7026 B(  8-C , 13-S ) :   0.9339 B(  9-C , 12-S ) :   0.9356
B( 10-S , 14-C ) :   1.2587 B( 11-S , 14-C ) :   1.2587 B( 12-S , 15-C ) :   1.2534
B( 13-S , 15-C ) :   1.2533 B( 14-C , 16-C ) :   1.4415 B( 15-C , 17-C ) :   1.4421
B( 16-C , 18-S ) :   1.0680 B( 16-C , 19-S ) :   1.0687 B( 17-C , 20-S ) :   1.0715
B( 17-C , 21-S ) :   1.0725 B( 18-S , 32-C ) :   0.9889 B( 19-S , 31-C ) :   0.9887
B( 20-S , 23-C ) :   0.9886 B( 21-S , 22-C ) :   0.9880 B( 22-C , 24-C ) :   0.9117
B( 22-C , 25-H ) :   0.9668 B( 22-C , 26-H ) :   0.9651 B( 23-C , 24-C ) :   0.9124
B( 23-C , 29-H ) :   0.9652 B( 23-C , 30-H ) :   0.9666 B( 24-C , 27-H ) :   0.9582
B( 24-C , 28-H ) :   0.9698 B( 31-C , 33-C ) :   0.9127 B( 31-C , 38-H ) :   0.9649
B( 31-C , 39-H ) :   0.9671 B( 32-C , 33-C ) :   0.9118 B( 32-C , 34-H ) :   0.9672
B( 32-C , 35-H ) :   0.9649 B( 33-C , 36-H ) :   0.9693 B( 33-C , 37-H ) :   0.9574

FINAL SINGLE POINT ENERGY     -6337.693482635093

DIPOLE MOMENT
-------------
                                X             Y             Z
Electronic contribution:     -7.84493     -11.07128       2.07350
Nuclear contribution   :      8.73994      12.33141      -2.34893
                        -----------------------------------------
Total Dipole Moment    :      0.89500       1.26013      -0.27542
                        -----------------------------------------
Magnitude (a.u.)       :      1.56997
Magnitude (Debye)      :      3.99055

Rotational constants in cm-1:     0.010733     0.000807     0.000786
Rotational constants in MHz :   321.767849    24.200847    23.555873

                             ****ORCA TERMINATED NORMALLY****
TOTAL RUN TIME: 0 days 1 hours 6 minutes 41 seconds 201 msec
