                         Program Version 5.0.4 -  RELEASE  -
|  1> ! nofrozencore ReducedPop printbasis
|  2> ! B3LYP TZVP
|  3>
|  4> %basis
|  5> newgto V "CP(PPP)" end
|  6> end
|  7>
|  8> %pal
|  9> nprocs 6
| 10> end
| 11>
| 12> % sym SymThresh 1e-2 end
| 13> * xyz -2 2
| 14> V 1.049324981263904 0.3706004018313689 0.2549540401463279
| 15> S 0.9096738320179827 -0.0020937791227093757 -2.256571027425617
| 16> S -0.1318616722325309 2.4349215147537913 -0.21125614566005815
| 17> S 0.9613318601899224 -2.1389110837500582 0.2271894145309942
| 18> S -0.1856785923135093 0.11524216499792075 2.3298205504349614
| 19> O 2.4360763158507694 0.9702615127477068 0.8071585781991514
| 20> C -0.6867261093892617 2.6906373767769143 1.4300669390217833
| 21> C -0.7086058478077628 1.7841443446053962 2.4266010609299222
| 22> C 1.193074102024279 -1.7349294372438115 -2.4787706063639354
| 23> C 1.1987148036866146 -2.6069652999012147 -1.455067279759438
| 24> S -1.381897177609357 4.294067560339345 1.7881483240513358
| 25> S -1.4322452512373256 2.306829004638822 3.9716560135558305
| 26> S 1.44837862601376 -4.345816870363426 -1.8788596527820096
| 27> S 1.4759359789390607 -2.4510645954367583 -4.123288851496901
| 28> C -1.8076350679704032 3.948901552442724 3.458815153268831
| 29> C 1.5236748222655845 -4.165034343715343 -3.6421284939780256
| 30> C -2.367241901116723 4.869147804212895 4.2873570841805355
| 31> C 1.6206677167689312 -5.217173653937286 -4.5257812952645695
| 32> S -2.675935674150052 6.5269849179621975 3.728124642121037
| 33> S -2.7900768867402115 4.4209111920138975 5.951932008045229
| 34> S 1.685054359229491 -4.996105555002493 -6.2999993373724195
| 35> S 1.648831705091823 -6.942625261730017 -4.035996082750726
| 36> C 0.06255293587901745 -7.507835134985125 -4.821182176123281
| 37> C 0.052025508311041385 -5.7742911874021905 -6.72120350970177
| 38> C -0.03608190526255709 -7.252089218073113 -6.329817841875887
| 39> H -0.7634183317156408 -7.022477873495273 -4.292988329279015
| 40> H 0.015093598004919499 -8.581095620556722 -4.613678318009341
| 41> H -1.003447869716728 -7.64613825484181 -6.68031191885054
| 42> H 0.7515797432170336 -7.813209983883503 -6.849379108843295
| 43> H -0.05977066938073873 -5.660063842314893 -7.804358133375054
| 44> H -0.7324587375440674 -5.1868561691479655 -6.23292497383131
| 45> C -1.7154207227260279 5.640881593538731 6.8279380018236155
| 46> C -1.6389365843293215 7.421433779722324 4.972705963629595
| 47> C -2.0003941971806443 7.089951692724109 6.423457703967043
| 48> H -0.5879141538263489 7.193077180923139 4.77312752041117
| 49> H -1.8013065363710237 8.484470803013435 4.776327033040409
| 50> H -3.0607925947973165 7.312719032350907 6.595684267239353
| 51> H -1.4151373609422302 7.752909813077311 7.079946652501557
| 52> H -1.9138264115243646 5.496941437468742 7.892971389375858
| 53> H -0.6714395270340444 5.379350408735382 6.6347945623960936
| 54> *
| 55>
| 56> % eprnmr
| 57> gtensor true
| 58> Nuclei = all H {aiso,adip,aorb,fgrad,rho}
| 59> Nuclei = all V {aiso,adip,aorb,fgrad,rho}
| 60> end
| 61>
| 62>                          ****END OF INPUT****

CARTESIAN COORDINATES (ANGSTROEM)
---------------------------------
  V      1.045697    0.371535    0.255769
  S      0.906046   -0.001159   -2.255756
  S     -0.135490    2.435856   -0.210441
  S      0.957704   -2.137977    0.228004
  S     -0.189306    0.116177    2.330635
  O      2.432448    0.971196    0.807973
  C     -0.690354    2.691572    1.430882
  C     -0.712234    1.785079    2.427416
  C      1.189446   -1.733995   -2.477956
  C      1.195087   -2.606031   -1.454252
  S     -1.385525    4.295002    1.788963
  S     -1.435873    2.307763    3.972471
  S      1.444751   -4.344882   -1.878045
  S      1.472308   -2.450130   -4.122474
  C     -1.811263    3.949836    3.459630
  C      1.520047   -4.164100   -3.641314
  C     -2.370870    4.870082    4.288172
  C      1.617040   -5.216239   -4.524966
  S     -2.679564    6.527919    3.728940
  S     -2.793705    4.421846    5.952747
  S      1.681427   -4.995171   -6.299184
  S      1.645204   -6.941691   -4.035181
  C      0.058925   -7.506901   -4.820367
  C      0.048398   -5.773357   -6.720389
  C     -0.039710   -7.251155   -6.329003
  H     -0.767046   -7.021543   -4.292173
  H      0.011466   -8.580161   -4.612863
  H     -1.007076   -7.645204   -6.679497
  H      0.747952   -7.812276   -6.848564
  H     -0.063399   -5.659129   -7.803543
  H     -0.736087   -5.185922   -6.232110
  C     -1.719049    5.641816    6.828753
  C     -1.642564    7.422368    4.973521
  C     -2.004022    7.090886    6.424273
  H     -0.591542    7.194012    4.773942
  H     -1.804934    8.485405    4.777142
  H     -3.064420    7.313653    6.596499
  H     -1.418765    7.753844    7.080762
  H     -1.917454    5.497876    7.893786
  H     -0.675067    5.380285    6.635609

 Total Charge           Charge          ....   -2
 Multiplicity           Mult            ....    2
 Number of Electrons    NEL             ....  321
 Basis Dimension        Dim             ....  681

ORBITAL ENERGIES
----------------
                 SPIN UP ORBITALS
  NO   OCC          E(Eh)            E(eV)
   0   1.0000    -196.676646     -5351.8436
   1   1.0000     -88.734305     -2414.5832
   2   1.0000     -88.733921     -2414.5728
   3   1.0000     -88.733014     -2414.5481
   4   1.0000     -88.732126     -2414.5239
   5   1.0000     -88.731831     -2414.5159
   6   1.0000     -88.731221     -2414.4993
   7   1.0000     -88.728474     -2414.4245
   8   1.0000     -88.728444     -2414.4237
   9   1.0000     -88.641188     -2412.0493
  10   1.0000     -88.640821     -2412.0394
  11   1.0000     -88.638878     -2411.9865
  12   1.0000     -88.638421     -2411.9741
  13   1.0000     -22.051685      -600.0568
  14   1.0000     -18.887329      -513.9504
  15   1.0000     -18.558152      -504.9930
  16   1.0000     -18.552936      -504.8511
  17   1.0000     -18.552911      -504.8504
  18   1.0000     -10.080184      -274.2957
  19   1.0000     -10.071561      -274.0611
  20   1.0000     -10.064592      -273.8715
  21   1.0000     -10.064001      -273.8554
  22   1.0000     -10.063695      -273.8471
  23   1.0000     -10.062844      -273.8239
  24   1.0000     -10.052384      -273.5393
  25   1.0000     -10.051761      -273.5223
  26   1.0000     -10.051538      -273.5163
  27   1.0000     -10.046098      -273.3682
  28   1.0000     -10.018922      -272.6287
  29   1.0000     -10.018015      -272.6040
  30   1.0000     -10.017561      -272.5917
  31   1.0000     -10.016720      -272.5688
  32   1.0000      -7.787856      -211.9183
  33   1.0000      -7.787614      -211.9118
  34   1.0000      -7.786104      -211.8707
  35   1.0000      -7.785422      -211.8521
  36   1.0000      -7.784381      -211.8238
  37   1.0000      -7.784088      -211.8158
  38   1.0000      -7.782259      -211.7660
  39   1.0000      -7.782201      -211.7644
  40   1.0000      -7.695917      -209.4165
  41   1.0000      -7.695615      -209.4083
  42   1.0000      -7.692424      -209.3215
  43   1.0000      -7.692376      -209.3202
  44   1.0000      -5.752847      -156.5429
  45   1.0000      -5.752573      -156.5355
  46   1.0000      -5.751164      -156.4971
  47   1.0000      -5.750419      -156.4769
  48   1.0000      -5.749395      -156.4490
  49   1.0000      -5.749376      -156.4485
  50   1.0000      -5.749144      -156.4422
  51   1.0000      -5.749057      -156.4398
  52   1.0000      -5.747706      -156.4030
  53   1.0000      -5.747179      -156.3887
  54   1.0000      -5.747132      -156.3874
  55   1.0000      -5.747050      -156.3852
  56   1.0000      -5.744985      -156.3290
  57   1.0000      -5.744628      -156.3193
  58   1.0000      -5.742731      -156.2677
  59   1.0000      -5.742688      -156.2665
  60   1.0000      -5.742665      -156.2659
  61   1.0000      -5.742437      -156.2596
  62   1.0000      -5.740860      -156.2167
  63   1.0000      -5.740195      -156.1987
  64   1.0000      -5.740181      -156.1983
  65   1.0000      -5.739940      -156.1917
  66   1.0000      -5.738042      -156.1401
  67   1.0000      -5.737970      -156.1381
  68   1.0000      -5.661119      -154.0469
  69   1.0000      -5.660820      -154.0388
  70   1.0000      -5.657900      -153.9593
  71   1.0000      -5.657760      -153.9555
  72   1.0000      -5.654656      -153.8710
  73   1.0000      -5.654357      -153.8629
  74   1.0000      -5.653154      -153.8301
  75   1.0000      -5.652861      -153.8222
  76   1.0000      -5.651026      -153.7722
  77   1.0000      -5.650935      -153.7698
  78   1.0000      -5.649820      -153.7394
  79   1.0000      -5.649808      -153.7391
  80   1.0000      -2.444671       -66.5229
  81   1.0000      -1.483832       -40.3771
  82   1.0000      -1.474516       -40.1236
  83   1.0000      -1.474186       -40.1146
  84   1.0000      -0.713051       -19.4031
  85   1.0000      -0.705085       -19.1863
  86   1.0000      -0.687467       -18.7069
  87   1.0000      -0.682452       -18.5705
  88   1.0000      -0.646406       -17.5896
  89   1.0000      -0.633310       -17.2332
  90   1.0000      -0.628585       -17.1047
  91   1.0000      -0.619756       -16.8644
  92   1.0000      -0.613620       -16.6975
  93   1.0000      -0.579010       -15.7557
  94   1.0000      -0.573485       -15.6053
  95   1.0000      -0.572418       -15.5763
  96   1.0000      -0.568906       -15.4807
  97   1.0000      -0.499570       -13.5940
  98   1.0000      -0.497027       -13.5248
  99   1.0000      -0.494952       -13.4683
 100   1.0000      -0.491825       -13.3832
 101   1.0000      -0.481665       -13.1068
 102   1.0000      -0.474427       -12.9098
 103   1.0000      -0.447205       -12.1691
 104   1.0000      -0.444725       -12.1016
 105   1.0000      -0.416969       -11.3463
 106   1.0000      -0.410557       -11.1718
 107   1.0000      -0.355632        -9.6772
 108   1.0000      -0.354011        -9.6331
 109   1.0000      -0.327329        -8.9071
 110   1.0000      -0.324915        -8.8414
 111   1.0000      -0.320198        -8.7130
 112   1.0000      -0.312573        -8.5055
 113   1.0000      -0.304016        -8.2727
 114   1.0000      -0.303210        -8.2508
 115   1.0000      -0.293133        -7.9765
 116   1.0000      -0.290461        -7.9038
 117   1.0000      -0.258453        -7.0329
 118   1.0000      -0.257888        -7.0175
 119   1.0000      -0.255547        -6.9538
 120   1.0000      -0.254468        -6.9244
 121   1.0000      -0.235732        -6.4146
 122   1.0000      -0.233249        -6.3470
 123   1.0000      -0.232454        -6.3254
 124   1.0000      -0.227960        -6.2031
 125   1.0000      -0.220995        -6.0136
 126   1.0000      -0.218156        -5.9363
 127   1.0000      -0.214664        -5.8413
 128   1.0000      -0.209348        -5.6967
 129   1.0000      -0.193006        -5.2520
 130   1.0000      -0.187243        -5.0951
 131   1.0000      -0.185935        -5.0595
 132   1.0000      -0.184977        -5.0335
 133   1.0000      -0.178877        -4.8675
 134   1.0000      -0.159597        -4.3429
 135   1.0000      -0.151927        -4.1342
 136   1.0000      -0.146360        -3.9827
 137   1.0000      -0.137385        -3.7384
 138   1.0000      -0.133149        -3.6232
 139   1.0000      -0.132084        -3.5942
 140   1.0000      -0.121748        -3.3129
 141   1.0000      -0.120463        -3.2780
 142   1.0000      -0.110029        -2.9940
 143   1.0000      -0.105800        -2.8790
 144   1.0000      -0.098885        -2.6908
 145   1.0000      -0.098553        -2.6818
 146   1.0000      -0.096195        -2.6176
 147   1.0000      -0.092087        -2.5058
 148   1.0000      -0.072731        -1.9791
 149   1.0000      -0.070584        -1.9207
 150   1.0000      -0.063713        -1.7337
 151   1.0000      -0.056309        -1.5322
 152   1.0000      -0.045779        -1.2457
 153   1.0000      -0.038108        -1.0370
 154   1.0000      -0.030905        -0.8410
 155   1.0000      -0.030479        -0.8294
 156   1.0000      -0.024049        -0.6544
 157   1.0000      -0.020167        -0.5488
 158   1.0000      -0.014058        -0.3825
 159   1.0000       0.019723         0.5367
 160   1.0000       0.042056         1.1444
 161   0.0000       0.136383         3.7112
 162   0.0000       0.137736         3.7480
 163   0.0000       0.160830         4.3764
 164   0.0000       0.163183         4.4404
 165   0.0000       0.166854         4.5403

                 SPIN DOWN ORBITALS
  NO   OCC          E(Eh)            E(eV)
   0   1.0000    -196.676787     -5351.8475
   1   1.0000     -88.734306     -2414.5832
   2   1.0000     -88.733922     -2414.5728
   3   1.0000     -88.733014     -2414.5481
   4   1.0000     -88.732126     -2414.5239
   5   1.0000     -88.731841     -2414.5161
   6   1.0000     -88.731230     -2414.4995
   7   1.0000     -88.728478     -2414.4246
   8   1.0000     -88.728447     -2414.4238
   9   1.0000     -88.641326     -2412.0531
  10   1.0000     -88.640959     -2412.0431
  11   1.0000     -88.639007     -2411.9900
  12   1.0000     -88.638549     -2411.9775
  13   1.0000     -22.036579      -599.6458
  14   1.0000     -18.891329      -514.0592
  15   1.0000     -18.552722      -504.8452
  16   1.0000     -18.536741      -504.4104
  17   1.0000     -18.536675      -504.4086
  18   1.0000     -10.080185      -274.2958
  19   1.0000     -10.071553      -274.0609
  20   1.0000     -10.064591      -273.8714
  21   1.0000     -10.064000      -273.8554
  22   1.0000     -10.063695      -273.8471
  23   1.0000     -10.062844      -273.8239
  24   1.0000     -10.052383      -273.5393
  25   1.0000     -10.051761      -273.5223
  26   1.0000     -10.051536      -273.5162
  27   1.0000     -10.046077      -273.3677
  28   1.0000     -10.018775      -272.6247
  29   1.0000     -10.017866      -272.6000
  30   1.0000     -10.017269      -272.5837
  31   1.0000     -10.016441      -272.5612
  32   1.0000      -7.787857      -211.9184
  33   1.0000      -7.787615      -211.9118
  34   1.0000      -7.786105      -211.8707
  35   1.0000      -7.785422      -211.8521
  36   1.0000      -7.784392      -211.8241
  37   1.0000      -7.784098      -211.8161
  38   1.0000      -7.782263      -211.7661
  39   1.0000      -7.782206      -211.7646
  40   1.0000      -7.696045      -209.4200
  41   1.0000      -7.695742      -209.4118
  42   1.0000      -7.692546      -209.3248
  43   1.0000      -7.692496      -209.3235
  44   1.0000      -5.752848      -156.5430
  45   1.0000      -5.752574      -156.5355
  46   1.0000      -5.751165      -156.4972
  47   1.0000      -5.750420      -156.4769
  48   1.0000      -5.749396      -156.4490
  49   1.0000      -5.749389      -156.4488
  50   1.0000      -5.749146      -156.4422
  51   1.0000      -5.749070      -156.4401
  52   1.0000      -5.747706      -156.4030
  53   1.0000      -5.747180      -156.3887
  54   1.0000      -5.747134      -156.3875
  55   1.0000      -5.747051      -156.3852
  56   1.0000      -5.745002      -156.3295
  57   1.0000      -5.744644      -156.3197
  58   1.0000      -5.742735      -156.2678
  59   1.0000      -5.742694      -156.2666
  60   1.0000      -5.742665      -156.2659
  61   1.0000      -5.742437      -156.2597
  62   1.0000      -5.740861      -156.2168
  63   1.0000      -5.740203      -156.1989
  64   1.0000      -5.740182      -156.1983
  65   1.0000      -5.739948      -156.1919
  66   1.0000      -5.738047      -156.1402
  67   1.0000      -5.737977      -156.1383
  68   1.0000      -5.661255      -154.0506
  69   1.0000      -5.660960      -154.0426
  70   1.0000      -5.658026      -153.9627
  71   1.0000      -5.657888      -153.9590
  72   1.0000      -5.655075      -153.8824
  73   1.0000      -5.654768      -153.8741
  74   1.0000      -5.653204      -153.8315
  75   1.0000      -5.652919      -153.8238
  76   1.0000      -5.651362      -153.7814
  77   1.0000      -5.651273      -153.7790
  78   1.0000      -5.649908      -153.7418
  79   1.0000      -5.649907      -153.7418
  80   1.0000      -2.399268       -65.2874
  81   1.0000      -1.463855       -39.8335
  82   1.0000      -1.412218       -38.4284
  83   1.0000      -1.411509       -38.4091
  84   1.0000      -0.713000       -19.4017
  85   1.0000      -0.705083       -19.1863
  86   1.0000      -0.687386       -18.7047
  87   1.0000      -0.682432       -18.5699
  88   1.0000      -0.655219       -17.8294
  89   1.0000      -0.633215       -17.2307
  90   1.0000      -0.628561       -17.1040
  91   1.0000      -0.619754       -16.8644
  92   1.0000      -0.613622       -16.6975
  93   1.0000      -0.578914       -15.7531
  94   1.0000      -0.573453       -15.6045
  95   1.0000      -0.572294       -15.5729
  96   1.0000      -0.568931       -15.4814
  97   1.0000      -0.499591       -13.5946
  98   1.0000      -0.497006       -13.5242
  99   1.0000      -0.495003       -13.4697
 100   1.0000      -0.491873       -13.3845
 101   1.0000      -0.481789       -13.1102
 102   1.0000      -0.474729       -12.9180
 103   1.0000      -0.447214       -12.1693
 104   1.0000      -0.444778       -12.1030
 105   1.0000      -0.416964       -11.3462
 106   1.0000      -0.410676       -11.1751
 107   1.0000      -0.355612        -9.6767
 108   1.0000      -0.354011        -9.6331
 109   1.0000      -0.327301        -8.9063
 110   1.0000      -0.324913        -8.8413
 111   1.0000      -0.320107        -8.7106
 112   1.0000      -0.312605        -8.5064
 113   1.0000      -0.303977        -8.2716
 114   1.0000      -0.303169        -8.2497
 115   1.0000      -0.293125        -7.9763
 116   1.0000      -0.290458        -7.9038
 117   1.0000      -0.258369        -7.0306
 118   1.0000      -0.257715        -7.0128
 119   1.0000      -0.255522        -6.9531
 120   1.0000      -0.254438        -6.9236
 121   1.0000      -0.235676        -6.4131
 122   1.0000      -0.233234        -6.3466
 123   1.0000      -0.232403        -6.3240
 124   1.0000      -0.227931        -6.2023
 125   1.0000      -0.220680        -6.0050
 126   1.0000      -0.218003        -5.9322
 127   1.0000      -0.214393        -5.8339
 128   1.0000      -0.209187        -5.6923
 129   1.0000      -0.191500        -5.2110
 130   1.0000      -0.186749        -5.0817
 131   1.0000      -0.185881        -5.0581
 132   1.0000      -0.184779        -5.0281
 133   1.0000      -0.178756        -4.8642
 134   1.0000      -0.158874        -4.3232
 135   1.0000      -0.151761        -4.1296
 136   1.0000      -0.146268        -3.9802
 137   1.0000      -0.137011        -3.7282
 138   1.0000      -0.132922        -3.6170
 139   1.0000      -0.131755        -3.5852
 140   1.0000      -0.121232        -3.2989
 141   1.0000      -0.120166        -3.2699
 142   1.0000      -0.111707        -3.0397
 143   1.0000      -0.107311        -2.9201
 144   1.0000      -0.099289        -2.7018
 145   1.0000      -0.098540        -2.6814
 146   1.0000      -0.096522        -2.6265
 147   1.0000      -0.092799        -2.5252
 148   1.0000      -0.070607        -1.9213
 149   1.0000      -0.069319        -1.8863
 150   1.0000      -0.063695        -1.7332
 151   1.0000      -0.053861        -1.4656
 152   1.0000      -0.044858        -1.2207
 153   1.0000      -0.038118        -1.0372
 154   1.0000      -0.030430        -0.8281
 155   1.0000      -0.029984        -0.8159
 156   1.0000      -0.025297        -0.6884
 157   1.0000      -0.014245        -0.3876
 158   1.0000       0.020044         0.5454
 159   1.0000       0.039982         1.0880
 160   0.0000       0.136384         3.7112
 161   0.0000       0.137757         3.7486
 162   0.0000       0.155788         4.2392
 163   0.0000       0.162580         4.4240
 164   0.0000       0.163766         4.4563

MULLIKEN ATOMIC CHARGES AND SPIN POPULATIONS
--------------------------------------------
   0 V :    0.464718    1.217990
   1 S :   -0.303946   -0.021199
   2 S :   -0.272871   -0.026567
   3 S :   -0.293758   -0.021262
   4 S :   -0.268652   -0.027076
   5 O :   -0.476863   -0.154837
   6 C :   -0.071504    0.011821
   7 C :   -0.072377    0.009826
   8 C :   -0.085639    0.005294
   9 C :   -0.104085    0.005177
  10 S :    0.100919    0.000085
  11 S :    0.100425   -0.000107
  12 S :    0.099490   -0.000690
  13 S :    0.093894   -0.000744
  14 C :   -0.233200    0.002743
  15 C :   -0.184108    0.000298
  16 C :   -0.164332   -0.000619
  17 C :   -0.219545   -0.000003
  18 S :    0.009938   -0.000138
  19 S :    0.010233   -0.000137
  20 S :    0.006261   -0.000096
  21 S :    0.005884   -0.000091
  22 C :   -0.299361    0.000027
  23 C :   -0.307141    0.000020
  24 C :   -0.155062   -0.000026
  25 H :    0.142080   -0.000003
  26 H :    0.111888    0.000003
  27 H :    0.083241    0.000004
  28 H :    0.090807    0.000001
  29 H :    0.114622    0.000000
  30 H :    0.147802   -0.000002
  31 C :   -0.300060    0.000346
  32 C :   -0.299014    0.000336
  33 C :   -0.157732   -0.000493
  34 H :    0.140301   -0.000024
  35 H :    0.113354    0.000035
  36 H :    0.093379    0.000054
  37 H :    0.083238    0.000044
  38 H :    0.114390    0.000037
  39 H :    0.142386   -0.000027
Sum of atomic charges         :   -2.0000000

LOEWDIN ATOMIC CHARGES AND SPIN POPULATIONS
-------------------------------------------
   0 V :   -0.146792    1.171051
   1 S :    0.050071   -0.014705
   2 S :    0.106043   -0.015820
   3 S :    0.065460   -0.014333
   4 S :    0.106882   -0.016282
   5 O :   -0.337340   -0.139555
   6 C :   -0.551368    0.011003
   7 C :   -0.552776    0.009624
   8 C :   -0.547874    0.005436
   9 C :   -0.550507    0.005541
  10 S :    0.477713   -0.000307
  11 S :    0.475889   -0.000476
  12 S :    0.466917   -0.001043
  13 S :    0.460043   -0.001039
  14 C :   -0.469920    0.000273
  15 C :   -0.460153   -0.000140
  16 C :   -0.624236    0.000879
  17 C :   -0.617109    0.000070
  18 S :    0.364668   -0.000096
  19 S :    0.367923   -0.000094
  20 S :    0.350667   -0.000091
  21 S :    0.349388   -0.000083
  22 C :   -0.284519    0.000008
  23 C :   -0.283242    0.000003
  24 C :   -0.175955   -0.000000
  25 H :    0.062165   -0.000001
  26 H :    0.053959    0.000001
  27 H :    0.058562    0.000000
  28 H :    0.060170    0.000000
  29 H :    0.053893    0.000000
  30 H :    0.065049   -0.000001
  31 C :   -0.283545    0.000053
  32 C :   -0.283209    0.000043
  33 C :   -0.176880    0.000026
  34 H :    0.061674    0.000002
  35 H :    0.053418    0.000016
  36 H :    0.061116    0.000012
  37 H :    0.057932    0.000005
  38 H :    0.053391    0.000017
  39 H :    0.062434    0.000002

  Mayer bond orders larger than 0.100000
B(  0-V ,  1-S ) :   0.7187 B(  0-V ,  2-S ) :   0.8186 B(  0-V ,  3-S ) :   0.7345
B(  0-V ,  4-S ) :   0.8221 B(  0-V ,  5-O ) :   2.1387 B(  1-S ,  8-C ) :   1.1008
B(  2-S ,  6-C ) :   1.1097 B(  3-S ,  9-C ) :   1.1029 B(  4-S ,  7-C ) :   1.1118
B(  6-C ,  7-C ) :   1.6566 B(  6-C , 10-S ) :   0.9471 B(  7-C , 11-S ) :   0.9475
B(  8-C ,  9-C ) :   1.7202 B(  8-C , 13-S ) :   0.9172 B(  9-C , 12-S ) :   0.9290
B( 10-S , 14-C ) :   1.2525 B( 11-S , 14-C ) :   1.2500 B( 12-S , 15-C ) :   1.2400
B( 13-S , 15-C ) :   1.2346 B( 14-C , 16-C ) :   1.4507 B( 15-C , 17-C ) :   1.4541
B( 16-C , 18-S ) :   1.0833 B( 16-C , 19-S ) :   1.0865 B( 17-C , 20-S ) :   1.0948
B( 17-C , 21-S ) :   1.0887 B( 18-S , 32-C ) :   0.9911 B( 19-S , 31-C ) :   0.9881
B( 20-S , 23-C ) :   0.9863 B( 21-S , 22-C ) :   0.9957 B( 22-C , 24-C ) :   0.9148
B( 22-C , 25-H ) :   0.9644 B( 22-C , 26-H ) :   0.9660 B( 23-C , 24-C ) :   0.9095
B( 23-C , 29-H ) :   0.9654 B( 23-C , 30-H ) :   0.9661 B( 24-C , 27-H ) :   0.9628
B( 24-C , 28-H ) :   0.9727 B( 31-C , 33-C ) :   0.9125 B( 31-C , 38-H ) :   0.9654
B( 31-C , 39-H ) :   0.9659 B( 32-C , 33-C ) :   0.9150 B( 32-C , 34-H ) :   0.9647
B( 32-C , 35-H ) :   0.9657 B( 33-C , 36-H ) :   0.9709 B( 33-C , 37-H ) :   0.9614

FINAL SINGLE POINT ENERGY     -6337.696598533304

DIPOLE MOMENT
-------------
                                X             Y             Z
Electronic contribution:     13.69833       2.01416       0.18817
Nuclear contribution   :    -15.37264      -1.94316       0.06183
                        -----------------------------------------
Total Dipole Moment    :     -1.67431       0.07100       0.25000
                        -----------------------------------------
Magnitude (a.u.)       :      1.69436
Magnitude (Debye)      :      4.30672

Rotational constants in cm-1:     0.010790     0.000803     0.000782
Rotational constants in MHz :   323.483742    24.087413    23.458260

                             ****ORCA TERMINATED NORMALLY****
TOTAL RUN TIME: 0 days 1 hours 6 minutes 55 seconds 943 msec
