                         Program Version 5.0.4 -  RELEASE  -
|  1> ! nofrozencore ReducedPop printbasis
|  2> ! B3LYP TZVP
|  3>
|  4> %basis
|  5> newgto V "CP(PPP)" end
|  6> end
|  7>
|  8> %pal
|  9> nprocs 6
| 10> end
| 11>
| 12> % sym SymThresh 1e-2 end
| 13> * xyz -2 2
| 14> V -0.36089040548513884 0.8048094553026618 0.6713327093872343
| 15> S 1.8373192409949008 1.714181744810858 -0.022073345558004786
| 16> S -1.0422187918040215 1.2193943956674416 -1.6661151357209383
| 17> S 0.9242300752700335 -0.6798788907442636 2.1750024204335263
| 18> S -1.9683189521545856 -1.0733825661222347 0.6076383361662758
| 19> O -1.047754528117001 1.9371656031758353 1.5496616686285825
| 20> C -2.5809658696739985 0.3654699078953765 -1.666138434274561
| 21> C -2.9508499935647663 -0.5553811420169338 -0.7543550035088146
| 22> C 2.909584684894653 0.9300473000956896 1.1286560760905866
| 23> C 2.5463429516975924 -0.02642139143397844 2.0031742638611556
| 24> S -3.733183891966505 0.6664073846351087 -3.010529815021204
| 25> S -4.539441138269326 -1.3507590783071737 -1.0179353094744499
| 26> S 3.8515651337078336 -0.7077760656945147 3.03273361271859
| 27> S 4.6446249120434855 1.3952973428913664 1.1284877670113793
| 28> C -4.960660948059351 -0.5072914093250743 -2.5142891197904986
| 29> C 5.181528606482643 0.23577595026169088 2.350660553368825
| 30> C -6.1191712888437575 -0.7300849503429452 -3.2066978630500835
| 31> C 6.4865508179830575 0.09101817609684616 2.732934243255284
| 32> S -6.51952818046437 0.17714441941725925 -4.6896742525257835
| 33> S -7.33465894358931 -1.9140695131285035 -2.6532042148736608
| 34> S 7.790769407226475 1.0709109000548345 2.014663801087362
| 35> S 6.985919051018187 -1.1185468582749984 3.944487223570801
| 36> C 8.060395511375612 -2.161008596761603 2.8529064188205226
| 37> C 8.750331833369662 -0.29775877699451014 1.2159447716496996
| 38> C 9.203969730110117 -1.3848559787958672 2.1944114860445
| 39> H 7.423220000065867 -2.6291418492183913 2.099011740472548
| 40> H 8.457741311775905 -2.947413698589623 3.5005389378103526
| 41> H 9.830588614758836 -2.1008930134673136 1.6432355664058458
| 42> H 9.830075160282705 -0.9350429608196243 2.9716483105918847
| 43> H 9.616701292149619 0.18492974727972447 0.7561971429997089
| 44> H 8.134775388885714 -0.7232774598281432 0.4200384919704848
| 45> C -8.739592617614985 -0.7425217662649349 -2.3479954338538285
| 46> C -8.043690446831555 1.0381313462492838 -4.076203908537751
| 47> C -9.132645773151525 0.0813455610749563 -3.5780847303557515
| 48> H -7.747374721419711 1.7339043476759608 -3.2870354049852044
| 49> H -8.409147997772594 1.622455834424714 -4.925796512173575
| 50> H -9.418741159799575 -0.5954121121472714 -4.390338719604519
| 51> H -10.020675573877574 0.6785238245273072 -3.319743864851498
| 52> H -9.576320158959005 -1.370513084543634 -2.025882868291764
| 53> H -8.462982652101822 -0.08975228213053993 -1.5161100507885168
| 54> *
| 55>
| 56> % eprnmr
| 57> gtensor true
| 58> Nuclei = all H {aiso,adip,aorb,fgrad,rho}
| 59> Nuclei = all V {aiso,adip,aorb,fgrad,rho}
| 60> end
| 61>
| 62>                          ****END OF INPUT****

CARTESIAN COORDINATES (ANGSTROEM)
---------------------------------
  V     -0.361854    0.802456    0.668464
  S      1.836356    1.711828   -0.024942
  S     -1.043182    1.217040   -1.668984
  S      0.923266   -0.682233    2.172134
  S     -1.969283   -1.075736    0.604770
  O     -1.048718    1.934812    1.546793
  C     -2.581929    0.363116   -1.669007
  C     -2.951814   -0.557735   -0.757224
  C      2.908621    0.927693    1.125788
  C      2.545379   -0.028775    2.000306
  S     -3.734147    0.664053   -3.013398
  S     -4.540405   -1.353113   -1.020804
  S      3.850602   -0.710130    3.029865
  S      4.643661    1.392943    1.125619
  C     -4.961625   -0.509645   -2.517158
  C      5.180565    0.233422    2.347792
  C     -6.120135   -0.732439   -3.209566
  C      6.485587    0.088664    2.730066
  S     -6.520492    0.174791   -4.692543
  S     -7.335623   -1.916423   -2.656073
  S      7.789806    1.068557    2.011795
  S      6.984955   -1.120901    3.941619
  C      8.059432   -2.163362    2.850038
  C      8.749368   -0.300113    1.213076
  C      9.203006   -1.387210    2.191543
  H      7.422256   -2.631496    2.096143
  H      8.456778   -2.949768    3.497670
  H      9.829625   -2.103247    1.640367
  H      9.829112   -0.937397    2.968780
  H      9.615738    0.182576    0.753329
  H      8.133812   -0.725631    0.417170
  C     -8.740556   -0.744876   -2.350864
  C     -8.044654    1.035777   -4.079072
  C     -9.133609    0.078992   -3.580953
  H     -7.748338    1.731550   -3.289904
  H     -8.410112    1.620102   -4.928665
  H     -9.419705   -0.597766   -4.393207
  H    -10.021639    0.676170   -3.322612
  H     -9.577284   -1.372867   -2.028751
  H     -8.463946   -0.092106   -1.518979

 Total Charge           Charge          ....   -2
 Multiplicity           Mult            ....    2
 Number of Electrons    NEL             ....  321
 Basis Dimension        Dim             ....  681

ORBITAL ENERGIES
----------------
                 SPIN UP ORBITALS
  NO   OCC          E(Eh)            E(eV)
   0   1.0000    -196.674516     -5351.7857
   1   1.0000     -88.733386     -2414.5582
   2   1.0000     -88.733301     -2414.5559
   3   1.0000     -88.733036     -2414.5487
   4   1.0000     -88.732999     -2414.5476
   5   1.0000     -88.729988     -2414.4657
   6   1.0000     -88.729888     -2414.4630
   7   1.0000     -88.729844     -2414.4618
   8   1.0000     -88.729763     -2414.4596
   9   1.0000     -88.639636     -2412.0071
  10   1.0000     -88.639369     -2411.9999
  11   1.0000     -88.639097     -2411.9924
  12   1.0000     -88.639034     -2411.9908
  13   1.0000     -22.049885      -600.0079
  14   1.0000     -18.889749      -514.0162
  15   1.0000     -18.556355      -504.9441
  16   1.0000     -18.551151      -504.8025
  17   1.0000     -18.551052      -504.7998
  18   1.0000     -10.075687      -274.1734
  19   1.0000     -10.075662      -274.1727
  20   1.0000     -10.063851      -273.8513
  21   1.0000     -10.063818      -273.8504
  22   1.0000     -10.063164      -273.8326
  23   1.0000     -10.063149      -273.8322
  24   1.0000     -10.051769      -273.5225
  25   1.0000     -10.051093      -273.5041
  26   1.0000     -10.048444      -273.4321
  27   1.0000     -10.048243      -273.4266
  28   1.0000     -10.018013      -272.6040
  29   1.0000     -10.017629      -272.5935
  30   1.0000     -10.017216      -272.5823
  31   1.0000     -10.016826      -272.5717
  32   1.0000      -7.786704      -211.8870
  33   1.0000      -7.786647      -211.8854
  34   1.0000      -7.786470      -211.8806
  35   1.0000      -7.786400      -211.8787
  36   1.0000      -7.783203      -211.7917
  37   1.0000      -7.783145      -211.7901
  38   1.0000      -7.783124      -211.7896
  39   1.0000      -7.783029      -211.7870
  40   1.0000      -7.693838      -209.3600
  41   1.0000      -7.693707      -209.3564
  42   1.0000      -7.693405      -209.3482
  43   1.0000      -7.693321      -209.3459
  44   1.0000      -5.751703      -156.5118
  45   1.0000      -5.751643      -156.5102
  46   1.0000      -5.751463      -156.5053
  47   1.0000      -5.751394      -156.5034
  48   1.0000      -5.748299      -156.4192
  49   1.0000      -5.748244      -156.4177
  50   1.0000      -5.748158      -156.4153
  51   1.0000      -5.748089      -156.4135
  52   1.0000      -5.748075      -156.4131
  53   1.0000      -5.748038      -156.4121
  54   1.0000      -5.747981      -156.4105
  55   1.0000      -5.747972      -156.4103
  56   1.0000      -5.743715      -156.2944
  57   1.0000      -5.743660      -156.2929
  58   1.0000      -5.743639      -156.2924
  59   1.0000      -5.743557      -156.2901
  60   1.0000      -5.741496      -156.2341
  61   1.0000      -5.741434      -156.2324
  62   1.0000      -5.741269      -156.2279
  63   1.0000      -5.741202      -156.2260
  64   1.0000      -5.739027      -156.1669
  65   1.0000      -5.738969      -156.1653
  66   1.0000      -5.738933      -156.1643
  67   1.0000      -5.738840      -156.1618
  68   1.0000      -5.659159      -153.9936
  69   1.0000      -5.659007      -153.9894
  70   1.0000      -5.658715      -153.9815
  71   1.0000      -5.658650      -153.9797
  72   1.0000      -5.652491      -153.8121
  73   1.0000      -5.652359      -153.8085
  74   1.0000      -5.652081      -153.8009
  75   1.0000      -5.651977      -153.7981
  76   1.0000      -5.651161      -153.7759
  77   1.0000      -5.651034      -153.7724
  78   1.0000      -5.650714      -153.7637
  79   1.0000      -5.650633      -153.7615
  80   1.0000      -2.443508       -66.4912
  81   1.0000      -1.484811       -40.4038
  82   1.0000      -1.473114       -40.0855
  83   1.0000      -1.472322       -40.0639
  84   1.0000      -0.709040       -19.2940
  85   1.0000      -0.708550       -19.2806
  86   1.0000      -0.684989       -18.6395
  87   1.0000      -0.684651       -18.6303
  88   1.0000      -0.649356       -17.6699
  89   1.0000      -0.630832       -17.1658
  90   1.0000      -0.630587       -17.1591
  91   1.0000      -0.616669       -16.7804
  92   1.0000      -0.616375       -16.7724
  93   1.0000      -0.574211       -15.6251
  94   1.0000      -0.573971       -15.6185
  95   1.0000      -0.572973       -15.5914
  96   1.0000      -0.572033       -15.5658
  97   1.0000      -0.496507       -13.5106
  98   1.0000      -0.495865       -13.4932
  99   1.0000      -0.495261       -13.4767
 100   1.0000      -0.494829       -13.4650
 101   1.0000      -0.479480       -13.0473
 102   1.0000      -0.476841       -12.9755
 103   1.0000      -0.446947       -12.1620
 104   1.0000      -0.444797       -12.1035
 105   1.0000      -0.416010       -11.3202
 106   1.0000      -0.410746       -11.1770
 107   1.0000      -0.354723        -9.6525
 108   1.0000      -0.354613        -9.6495
 109   1.0000      -0.326090        -8.8734
 110   1.0000      -0.325858        -8.8670
 111   1.0000      -0.318640        -8.6706
 112   1.0000      -0.314064        -8.5461
 113   1.0000      -0.303976        -8.2716
 114   1.0000      -0.303180        -8.2499
 115   1.0000      -0.291944        -7.9442
 116   1.0000      -0.291628        -7.9356
 117   1.0000      -0.257606        -7.0098
 118   1.0000      -0.257416        -7.0046
 119   1.0000      -0.255499        -6.9525
 120   1.0000      -0.255290        -6.9468
 121   1.0000      -0.234133        -6.3711
 122   1.0000      -0.233599        -6.3565
 123   1.0000      -0.230906        -6.2833
 124   1.0000      -0.229635        -6.2487
 125   1.0000      -0.219688        -5.9780
 126   1.0000      -0.217801        -5.9267
 127   1.0000      -0.213768        -5.8169
 128   1.0000      -0.211579        -5.7574
 129   1.0000      -0.192639        -5.2420
 130   1.0000      -0.186956        -5.0873
 131   1.0000      -0.185525        -5.0484
 132   1.0000      -0.184343        -5.0162
 133   1.0000      -0.179131        -4.8744
 134   1.0000      -0.159080        -4.3288
 135   1.0000      -0.151311        -4.1174
 136   1.0000      -0.146510        -3.9867
 137   1.0000      -0.135379        -3.6838
 138   1.0000      -0.133956        -3.6451
 139   1.0000      -0.132705        -3.6111
 140   1.0000      -0.124753        -3.3947
 141   1.0000      -0.120771        -3.2863
 142   1.0000      -0.112937        -3.0732
 143   1.0000      -0.109274        -2.9735
 144   1.0000      -0.099331        -2.7029
 145   1.0000      -0.097733        -2.6594
 146   1.0000      -0.097107        -2.6424
 147   1.0000      -0.094330        -2.5668
 148   1.0000      -0.074036        -2.0146
 149   1.0000      -0.067632        -1.8404
 150   1.0000      -0.067030        -1.8240
 151   1.0000      -0.051977        -1.4144
 152   1.0000      -0.045137        -1.2282
 153   1.0000      -0.037149        -1.0109
 154   1.0000      -0.036790        -1.0011
 155   1.0000      -0.031087        -0.8459
 156   1.0000      -0.024473        -0.6659
 157   1.0000      -0.018730        -0.5097
 158   1.0000      -0.014898        -0.4054
 159   1.0000       0.020970         0.5706
 160   1.0000       0.041618         1.1325
 161   0.0000       0.136915         3.7257
 162   0.0000       0.137548         3.7429
 163   0.0000       0.162024         4.4089
 164   0.0000       0.162501         4.4219
 165   0.0000       0.170512         4.6399

                 SPIN DOWN ORBITALS
  NO   OCC          E(Eh)            E(eV)
   0   1.0000    -196.674663     -5351.7897
   1   1.0000     -88.733387     -2414.5582
   2   1.0000     -88.733302     -2414.5559
   3   1.0000     -88.733037     -2414.5487
   4   1.0000     -88.732999     -2414.5477
   5   1.0000     -88.729997     -2414.4660
   6   1.0000     -88.729897     -2414.4632
   7   1.0000     -88.729852     -2414.4620
   8   1.0000     -88.729772     -2414.4598
   9   1.0000     -88.639774     -2412.0109
  10   1.0000     -88.639506     -2412.0036
  11   1.0000     -88.639229     -2411.9960
  12   1.0000     -88.639173     -2411.9945
  13   1.0000     -22.034953      -599.6015
  14   1.0000     -18.893539      -514.1193
  15   1.0000     -18.551085      -504.8007
  16   1.0000     -18.535110      -504.3660
  17   1.0000     -18.534942      -504.3614
  18   1.0000     -10.075680      -274.1732
  19   1.0000     -10.075662      -274.1727
  20   1.0000     -10.063850      -273.8513
  21   1.0000     -10.063817      -273.8504
  22   1.0000     -10.063164      -273.8326
  23   1.0000     -10.063150      -273.8322
  24   1.0000     -10.051769      -273.5225
  25   1.0000     -10.051093      -273.5041
  26   1.0000     -10.048432      -273.4317
  27   1.0000     -10.048239      -273.4265
  28   1.0000     -10.017781      -272.5977
  29   1.0000     -10.017419      -272.5878
  30   1.0000     -10.016985      -272.5760
  31   1.0000     -10.016617      -272.5660
  32   1.0000      -7.786705      -211.8870
  33   1.0000      -7.786647      -211.8855
  34   1.0000      -7.786471      -211.8806
  35   1.0000      -7.786400      -211.8787
  36   1.0000      -7.783212      -211.7920
  37   1.0000      -7.783155      -211.7904
  38   1.0000      -7.783133      -211.7898
  39   1.0000      -7.783038      -211.7872
  40   1.0000      -7.693967      -209.3635
  41   1.0000      -7.693835      -209.3599
  42   1.0000      -7.693528      -209.3515
  43   1.0000      -7.693449      -209.3494
  44   1.0000      -5.751704      -156.5118
  45   1.0000      -5.751644      -156.5102
  46   1.0000      -5.751463      -156.5053
  47   1.0000      -5.751395      -156.5034
  48   1.0000      -5.748301      -156.4192
  49   1.0000      -5.748245      -156.4177
  50   1.0000      -5.748169      -156.4156
  51   1.0000      -5.748100      -156.4138
  52   1.0000      -5.748085      -156.4134
  53   1.0000      -5.748039      -156.4121
  54   1.0000      -5.747983      -156.4106
  55   1.0000      -5.747982      -156.4105
  56   1.0000      -5.743729      -156.2948
  57   1.0000      -5.743674      -156.2933
  58   1.0000      -5.743653      -156.2927
  59   1.0000      -5.743571      -156.2905
  60   1.0000      -5.741497      -156.2341
  61   1.0000      -5.741435      -156.2324
  62   1.0000      -5.741270      -156.2279
  63   1.0000      -5.741203      -156.2261
  64   1.0000      -5.739036      -156.1671
  65   1.0000      -5.738978      -156.1655
  66   1.0000      -5.738939      -156.1645
  67   1.0000      -5.738846      -156.1619
  68   1.0000      -5.659297      -153.9973
  69   1.0000      -5.659148      -153.9932
  70   1.0000      -5.658854      -153.9852
  71   1.0000      -5.658788      -153.9834
  72   1.0000      -5.652878      -153.8226
  73   1.0000      -5.652713      -153.8181
  74   1.0000      -5.652431      -153.8105
  75   1.0000      -5.652364      -153.8087
  76   1.0000      -5.651238      -153.7780
  77   1.0000      -5.651137      -153.7752
  78   1.0000      -5.650804      -153.7662
  79   1.0000      -5.650713      -153.7637
  80   1.0000      -2.398627       -65.2700
  81   1.0000      -1.465507       -39.8785
  82   1.0000      -1.410767       -38.3889
  83   1.0000      -1.410601       -38.3844
  84   1.0000      -0.709025       -19.2936
  85   1.0000      -0.708522       -19.2799
  86   1.0000      -0.684948       -18.6384
  87   1.0000      -0.684594       -18.6287
  88   1.0000      -0.657490       -17.8912
  89   1.0000      -0.630777       -17.1643
  90   1.0000      -0.630507       -17.1570
  91   1.0000      -0.616671       -16.7805
  92   1.0000      -0.616374       -16.7724
  93   1.0000      -0.574188       -15.6245
  94   1.0000      -0.573942       -15.6178
  95   1.0000      -0.572898       -15.5893
  96   1.0000      -0.571957       -15.5638
  97   1.0000      -0.496521       -13.5110
  98   1.0000      -0.495909       -13.4944
  99   1.0000      -0.495302       -13.4778
 100   1.0000      -0.494858       -13.4658
 101   1.0000      -0.479666       -13.0524
 102   1.0000      -0.477088       -12.9822
 103   1.0000      -0.446964       -12.1625
 104   1.0000      -0.444841       -12.1047
 105   1.0000      -0.416003       -11.3200
 106   1.0000      -0.410849       -11.1798
 107   1.0000      -0.354718        -9.6524
 108   1.0000      -0.354603        -9.6492
 109   1.0000      -0.326075        -8.8730
 110   1.0000      -0.325847        -8.8668
 111   1.0000      -0.318561        -8.6685
 112   1.0000      -0.314090        -8.5468
 113   1.0000      -0.303923        -8.2702
 114   1.0000      -0.303156        -8.2493
 115   1.0000      -0.291936        -7.9440
 116   1.0000      -0.291626        -7.9355
 117   1.0000      -0.257469        -7.0061
 118   1.0000      -0.257315        -7.0019
 119   1.0000      -0.255464        -6.9515
 120   1.0000      -0.255262        -6.9460
 121   1.0000      -0.234083        -6.3697
 122   1.0000      -0.233591        -6.3563
 123   1.0000      -0.230855        -6.2819
 124   1.0000      -0.229606        -6.2479
 125   1.0000      -0.219338        -5.9685
 126   1.0000      -0.217681        -5.9234
 127   1.0000      -0.213549        -5.8110
 128   1.0000      -0.211450        -5.7538
 129   1.0000      -0.190949        -5.1960
 130   1.0000      -0.186891        -5.0856
 131   1.0000      -0.185137        -5.0378
 132   1.0000      -0.184115        -5.0100
 133   1.0000      -0.179021        -4.8714
 134   1.0000      -0.158460        -4.3119
 135   1.0000      -0.151144        -4.1128
 136   1.0000      -0.146435        -3.9847
 137   1.0000      -0.134736        -3.6664
 138   1.0000      -0.133632        -3.6363
 139   1.0000      -0.132485        -3.6051
 140   1.0000      -0.124156        -3.3785
 141   1.0000      -0.120454        -3.2777
 142   1.0000      -0.114740        -3.1222
 143   1.0000      -0.110851        -3.0164
 144   1.0000      -0.099309        -2.7023
 145   1.0000      -0.098071        -2.6687
 146   1.0000      -0.097085        -2.6418
 147   1.0000      -0.094668        -2.5760
 148   1.0000      -0.070218        -1.9107
 149   1.0000      -0.067626        -1.8402
 150   1.0000      -0.067030        -1.8240
 151   1.0000      -0.049398        -1.3442
 152   1.0000      -0.044204        -1.2028
 153   1.0000      -0.037179        -1.0117
 154   1.0000      -0.036266        -0.9868
 155   1.0000      -0.031023        -0.8442
 156   1.0000      -0.025457        -0.6927
 157   1.0000      -0.015114        -0.4113
 158   1.0000       0.021294         0.5794
 159   1.0000       0.040288         1.0963
 160   0.0000       0.136922         3.7258
 161   0.0000       0.137543         3.7427
 162   0.0000       0.156401         4.2559
 163   0.0000       0.162279         4.4158
 164   0.0000       0.163744         4.4557

MULLIKEN ATOMIC CHARGES AND SPIN POPULATIONS
--------------------------------------------
   0 V :    0.471753    1.209596
   1 S :   -0.291199   -0.021941
   2 S :   -0.287690   -0.025187
   3 S :   -0.289787   -0.022735
   4 S :   -0.287564   -0.025480
   5 O :   -0.468108   -0.146750
   6 C :   -0.079517    0.008902
   7 C :   -0.082030    0.008948
   8 C :   -0.081868    0.007239
   9 C :   -0.087410    0.007505
  10 S :    0.099942   -0.000639
  11 S :    0.100359   -0.000657
  12 S :    0.099786   -0.000373
  13 S :    0.099418   -0.000381
  14 C :   -0.214393    0.001560
  15 C :   -0.211869    0.000943
  16 C :   -0.188985    0.000015
  17 C :   -0.190246   -0.000383
  18 S :    0.008098   -0.000120
  19 S :    0.007965   -0.000120
  20 S :    0.007715   -0.000080
  21 S :    0.007728   -0.000076
  22 C :   -0.301001    0.000008
  23 C :   -0.300168    0.000011
  24 C :   -0.158041   -0.000025
  25 H :    0.143632   -0.000002
  26 H :    0.113650   -0.000004
  27 H :    0.083368    0.000001
  28 H :    0.092078   -0.000000
  29 H :    0.113318   -0.000002
  30 H :    0.143296   -0.000003
  31 C :   -0.299309    0.000223
  32 C :   -0.300189    0.000225
  33 C :   -0.158684   -0.000276
  34 H :    0.142483   -0.000021
  35 H :    0.113265    0.000026
  36 H :    0.092382    0.000028
  37 H :    0.082569    0.000019
  38 H :    0.112985    0.000024
  39 H :    0.142271   -0.000020
Sum of atomic charges         :   -2.0000000

LOEWDIN ATOMIC CHARGES AND SPIN POPULATIONS
-------------------------------------------
   0 V :   -0.155281    1.163028
   1 S :    0.079978   -0.014097
   2 S :    0.080708   -0.015876
   3 S :    0.080794   -0.014728
   4 S :    0.080876   -0.016158
   5 O :   -0.319255   -0.131684
   6 C :   -0.551066    0.008603
   7 C :   -0.550386    0.008449
   8 C :   -0.552110    0.007620
   9 C :   -0.552962    0.007916
  10 S :    0.470975   -0.000958
  11 S :    0.471348   -0.000946
  12 S :    0.470962   -0.000825
  13 S :    0.470504   -0.000856
  14 C :   -0.464282    0.000203
  15 C :   -0.464926   -0.000098
  16 C :   -0.621350    0.000549
  17 C :   -0.621864    0.000086
  18 S :    0.357694   -0.000091
  19 S :    0.357799   -0.000090
  20 S :    0.358629   -0.000080
  21 S :    0.357577   -0.000079
  22 C :   -0.283108   -0.000008
  23 C :   -0.283223   -0.000005
  24 C :   -0.176060   -0.000001
  25 H :    0.062689   -0.000001
  26 H :    0.053691   -0.000002
  27 H :    0.058097   -0.000001
  28 H :    0.060162   -0.000000
  29 H :    0.053572   -0.000002
  30 H :    0.062523   -0.000002
  31 C :   -0.283534    0.000048
  32 C :   -0.283302    0.000049
  33 C :   -0.176357    0.000008
  34 H :    0.062345   -0.000000
  35 H :    0.053670    0.000011
  36 H :    0.060341    0.000006
  37 H :    0.058087    0.000003
  38 H :    0.053818    0.000010
  39 H :    0.062227   -0.000000

  Mayer bond orders larger than 0.100000
B(  0-V ,  1-S ) :   0.7654 B(  0-V ,  2-S ) :   0.7791 B(  0-V ,  3-S ) :   0.7704
B(  0-V ,  4-S ) :   0.7711 B(  0-V ,  5-O ) :   2.1484 B(  1-S ,  8-C ) :   1.1033
B(  2-S ,  6-C ) :   1.1004 B(  3-S ,  9-C ) :   1.1054 B(  4-S ,  7-C ) :   1.1058
B(  6-C ,  7-C ) :   1.6836 B(  6-C , 10-S ) :   0.9357 B(  7-C , 11-S ) :   0.9378
B(  8-C ,  9-C ) :   1.6999 B(  8-C , 13-S ) :   0.9338 B(  9-C , 12-S ) :   0.9344
B( 10-S , 14-C ) :   1.2471 B( 11-S , 14-C ) :   1.2471 B( 12-S , 15-C ) :   1.2465
B( 13-S , 15-C ) :   1.2460 B( 14-C , 16-C ) :   1.4531 B( 15-C , 17-C ) :   1.4539
B( 16-C , 18-S ) :   1.0859 B( 16-C , 19-S ) :   1.0865 B( 17-C , 20-S ) :   1.0880
B( 17-C , 21-S ) :   1.0880 B( 18-S , 32-C ) :   0.9912 B( 19-S , 31-C ) :   0.9916
B( 20-S , 23-C ) :   0.9909 B( 21-S , 22-C ) :   0.9907 B( 22-C , 24-C ) :   0.9134
B( 22-C , 25-H ) :   0.9657 B( 22-C , 26-H ) :   0.9654 B( 23-C , 24-C ) :   0.9138
B( 23-C , 29-H ) :   0.9655 B( 23-C , 30-H ) :   0.9656 B( 24-C , 27-H ) :   0.9624
B( 24-C , 28-H ) :   0.9718 B( 31-C , 33-C ) :   0.9142 B( 31-C , 38-H ) :   0.9654
B( 31-C , 39-H ) :   0.9656 B( 32-C , 33-C ) :   0.9137 B( 32-C , 34-H ) :   0.9656
B( 32-C , 35-H ) :   0.9654 B( 33-C , 36-H ) :   0.9716 B( 33-C , 37-H ) :   0.9622

FINAL SINGLE POINT ENERGY     -6337.707009001025

DIPOLE MOMENT
-------------
                                X             Y             Z
Electronic contribution:     -1.14481       9.35591       9.59739
Nuclear contribution   :      1.30007     -10.41811     -10.66962
                        -----------------------------------------
Total Dipole Moment    :      0.15525      -1.06220      -1.07223
                        -----------------------------------------
Magnitude (a.u.)       :      1.51725
Magnitude (Debye)      :      3.85655

Rotational constants in cm-1:     0.010722     0.000806     0.000785
Rotational constants in MHz :   321.445717    24.152262    23.529347

                             ****ORCA TERMINATED NORMALLY****
TOTAL RUN TIME: 0 days 1 hours 6 minutes 37 seconds 890 msec
